<event>
 7    1  0.5662448E-012  0.5930196E+02  0.7816164E-02  0.1266605E+00
        -11   -1    0    0    0    0  0.00000000000E+00  0.00000000000E+00  0.45593999997E+02  0.45594000000E+02  0.51100000000E-03 0. -1.
         11   -1    0    0    0    0 -0.00000000000E+00 -0.00000000000E+00 -0.45593999997E+02  0.45594000000E+02  0.51100000000E-03 0.  1.
    9900012    2    1    2    0    0 -0.15011347893E+02 -0.27782179401E+02 -0.44191892962E+01  0.59301963999E+02  0.50000036422E+02 0.  0.
         12    1    1    2    0    0  0.15011347893E+02  0.27782179401E+02  0.44191892962E+01  0.31886036001E+02  0.00000000000E+00 0. -1.
         11    1    3    3    0    0 -0.46070232591E+01 -0.25690252905E+02  0.85781581609E+01  0.27473597422E+02  0.51100000000E-03 0. -1.
        -11    1    3    3    0    0 -0.17484623663E+02 -0.77724257320E+01 -0.51147719031E+01  0.19806149507E+02  0.51100000000E-03 0.  1.
        -12    1    3    3    0    0  0.70802990295E+01  0.56804992354E+01 -0.78825755539E+01  0.12022217070E+02  0.00000000000E+00 0.  1.
</event>
<event>
 7    1  0.5662448E-012  0.5930196E+02  0.7816164E-02  0.1266605E+00
        -11   -1    0    0    0    0  0.00000000000E+00  0.00000000000E+00  0.45593999997E+02  0.45594000000E+02  0.51100000000E-03 0. -1.
         11   -1    0    0    0    0 -0.00000000000E+00 -0.00000000000E+00 -0.45593999997E+02  0.45594000000E+02  0.51100000000E-03 0.  1.
    9900012    2    1    2    0    0 -0.12650457587E+02  0.26684614906E+02 -0.12025670464E+02  0.59301960736E+02  0.50000030473E+02 0.  0.
         12    1    1    2    0    0  0.12650457587E+02 -0.26684614906E+02  0.12025670464E+02  0.31886039264E+02  0.00000000000E+00 0. -1.
         11    1    3    3    0    0  0.15029021078E+02  0.14192365362E+01  0.19547349276E+00  0.15097149302E+02  0.51100000000E-03 0. -1.
        -11    1    3    3    0    0 -0.12940839819E+02  0.24320532123E+02 -0.97913532034E+01  0.29237377033E+02  0.51100000000E-03 0.  1.
        -12    1    3    3    0    0 -0.14738638845E+02  0.94484624662E+00 -0.24297907534E+01  0.14967434401E+02  0.00000000000E+00 0.  1.
</event>
<event>
 7    1  0.5662448E-012  0.5930194E+02  0.7816164E-02  0.1266605E+00
        -11   -1    0    0    0    0  0.00000000000E+00  0.00000000000E+00  0.45593999997E+02  0.45594000000E+02  0.51100000000E-03 0. -1.
         11   -1    0    0    0    0 -0.00000000000E+00 -0.00000000000E+00 -0.45593999997E+02  0.45594000000E+02  0.51100000000E-03 0.  1.
    9900012    2    1    2    0    0  0.28231307434E+02  0.93009077882E+01 -0.11541533842E+02  0.59301943352E+02  0.49999998769E+02 0.  0.
         12    1    1    2    0    0 -0.28231307434E+02 -0.93009077882E+01  0.11541533842E+02  0.31886056648E+02  0.00000000000E+00 0. -1.
         11    1    3    3    0    0  0.65113102698E+00  0.69192946794E+01  0.71424111299E+00  0.69864691442E+01  0.51100000000E-03 0. -1.
        -11    1    3    3    0    0  0.16332433211E+02  0.11317256838E+02  0.12656117285E+02  0.23558564937E+02  0.51100000000E-03 0.  1.
        -12    1    3    3    0    0  0.11247743196E+02 -0.89356437290E+01 -0.24911892240E+02  0.28756909271E+02  0.00000000000E+00 0.  1.
</event>
<event>
 7    1  0.5662448E-012  0.5930194E+02  0.7816164E-02  0.1266605E+00
        -11   -1    0    0    0    0  0.00000000000E+00  0.00000000000E+00  0.45593999997E+02  0.45594000000E+02  0.51100000000E-03 0.  1.
         11   -1    0    0    0    0 -0.00000000000E+00 -0.00000000000E+00 -0.45593999997E+02  0.45594000000E+02  0.51100000000E-03 0. -1.
    9900012    2    1    2    0    0 -0.17065072752E+02 -0.23583957556E+02  0.13011570978E+02  0.59301941270E+02  0.49999994970E+02 0.  0.
         12    1    1    2    0    0  0.17065072752E+02  0.23583957556E+02 -0.13011570978E+02  0.31886058730E+02  0.00000000000E+00 0. -1.
         11    1    3    3    0    0 -0.10768262926E+02 -0.19544137427E+01 -0.80457654821E+01  0.13583429684E+02  0.51100000000E-03 0. -1.
        -11    1    3    3    0    0 -0.50627855675E+01 -0.28697498828E+02  0.70512470151E+01  0.29981633068E+02  0.51100000000E-03 0.  1.
        -12    1    3    3    0    0 -0.12340242577E+01  0.70679550144E+01  0.14006089445E+02  0.15736878518E+02  0.00000000000E+00 0.  1.
</event>
<event>
 7    1  0.5662448E-012  0.5930194E+02  0.7816164E-02  0.1266605E+00
        -11   -1    0    0    0    0  0.00000000000E+00  0.00000000000E+00  0.45593999997E+02  0.45594000000E+02  0.51100000000E-03 0. -1.
         11   -1    0    0    0    0 -0.00000000000E+00 -0.00000000000E+00 -0.45593999997E+02  0.45594000000E+02  0.51100000000E-03 0.  1.
    9900012    2    1    2    0    0  0.11428318132E+02  0.17754114048E+02 -0.23893634677E+02  0.59301940365E+02  0.49999993320E+02 0.  0.
         12    1    1    2    0    0 -0.11428318132E+02 -0.17754114048E+02  0.23893634677E+02  0.31886059635E+02  0.00000000000E+00 0. -1.
         11    1    3    3    0    0  0.16967904153E+01  0.66032015006E+01 -0.14864559241E+02  0.16353485544E+02  0.51100000000E-03 0. -1.
        -11    1    3    3    0    0  0.15529321539E+02  0.18261919275E+02 -0.18106625429E+02  0.30041761063E+02  0.51100000000E-03 0.  1.
         12    1    3    3    0    0 -0.57977938229E+01 -0.71110067279E+01  0.90775499919E+01  0.12906693758E+02  0.00000000000E+00 0. -1.
</event>
<event>
 7    1  0.5662448E-012  0.5930213E+02  0.7816164E-02  0.1266604E+00
        -11   -1    0    0    0    0  0.00000000000E+00  0.00000000000E+00  0.45593999997E+02  0.45594000000E+02  0.51100000000E-03 0.  1.
         11   -1    0    0    0    0 -0.00000000000E+00 -0.00000000000E+00 -0.45593999997E+02  0.45594000000E+02  0.51100000000E-03 0. -1.
    9900012    2    1    2    0    0 -0.19935648598E+02 -0.43281148722E+01  0.24506039748E+02  0.59302130913E+02  0.50000340832E+02 0.  0.
         12    1    1    2    0    0  0.19935648598E+02  0.43281148722E+01 -0.24506039748E+02  0.31885869087E+02  0.00000000000E+00 0. -1.
         11    1    3    3    0    0 -0.17785131678E+02 -0.11800424570E+02  0.48205485579E+01  0.21881467444E+02  0.51100000000E-03 0. -1.
        -11    1    3    3    0    0  0.35746390244E+01 -0.69727539172E+01 -0.42271059973E+01  0.89031324105E+01  0.51100000000E-03 0.  1.
         12    1    3    3    0    0 -0.57251559443E+01  0.14445063615E+02  0.23912597187E+02  0.28517531058E+02  0.00000000000E+00 0. -1.
</event>
<event>
 7    1  0.5662448E-012  0.5930196E+02  0.7816164E-02  0.1266605E+00
        -11   -1    0    0    0    0  0.00000000000E+00  0.00000000000E+00  0.45593999997E+02  0.45594000000E+02  0.51100000000E-03 0. -1.
         11   -1    0    0    0    0 -0.00000000000E+00 -0.00000000000E+00 -0.45593999997E+02  0.45594000000E+02  0.51100000000E-03 0.  1.
    9900012    2    1    2    0    0 -0.21022553226E+02  0.22361318807E+02  0.86454234633E+01  0.59301958073E+02  0.50000025615E+02 0.  0.
         12    1    1    2    0    0  0.21022553226E+02 -0.22361318807E+02 -0.86454234633E+01  0.31886041927E+02  0.00000000000E+00 0. -1.
         11    1    3    3    0    0 -0.55161159886E+01 -0.23425802988E+01  0.18012747976E+02  0.18983527280E+02  0.51100000000E-03 0. -1.
        -11    1    3    3    0    0 -0.46079695166E+01  0.26334720931E+02 -0.14969889625E+01  0.26776704162E+02  0.51100000000E-03 0.  1.
         12    1    3    3    0    0 -0.10898467721E+02 -0.16308218252E+01 -0.78703355505E+01  0.13541726632E+02  0.00000000000E+00 0. -1.
</event>
<event>
 7    1  0.5662448E-012  0.5930193E+02  0.7816164E-02  0.1266605E+00
        -11   -1    0    0    0    0  0.00000000000E+00  0.00000000000E+00  0.45593999997E+02  0.45594000000E+02  0.51100000000E-03 0.  1.
         11   -1    0    0    0    0 -0.00000000000E+00 -0.00000000000E+00 -0.45593999997E+02  0.45594000000E+02  0.51100000000E-03 0. -1.
    9900012    2    1    2    0    0  0.21035097519E+02  0.52069014439E+01  0.23390900469E+02  0.59301931333E+02  0.49999976847E+02 0.  0.
         12    1    1    2    0    0 -0.21035097519E+02 -0.52069014439E+01 -0.23390900469E+02  0.31886068667E+02  0.00000000000E+00 0. -1.
         11    1    3    3    0    0  0.59205102513E+01  0.64865898463E+01 -0.20539209479E+01  0.90192505781E+01  0.51100000000E-03 0. -1.
        -11    1    3    3    0    0  0.55214072359E+01  0.17102706327E+02  0.23316247077E+02  0.29438679991E+02  0.51100000000E-03 0.  1.
         12    1    3    3    0    0  0.95931800322E+01 -0.18382394730E+02  0.21285743402E+01  0.20844000764E+02  0.00000000000E+00 0. -1.
</event>
<event>
 7    1  0.5662448E-012  0.5930188E+02  0.7816164E-02  0.1266605E+00
        -11   -1    0    0    0    0  0.00000000000E+00  0.00000000000E+00  0.45593999997E+02  0.45594000000E+02  0.51100000000E-03 0.  1.
         11   -1    0    0    0    0 -0.00000000000E+00 -0.00000000000E+00 -0.45593999997E+02  0.45594000000E+02  0.51100000000E-03 0. -1.
    9900012    2    1    2    0    0 -0.14327411722E+02 -0.14138720769E+01  0.28450846596E+02  0.59301883382E+02  0.49999889397E+02 0.  0.
         12    1    1    2    0    0  0.14327411722E+02  0.14138720769E+01 -0.28450846596E+02  0.31886116618E+02  0.00000000000E+00 0. -1.
         11    1    3    3    0    0 -0.64483670484E+01  0.55543202244E+01 -0.12481940872E+02  0.15107308130E+02  0.51100000000E-03 0. -1.
        -11    1    3    3    0    0  0.18002105851E+00  0.28282602940E+01  0.27077506010E+01  0.39196144518E+01  0.51100000000E-03 0.  1.
        -12    1    3    3    0    0 -0.80590657323E+01 -0.97964525953E+01  0.38225036868E+02  0.40274960800E+02  0.00000000000E+00 0.  1.
</event>
<event>
 7    1  0.5662448E-012  0.5930220E+02  0.7816164E-02  0.1266604E+00
        -11   -1    0    0    0    0  0.00000000000E+00  0.00000000000E+00  0.45593999997E+02  0.45594000000E+02  0.51100000000E-03 0.  1.
         11   -1    0    0    0    0 -0.00000000000E+00 -0.00000000000E+00 -0.45593999997E+02  0.45594000000E+02  0.51100000000E-03 0. -1.
    9900012    2    1    2    0    0  0.25108275250E+02  0.14170510797E+02  0.13618935509E+02  0.59302199608E+02  0.50000466115E+02 0.  0.
         12    1    1    2    0    0 -0.25108275250E+02 -0.14170510797E+02 -0.13618935509E+02  0.31885800392E+02  0.00000000000E+00 0. -1.
         11    1    3    3    0    0  0.25463209756E+01  0.67951848947E+01 -0.35426348182E+01  0.80751811112E+01  0.51100000000E-03 0. -1.
        -11    1    3    3    0    0  0.24170343920E+02  0.22520096321E+02  0.11911343191E+02  0.35117522128E+02  0.51100000000E-03 0.  1.
        -12    1    3    3    0    0 -0.16083896457E+01 -0.15144770419E+02  0.52502271358E+01  0.16109496369E+02  0.00000000000E+00 0.  1.
</event>
<event>
 7    1  0.5662448E-012  0.5930194E+02  0.7816164E-02  0.1266605E+00
        -11   -1    0    0    0    0  0.00000000000E+00  0.00000000000E+00  0.45593999997E+02  0.45594000000E+02  0.51100000000E-03 0.  1.
         11   -1    0    0    0    0 -0.00000000000E+00 -0.00000000000E+00 -0.45593999997E+02  0.45594000000E+02  0.51100000000E-03 0. -1.
    9900012    2    1    2    0    0 -0.22513894744E+01 -0.27130164872E+02  0.16601383765E+02  0.59301944373E+02  0.50000000630E+02 0.  0.
         12    1    1    2    0    0  0.22513894744E+01  0.27130164872E+02 -0.16601383765E+02  0.31886055627E+02  0.00000000000E+00 0. -1.
         11    1    3    3    0    0  0.86781480381E+01 -0.95102889219E+01  0.10650746156E+02  0.16709106579E+02  0.51100000000E-03 0. -1.
        -11    1    3    3    0    0  0.11950576980E+02 -0.55574810390E+01 -0.55319782281E+01  0.14293518427E+02  0.51100000000E-03 0.  1.
        -12    1    3    3    0    0 -0.22880114492E+02 -0.12062394911E+02  0.11482615837E+02  0.28299319367E+02  0.00000000000E+00 0.  1.
</event>
<event>
 7    1  0.5662448E-012  0.5930193E+02  0.7816164E-02  0.1266605E+00
        -11   -1    0    0    0    0  0.00000000000E+00  0.00000000000E+00  0.45593999997E+02  0.45594000000E+02  0.51100000000E-03 0. -1.
         11   -1    0    0    0    0 -0.00000000000E+00 -0.00000000000E+00 -0.45593999997E+02  0.45594000000E+02  0.51100000000E-03 0.  1.
    9900012    2    1    2    0    0  0.15853942661E+01  0.21833979100E+02 -0.23183727380E+02  0.59301931984E+02  0.49999978035E+02 0.  0.
         12    1    1    2    0    0 -0.15853942661E+01 -0.21833979100E+02  0.23183727380E+02  0.31886068016E+02  0.00000000000E+00 0. -1.
         11    1    3    3    0    0  0.17356052240E+02 -0.55701352915E+01 -0.90071754000E+01  0.20331949377E+02  0.51100000000E-03 0. -1.
        -11    1    3    3    0    0 -0.13915093992E+01  0.18918357527E+01  0.39017288704E+01  0.45539904878E+01  0.51100000000E-03 0.  1.
        -12    1    3    3    0    0 -0.14379148574E+02  0.25512278639E+02 -0.18078280850E+02  0.34415992119E+02  0.00000000000E+00 0.  1.
</event>
<event>
 7    1  0.5662448E-012  0.5930194E+02  0.7816164E-02  0.1266605E+00
        -11   -1    0    0    0    0  0.00000000000E+00  0.00000000000E+00  0.45593999997E+02  0.45594000000E+02  0.51100000000E-03 0.  1.
         11   -1    0    0    0    0 -0.00000000000E+00 -0.00000000000E+00 -0.45593999997E+02  0.45594000000E+02  0.51100000000E-03 0. -1.
    9900012    2    1    2    0    0 -0.16565506387E+01  0.37442948992E+01  0.31622093609E+02  0.59301941784E+02  0.49999995908E+02 0.  0.
         12    1    1    2    0    0  0.16565506387E+01 -0.37442948992E+01 -0.31622093609E+02  0.31886058216E+02  0.00000000000E+00 0. -1.
         11    1    3    3    0    0 -0.18920793044E+01  0.56594156717E+01  0.14241034886E+02  0.15440726173E+02  0.51100000000E-03 0. -1.
        -11    1    3    3    0    0 -0.18877522407E+02 -0.40331482487E+01  0.15076784111E+02  0.24493602357E+02  0.51100000000E-03 0.  1.
         12    1    3    3    0    0  0.19113051073E+02  0.21180274761E+01  0.23042746117E+01  0.19367613255E+02  0.00000000000E+00 0. -1.
</event>
<event>
 7    1  0.5662448E-012  0.5930191E+02  0.7816164E-02  0.1266605E+00
        -11   -1    0    0    0    0  0.00000000000E+00  0.00000000000E+00  0.45593999997E+02  0.45594000000E+02  0.51100000000E-03 0.  1.
         11   -1    0    0    0    0 -0.00000000000E+00 -0.00000000000E+00 -0.45593999997E+02  0.45594000000E+02  0.51100000000E-03 0. -1.
    9900012    2    1    2    0    0 -0.45879667249E+01  0.24232056862E+02  0.20210912585E+02  0.59301905759E+02  0.49999930208E+02 0.  0.
         12    1    1    2    0    0  0.45879667249E+01 -0.24232056862E+02 -0.20210912585E+02  0.31886094241E+02  0.00000000000E+00 0. -1.
         11    1    3    3    0    0 -0.15209359834E+02  0.49265593574E+01 -0.78713810066E+01  0.17820051989E+02  0.51100000000E-03 0. -1.
        -11    1    3    3    0    0  0.37453025686E+01 -0.38147558256E+01  0.14276796483E+01  0.55333464358E+01  0.51100000000E-03 0.  1.
        -12    1    3    3    0    0  0.68760905404E+01  0.23120253330E+02  0.26654613943E+02  0.35948507335E+02  0.00000000000E+00 0.  1.
</event>
<event>
 7    1  0.5662448E-012  0.5930193E+02  0.7816164E-02  0.1266605E+00
        -11   -1    0    0    0    0  0.00000000000E+00  0.00000000000E+00  0.45593999997E+02  0.45594000000E+02  0.51100000000E-03 0. -1.
         11   -1    0    0    0    0 -0.00000000000E+00 -0.00000000000E+00 -0.45593999997E+02  0.45594000000E+02  0.51100000000E-03 0.  1.
    9900012    2    1    2    0    0  0.12691090182E+02 -0.18700576664E+02 -0.22493239247E+02  0.59301934871E+02  0.49999983301E+02 0.  0.
         12    1    1    2    0    0 -0.12691090182E+02  0.18700576664E+02  0.22493239247E+02  0.31886065129E+02  0.00000000000E+00 0. -1.
         11    1    3    3    0    0  0.11451169627E+02 -0.64094604291E+01 -0.12949796986E+01  0.13186638749E+02  0.51100000000E-03 0. -1.
        -11    1    3    3    0    0 -0.11936077025E+01 -0.13574222472E+02  0.86501975878E+01  0.16140326318E+02  0.51100000000E-03 0.  1.
        -12    1    3    3    0    0  0.24335282574E+01  0.12831062373E+01 -0.29848457136E+02  0.29974969805E+02  0.00000000000E+00 0.  1.
</event>
<event>
 7    1  0.5662448E-012  0.5930194E+02  0.7816164E-02  0.1266605E+00
        -11   -1    0    0    0    0  0.00000000000E+00  0.00000000000E+00  0.45593999997E+02  0.45594000000E+02  0.51100000000E-03 0. -1.
         11   -1    0    0    0    0 -0.00000000000E+00 -0.00000000000E+00 -0.45593999997E+02  0.45594000000E+02  0.51100000000E-03 0.  1.
    9900012    2    1    2    0    0  0.29593684899E+02 -0.89019468311E+01  0.78542973159E+01  0.59301939886E+02  0.49999992447E+02 0.  0.
         12    1    1    2    0    0 -0.29593684899E+02  0.89019468311E+01 -0.78542973159E+01  0.31886060114E+02  0.00000000000E+00 0. -1.
         11    1    3    3    0    0  0.36634940686E+02 -0.81412782836E+01  0.12104072375E+01  0.37548160769E+02  0.51100000000E-03 0. -1.
        -11    1    3    3    0    0  0.57590693240E+01 -0.41893574911E+00  0.68348246183E+01  0.89474697242E+01  0.51100000000E-03 0.  1.
        -12    1    3    3    0    0 -0.12800325112E+02 -0.34173279837E+00 -0.19093453987E+00  0.12806309393E+02  0.00000000000E+00 0.  1.
</event>
<event>
 7    1  0.5662448E-012  0.5930195E+02  0.7816164E-02  0.1266605E+00
        -11   -1    0    0    0    0  0.00000000000E+00  0.00000000000E+00  0.45593999997E+02  0.45594000000E+02  0.51100000000E-03 0.  1.
         11   -1    0    0    0    0 -0.00000000000E+00 -0.00000000000E+00 -0.45593999997E+02  0.45594000000E+02  0.51100000000E-03 0. -1.
    9900012    2    1    2    0    0  0.79674173664E+01  0.59029339487E+01  0.30305046244E+02  0.59301949812E+02  0.50000010550E+02 0.  0.
         12    1    1    2    0    0 -0.79674173664E+01 -0.59029339487E+01 -0.30305046244E+02  0.31886050188E+02  0.00000000000E+00 0. -1.
         11    1    3    3    0    0  0.18559772028E+00 -0.20738701878E+01  0.24007490559E+02  0.24097613725E+02  0.51100000000E-03 0.  1.
        -11    1    3    3    0    0 -0.12315294379E+02 -0.11802818734E+01  0.55108467436E+00  0.12383991098E+02  0.51100000000E-03 0. -1.
         12    1    3    3    0    0  0.20097114025E+02  0.91570860099E+01  0.57464710113E+01  0.22820344989E+02  0.00000000000E+00 0. -1.
</event>
<event>
 7    1  0.5662448E-012  0.5930194E+02  0.7816164E-02  0.1266605E+00
        -11   -1    0    0    0    0  0.00000000000E+00  0.00000000000E+00  0.45593999997E+02  0.45594000000E+02  0.51100000000E-03 0. -1.
         11   -1    0    0    0    0 -0.00000000000E+00 -0.00000000000E+00 -0.45593999997E+02  0.45594000000E+02  0.51100000000E-03 0.  1.
    9900012    2    1    2    0    0 -0.10539531575E+02  0.10507982697E+02 -0.28199666117E+02  0.59301943560E+02  0.49999999147E+02 0.  0.
         12    1    1    2    0    0  0.10539531575E+02 -0.10507982697E+02  0.28199666117E+02  0.31886056440E+02  0.00000000000E+00 0. -1.
         11    1    3    3    0    0 -0.29206138605E+00 -0.12807097208E+01 -0.65837783718E+01  0.67135426678E+01  0.51100000000E-03 0. -1.
        -11    1    3    3    0    0 -0.10324440733E+02 -0.16563814022E+02 -0.74244074905E+01  0.20882428936E+02  0.51100000000E-03 0.  1.
        -12    1    3    3    0    0  0.76970543408E-01  0.28352506440E+02 -0.14191480255E+02  0.31705971956E+02  0.00000000000E+00 0.  1.
</event>
<event>
 7    1  0.5662448E-012  0.5930194E+02  0.7816164E-02  0.1266605E+00
        -11   -1    0    0    0    0  0.00000000000E+00  0.00000000000E+00  0.45593999997E+02  0.45594000000E+02  0.51100000000E-03 0.  1.
         11   -1    0    0    0    0 -0.00000000000E+00 -0.00000000000E+00 -0.45593999997E+02  0.45594000000E+02  0.51100000000E-03 0. -1.
    9900012    2    1    2    0    0 -0.51218845774E+00  0.26256022783E+02  0.18085338894E+02  0.59301944234E+02  0.50000000377E+02 0.  0.
         12    1    1    2    0    0  0.51218845774E+00 -0.26256022783E+02 -0.18085338894E+02  0.31886055766E+02  0.00000000000E+00 0. -1.
         11    1    3    3    0    0 -0.72215117058E+01 -0.70245149793E+01  0.20496276522E+01  0.10280808129E+02  0.51100000000E-03 0. -1.
        -11    1    3    3    0    0  0.12050639647E+02  0.32086851130E+01 -0.32656103469E+01  0.12890996364E+02  0.51100000000E-03 0.  1.
        -12    1    3    3    0    0 -0.53413163994E+01  0.30071852649E+02  0.19301321589E+02  0.36130139741E+02  0.00000000000E+00 0.  1.
</event>
<event>
 7    1  0.5662448E-012  0.5930186E+02  0.7816164E-02  0.1266605E+00
        -11   -1    0    0    0    0  0.00000000000E+00  0.00000000000E+00  0.45593999997E+02  0.45594000000E+02  0.51100000000E-03 0.  1.
         11   -1    0    0    0    0 -0.00000000000E+00 -0.00000000000E+00 -0.45593999997E+02  0.45594000000E+02  0.51100000000E-03 0. -1.
    9900012    2    1    2    0    0  0.13599408788E+02  0.11324849417E+01  0.28818383557E+02  0.59301863948E+02  0.49999853953E+02 0.  0.
         12    1    1    2    0    0 -0.13599408788E+02 -0.11324849417E+01 -0.28818383557E+02  0.31886136052E+02  0.00000000000E+00 0. -1.
         11    1    3    3    0    0  0.17504655683E+01 -0.37987308200E+01  0.11070331818E+02  0.11834134205E+02  0.51100000000E-03 0. -1.
        -11    1    3    3    0    0  0.69632903039E+01 -0.76116522474E+01  0.28455402350E+02  0.30267715225E+02  0.51100000000E-03 0.  1.
         12    1    3    3    0    0  0.48856529157E+01  0.12542868009E+02 -0.10707350611E+02  0.17200014518E+02  0.00000000000E+00 0. -1.
</event>
<event>
 7    1  0.5662448E-012  0.5930194E+02  0.7816164E-02  0.1266605E+00
        -11   -1    0    0    0    0  0.00000000000E+00  0.00000000000E+00  0.45593999997E+02  0.45594000000E+02  0.51100000000E-03 0.  1.
         11   -1    0    0    0    0 -0.00000000000E+00 -0.00000000000E+00 -0.45593999997E+02  0.45594000000E+02  0.51100000000E-03 0. -1.
    9900012    2    1    2    0    0  0.26695422147E+02  0.17436767335E+02  0.18566969475E+00  0.59301938909E+02  0.49999990664E+02 0.  0.
         12    1    1    2    0    0 -0.26695422147E+02 -0.17436767335E+02 -0.18566969475E+00  0.31886061091E+02  0.00000000000E+00 0. -1.
         11    1    3    3    0    0  0.19771059621E+02  0.14330707487E+02  0.49930340288E+01  0.24923771077E+02  0.51100000000E-03 0.  1.
        -11    1    3    3    0    0  0.37195564863E+01  0.10632802496E+01  0.14342374857E+02  0.14854944703E+02  0.51100000000E-03 0. -1.
         12    1    3    3    0    0  0.32048060389E+01  0.20427795986E+01 -0.19149739191E+02  0.19523223128E+02  0.00000000000E+00 0. -1.
</event>
<event>
 7    1  0.5662448E-012  0.5930195E+02  0.7816164E-02  0.1266605E+00
        -11   -1    0    0    0    0  0.00000000000E+00  0.00000000000E+00  0.45593999997E+02  0.45594000000E+02  0.51100000000E-03 0. -1.
         11   -1    0    0    0    0 -0.00000000000E+00 -0.00000000000E+00 -0.45593999997E+02  0.45594000000E+02  0.51100000000E-03 0.  1.
    9900012    2    1    2    0    0 -0.24643261998E+02 -0.15138841739E+02  0.13425541452E+02  0.59301952042E+02  0.50000014616E+02 0.  0.
         12    1    1    2    0    0  0.24643261998E+02  0.15138841739E+02 -0.13425541452E+02  0.31886047958E+02  0.00000000000E+00 0. -1.
         11    1    3    3    0    0  0.62783220516E+00 -0.46024765913E+01  0.88556774058E+01  0.99999993314E+01  0.51100000000E-03 0. -1.
        -11    1    3    3    0    0 -0.18967028948E+02 -0.70126710031E+01  0.22332354810E+02  0.30127393072E+02  0.51100000000E-03 0.  1.
        -12    1    3    3    0    0 -0.63040652556E+01 -0.35236941443E+01 -0.17762490764E+02  0.19174559638E+02  0.00000000000E+00 0.  1.
</event>
<event>
 7    1  0.5662448E-012  0.5930194E+02  0.7816164E-02  0.1266605E+00
        -11   -1    0    0    0    0  0.00000000000E+00  0.00000000000E+00  0.45593999997E+02  0.45594000000E+02  0.51100000000E-03 0.  1.
         11   -1    0    0    0    0 -0.00000000000E+00 -0.00000000000E+00 -0.45593999997E+02  0.45594000000E+02  0.51100000000E-03 0. -1.
    9900012    2    1    2    0    0 -0.61117769923E+01 -0.26119770712E+02  0.17237297037E+02  0.59301942715E+02  0.49999997606E+02 0.  0.
         12    1    1    2    0    0  0.61117769923E+01  0.26119770712E+02 -0.17237297037E+02  0.31886057285E+02  0.00000000000E+00 0. -1.
         11    1    3    3    0    0 -0.58295188255E+01  0.63319535428E+01  0.47036271143E+01  0.98082125638E+01  0.51100000000E-03 0. -1.
        -11    1    3    3    0    0 -0.17046730940E+02 -0.18387544163E+02  0.18487661885E+01  0.25141812838E+02  0.51100000000E-03 0.  1.
        -12    1    3    3    0    0  0.16764472773E+02 -0.14064180091E+02  0.10684903735E+02  0.24351917313E+02  0.00000000000E+00 0.  1.
</event>
<event>
 7    1  0.5662448E-012  0.5930195E+02  0.7816164E-02  0.1266605E+00
        -11   -1    0    0    0    0  0.00000000000E+00  0.00000000000E+00  0.45593999997E+02  0.45594000000E+02  0.51100000000E-03 0.  1.
         11   -1    0    0    0    0 -0.00000000000E+00 -0.00000000000E+00 -0.45593999997E+02  0.45594000000E+02  0.51100000000E-03 0. -1.
    9900012    2    1    2    0    0 -0.13008979113E+02 -0.94413608141E+01  0.27538111490E+02  0.59301946371E+02  0.50000004273E+02 0.  0.
         12    1    1    2    0    0  0.13008979113E+02  0.94413608141E+01 -0.27538111490E+02  0.31886053629E+02  0.00000000000E+00 0. -1.
         11    1    3    3    0    0  0.49331833018E-01 -0.43076252097E+00  0.54043126689E+01  0.54216773847E+01  0.51100000000E-03 0. -1.
        -11    1    3    3    0    0 -0.14649127907E+02  0.15446271348E+02  0.20115878658E+02  0.29288783202E+02  0.51100000000E-03 0.  1.
         12    1    3    3    0    0  0.15908169616E+01 -0.24456869642E+02  0.20179201633E+01  0.24591485784E+02  0.00000000000E+00 0. -1.
</event>
<event>
 7    1  0.5662448E-012  0.5930187E+02  0.7816164E-02  0.1266605E+00
        -11   -1    0    0    0    0  0.00000000000E+00  0.00000000000E+00  0.45593999997E+02  0.45594000000E+02  0.51100000000E-03 0. -1.
         11   -1    0    0    0    0 -0.00000000000E+00 -0.00000000000E+00 -0.45593999997E+02  0.45594000000E+02  0.51100000000E-03 0.  1.
    9900012    2    1    2    0    0  0.21577390693E+02  0.75000282198E+01 -0.22246145946E+02  0.59301871012E+02  0.49999866836E+02 0.  0.
         12    1    1    2    0    0 -0.21577390693E+02 -0.75000282198E+01  0.22246145946E+02  0.31886128988E+02  0.00000000000E+00 0. -1.
         11    1    3    3    0    0  0.27169727463E+02  0.85296717935E+01 -0.12686813570E+02  0.31175385004E+02  0.51100000000E-03 0. -1.
        -11    1    3    3    0    0  0.76854412418E+01  0.72766023357E+00 -0.12236336579E+02  0.14468014018E+02  0.51100000000E-03 0.  1.
        -12    1    3    3    0    0 -0.13277778012E+02 -0.17573038073E+01  0.26770042028E+01  0.13658471990E+02  0.00000000000E+00 0.  1.
</event>
<event>
 7    1  0.5662448E-012  0.5930195E+02  0.7816164E-02  0.1266605E+00
        -11   -1    0    0    0    0  0.00000000000E+00  0.00000000000E+00  0.45593999997E+02  0.45594000000E+02  0.51100000000E-03 0.  1.
         11   -1    0    0    0    0 -0.00000000000E+00 -0.00000000000E+00 -0.45593999997E+02  0.45594000000E+02  0.51100000000E-03 0. -1.
    9900012    2    1    2    0    0 -0.16480177607E+02 -0.27233190172E+02  0.18648161104E+01  0.59301945995E+02  0.50000003588E+02 0.  0.
         12    1    1    2    0    0  0.16480177607E+02  0.27233190172E+02 -0.18648161104E+01  0.31886054005E+02  0.00000000000E+00 0. -1.
         11    1    3    3    0    0 -0.77017703227E+01 -0.17091937153E+02  0.67007233420E+01  0.19908572910E+02  0.51100000000E-03 0. -1.
        -11    1    3    3    0    0  0.69227521341E+01 -0.26579822802E+01  0.12692418592E+02  0.14699893091E+02  0.51100000000E-03 0.  1.
         12    1    3    3    0    0 -0.15701159418E+02 -0.74832707384E+01 -0.17528325824E+02  0.24693479994E+02  0.00000000000E+00 0. -1.
</event>
<event>
 7    1  0.5662448E-012  0.5930195E+02  0.7816164E-02  0.1266605E+00
        -11   -1    0    0    0    0  0.00000000000E+00  0.00000000000E+00  0.45593999997E+02  0.45594000000E+02  0.51100000000E-03 0.  1.
         11   -1    0    0    0    0 -0.00000000000E+00 -0.00000000000E+00 -0.45593999997E+02  0.45594000000E+02  0.51100000000E-03 0. -1.
    9900012    2    1    2    0    0  0.99239202815E+01  0.24069093384E+02  0.18409632993E+02  0.59301952314E+02  0.50000015112E+02 0.  0.
         12    1    1    2    0    0 -0.99239202815E+01 -0.24069093384E+02 -0.18409632993E+02  0.31886047686E+02  0.00000000000E+00 0. -1.
         11    1    3    3    0    0 -0.56715557470E+01  0.61701950225E+01  0.34422786195E+01  0.90601950069E+01  0.51100000000E-03 0. -1.
        -11    1    3    3    0    0  0.16421948931E+00 -0.11649480320E+02  0.12078393182E+02  0.16781684715E+02  0.51100000000E-03 0.  1.
         12    1    3    3    0    0  0.15431256539E+02  0.29548378681E+02  0.28889611918E+01  0.33460072592E+02  0.00000000000E+00 0. -1.
</event>
<event>
 7    1  0.5662448E-012  0.5930184E+02  0.7816164E-02  0.1266605E+00
        -11   -1    0    0    0    0  0.00000000000E+00  0.00000000000E+00  0.45593999997E+02  0.45594000000E+02  0.51100000000E-03 0.  1.
         11   -1    0    0    0    0 -0.00000000000E+00 -0.00000000000E+00 -0.45593999997E+02  0.45594000000E+02  0.51100000000E-03 0. -1.
    9900012    2    1    2    0    0  0.84886836218E+01 -0.24299178216E+02  0.18820712724E+02  0.59301842516E+02  0.49999814867E+02 0.  0.
         12    1    1    2    0    0 -0.84886836218E+01  0.24299178216E+02 -0.18820712724E+02  0.31886157484E+02  0.00000000000E+00 0. -1.
         11    1    3    3    0    0  0.71933988132E+01  0.35219017088E+01  0.11092384211E+02  0.13681731099E+02  0.51100000000E-03 0.  1.
        -11    1    3    3    0    0  0.83253657010E+01 -0.19790740477E+02 -0.10954524921E+02  0.24103666509E+02  0.51100000000E-03 0. -1.
         12    1    3    3    0    0 -0.70300808924E+01 -0.80303394480E+01  0.18682853435E+02  0.21516444908E+02  0.00000000000E+00 0. -1.
</event>
<event>
 7    1  0.5662448E-012  0.5930194E+02  0.7816164E-02  0.1266605E+00
        -11   -1    0    0    0    0  0.00000000000E+00  0.00000000000E+00  0.45593999997E+02  0.45594000000E+02  0.51100000000E-03 0.  1.
         11   -1    0    0    0    0 -0.00000000000E+00 -0.00000000000E+00 -0.45593999997E+02  0.45594000000E+02  0.51100000000E-03 0. -1.
    9900012    2    1    2    0    0  0.31874944343E+01 -0.15185105874E+02  0.27856299503E+02  0.59301937478E+02  0.49999988055E+02 0.  0.
         12    1    1    2    0    0 -0.31874944343E+01  0.15185105874E+02 -0.27856299503E+02  0.31886062522E+02  0.00000000000E+00 0. -1.
         11    1    3    3    0    0  0.43986518900E+01 -0.22820830750E+00 -0.63359641948E+01  0.77165186463E+01  0.51100000000E-03 0. -1.
        -11    1    3    3    0    0  0.12697021908E+02 -0.15737478407E+02  0.76683870432E+01  0.21626066495E+02  0.51100000000E-03 0.  1.
        -12    1    3    3    0    0 -0.13908179364E+02  0.78058084042E+00  0.26523876654E+02  0.29959352337E+02  0.00000000000E+00 0.  1.
</event>
<event>
 7    1  0.5662448E-012  0.5930195E+02  0.7816164E-02  0.1266605E+00
        -11   -1    0    0    0    0  0.00000000000E+00  0.00000000000E+00  0.45593999997E+02  0.45594000000E+02  0.51100000000E-03 0.  1.
         11   -1    0    0    0    0 -0.00000000000E+00 -0.00000000000E+00 -0.45593999997E+02  0.45594000000E+02  0.51100000000E-03 0. -1.
    9900012    2    1    2    0    0 -0.25041348790E+02  0.18884924138E+02 -0.57455106620E+01  0.59301946596E+02  0.50000004684E+02 0.  0.
         12    1    1    2    0    0  0.25041348790E+02 -0.18884924138E+02  0.57455106620E+01  0.31886053404E+02  0.00000000000E+00 0. -1.
         11    1    3    3    0    0 -0.93973701021E+01  0.31248617558E+01  0.10597529542E+02  0.14504584051E+02  0.51100000000E-03 0. -1.
        -11    1    3    3    0    0 -0.16590923442E+02  0.13722336811E+02  0.59926780991E+01  0.22348902865E+02  0.51100000000E-03 0.  1.
         12    1    3    3    0    0  0.94694475351E+00  0.20377255713E+01 -0.22335718304E+02  0.22448459680E+02  0.00000000000E+00 0. -1.
</event>
<event>
 7    1  0.5662448E-012  0.5930193E+02  0.7816164E-02  0.1266605E+00
        -11   -1    0    0    0    0  0.00000000000E+00  0.00000000000E+00  0.45593999997E+02  0.45594000000E+02  0.51100000000E-03 0. -1.
         11   -1    0    0    0    0 -0.00000000000E+00 -0.00000000000E+00 -0.45593999997E+02  0.45594000000E+02  0.51100000000E-03 0.  1.
    9900012    2    1    2    0    0  0.19289731958E+02 -0.15395917559E+02 -0.20188941331E+02  0.59301931121E+02  0.49999976461E+02 0.  0.
         12    1    1    2    0    0 -0.19289731958E+02  0.15395917559E+02  0.20188941331E+02  0.31886068879E+02  0.00000000000E+00 0. -1.
         11    1    3    3    0    0  0.84684792856E+01  0.89239144296E+01 -0.28151930230E+01  0.12620487399E+02  0.51100000000E-03 0. -1.
        -11    1    3    3    0    0  0.63246601158E+01  0.41628851777E+01 -0.16130475771E+02  0.17819180325E+02  0.51100000000E-03 0.  1.
         12    1    3    3    0    0  0.44965925569E+01 -0.28482717167E+02 -0.12432725360E+01  0.28862263397E+02  0.00000000000E+00 0. -1.
</event>
<event>
 7    1  0.5662448E-012  0.5930195E+02  0.7816164E-02  0.1266605E+00
        -11   -1    0    0    0    0  0.00000000000E+00  0.00000000000E+00  0.45593999997E+02  0.45594000000E+02  0.51100000000E-03 0. -1.
         11   -1    0    0    0    0 -0.00000000000E+00 -0.00000000000E+00 -0.45593999997E+02  0.45594000000E+02  0.51100000000E-03 0.  1.
    9900012    2    1    2    0    0  0.46650884684E+00  0.12703464104E+02 -0.29242511275E+02  0.59301951382E+02  0.50000013413E+02 0.  0.
         12    1    1    2    0    0 -0.46650884684E+00 -0.12703464104E+02  0.29242511275E+02  0.31886048618E+02  0.00000000000E+00 0. -1.
         11    1    3    3    0    0 -0.20359007493E+01 -0.88632498722E+01 -0.97639266638E+01  0.13343026430E+02  0.51100000000E-03 0. -1.
        -11    1    3    3    0    0 -0.11407284116E+02  0.11008645691E+02 -0.23204709130E+02  0.28102934668E+02  0.51100000000E-03 0.  1.
         12    1    3    3    0    0  0.13909693713E+02  0.10558068286E+02  0.37261245189E+01  0.17855990284E+02  0.00000000000E+00 0. -1.
</event>
<event>
 7    1  0.5662448E-012  0.5930195E+02  0.7816164E-02  0.1266605E+00
        -11   -1    0    0    0    0  0.00000000000E+00  0.00000000000E+00  0.45593999997E+02  0.45594000000E+02  0.51100000000E-03 0. -1.
         11   -1    0    0    0    0 -0.00000000000E+00 -0.00000000000E+00 -0.45593999997E+02  0.45594000000E+02  0.51100000000E-03 0.  1.
    9900012    2    1    2    0    0 -0.97330301052E+01 -0.24832644502E+02 -0.17473640062E+02  0.59301949680E+02  0.50000010309E+02 0.  0.
         12    1    1    2    0    0  0.97330301052E+01  0.24832644502E+02  0.17473640062E+02  0.31886050320E+02  0.00000000000E+00 0. -1.
         11    1    3    3    0    0 -0.70662650030E+01 -0.89437553083E+01 -0.10963647195E+02  0.15815322323E+02  0.51100000000E-03 0. -1.
        -11    1    3    3    0    0 -0.19944026766E+02 -0.96562009073E+01 -0.10761883666E+02  0.24633809285E+02  0.51100000000E-03 0.  1.
         12    1    3    3    0    0  0.17277261664E+02 -0.62326882865E+01  0.42518907984E+01  0.18852818072E+02  0.00000000000E+00 0. -1.
</event>
<event>
 7    1  0.5662448E-012  0.5930194E+02  0.7816164E-02  0.1266605E+00
        -11   -1    0    0    0    0  0.00000000000E+00  0.00000000000E+00  0.45593999997E+02  0.45594000000E+02  0.51100000000E-03 0.  1.
         11   -1    0    0    0    0 -0.00000000000E+00 -0.00000000000E+00 -0.45593999997E+02  0.45594000000E+02  0.51100000000E-03 0. -1.
    9900012    2    1    2    0    0 -0.28835196497E+02  0.10207398135E+02  0.90034178341E+01  0.59301936173E+02  0.49999985675E+02 0.  0.
         12    1    1    2    0    0  0.28835196497E+02 -0.10207398135E+02 -0.90034178341E+01  0.31886063827E+02  0.00000000000E+00 0. -1.
         11    1    3    3    0    0 -0.14184491096E+02 -0.39120863427E+01  0.18901349227E+01  0.14834986265E+02  0.51100000000E-03 0. -1.
        -11    1    3    3    0    0 -0.18857882696E+02  0.17556397586E+02  0.18588519220E+02  0.31770739416E+02  0.51100000000E-03 0.  1.
         12    1    3    3    0    0  0.42071772946E+01 -0.34369131087E+01 -0.11475236309E+02  0.12696210492E+02  0.00000000000E+00 0. -1.
</event>
<event>
 7    1  0.5662448E-012  0.5930204E+02  0.7816164E-02  0.1266604E+00
        -11   -1    0    0    0    0  0.00000000000E+00  0.00000000000E+00  0.45593999997E+02  0.45594000000E+02  0.51100000000E-03 0.  1.
         11   -1    0    0    0    0 -0.00000000000E+00 -0.00000000000E+00 -0.45593999997E+02  0.45594000000E+02  0.51100000000E-03 0. -1.
    9900012    2    1    2    0    0 -0.17918632749E+02  0.60531291722E+01  0.25670924712E+02  0.59302044660E+02  0.50000183529E+02 0.  0.
         12    1    1    2    0    0  0.17918632749E+02 -0.60531291722E+01 -0.25670924712E+02  0.31885955340E+02  0.00000000000E+00 0. -1.
         11    1    3    3    0    0 -0.67789816541E+01 -0.78994696157E+00 -0.48028126401E+01  0.83453950168E+01  0.51100000000E-03 0. -1.
        -11    1    3    3    0    0  0.90395565044E+01  0.52355237396E+01 -0.38292771133E+01  0.11125990028E+02  0.51100000000E-03 0.  1.
         12    1    3    3    0    0 -0.20179207600E+02  0.16075523942E+01  0.34303014465E+02  0.39830659616E+02  0.00000000000E+00 0. -1.
</event>
<event>
 7    1  0.5662448E-012  0.5930203E+02  0.7816164E-02  0.1266604E+00
        -11   -1    0    0    0    0  0.00000000000E+00  0.00000000000E+00  0.45593999997E+02  0.45594000000E+02  0.51100000000E-03 0.  1.
         11   -1    0    0    0    0 -0.00000000000E+00 -0.00000000000E+00 -0.45593999997E+02  0.45594000000E+02  0.51100000000E-03 0. -1.
    9900012    2    1    2    0    0 -0.82746105525E+00 -0.13585770914E+02  0.28834996033E+02  0.59302033504E+02  0.50000163183E+02 0.  0.
         12    1    1    2    0    0  0.82746105525E+00  0.13585770914E+02 -0.28834996033E+02  0.31885966496E+02  0.00000000000E+00 0. -1.
         11    1    3    3    0    0 -0.83863811528E+01 -0.62966152686E+01  0.16485079550E+02  0.19538080783E+02  0.51100000000E-03 0. -1.
        -11    1    3    3    0    0 -0.12294779347E+02 -0.11819741507E+02  0.84359022993E+01  0.19027147352E+02  0.51100000000E-03 0.  1.
         12    1    3    3    0    0  0.19853699444E+02  0.45305858616E+01  0.39140141846E+01  0.20736805369E+02  0.00000000000E+00 0. -1.
</event>
<event>
 7    1  0.5662448E-012  0.5930194E+02  0.7816164E-02  0.1266605E+00
        -11   -1    0    0    0    0  0.00000000000E+00  0.00000000000E+00  0.45593999997E+02  0.45594000000E+02  0.51100000000E-03 0. -1.
         11   -1    0    0    0    0 -0.00000000000E+00 -0.00000000000E+00 -0.45593999997E+02  0.45594000000E+02  0.51100000000E-03 0.  1.
    9900012    2    1    2    0    0 -0.82522186589E+01  0.28176089862E+02 -0.12439030176E+02  0.59301943103E+02  0.49999998314E+02 0.  0.
         12    1    1    2    0    0  0.82522186589E+01 -0.28176089862E+02  0.12439030176E+02  0.31886056897E+02  0.00000000000E+00 0. -1.
         11    1    3    3    0    0 -0.19535006435E+02  0.26256501156E+02 -0.39750677489E+01  0.32966975797E+02  0.51100000000E-03 0. -1.
        -11    1    3    3    0    0  0.26021100611E+01  0.11315419709E+02 -0.13260743802E+01  0.11686238637E+02  0.51100000000E-03 0.  1.
        -12    1    3    3    0    0  0.86806777149E+01 -0.93958310031E+01 -0.71378880474E+01  0.14648728669E+02  0.00000000000E+00 0.  1.
</event>
<event>
 7    1  0.5662448E-012  0.5930195E+02  0.7816164E-02  0.1266605E+00
        -11   -1    0    0    0    0  0.00000000000E+00  0.00000000000E+00  0.45593999997E+02  0.45594000000E+02  0.51100000000E-03 0.  1.
         11   -1    0    0    0    0 -0.00000000000E+00 -0.00000000000E+00 -0.45593999997E+02  0.45594000000E+02  0.51100000000E-03 0. -1.
    9900012    2    1    2    0    0 -0.65868031047E+01  0.29941246228E+02  0.87667494906E+01  0.59301951366E+02  0.50000013384E+02 0.  0.
         12    1    1    2    0    0  0.65868031047E+01 -0.29941246228E+02 -0.87667494906E+01  0.31886048634E+02  0.00000000000E+00 0. -1.
         11    1    3    3    0    0 -0.89378543135E+01  0.10359700074E+02 -0.11786998007E+02  0.18059400534E+02  0.51100000000E-03 0. -1.
        -11    1    3    3    0    0  0.17390632389E+01  0.15523630061E+02  0.28386061686E+02  0.32400245825E+02  0.51100000000E-03 0.  1.
         12    1    3    3    0    0  0.61198796988E+00  0.40579160936E+01 -0.78323141882E+01  0.88423050072E+01  0.00000000000E+00 0. -1.
</event>
<event>
 7    1  0.5662448E-012  0.5930190E+02  0.7816164E-02  0.1266605E+00
        -11   -1    0    0    0    0  0.00000000000E+00  0.00000000000E+00  0.45593999997E+02  0.45594000000E+02  0.51100000000E-03 0. -1.
         11   -1    0    0    0    0 -0.00000000000E+00 -0.00000000000E+00 -0.45593999997E+02  0.45594000000E+02  0.51100000000E-03 0.  1.
    9900012    2    1    2    0    0 -0.68257475478E+01 -0.37660616338E+01 -0.30918429604E+02  0.59301900537E+02  0.49999920683E+02 0.  0.
         12    1    1    2    0    0  0.68257475478E+01  0.37660616338E+01  0.30918429604E+02  0.31886099463E+02  0.00000000000E+00 0. -1.
         11    1    3    3    0    0 -0.10284977405E+02  0.55825307598E+01 -0.12694190452E+01  0.11771016731E+02  0.51100000000E-03 0. -1.
        -11    1    3    3    0    0 -0.28542890792E+00 -0.17122890961E+02 -0.50122720619E+00  0.17132603232E+02  0.51100000000E-03 0.  1.
        -12    1    3    3    0    0  0.37446587651E+01  0.77742985676E+01 -0.29147783352E+02  0.30398280574E+02  0.00000000000E+00 0.  1.
</event>
<event>
 7    1  0.5662448E-012  0.5930194E+02  0.7816164E-02  0.1266605E+00
        -11   -1    0    0    0    0  0.00000000000E+00  0.00000000000E+00  0.45593999997E+02  0.45594000000E+02  0.51100000000E-03 0. -1.
         11   -1    0    0    0    0 -0.00000000000E+00 -0.00000000000E+00 -0.45593999997E+02  0.45594000000E+02  0.51100000000E-03 0.  1.
    9900012    2    1    2    0    0 -0.20783571191E+02 -0.19619781461E+02 -0.14136054801E+02  0.59301941897E+02  0.49999996113E+02 0.  0.
         12    1    1    2    0    0  0.20783571191E+02  0.19619781461E+02  0.14136054801E+02  0.31886058103E+02  0.00000000000E+00 0. -1.
         11    1    3    3    0    0  0.26458837236E+01 -0.10280471661E+01 -0.32805497921E+01  0.43381550058E+01  0.51100000000E-03 0. -1.
        -11    1    3    3    0    0 -0.32595275980E+01 -0.29077437313E+02 -0.13221867490E+02  0.32108249112E+02  0.51100000000E-03 0.  1.
         12    1    3    3    0    0 -0.20169927317E+02  0.10485703018E+02  0.23663624811E+01  0.22855537779E+02  0.00000000000E+00 0. -1.
</event>
<event>
 7    1  0.5662448E-012  0.5930195E+02  0.7816164E-02  0.1266605E+00
        -11   -1    0    0    0    0  0.00000000000E+00  0.00000000000E+00  0.45593999997E+02  0.45594000000E+02  0.51100000000E-03 0. -1.
         11   -1    0    0    0    0 -0.00000000000E+00 -0.00000000000E+00 -0.45593999997E+02  0.45594000000E+02  0.51100000000E-03 0.  1.
    9900012    2    1    2    0    0  0.99797723798E+01 -0.29502699295E+02 -0.68348389317E+01  0.59301950611E+02  0.50000012006E+02 0.  0.
         12    1    1    2    0    0 -0.99797723798E+01  0.29502699295E+02  0.68348389317E+01  0.31886049389E+02  0.00000000000E+00 0. -1.
         11    1    3    3    0    0 -0.11302256358E+02 -0.24224059710E+02 -0.44087973704E+01  0.27092131000E+02  0.51100000000E-03 0. -1.
        -11    1    3    3    0    0  0.17826160381E+01 -0.10907786613E+02  0.24850403409E+01  0.11328413591E+02  0.51100000000E-03 0.  1.
        -12    1    3    3    0    0  0.19499412700E+02  0.56291470286E+01 -0.49110819021E+01  0.20881406019E+02  0.00000000000E+00 0.  1.
</event>
<event>
 7    1  0.5662448E-012  0.5930195E+02  0.7816164E-02  0.1266605E+00
        -11   -1    0    0    0    0  0.00000000000E+00  0.00000000000E+00  0.45593999997E+02  0.45594000000E+02  0.51100000000E-03 0.  1.
         11   -1    0    0    0    0 -0.00000000000E+00 -0.00000000000E+00 -0.45593999997E+02  0.45594000000E+02  0.51100000000E-03 0. -1.
    9900012    2    1    2    0    0  0.31103385830E+02 -0.20865512294E+01 -0.67041772474E+01  0.59301948211E+02  0.50000007629E+02 0.  0.
         12    1    1    2    0    0 -0.31103385830E+02  0.20865512294E+01  0.67041772474E+01  0.31886051789E+02  0.00000000000E+00 0. -1.
         11    1    3    3    0    0  0.96510712654E+00 -0.84937651175E+01 -0.65727363166E+01  0.10783150773E+02  0.51100000000E-03 0. -1.
        -11    1    3    3    0    0  0.25370602600E+02 -0.12836024602E+02 -0.25486547726E+01  0.28546920066E+02  0.51100000000E-03 0.  1.
        -12    1    3    3    0    0  0.47676761036E+01  0.19243238490E+02  0.24172138418E+01  0.19971877372E+02  0.00000000000E+00 0.  1.
</event>
<event>
 7    1  0.5662448E-012  0.5930194E+02  0.7816164E-02  0.1266605E+00
        -11   -1    0    0    0    0  0.00000000000E+00  0.00000000000E+00  0.45593999997E+02  0.45594000000E+02  0.51100000000E-03 0.  1.
         11   -1    0    0    0    0 -0.00000000000E+00 -0.00000000000E+00 -0.45593999997E+02  0.45594000000E+02  0.51100000000E-03 0. -1.
    9900012    2    1    2    0    0  0.89916333114E+01 -0.24911843630E+02  0.17755881190E+02  0.59301941299E+02  0.49999995023E+02 0.  0.
         12    1    1    2    0    0 -0.89916333114E+01  0.24911843630E+02 -0.17755881190E+02  0.31886058701E+02  0.00000000000E+00 0. -1.
         11    1    3    3    0    0  0.11534866995E+02  0.23816404997E+01  0.61811477468E+01  0.13301577192E+02  0.51100000000E-03 0. -1.
        -11    1    3    3    0    0  0.13307446102E+02 -0.25051915040E+02  0.56072065207E+01  0.28915866478E+02  0.51100000000E-03 0.  1.
         12    1    3    3    0    0 -0.15850679786E+02 -0.22415690895E+01  0.59675269229E+01  0.17084497629E+02  0.00000000000E+00 0. -1.
</event>
<event>
 7    1  0.5662448E-012  0.5930194E+02  0.7816164E-02  0.1266605E+00
        -11   -1    0    0    0    0  0.00000000000E+00  0.00000000000E+00  0.45593999997E+02  0.45594000000E+02  0.51100000000E-03 0.  1.
         11   -1    0    0    0    0 -0.00000000000E+00 -0.00000000000E+00 -0.45593999997E+02  0.45594000000E+02  0.51100000000E-03 0. -1.
    9900012    2    1    2    0    0 -0.12410393218E+02  0.12974627120E+02  0.26350755552E+02  0.59301935225E+02  0.49999983945E+02 0.  0.
         12    1    1    2    0    0  0.12410393218E+02 -0.12974627120E+02 -0.26350755552E+02  0.31886064775E+02  0.00000000000E+00 0. -1.
         11    1    3    3    0    0  0.17773437185E+01 -0.63515533875E+00 -0.55645563800E+01  0.58759391560E+01  0.51100000000E-03 0. -1.
        -11    1    3    3    0    0 -0.48903722656E+01 -0.12038915577E+02  0.23652168619E+01  0.13207781049E+02  0.51100000000E-03 0.  1.
        -12    1    3    3    0    0 -0.92973646705E+01  0.25648698036E+02  0.29550095070E+02  0.40218215020E+02  0.00000000000E+00 0.  1.
</event>
<event>
 7    1  0.5662448E-012  0.5930195E+02  0.7816164E-02  0.1266605E+00
        -11   -1    0    0    0    0  0.00000000000E+00  0.00000000000E+00  0.45593999997E+02  0.45594000000E+02  0.51100000000E-03 0. -1.
         11   -1    0    0    0    0 -0.00000000000E+00 -0.00000000000E+00 -0.45593999997E+02  0.45594000000E+02  0.51100000000E-03 0.  1.
    9900012    2    1    2    0    0  0.22983487785E+02  0.21969155912E+02  0.24157263713E+01  0.59301948878E+02  0.50000008846E+02 0.  0.
         12    1    1    2    0    0 -0.22983487785E+02 -0.21969155912E+02 -0.24157263713E+01  0.31886051122E+02  0.00000000000E+00 0. -1.
         11    1    3    3    0    0 -0.24204336880E+01 -0.61339855768E+01  0.28397714838E+01  0.71797340226E+01  0.51100000000E-03 0. -1.
        -11    1    3    3    0    0  0.21010855232E+02  0.10725584952E+02  0.15433522487E+02  0.28190207995E+02  0.51100000000E-03 0.  1.
        -12    1    3    3    0    0  0.43930662409E+01  0.17377556537E+02 -0.15857567600E+02  0.23932006861E+02  0.00000000000E+00 0.  1.
</event>
<event>
 7    1  0.5662448E-012  0.5930192E+02  0.7816164E-02  0.1266605E+00
        -11   -1    0    0    0    0  0.00000000000E+00  0.00000000000E+00  0.45593999997E+02  0.45594000000E+02  0.51100000000E-03 0. -1.
         11   -1    0    0    0    0 -0.00000000000E+00 -0.00000000000E+00 -0.45593999997E+02  0.45594000000E+02  0.51100000000E-03 0.  1.
    9900012    2    1    2    0    0  0.31287343544E+02 -0.60977177018E+01 -0.80109606120E+00  0.59301924950E+02  0.49999965207E+02 0.  0.
         12    1    1    2    0    0 -0.31287343544E+02  0.60977177018E+01  0.80109606120E+00  0.31886075050E+02  0.00000000000E+00 0. -1.
         11    1    3    3    0    0  0.21246358600E+02  0.65379871360E+01 -0.80661076516E+01  0.23647729753E+02  0.51100000000E-03 0. -1.
        -11    1    3    3    0    0  0.12646949357E+02 -0.18366345419E+02 -0.40893894619E+01  0.22671371342E+02  0.51100000000E-03 0.  1.
         12    1    3    3    0    0 -0.26059644132E+01  0.57306405815E+01  0.11354401052E+02  0.12982823855E+02  0.00000000000E+00 0. -1.
</event>
<event>
 7    1  0.5662448E-012  0.5930191E+02  0.7816164E-02  0.1266605E+00
        -11   -1    0    0    0    0  0.00000000000E+00  0.00000000000E+00  0.45593999997E+02  0.45594000000E+02  0.51100000000E-03 0. -1.
         11   -1    0    0    0    0 -0.00000000000E+00 -0.00000000000E+00 -0.45593999997E+02  0.45594000000E+02  0.51100000000E-03 0.  1.
    9900012    2    1    2    0    0  0.20486081632E+02  0.21056032550E+02 -0.12397037307E+02  0.59301912417E+02  0.49999942350E+02 0.  0.
         12    1    1    2    0    0 -0.20486081632E+02 -0.21056032550E+02  0.12397037307E+02  0.31886087583E+02  0.00000000000E+00 0. -1.
         11    1    3    3    0    0 -0.16005399793E+01  0.20915823529E+02 -0.62524181019E+01  0.21888950055E+02  0.51100000000E-03 0. -1.
        -11    1    3    3    0    0  0.87383430567E+01  0.14730865853E+02 -0.30423014401E+01  0.17395765188E+02  0.51100000000E-03 0.  1.
         12    1    3    3    0    0  0.13348278554E+02 -0.14590656833E+02 -0.31023177653E+01  0.20017197174E+02  0.00000000000E+00 0. -1.
</event>
<event>
 7    1  0.5662448E-012  0.5930194E+02  0.7816164E-02  0.1266605E+00
        -11   -1    0    0    0    0  0.00000000000E+00  0.00000000000E+00  0.45593999997E+02  0.45594000000E+02  0.51100000000E-03 0.  1.
         11   -1    0    0    0    0 -0.00000000000E+00 -0.00000000000E+00 -0.45593999997E+02  0.45594000000E+02  0.51100000000E-03 0. -1.
    9900012    2    1    2    0    0  0.64251915978E+01  0.24448591450E+02  0.19434602978E+02  0.59301944993E+02  0.50000001761E+02 0.  0.
         12    1    1    2    0    0 -0.64251915978E+01 -0.24448591450E+02 -0.19434602978E+02  0.31886055007E+02  0.00000000000E+00 0. -1.
         11    1    3    3    0    0 -0.47865944269E+00  0.75186585424E+01 -0.31394312416E+01  0.81618239335E+01  0.51100000000E-03 0. -1.
        -11    1    3    3    0    0 -0.11718987021E+02  0.21998590016E+02  0.58514562044E+01  0.25602971692E+02  0.51100000000E-03 0.  1.
        -12    1    3    3    0    0  0.18622838062E+02 -0.50686571080E+01  0.16722578015E+02  0.25537149368E+02  0.00000000000E+00 0.  1.
</event>
<event>
 7    1  0.5662448E-012  0.5930193E+02  0.7816164E-02  0.1266605E+00
        -11   -1    0    0    0    0  0.00000000000E+00  0.00000000000E+00  0.45593999997E+02  0.45594000000E+02  0.51100000000E-03 0.  1.
         11   -1    0    0    0    0 -0.00000000000E+00 -0.00000000000E+00 -0.45593999997E+02  0.45594000000E+02  0.51100000000E-03 0. -1.
    9900012    2    1    2    0    0 -0.26633319834E+02  0.15746929187E+02 -0.77085750491E+01  0.59301927280E+02  0.49999969456E+02 0.  0.
         12    1    1    2    0    0  0.26633319834E+02 -0.15746929187E+02  0.77085750491E+01  0.31886072720E+02  0.00000000000E+00 0. -1.
         11    1    3    3    0    0 -0.91380778632E+01  0.74064706415E+01 -0.44715764067E+01  0.12583929045E+02  0.51100000000E-03 0. -1.
        -11    1    3    3    0    0 -0.24855953818E+02 -0.10102322011E+01 -0.15755245678E+02  0.29445997622E+02  0.51100000000E-03 0.  1.
         12    1    3    3    0    0  0.73607118470E+01  0.93506907465E+01  0.12518247035E+02  0.17272000613E+02  0.00000000000E+00 0. -1.
</event>
<event>
 7    1  0.5662448E-012  0.5930194E+02  0.7816164E-02  0.1266605E+00
        -11   -1    0    0    0    0  0.00000000000E+00  0.00000000000E+00  0.45593999997E+02  0.45594000000E+02  0.51100000000E-03 0. -1.
         11   -1    0    0    0    0 -0.00000000000E+00 -0.00000000000E+00 -0.45593999997E+02  0.45594000000E+02  0.51100000000E-03 0.  1.
    9900012    2    1    2    0    0  0.63311114472E+01 -0.31237210445E+02 -0.93509297310E+00  0.59301942116E+02  0.49999996513E+02 0.  0.
         12    1    1    2    0    0 -0.63311114472E+01  0.31237210445E+02  0.93509297310E+00  0.31886057884E+02  0.00000000000E+00 0. -1.
         11    1    3    3    0    0  0.34837633539E+01 -0.10533293154E+01  0.90127342735E+01  0.97198502611E+01  0.51100000000E-03 0. -1.
        -11    1    3    3    0    0 -0.54773879141E+01 -0.24480727621E+02  0.10174902041E+02  0.27070951868E+02  0.51100000000E-03 0.  1.
        -12    1    3    3    0    0  0.83247360074E+01 -0.57031535080E+01 -0.20122729287E+02  0.22511139987E+02  0.00000000000E+00 0.  1.
</event>
<event>
 7    1  0.5662448E-012  0.5930191E+02  0.7816164E-02  0.1266605E+00
        -11   -1    0    0    0    0  0.00000000000E+00  0.00000000000E+00  0.45593999997E+02  0.45594000000E+02  0.51100000000E-03 0.  1.
         11   -1    0    0    0    0 -0.00000000000E+00 -0.00000000000E+00 -0.45593999997E+02  0.45594000000E+02  0.51100000000E-03 0. -1.
    9900012    2    1    2    0    0  0.12289340407E+02  0.26183413112E+02  0.13421010368E+02  0.59301913235E+02  0.49999943842E+02 0.  0.
         12    1    1    2    0    0 -0.12289340407E+02 -0.26183413112E+02 -0.13421010368E+02  0.31886086765E+02  0.00000000000E+00 0. -1.
         11    1    3    3    0    0  0.19250097968E+02 -0.37062969287E+01  0.61524005439E+01  0.20546409453E+02  0.51100000000E-03 0. -1.
        -11    1    3    3    0    0 -0.30585557495E+01  0.66683503844E+00 -0.57343349779E+01  0.65331485627E+01  0.51100000000E-03 0.  1.
        -12    1    3    3    0    0 -0.39022018110E+01  0.29222875002E+02  0.13002944802E+02  0.32222355220E+02  0.00000000000E+00 0.  1.
</event>
<event>
 7    1  0.5662448E-012  0.5930193E+02  0.7816164E-02  0.1266605E+00
        -11   -1    0    0    0    0  0.00000000000E+00  0.00000000000E+00  0.45593999997E+02  0.45594000000E+02  0.51100000000E-03 0. -1.
         11   -1    0    0    0    0 -0.00000000000E+00 -0.00000000000E+00 -0.45593999997E+02  0.45594000000E+02  0.51100000000E-03 0.  1.
    9900012    2    1    2    0    0 -0.27435246755E+02 -0.98069533808E+01 -0.12955775900E+02  0.59301933634E+02  0.49999981045E+02 0.  0.
         12    1    1    2    0    0  0.27435246755E+02  0.98069533808E+01  0.12955775900E+02  0.31886066366E+02  0.00000000000E+00 0. -1.
         11    1    3    3    0    0 -0.11847873416E+02  0.47788824991E+01  0.79722241287E+01  0.15058757593E+02  0.51100000000E-03 0. -1.
        -11    1    3    3    0    0 -0.18441485110E+02  0.35685383232E+01 -0.38885680170E+01  0.19181861232E+02  0.51100000000E-03 0.  1.
         12    1    3    3    0    0  0.28541117715E+01 -0.18154374203E+02 -0.17039432011E+02  0.25061314810E+02  0.00000000000E+00 0. -1.
</event>
<event>
 7    1  0.5662448E-012  0.5930193E+02  0.7816164E-02  0.1266605E+00
        -11   -1    0    0    0    0  0.00000000000E+00  0.00000000000E+00  0.45593999997E+02  0.45594000000E+02  0.51100000000E-03 0.  1.
         11   -1    0    0    0    0 -0.00000000000E+00 -0.00000000000E+00 -0.45593999997E+02  0.45594000000E+02  0.51100000000E-03 0. -1.
    9900012    2    1    2    0    0  0.30937683267E+02  0.55108284040E+01 -0.54048292145E+01  0.59301926951E+02  0.49999968857E+02 0.  0.
         12    1    1    2    0    0 -0.30937683267E+02 -0.55108284040E+01  0.54048292145E+01  0.31886073049E+02  0.00000000000E+00 0. -1.
         11    1    3    3    0    0  0.21623731075E+01 -0.23463489036E+01 -0.16931124458E+02  0.17229166733E+02  0.51100000000E-03 0. -1.
        -11    1    3    3    0    0  0.15756178518E+02  0.10400931094E+02 -0.62547635893E+01  0.19888654980E+02  0.51100000000E-03 0.  1.
        -12    1    3    3    0    0  0.13019131641E+02 -0.25437537862E+01  0.17781058833E+02  0.22184105238E+02  0.00000000000E+00 0.  1.
</event>
<event>
 7    1  0.5662448E-012  0.5930194E+02  0.7816164E-02  0.1266605E+00
        -11   -1    0    0    0    0  0.00000000000E+00  0.00000000000E+00  0.45593999997E+02  0.45594000000E+02  0.51100000000E-03 0.  1.
         11   -1    0    0    0    0 -0.00000000000E+00 -0.00000000000E+00 -0.45593999997E+02  0.45594000000E+02  0.51100000000E-03 0. -1.
    9900012    2    1    2    0    0  0.19841965680E+02  0.15056277680E+02  0.19907929246E+02  0.59301941189E+02  0.49999994822E+02 0.  0.
         12    1    1    2    0    0 -0.19841965680E+02 -0.15056277680E+02 -0.19907929246E+02  0.31886058811E+02  0.00000000000E+00 0. -1.
         11    1    3    3    0    0  0.33850409813E+01 -0.58693408316E+01  0.24785073860E+01  0.72146145681E+01  0.51100000000E-03 0. -1.
        -11    1    3    3    0    0 -0.68564837291E+01  0.37112509728E+01 -0.96626664106E+01  0.12415791370E+02  0.51100000000E-03 0.  1.
        -12    1    3    3    0    0  0.23313408428E+02  0.17214367539E+02  0.27092088271E+02  0.39671535251E+02  0.00000000000E+00 0.  1.
</event>
<event>
 7    1  0.5662448E-012  0.5930194E+02  0.7816164E-02  0.1266605E+00
        -11   -1    0    0    0    0  0.00000000000E+00  0.00000000000E+00  0.45593999997E+02  0.45594000000E+02  0.51100000000E-03 0. -1.
         11   -1    0    0    0    0 -0.00000000000E+00 -0.00000000000E+00 -0.45593999997E+02  0.45594000000E+02  0.51100000000E-03 0.  1.
    9900012    2    1    2    0    0 -0.14329529995E+02 -0.10480888304E+02 -0.26486528810E+02  0.59301942578E+02  0.49999997357E+02 0.  0.
         12    1    1    2    0    0  0.14329529995E+02  0.10480888304E+02  0.26486528810E+02  0.31886057422E+02  0.00000000000E+00 0. -1.
         11    1    3    3    0    0 -0.83457156889E+01 -0.21366433658E+02 -0.12443162133E+02  0.26096125033E+02  0.51100000000E-03 0. -1.
        -11    1    3    3    0    0 -0.27427175145E+01  0.35986903618E+00 -0.20334807721E+02  0.20522095663E+02  0.51100000000E-03 0.  1.
         12    1    3    3    0    0 -0.32410967919E+01  0.10525676318E+02  0.62914410449E+01  0.12683721882E+02  0.00000000000E+00 0. -1.
</event>
<event>
 7    1  0.5662448E-012  0.5930194E+02  0.7816164E-02  0.1266605E+00
        -11   -1    0    0    0    0  0.00000000000E+00  0.00000000000E+00  0.45593999997E+02  0.45594000000E+02  0.51100000000E-03 0. -1.
         11   -1    0    0    0    0 -0.00000000000E+00 -0.00000000000E+00 -0.45593999997E+02  0.45594000000E+02  0.51100000000E-03 0.  1.
    9900012    2    1    2    0    0  0.83308376424E+01  0.30749562298E+02  0.13350005340E+01  0.59301942486E+02  0.49999997189E+02 0.  0.
         12    1    1    2    0    0 -0.83308376424E+01 -0.30749562298E+02 -0.13350005340E+01  0.31886057514E+02  0.00000000000E+00 0. -1.
         11    1    3    3    0    0  0.22848792214E+02  0.19418735736E+02  0.16684231820E+01  0.30032286617E+02  0.51100000000E-03 0. -1.
        -11    1    3    3    0    0 -0.31762747025E+01  0.15053323970E+02 -0.53958742812E+01  0.16303580682E+02  0.51100000000E-03 0.  1.
        -12    1    3    3    0    0 -0.11341679870E+02 -0.37224974090E+01  0.50624516331E+01  0.12966075187E+02  0.00000000000E+00 0.  1.
</event>
<event>
 7    1  0.5662448E-012  0.5930191E+02  0.7816164E-02  0.1266605E+00
        -11   -1    0    0    0    0  0.00000000000E+00  0.00000000000E+00  0.45593999997E+02  0.45594000000E+02  0.51100000000E-03 0.  1.
         11   -1    0    0    0    0 -0.00000000000E+00 -0.00000000000E+00 -0.45593999997E+02  0.45594000000E+02  0.51100000000E-03 0. -1.
    9900012    2    1    2    0    0 -0.22638709752E+02  0.14164305685E+02  0.17423669141E+02  0.59301906148E+02  0.49999930917E+02 0.  0.
         12    1    1    2    0    0  0.22638709752E+02 -0.14164305685E+02 -0.17423669141E+02  0.31886093852E+02  0.00000000000E+00 0. -1.
         11    1    3    3    0    0 -0.48496521315E+00  0.91446448401E+01  0.10899057207E+02  0.14235489763E+02  0.51100000000E-03 0. -1.
        -11    1    3    3    0    0 -0.30142961111E+02  0.11560301205E+02  0.10580451424E+02  0.33973292762E+02  0.51100000000E-03 0.  1.
         12    1    3    3    0    0  0.79892165727E+01 -0.65406403598E+01 -0.40558394898E+01  0.11093123624E+02  0.00000000000E+00 0. -1.
</event>
<event>
 7    1  0.5662448E-012  0.5930197E+02  0.7816164E-02  0.1266605E+00
        -11   -1    0    0    0    0  0.00000000000E+00  0.00000000000E+00  0.45593999997E+02  0.45594000000E+02  0.51100000000E-03 0. -1.
         11   -1    0    0    0    0 -0.00000000000E+00 -0.00000000000E+00 -0.45593999997E+02  0.45594000000E+02  0.51100000000E-03 0.  1.
    9900012    2    1    2    0    0 -0.20501625879E+02  0.49107485952E+01 -0.23922518491E+02  0.59301968476E+02  0.50000044587E+02 0.  0.
         12    1    1    2    0    0  0.20501625879E+02 -0.49107485952E+01  0.23922518491E+02  0.31886031524E+02  0.00000000000E+00 0. -1.
         11    1    3    3    0    0  0.31669379833E+01  0.14699675655E+01  0.49881534398E+01  0.60886760329E+01  0.51100000000E-03 0. -1.
        -11    1    3    3    0    0 -0.11725088698E+02  0.16134607570E+02 -0.29689202387E+02  0.35766632565E+02  0.51100000000E-03 0.  1.
         12    1    3    3    0    0 -0.11943475164E+02 -0.12693826540E+02  0.77853045622E+00  0.17446659878E+02  0.00000000000E+00 0. -1.
</event>
<event>
 7    1  0.5662448E-012  0.5930195E+02  0.7816164E-02  0.1266605E+00
        -11   -1    0    0    0    0  0.00000000000E+00  0.00000000000E+00  0.45593999997E+02  0.45594000000E+02  0.51100000000E-03 0.  1.
         11   -1    0    0    0    0 -0.00000000000E+00 -0.00000000000E+00 -0.45593999997E+02  0.45594000000E+02  0.51100000000E-03 0. -1.
    9900012    2    1    2    0    0  0.23639552162E+02 -0.17249849066E+02  0.12662333210E+02  0.59301946598E+02  0.50000004687E+02 0.  0.
         12    1    1    2    0    0 -0.23639552162E+02  0.17249849066E+02 -0.12662333210E+02  0.31886053402E+02  0.00000000000E+00 0. -1.
         11    1    3    3    0    0  0.27559088593E+01 -0.12474248284E+02  0.14100709077E+02  0.19027135901E+02  0.51100000000E-03 0. -1.
        -11    1    3    3    0    0  0.22794038239E+02  0.10278050987E+02 -0.20506279656E+01  0.25088076583E+02  0.51100000000E-03 0.  1.
         12    1    3    3    0    0 -0.19103949357E+01 -0.15053651769E+02  0.61225209908E+00  0.15186734114E+02  0.00000000000E+00 0. -1.
</event>
<event>
 7    1  0.5662448E-012  0.5930193E+02  0.7816164E-02  0.1266605E+00
        -11   -1    0    0    0    0  0.00000000000E+00  0.00000000000E+00  0.45593999997E+02  0.45594000000E+02  0.51100000000E-03 0. -1.
         11   -1    0    0    0    0 -0.00000000000E+00 -0.00000000000E+00 -0.45593999997E+02  0.45594000000E+02  0.51100000000E-03 0.  1.
    9900012    2    1    2    0    0  0.18868875032E+02 -0.25655469062E+02 -0.15760653518E+01  0.59301929063E+02  0.49999972708E+02 0.  0.
         12    1    1    2    0    0 -0.18868875032E+02  0.25655469062E+02  0.15760653518E+01  0.31886070937E+02  0.00000000000E+00 0. -1.
         11    1    3    3    0    0 -0.95989048373E+00  0.85166639310E+01 -0.78613882318E+01  0.11629977620E+02  0.51100000000E-03 0. -1.
        -11    1    3    3    0    0  0.31510932507E+01 -0.57668700850E+00  0.95015108529E+01  0.10026996825E+02  0.51100000000E-03 0.  1.
        -12    1    3    3    0    0  0.16677672266E+02 -0.33595445985E+02 -0.32161879729E+01  0.37644954618E+02  0.00000000000E+00 0.  1.
</event>
<event>
 7    1  0.5662448E-012  0.5930194E+02  0.7816164E-02  0.1266605E+00
        -11   -1    0    0    0    0  0.00000000000E+00  0.00000000000E+00  0.45593999997E+02  0.45594000000E+02  0.51100000000E-03 0.  1.
         11   -1    0    0    0    0 -0.00000000000E+00 -0.00000000000E+00 -0.45593999997E+02  0.45594000000E+02  0.51100000000E-03 0. -1.
    9900012    2    1    2    0    0 -0.17956155797E+02  0.23808853938E+02  0.11288736245E+02  0.59301943128E+02  0.49999998358E+02 0.  0.
         12    1    1    2    0    0  0.17956155797E+02 -0.23808853938E+02 -0.11288736245E+02  0.31886056872E+02  0.00000000000E+00 0. -1.
         11    1    3    3    0    0 -0.73647368432E+01 -0.18858087793E+01 -0.81473838186E+00  0.76458761704E+01  0.51100000000E-03 0. -1.
        -11    1    3    3    0    0 -0.15156337549E+02  0.34834854799E+02  0.32342391071E+01  0.38126657074E+02  0.51100000000E-03 0.  1.
         12    1    3    3    0    0  0.45649185953E+01 -0.91401920818E+01  0.88692355196E+01  0.13529409883E+02  0.00000000000E+00 0. -1.
</event>
<event>
 7    1  0.5662448E-012  0.5930195E+02  0.7816164E-02  0.1266605E+00
        -11   -1    0    0    0    0  0.00000000000E+00  0.00000000000E+00  0.45593999997E+02  0.45594000000E+02  0.51100000000E-03 0.  1.
         11   -1    0    0    0    0 -0.00000000000E+00 -0.00000000000E+00 -0.45593999997E+02  0.45594000000E+02  0.51100000000E-03 0. -1.
    9900012    2    1    2    0    0 -0.28816031864E+02  0.13651157690E+02 -0.49541855930E-01  0.59301948926E+02  0.50000008934E+02 0.  0.
         12    1    1    2    0    0  0.28816031864E+02 -0.13651157690E+02  0.49541855930E-01  0.31886051074E+02  0.00000000000E+00 0. -1.
         11    1    3    3    0    0 -0.15925353868E+02  0.14548136924E+02 -0.27924087223E+01  0.21750005299E+02  0.51100000000E-03 0. -1.
        -11    1    3    3    0    0 -0.23648415040E+02  0.50974518635E+01  0.57701841758E+01  0.24870194513E+02  0.51100000000E-03 0.  1.
         12    1    3    3    0    0  0.10757737044E+02 -0.59944310975E+01 -0.30273173094E+01  0.12681749114E+02  0.00000000000E+00 0. -1.
</event>
<event>
 7    1  0.5662448E-012  0.5930192E+02  0.7816164E-02  0.1266605E+00
        -11   -1    0    0    0    0  0.00000000000E+00  0.00000000000E+00  0.45593999997E+02  0.45594000000E+02  0.51100000000E-03 0. -1.
         11   -1    0    0    0    0 -0.00000000000E+00 -0.00000000000E+00 -0.45593999997E+02  0.45594000000E+02  0.51100000000E-03 0.  1.
    9900012    2    1    2    0    0 -0.31424012737E+02 -0.24358978472E+00  0.54031623007E+01  0.59301920352E+02  0.49999956820E+02 0.  0.
         12    1    1    2    0    0  0.31424012737E+02  0.24358978472E+00 -0.54031623007E+01  0.31886079648E+02  0.00000000000E+00 0. -1.
         11    1    3    3    0    0 -0.23706547797E+02  0.64145941771E+01  0.12578375629E+02  0.27592806320E+02  0.51100000000E-03 0. -1.
        -11    1    3    3    0    0  0.44439738778E+01  0.76359577554E+01  0.41797489291E+01  0.97737943522E+01  0.51100000000E-03 0.  1.
        -12    1    3    3    0    0 -0.12161438818E+02 -0.14294141717E+02 -0.11354962257E+02  0.21935319679E+02  0.00000000000E+00 0.  1.
</event>
<event>
 7    1  0.5662448E-012  0.5930197E+02  0.7816164E-02  0.1266605E+00
        -11   -1    0    0    0    0  0.00000000000E+00  0.00000000000E+00  0.45593999997E+02  0.45594000000E+02  0.51100000000E-03 0.  1.
         11   -1    0    0    0    0 -0.00000000000E+00 -0.00000000000E+00 -0.45593999997E+02  0.45594000000E+02  0.51100000000E-03 0. -1.
    9900012    2    1    2    0    0 -0.27698680076E+02  0.15355415416E+02 -0.37031512823E+01  0.59301968733E+02  0.50000045057E+02 0.  0.
         12    1    1    2    0    0  0.27698680076E+02 -0.15355415416E+02  0.37031512823E+01  0.31886031267E+02  0.00000000000E+00 0. -1.
         11    1    3    3    0    0  0.29887271969E+01 -0.53895364817E+01 -0.27833454913E+01  0.67621450835E+01  0.51100000000E-03 0. -1.
        -11    1    3    3    0    0 -0.21483007144E+02 -0.56528289797E+01  0.73285888871E+01  0.23391927812E+02  0.51100000000E-03 0.  1.
         12    1    3    3    0    0 -0.92044001288E+01  0.26397780878E+02 -0.82483946781E+01  0.29147895838E+02  0.00000000000E+00 0. -1.
</event>
<event>
 7    1  0.5662448E-012  0.5930185E+02  0.7816164E-02  0.1266605E+00
        -11   -1    0    0    0    0  0.00000000000E+00  0.00000000000E+00  0.45593999997E+02  0.45594000000E+02  0.51100000000E-03 0. -1.
         11   -1    0    0    0    0 -0.00000000000E+00 -0.00000000000E+00 -0.45593999997E+02  0.45594000000E+02  0.51100000000E-03 0.  1.
    9900012    2    1    2    0    0  0.15444419259E+02 -0.17345693512E+02 -0.21847727543E+02  0.59301853032E+02  0.49999834045E+02 0.  0.
         12    1    1    2    0    0 -0.15444419259E+02  0.17345693512E+02  0.21847727543E+02  0.31886146968E+02  0.00000000000E+00 0. -1.
         11    1    3    3    0    0  0.12091988600E+02  0.27256683260E+01  0.65683647668E+01  0.14028145711E+02  0.51100000000E-03 0.  1.
        -11    1    3    3    0    0  0.95468232345E+00  0.65997554826E+01 -0.65263709990E+00  0.67003079193E+01  0.51100000000E-03 0. -1.
        -12    1    3    3    0    0  0.23977483362E+01 -0.26671117321E+02 -0.27763455210E+02  0.38573399402E+02  0.00000000000E+00 0.  1.
</event>
<event>
 7    1  0.5662448E-012  0.5930192E+02  0.7816164E-02  0.1266605E+00
        -11   -1    0    0    0    0  0.00000000000E+00  0.00000000000E+00  0.45593999997E+02  0.45594000000E+02  0.51100000000E-03 0.  1.
         11   -1    0    0    0    0 -0.00000000000E+00 -0.00000000000E+00 -0.45593999997E+02  0.45594000000E+02  0.51100000000E-03 0. -1.
    9900012    2    1    2    0    0 -0.20851642236E+02  0.16316943647E+02  0.17767629406E+02  0.59301917007E+02  0.49999950721E+02 0.  0.
         12    1    1    2    0    0  0.20851642236E+02 -0.16316943647E+02 -0.17767629406E+02  0.31886082993E+02  0.00000000000E+00 0. -1.
         11    1    3    3    0    0 -0.19150875787E+02  0.12003161020E+02  0.18723757934E+02  0.29349804587E+02  0.51100000000E-03 0. -1.
        -11    1    3    3    0    0 -0.15573168124E+02  0.33859534658E+01  0.68794010085E+00  0.15951849678E+02  0.51100000000E-03 0.  1.
         12    1    3    3    0    0  0.13872401676E+02  0.92782916072E+00 -0.16440686284E+01  0.14000262742E+02  0.00000000000E+00 0. -1.
</event>
<event>
 7    1  0.5662448E-012  0.5930203E+02  0.7816164E-02  0.1266604E+00
        -11   -1    0    0    0    0  0.00000000000E+00  0.00000000000E+00  0.45593999997E+02  0.45594000000E+02  0.51100000000E-03 0.  1.
         11   -1    0    0    0    0 -0.00000000000E+00 -0.00000000000E+00 -0.45593999997E+02  0.45594000000E+02  0.51100000000E-03 0. -1.
    9900012    2    1    2    0    0 -0.36958618279E+01  0.29476447554E+02  0.11584244306E+02  0.59302030183E+02  0.50000157125E+02 0.  0.
         12    1    1    2    0    0  0.36958618279E+01 -0.29476447554E+02 -0.11584244306E+02  0.31885969817E+02  0.00000000000E+00 0. -1.
         11    1    3    3    0    0  0.20005408870E+02  0.94120934521E+01  0.43664454090E+01  0.22535965321E+02  0.51100000000E-03 0. -1.
        -11    1    3    3    0    0 -0.37329399403E+01  0.17164147227E+00  0.77185360768E+01  0.85755525083E+01  0.51100000000E-03 0.  1.
         12    1    3    3    0    0 -0.19968330757E+02  0.19892712630E+02 -0.50073717929E+00  0.28190512353E+02  0.00000000000E+00 0. -1.
</event>
<event>
 7    1  0.5662448E-012  0.5930194E+02  0.7816164E-02  0.1266605E+00
        -11   -1    0    0    0    0  0.00000000000E+00  0.00000000000E+00  0.45593999997E+02  0.45594000000E+02  0.51100000000E-03 0.  1.
         11   -1    0    0    0    0 -0.00000000000E+00 -0.00000000000E+00 -0.45593999997E+02  0.45594000000E+02  0.51100000000E-03 0. -1.
    9900012    2    1    2    0    0  0.90055156977E+01  0.15163016665E+02  0.26565099550E+02  0.59301938759E+02  0.49999990391E+02 0.  0.
         12    1    1    2    0    0 -0.90055156977E+01 -0.15163016665E+02 -0.26565099550E+02  0.31886061241E+02  0.00000000000E+00 0. -1.
         11    1    3    3    0    0  0.73743102812E+01  0.50113128602E+01  0.31722860224E+02  0.32951988859E+02  0.51100000000E-03 0. -1.
        -11    1    3    3    0    0  0.53614001939E+01 -0.51941912644E+01  0.36041975163E+01  0.82894194566E+01  0.51100000000E-03 0.  1.
         12    1    3    3    0    0 -0.37301947775E+01  0.15345895069E+02 -0.87619581901E+01  0.18060530443E+02  0.00000000000E+00 0. -1.
</event>
<event>
 7    1  0.5662448E-012  0.5930194E+02  0.7816164E-02  0.1266605E+00
        -11   -1    0    0    0    0  0.00000000000E+00  0.00000000000E+00  0.45593999997E+02  0.45594000000E+02  0.51100000000E-03 0. -1.
         11   -1    0    0    0    0 -0.00000000000E+00 -0.00000000000E+00 -0.45593999997E+02  0.45594000000E+02  0.51100000000E-03 0.  1.
    9900012    2    1    2    0    0 -0.29475855370E+02 -0.12155051122E+02  0.38628420727E+00  0.59301944536E+02  0.50000000926E+02 0.  0.
         12    1    1    2    0    0  0.29475855370E+02  0.12155051122E+02 -0.38628420727E+00  0.31886055464E+02  0.00000000000E+00 0. -1.
         11    1    3    3    0    0  0.43750512246E+01  0.26688819539E+01  0.98506164845E+01  0.11103992502E+02  0.51100000000E-03 0. -1.
        -11    1    3    3    0    0 -0.19493964836E+01  0.28295347994E+01 -0.11181232371E+02  0.11697280514E+02  0.51100000000E-03 0.  1.
         12    1    3    3    0    0 -0.31901510111E+02 -0.17653467875E+02  0.17169000940E+01  0.36500671519E+02  0.00000000000E+00 0. -1.
</event>
<event>
 7    1  0.5662448E-012  0.5930196E+02  0.7816164E-02  0.1266605E+00
        -11   -1    0    0    0    0  0.00000000000E+00  0.00000000000E+00  0.45593999997E+02  0.45594000000E+02  0.51100000000E-03 0.  1.
         11   -1    0    0    0    0 -0.00000000000E+00 -0.00000000000E+00 -0.45593999997E+02  0.45594000000E+02  0.51100000000E-03 0. -1.
    9900012    2    1    2    0    0 -0.27449994568E+02  0.35863679011E+01  0.15822610487E+02  0.59301964826E+02  0.50000037931E+02 0.  0.
         12    1    1    2    0    0  0.27449994568E+02 -0.35863679011E+01 -0.15822610487E+02  0.31886035174E+02  0.00000000000E+00 0. -1.
         11    1    3    3    0    0 -0.13677201917E+02 -0.61902678126E+01  0.17899638177E+01  0.15119167920E+02  0.51100000000E-03 0. -1.
        -11    1    3    3    0    0 -0.26058923676E+02  0.80349134063E+01  0.27438380802E+01  0.27407225038E+02  0.51100000000E-03 0.  1.
        -12    1    3    3    0    0  0.12286131025E+02  0.17417223074E+01  0.11288808589E+02  0.16775571869E+02  0.00000000000E+00 0.  1.
</event>
<event>
 7    1  0.5662448E-012  0.5930194E+02  0.7816164E-02  0.1266605E+00
        -11   -1    0    0    0    0  0.00000000000E+00  0.00000000000E+00  0.45593999997E+02  0.45594000000E+02  0.51100000000E-03 0.  1.
         11   -1    0    0    0    0 -0.00000000000E+00 -0.00000000000E+00 -0.45593999997E+02  0.45594000000E+02  0.51100000000E-03 0. -1.
    9900012    2    1    2    0    0  0.18443103019E+02 -0.22871769207E+02 -0.12387690642E+02  0.59301941055E+02  0.49999994578E+02 0.  0.
         12    1    1    2    0    0 -0.18443103019E+02  0.22871769207E+02  0.12387690642E+02  0.31886058945E+02  0.00000000000E+00 0. -1.
         11    1    3    3    0    0  0.99807916450E+01  0.54159706637E+01  0.11299669938E+02  0.16019721629E+02  0.51100000000E-03 0. -1.
        -11    1    3    3    0    0 -0.36398360848E+01 -0.57426918830E+01  0.19370931602E+01  0.70696001980E+01  0.51100000000E-03 0.  1.
        -12    1    3    3    0    0  0.12102147458E+02 -0.22545047988E+02 -0.25624453740E+02  0.36212619228E+02  0.00000000000E+00 0.  1.
</event>
<event>
 7    1  0.5662448E-012  0.5930195E+02  0.7816164E-02  0.1266605E+00
        -11   -1    0    0    0    0  0.00000000000E+00  0.00000000000E+00  0.45593999997E+02  0.45594000000E+02  0.51100000000E-03 0. -1.
         11   -1    0    0    0    0 -0.00000000000E+00 -0.00000000000E+00 -0.45593999997E+02  0.45594000000E+02  0.51100000000E-03 0.  1.
    9900012    2    1    2    0    0  0.13080425188E+02  0.21866369725E+02 -0.19169890230E+02  0.59301947571E+02  0.50000006463E+02 0.  0.
         12    1    1    2    0    0 -0.13080425188E+02 -0.21866369725E+02  0.19169890230E+02  0.31886052429E+02  0.00000000000E+00 0. -1.
         11    1    3    3    0    0  0.53960192606E+01  0.14310417390E+02 -0.18641985709E+02  0.24112832707E+02  0.51100000000E-03 0. -1.
        -11    1    3    3    0    0  0.10282196745E+02 -0.11450733950E+02 -0.34844236880E+01  0.15779229594E+02  0.51100000000E-03 0.  1.
         12    1    3    3    0    0 -0.25977908167E+01  0.19006686284E+02  0.29565191667E+01  0.19409885271E+02  0.00000000000E+00 0. -1.
</event>
<event>
 7    1  0.5662448E-012  0.5930193E+02  0.7816164E-02  0.1266605E+00
        -11   -1    0    0    0    0  0.00000000000E+00  0.00000000000E+00  0.45593999997E+02  0.45594000000E+02  0.51100000000E-03 0. -1.
         11   -1    0    0    0    0 -0.00000000000E+00 -0.00000000000E+00 -0.45593999997E+02  0.45594000000E+02  0.51100000000E-03 0.  1.
    9900012    2    1    2    0    0 -0.26647785508E+01  0.62494262768E+01 -0.31153888637E+02  0.59301934851E+02  0.49999983263E+02 0.  0.
         12    1    1    2    0    0  0.26647785508E+01 -0.62494262768E+01  0.31153888637E+02  0.31886065149E+02  0.00000000000E+00 0. -1.
         11    1    3    3    0    0  0.10947889641E+02 -0.14172265910E+02 -0.15935696683E+01  0.17979123259E+02  0.51100000000E-03 0.  1.
        -11    1    3    3    0    0 -0.12297516769E+02  0.72714732679E+01 -0.90118276528E+01  0.16891307826E+02  0.51100000000E-03 0. -1.
        -12    1    3    3    0    0 -0.13151514221E+01  0.13150218919E+02 -0.20548491316E+02  0.24431503765E+02  0.00000000000E+00 0.  1.
</event>
<event>
 7    1  0.5662448E-012  0.5930195E+02  0.7816164E-02  0.1266605E+00
        -11   -1    0    0    0    0  0.00000000000E+00  0.00000000000E+00  0.45593999997E+02  0.45594000000E+02  0.51100000000E-03 0.  1.
         11   -1    0    0    0    0 -0.00000000000E+00 -0.00000000000E+00 -0.45593999997E+02  0.45594000000E+02  0.51100000000E-03 0. -1.
    9900012    2    1    2    0    0 -0.59637926406E+01 -0.26908954567E+02  0.16033147898E+02  0.59301945210E+02  0.50000002156E+02 0.  0.
         12    1    1    2    0    0  0.59637926406E+01  0.26908954567E+02 -0.16033147898E+02  0.31886054790E+02  0.00000000000E+00 0. -1.
         11    1    3    3    0    0  0.94120516911E+01 -0.11560648271E+02  0.23984389495E+01  0.15099265384E+02  0.51100000000E-03 0. -1.
        -11    1    3    3    0    0  0.49177623760E+00  0.78945936652E+01  0.13974595360E+02  0.16057888054E+02  0.51100000000E-03 0.  1.
         12    1    3    3    0    0 -0.15867620569E+02 -0.23242899961E+02 -0.33988641120E+00  0.28144791772E+02  0.00000000000E+00 0. -1.
</event>
<event>
 7    1  0.5662448E-012  0.5930196E+02  0.7816164E-02  0.1266605E+00
        -11   -1    0    0    0    0  0.00000000000E+00  0.00000000000E+00  0.45593999997E+02  0.45594000000E+02  0.51100000000E-03 0. -1.
         11   -1    0    0    0    0 -0.00000000000E+00 -0.00000000000E+00 -0.45593999997E+02  0.45594000000E+02  0.51100000000E-03 0.  1.
    9900012    2    1    2    0    0 -0.23968870883E+02 -0.11120301379E+02  0.17848011108E+02  0.59301962701E+02  0.50000034055E+02 0.  0.
         12    1    1    2    0    0  0.23968870883E+02  0.11120301379E+02 -0.17848011108E+02  0.31886037299E+02  0.00000000000E+00 0. -1.
         11    1    3    3    0    0 -0.15945094570E+02 -0.54027167329E+01  0.62172056559E+01  0.17946839147E+02  0.51100000000E-03 0. -1.
        -11    1    3    3    0    0 -0.10239570612E+02  0.13026095525E+02 -0.37729632529E+01  0.16993034541E+02  0.51100000000E-03 0.  1.
         12    1    3    3    0    0  0.22157942997E+01 -0.18743680171E+02  0.15403768705E+02  0.24362089012E+02  0.00000000000E+00 0. -1.
</event>
<event>
 7    1  0.5662448E-012  0.5930195E+02  0.7816164E-02  0.1266605E+00
        -11   -1    0    0    0    0  0.00000000000E+00  0.00000000000E+00  0.45593999997E+02  0.45594000000E+02  0.51100000000E-03 0. -1.
         11   -1    0    0    0    0 -0.00000000000E+00 -0.00000000000E+00 -0.45593999997E+02  0.45594000000E+02  0.51100000000E-03 0.  1.
    9900012    2    1    2    0    0  0.74501888981E+01 -0.24958961160E+01 -0.30902835268E+02  0.59301952274E+02  0.50000015038E+02 0.  0.
         12    1    1    2    0    0 -0.74501888981E+01  0.24958961160E+01  0.30902835268E+02  0.31886047726E+02  0.00000000000E+00 0. -1.
         11    1    3    3    0    0  0.76919750209E+01  0.90060708807E+01 -0.27473744472E+01  0.12158283557E+02  0.51100000000E-03 0. -1.
        -11    1    3    3    0    0 -0.35073498895E+01  0.27551360485E+01  0.74320971359E+01  0.86676609297E+01  0.51100000000E-03 0.  1.
        -12    1    3    3    0    0  0.32655637667E+01 -0.14257103045E+02 -0.35587557956E+02  0.38476007787E+02  0.00000000000E+00 0.  1.
</event>
<event>
 7    1  0.5662448E-012  0.5930192E+02  0.7816164E-02  0.1266605E+00
        -11   -1    0    0    0    0  0.00000000000E+00  0.00000000000E+00  0.45593999997E+02  0.45594000000E+02  0.51100000000E-03 0.  1.
         11   -1    0    0    0    0 -0.00000000000E+00 -0.00000000000E+00 -0.45593999997E+02  0.45594000000E+02  0.51100000000E-03 0. -1.
    9900012    2    1    2    0    0 -0.68783062184E+01 -0.30232135857E+02  0.74450462055E+01  0.59301923918E+02  0.49999963325E+02 0.  0.
         12    1    1    2    0    0  0.68783062184E+01  0.30232135857E+02 -0.74450462055E+01  0.31886076082E+02  0.00000000000E+00 0. -1.
         11    1    3    3    0    0  0.99540355640E+01  0.65383490314E+01 -0.62562630700E+01  0.13452645090E+02  0.51100000000E-03 0. -1.
        -11    1    3    3    0    0 -0.40109027971E+01 -0.24947468572E+01 -0.30287595167E+01  0.56111039556E+01  0.51100000000E-03 0.  1.
        -12    1    3    3    0    0 -0.12821438985E+02 -0.34275738031E+02  0.16730068792E+02  0.40238174872E+02  0.00000000000E+00 0.  1.
</event>
<event>
 7    1  0.5662448E-012  0.5930209E+02  0.7816164E-02  0.1266604E+00
        -11   -1    0    0    0    0  0.00000000000E+00  0.00000000000E+00  0.45593999997E+02  0.45594000000E+02  0.51100000000E-03 0. -1.
         11   -1    0    0    0    0 -0.00000000000E+00 -0.00000000000E+00 -0.45593999997E+02  0.45594000000E+02  0.51100000000E-03 0.  1.
    9900012    2    1    2    0    0 -0.59031653290E+01 -0.67706691142E+01 -0.30594480142E+02  0.59302085613E+02  0.50000258217E+02 0.  0.
         12    1    1    2    0    0  0.59031653290E+01  0.67706691142E+01  0.30594480142E+02  0.31885914387E+02  0.00000000000E+00 0. -1.
         11    1    3    3    0    0 -0.16972886616E+01 -0.11953806218E+02 -0.12184305768E+02  0.17153179857E+02  0.51100000000E-03 0. -1.
        -11    1    3    3    0    0 -0.20439209197E+02 -0.10418545140E+01 -0.87322364210E+01  0.22250813167E+02  0.51100000000E-03 0.  1.
        -12    1    3    3    0    0  0.16233332529E+02  0.62249916179E+01 -0.96779379524E+01  0.19898092589E+02  0.00000000000E+00 0.  1.
</event>
<event>
 7    1  0.5662448E-012  0.5930194E+02  0.7816164E-02  0.1266605E+00
        -11   -1    0    0    0    0  0.00000000000E+00  0.00000000000E+00  0.45593999997E+02  0.45594000000E+02  0.51100000000E-03 0.  1.
         11   -1    0    0    0    0 -0.00000000000E+00 -0.00000000000E+00 -0.45593999997E+02  0.45594000000E+02  0.51100000000E-03 0. -1.
    9900012    2    1    2    0    0 -0.18642521849E+02  0.21993972973E+02 -0.13617725033E+02  0.59301938733E+02  0.49999990344E+02 0.  0.
         12    1    1    2    0    0  0.18642521849E+02 -0.21993972973E+02  0.13617725033E+02  0.31886061267E+02  0.00000000000E+00 0. -1.
         11    1    3    3    0    0 -0.51934809359E+01 -0.43537547684E+01 -0.48814383130E+01  0.83519976699E+01  0.51100000000E-03 0. -1.
        -11    1    3    3    0    0 -0.20548264129E+02  0.30317222667E+02  0.29150247769E+01  0.36740475210E+02  0.51100000000E-03 0.  1.
         12    1    3    3    0    0  0.70992232162E+01 -0.39694949252E+01 -0.11651311496E+02  0.14209465853E+02  0.00000000000E+00 0. -1.
</event>
<event>
 7    1  0.5662448E-012  0.5930232E+02  0.7816164E-02  0.1266603E+00
        -11   -1    0    0    0    0  0.00000000000E+00  0.00000000000E+00  0.45593999997E+02  0.45594000000E+02  0.51100000000E-03 0. -1.
         11   -1    0    0    0    0 -0.00000000000E+00 -0.00000000000E+00 -0.45593999997E+02  0.45594000000E+02  0.51100000000E-03 0.  1.
    9900012    2    1    2    0    0 -0.74514090121E+01  0.29003149223E+01 -0.30866826576E+02  0.59302324442E+02  0.50000693779E+02 0.  0.
         12    1    1    2    0    0  0.74514090121E+01 -0.29003149223E+01  0.30866826576E+02  0.31885675558E+02  0.00000000000E+00 0. -1.
         11    1    3    3    0    0 -0.86150843344E+01 -0.83051256739E+01 -0.18831038265E+02  0.22311494637E+02  0.51100000000E-03 0. -1.
        -11    1    3    3    0    0  0.11393529192E+02 -0.72686804546E+01 -0.72557253933E+01  0.15339223391E+02  0.51100000000E-03 0.  1.
         12    1    3    3    0    0 -0.10229853869E+02  0.18474121051E+02 -0.47800629181E+01  0.21651606414E+02  0.00000000000E+00 0. -1.
</event>
<event>
 7    1  0.5662448E-012  0.5930212E+02  0.7816164E-02  0.1266604E+00
        -11   -1    0    0    0    0  0.00000000000E+00  0.00000000000E+00  0.45593999997E+02  0.45594000000E+02  0.51100000000E-03 0.  1.
         11   -1    0    0    0    0 -0.00000000000E+00 -0.00000000000E+00 -0.45593999997E+02  0.45594000000E+02  0.51100000000E-03 0. -1.
    9900012    2    1    2    0    0  0.67617752426E+00  0.20090525433E+02  0.24751220511E+02  0.59302119975E+02  0.50000320884E+02 0.  0.
         12    1    1    2    0    0 -0.67617752426E+00 -0.20090525433E+02 -0.24751220511E+02  0.31885880025E+02  0.00000000000E+00 0. -1.
         11    1    3    3    0    0  0.19620504406E+01  0.11069640687E+02 -0.16588370832E+01  0.11363904594E+02  0.51100000000E-03 0. -1.
        -11    1    3    3    0    0  0.96638186020E+01  0.21347250069E+02  0.13935857205E+02  0.27263576284E+02  0.51100000000E-03 0.  1.
        -12    1    3    3    0    0 -0.10949691518E+02 -0.12326365324E+02  0.12474200390E+02  0.20674639097E+02  0.00000000000E+00 0.  1.
</event>
<event>
 7    1  0.5662448E-012  0.5930192E+02  0.7816164E-02  0.1266605E+00
        -11   -1    0    0    0    0  0.00000000000E+00  0.00000000000E+00  0.45593999997E+02  0.45594000000E+02  0.51100000000E-03 0. -1.
         11   -1    0    0    0    0 -0.00000000000E+00 -0.00000000000E+00 -0.45593999997E+02  0.45594000000E+02  0.51100000000E-03 0.  1.
    9900012    2    1    2    0    0 -0.17571947734E+02  0.18230840835E+02  0.19380023914E+02  0.59301917901E+02  0.49999952351E+02 0.  0.
         12    1    1    2    0    0  0.17571947734E+02 -0.18230840835E+02 -0.19380023914E+02  0.31886082099E+02  0.00000000000E+00 0. -1.
         11    1    3    3    0    0  0.49718826536E+01  0.12246026875E+02  0.19824626295E+02  0.23826468462E+02  0.51100000000E-03 0. -1.
        -11    1    3    3    0    0 -0.24847882727E+01 -0.96862622310E+01 -0.63337370443E+00  0.10019930702E+02  0.51100000000E-03 0.  1.
        -12    1    3    3    0    0 -0.20059042115E+02  0.15671076191E+02  0.18877132379E+00  0.25455518737E+02  0.00000000000E+00 0.  1.
</event>
<event>
 7    1  0.5662448E-012  0.5930197E+02  0.7816164E-02  0.1266605E+00
        -11   -1    0    0    0    0  0.00000000000E+00  0.00000000000E+00  0.45593999997E+02  0.45594000000E+02  0.51100000000E-03 0. -1.
         11   -1    0    0    0    0 -0.00000000000E+00 -0.00000000000E+00 -0.45593999997E+02  0.45594000000E+02  0.51100000000E-03 0.  1.
    9900012    2    1    2    0    0  0.34906936045E+01  0.30935306895E+02 -0.68949989733E+01  0.59301965982E+02  0.50000040040E+02 0.  0.
         12    1    1    2    0    0 -0.34906936045E+01 -0.30935306895E+02  0.68949989733E+01  0.31886034018E+02  0.00000000000E+00 0. -1.
         11    1    3    3    0    0  0.58241208837E+00  0.24886754710E+02 -0.32040154676E+00  0.24895630565E+02  0.51100000000E-03 0.  1.
        -11    1    3    3    0    0  0.13813995871E+02  0.13879494337E+02 -0.29547310368E+00  0.19584538534E+02  0.51100000000E-03 0. -1.
         12    1    3    3    0    0 -0.10905714355E+02 -0.78309421516E+01 -0.62791243229E+01  0.14821796883E+02  0.00000000000E+00 0. -1.
</event>
<event>
 7    1  0.5662448E-012  0.5930188E+02  0.7816164E-02  0.1266605E+00
        -11   -1    0    0    0    0  0.00000000000E+00  0.00000000000E+00  0.45593999997E+02  0.45594000000E+02  0.51100000000E-03 0.  1.
         11   -1    0    0    0    0 -0.00000000000E+00 -0.00000000000E+00 -0.45593999997E+02  0.45594000000E+02  0.51100000000E-03 0. -1.
    9900012    2    1    2    0    0 -0.10786530543E+02 -0.29980441941E+02  0.12443642376E+01  0.59301881037E+02  0.49999885120E+02 0.  0.
         12    1    1    2    0    0  0.10786530543E+02  0.29980441941E+02 -0.12443642376E+01  0.31886118963E+02  0.00000000000E+00 0. -1.
         11    1    3    3    0    0 -0.48517052812E+01  0.68802579835E+01 -0.53802725302E+01  0.99912124797E+01  0.51100000000E-03 0. -1.
        -11    1    3    3    0    0 -0.50148023026E+01 -0.20802340932E+02  0.19312107827E+02  0.28824349765E+02  0.51100000000E-03 0.  1.
         12    1    3    3    0    0 -0.92002295893E+00 -0.16058358992E+02 -0.12687471059E+02  0.20486318792E+02  0.00000000000E+00 0. -1.
</event>
<event>
 7    1  0.5662448E-012  0.5930195E+02  0.7816164E-02  0.1266605E+00
        -11   -1    0    0    0    0  0.00000000000E+00  0.00000000000E+00  0.45593999997E+02  0.45594000000E+02  0.51100000000E-03 0.  1.
         11   -1    0    0    0    0 -0.00000000000E+00 -0.00000000000E+00 -0.45593999997E+02  0.45594000000E+02  0.51100000000E-03 0. -1.
    9900012    2    1    2    0    0 -0.15903120123E+02 -0.21307304786E+02  0.17601411927E+02  0.59301950249E+02  0.50000011347E+02 0.  0.
         12    1    1    2    0    0  0.15903120123E+02  0.21307304786E+02 -0.17601411927E+02  0.31886049751E+02  0.00000000000E+00 0. -1.
         11    1    3    3    0    0 -0.22933694850E+01 -0.22959389987E+02 -0.20395990612E+01  0.23163615796E+02  0.51100000000E-03 0. -1.
        -11    1    3    3    0    0  0.60443945114E+01 -0.44894982349E+01 -0.21586674126E+00  0.75323899342E+01  0.51100000000E-03 0.  1.
        -12    1    3    3    0    0 -0.19654145149E+02  0.61415834361E+01  0.19856877730E+02  0.28605944519E+02  0.00000000000E+00 0.  1.
</event>
<event>
 7    1  0.5662448E-012  0.5930189E+02  0.7816164E-02  0.1266605E+00
        -11   -1    0    0    0    0  0.00000000000E+00  0.00000000000E+00  0.45593999997E+02  0.45594000000E+02  0.51100000000E-03 0. -1.
         11   -1    0    0    0    0 -0.00000000000E+00 -0.00000000000E+00 -0.45593999997E+02  0.45594000000E+02  0.51100000000E-03 0.  1.
    9900012    2    1    2    0    0  0.24371616371E+02 -0.13699954745E+02 -0.15331661718E+02  0.59301885536E+02  0.49999893326E+02 0.  0.
         12    1    1    2    0    0 -0.24371616371E+02  0.13699954745E+02  0.15331661718E+02  0.31886114464E+02  0.00000000000E+00 0. -1.
         11    1    3    3    0    0 -0.52983831481E+01 -0.10350363586E+02 -0.85670856165E+01  0.14442916830E+02  0.51100000000E-03 0. -1.
        -11    1    3    3    0    0 -0.48183399010E+01  0.27401089889E+01 -0.80961169997E+01  0.98118146847E+01  0.51100000000E-03 0.  1.
         12    1    3    3    0    0  0.34488339420E+02 -0.60897001483E+01  0.13315408979E+01  0.35047154021E+02  0.00000000000E+00 0. -1.
</event>
<event>
 7    1  0.5662448E-012  0.5930194E+02  0.7816164E-02  0.1266605E+00
        -11   -1    0    0    0    0  0.00000000000E+00  0.00000000000E+00  0.45593999997E+02  0.45594000000E+02  0.51100000000E-03 0.  1.
         11   -1    0    0    0    0 -0.00000000000E+00 -0.00000000000E+00 -0.45593999997E+02  0.45594000000E+02  0.51100000000E-03 0. -1.
    9900012    2    1    2    0    0 -0.39480869273E+01  0.29288616839E+02 -0.11971229371E+02  0.59301940360E+02  0.49999993311E+02 0.  0.
         12    1    1    2    0    0  0.39480869273E+01 -0.29288616839E+02  0.11971229371E+02  0.31886059640E+02  0.00000000000E+00 0. -1.
         11    1    3    3    0    0  0.76647786019E+01  0.17219937514E+02  0.56821553068E+01  0.19686593616E+02  0.51100000000E-03 0. -1.
        -11    1    3    3    0    0  0.37028049255E+01  0.17648171922E+02 -0.42858648680E+01  0.18534761246E+02  0.51100000000E-03 0.  1.
         12    1    3    3    0    0 -0.15315670455E+02 -0.55794925969E+01 -0.13367519810E+02  0.21080585499E+02  0.00000000000E+00 0. -1.
</event>
<event>
 7    1  0.5662448E-012  0.5930176E+02  0.7816164E-02  0.1266605E+00
        -11   -1    0    0    0    0  0.00000000000E+00  0.00000000000E+00  0.45593999997E+02  0.45594000000E+02  0.51100000000E-03 0. -1.
         11   -1    0    0    0    0 -0.00000000000E+00 -0.00000000000E+00 -0.45593999997E+02  0.45594000000E+02  0.51100000000E-03 0.  1.
    9900012    2    1    2    0    0 -0.24859593502E+02  0.11688921966E+02  0.16189560154E+02  0.59301762471E+02  0.49999668882E+02 0.  0.
         12    1    1    2    0    0  0.24859593502E+02 -0.11688921966E+02 -0.16189560154E+02  0.31886237529E+02  0.00000000000E+00 0. -1.
         11    1    3    3    0    0 -0.73896374419E+01  0.99672772000E+01  0.26670703837E+02  0.29415638693E+02  0.51100000000E-03 0. -1.
        -11    1    3    3    0    0  0.27474199003E+01 -0.67077979374E+00  0.40028196445E+01  0.49011046722E+01  0.51100000000E-03 0.  1.
        -12    1    3    3    0    0 -0.20217375961E+02  0.23924245594E+01 -0.14483963328E+02  0.24985019105E+02  0.00000000000E+00 0.  1.
</event>
<event>
 7    1  0.5662448E-012  0.5930196E+02  0.7816164E-02  0.1266605E+00
        -11   -1    0    0    0    0  0.00000000000E+00  0.00000000000E+00  0.45593999997E+02  0.45594000000E+02  0.51100000000E-03 0. -1.
         11   -1    0    0    0    0 -0.00000000000E+00 -0.00000000000E+00 -0.45593999997E+02  0.45594000000E+02  0.51100000000E-03 0.  1.
    9900012    2    1    2    0    0  0.16019371934E+02  0.59224114192E+01 -0.26926278796E+02  0.59301957223E+02  0.50000024066E+02 0.  0.
         12    1    1    2    0    0 -0.16019371934E+02 -0.59224114192E+01  0.26926278796E+02  0.31886042777E+02  0.00000000000E+00 0. -1.
         11    1    3    3    0    0 -0.20026604524E+00  0.47765792145E+01  0.62328536251E+01  0.78552071936E+01  0.51100000000E-03 0. -1.
        -11    1    3    3    0    0  0.19490832554E+02  0.12947394737E+02 -0.10409459442E+02  0.25610240730E+02  0.51100000000E-03 0.  1.
        -12    1    3    3    0    0 -0.32711945751E+01 -0.11801562532E+02 -0.22749672979E+02  0.25836509300E+02  0.00000000000E+00 0.  1.
</event>
<event>
 7    1  0.5662448E-012  0.5930205E+02  0.7816164E-02  0.1266604E+00
        -11   -1    0    0    0    0  0.00000000000E+00  0.00000000000E+00  0.45593999997E+02  0.45594000000E+02  0.51100000000E-03 0.  1.
         11   -1    0    0    0    0 -0.00000000000E+00 -0.00000000000E+00 -0.45593999997E+02  0.45594000000E+02  0.51100000000E-03 0. -1.
    9900012    2    1    2    0    0 -0.13159237396E+02  0.10448957107E+02  0.27099215648E+02  0.59302051336E+02  0.50000195704E+02 0.  0.
         12    1    1    2    0    0  0.13159237396E+02 -0.10448957107E+02 -0.27099215648E+02  0.31885948664E+02  0.00000000000E+00 0. -1.
         11    1    3    3    0    0  0.31749256233E+00 -0.13658546354E+02  0.17516959998E+02  0.22214872898E+02  0.51100000000E-03 0. -1.
        -11    1    3    3    0    0 -0.43514158641E+01 -0.20426458456E+01 -0.39869546122E+01  0.62452405409E+01  0.51100000000E-03 0.  1.
        -12    1    3    3    0    0 -0.91253140945E+01  0.26150149307E+02  0.13569210262E+02  0.30841937897E+02  0.00000000000E+00 0.  1.
</event>
<event>
 7    1  0.5662448E-012  0.5930193E+02  0.7816164E-02  0.1266605E+00
        -11   -1    0    0    0    0  0.00000000000E+00  0.00000000000E+00  0.45593999997E+02  0.45594000000E+02  0.51100000000E-03 0.  1.
         11   -1    0    0    0    0 -0.00000000000E+00 -0.00000000000E+00 -0.45593999997E+02  0.45594000000E+02  0.51100000000E-03 0. -1.
    9900012    2    1    2    0    0 -0.88385275370E+01  0.23711780340E+02  0.19399823360E+02  0.59301933414E+02  0.49999980643E+02 0.  0.
         12    1    1    2    0    0  0.88385275370E+01 -0.23711780340E+02 -0.19399823360E+02  0.31886066586E+02  0.00000000000E+00 0. -1.
         11    1    3    3    0    0  0.11204373836E+02  0.57301679287E-01  0.43062225334E+01  0.12003534034E+02  0.51100000000E-03 0. -1.
        -11    1    3    3    0    0 -0.83126021170E+01  0.24029725159E+02  0.22049419276E+02  0.33655667217E+02  0.51100000000E-03 0.  1.
         12    1    3    3    0    0 -0.11730299256E+02 -0.37524649812E+00 -0.69558184488E+01  0.13642732163E+02  0.00000000000E+00 0. -1.
</event>
<event>
 7    1  0.5662448E-012  0.5930196E+02  0.7816164E-02  0.1266605E+00
        -11   -1    0    0    0    0  0.00000000000E+00  0.00000000000E+00  0.45593999997E+02  0.45594000000E+02  0.51100000000E-03 0.  1.
         11   -1    0    0    0    0 -0.00000000000E+00 -0.00000000000E+00 -0.45593999997E+02  0.45594000000E+02  0.51100000000E-03 0. -1.
    9900012    2    1    2    0    0  0.14436686756E+02 -0.61383936839E+01  0.27760080045E+02  0.59301955316E+02  0.50000020586E+02 0.  0.
         12    1    1    2    0    0 -0.14436686756E+02  0.61383936839E+01 -0.27760080045E+02  0.31886044684E+02  0.00000000000E+00 0. -1.
         11    1    3    3    0    0 -0.71692224791E+01 -0.54303549733E+01  0.90557072673E+01  0.12762928365E+02  0.51100000000E-03 0. -1.
        -11    1    3    3    0    0  0.23395419510E+02 -0.15218859282E+02  0.10872987894E+02  0.29952983122E+02  0.51100000000E-03 0.  1.
         12    1    3    3    0    0 -0.17895102749E+01  0.14510820571E+02  0.78313848832E+01  0.16586043828E+02  0.00000000000E+00 0. -1.
</event>
<event>
 7    1  0.5662448E-012  0.5930199E+02  0.7816164E-02  0.1266605E+00
        -11   -1    0    0    0    0  0.00000000000E+00  0.00000000000E+00  0.45593999997E+02  0.45594000000E+02  0.51100000000E-03 0. -1.
         11   -1    0    0    0    0 -0.00000000000E+00 -0.00000000000E+00 -0.45593999997E+02  0.45594000000E+02  0.51100000000E-03 0.  1.
    9900012    2    1    2    0    0 -0.28104949984E+02 -0.21455592176E+01 -0.14907254307E+02  0.59301986312E+02  0.50000077116E+02 0.  0.
         12    1    1    2    0    0  0.28104949984E+02  0.21455592176E+01  0.14907254307E+02  0.31886013688E+02  0.00000000000E+00 0. -1.
         11    1    3    3    0    0 -0.16006257831E+02  0.14747865282E+02 -0.44764121173E+01  0.22220217952E+02  0.51100000000E-03 0. -1.
        -11    1    3    3    0    0 -0.13507534168E+02 -0.50088969406E+01 -0.17897919500E+02  0.22975596849E+02  0.51100000000E-03 0.  1.
         12    1    3    3    0    0  0.14088420158E+01 -0.11884527559E+02  0.74670773099E+01  0.14106171511E+02  0.00000000000E+00 0. -1.
</event>
<event>
 7    1  0.5662448E-012  0.5930193E+02  0.7816164E-02  0.1266605E+00
        -11   -1    0    0    0    0  0.00000000000E+00  0.00000000000E+00  0.45593999997E+02  0.45594000000E+02  0.51100000000E-03 0.  1.
         11   -1    0    0    0    0 -0.00000000000E+00 -0.00000000000E+00 -0.45593999997E+02  0.45594000000E+02  0.51100000000E-03 0. -1.
    9900012    2    1    2    0    0  0.23854504082E+02 -0.11899407506E+02  0.17495368108E+02  0.59301934561E+02  0.49999982734E+02 0.  0.
         12    1    1    2    0    0 -0.23854504082E+02  0.11899407506E+02 -0.17495368108E+02  0.31886065439E+02  0.00000000000E+00 0. -1.
         11    1    3    3    0    0  0.12356952442E+00  0.76591045300E+01  0.10343680582E+02  0.12871242359E+02  0.51100000000E-03 0. -1.
        -11    1    3    3    0    0  0.30817714433E+02 -0.11093624691E+02  0.11283993436E+02  0.34642871414E+02  0.51100000000E-03 0.  1.
         12    1    3    3    0    0 -0.70867798759E+01 -0.84648873452E+01 -0.41323059108E+01  0.11787820787E+02  0.00000000000E+00 0. -1.
</event>
<event>
 7    1  0.5662448E-012  0.5930195E+02  0.7816164E-02  0.1266605E+00
        -11   -1    0    0    0    0  0.00000000000E+00  0.00000000000E+00  0.45593999997E+02  0.45594000000E+02  0.51100000000E-03 0. -1.
         11   -1    0    0    0    0 -0.00000000000E+00 -0.00000000000E+00 -0.45593999997E+02  0.45594000000E+02  0.51100000000E-03 0.  1.
    9900012    2    1    2    0    0  0.28142755706E+02 -0.13700941966E+02 -0.60819162300E+01  0.59301949530E+02  0.50000010036E+02 0.  0.
         12    1    1    2    0    0 -0.28142755706E+02  0.13700941966E+02  0.60819162300E+01  0.31886050470E+02  0.00000000000E+00 0. -1.
         11    1    3    3    0    0 -0.56076005859E+00 -0.11050578359E+02  0.13474386027E+02  0.17435274961E+02  0.51100000000E-03 0. -1.
        -11    1    3    3    0    0 -0.29754609081E+01  0.23606156502E+01  0.79695797298E+00  0.38808525012E+01  0.51100000000E-03 0.  1.
        -12    1    3    3    0    0  0.31678976673E+02 -0.50109792573E+01 -0.20353260230E+02  0.37985822068E+02  0.00000000000E+00 0.  1.
</event>
<event>
 7    1  0.5662448E-012  0.5930195E+02  0.7816164E-02  0.1266605E+00
        -11   -1    0    0    0    0  0.00000000000E+00  0.00000000000E+00  0.45593999997E+02  0.45594000000E+02  0.51100000000E-03 0.  1.
         11   -1    0    0    0    0 -0.00000000000E+00 -0.00000000000E+00 -0.45593999997E+02  0.45594000000E+02  0.51100000000E-03 0. -1.
    9900012    2    1    2    0    0 -0.17861280649E+02  0.26134358504E+02  0.38327579929E+01  0.59301951724E+02  0.50000014035E+02 0.  0.
         12    1    1    2    0    0  0.17861280649E+02 -0.26134358504E+02 -0.38327579929E+01  0.31886048276E+02  0.00000000000E+00 0. -1.
         11    1    3    3    0    0  0.14178850082E+01  0.12017599357E+02 -0.11446483996E+01  0.12154970688E+02  0.51100000000E-03 0. -1.
        -11    1    3    3    0    0  0.10046648980E+01  0.13083646190E+02  0.18547890373E+02  0.22720373825E+02  0.51100000000E-03 0.  1.
        -12    1    3    3    0    0 -0.20283830555E+02  0.10331129579E+01 -0.13570483981E+02  0.24426607211E+02  0.00000000000E+00 0.  1.
</event>
<event>
 7    1  0.5662448E-012  0.5930195E+02  0.7816164E-02  0.1266605E+00
        -11   -1    0    0    0    0  0.00000000000E+00  0.00000000000E+00  0.45593999997E+02  0.45594000000E+02  0.51100000000E-03 0.  1.
         11   -1    0    0    0    0 -0.00000000000E+00 -0.00000000000E+00 -0.45593999997E+02  0.45594000000E+02  0.51100000000E-03 0. -1.
    9900012    2    1    2    0    0 -0.16258207320E+02  0.14011314265E+02  0.23581220570E+02  0.59301949817E+02  0.50000010558E+02 0.  0.
         12    1    1    2    0    0  0.16258207320E+02 -0.14011314265E+02 -0.23581220570E+02  0.31886050183E+02  0.00000000000E+00 0. -1.
         11    1    3    3    0    0  0.10963367600E+02 -0.51922325034E+01 -0.20397383821E+01  0.12301025991E+02  0.51100000000E-03 0. -1.
        -11    1    3    3    0    0  0.17238803658E+00  0.10509378042E+02  0.50761207957E+01  0.11672349680E+02  0.51100000000E-03 0.  1.
        -12    1    3    3    0    0 -0.27393962956E+02  0.86941687269E+01  0.20544838157E+02  0.35328574146E+02  0.00000000000E+00 0.  1.
</event>
<event>
 7    1  0.5662448E-012  0.5930190E+02  0.7816164E-02  0.1266605E+00
        -11   -1    0    0    0    0  0.00000000000E+00  0.00000000000E+00  0.45593999997E+02  0.45594000000E+02  0.51100000000E-03 0. -1.
         11   -1    0    0    0    0 -0.00000000000E+00 -0.00000000000E+00 -0.45593999997E+02  0.45594000000E+02  0.51100000000E-03 0.  1.
    9900012    2    1    2    0    0  0.28152449487E+01  0.21637375694E+02 -0.23251280709E+02  0.59301895101E+02  0.49999910769E+02 0.  0.
         12    1    1    2    0    0 -0.28152449487E+01 -0.21637375694E+02  0.23251280709E+02  0.31886104899E+02  0.00000000000E+00 0. -1.
         11    1    3    3    0    0 -0.19660203071E+01  0.13348872984E+01 -0.40874855163E+01  0.47280755128E+01  0.51100000000E-03 0. -1.
        -11    1    3    3    0    0  0.13995778802E+02  0.32745574068E+02 -0.13662681330E+02  0.38142146068E+02  0.51100000000E-03 0.  1.
         12    1    3    3    0    0 -0.92145135459E+01 -0.12443085672E+02 -0.55011138620E+01  0.16431673520E+02  0.00000000000E+00 0. -1.
</event>
<event>
 7    1  0.5662448E-012  0.5930194E+02  0.7816164E-02  0.1266605E+00
        -11   -1    0    0    0    0  0.00000000000E+00  0.00000000000E+00  0.45593999997E+02  0.45594000000E+02  0.51100000000E-03 0. -1.
         11   -1    0    0    0    0 -0.00000000000E+00 -0.00000000000E+00 -0.45593999997E+02  0.45594000000E+02  0.51100000000E-03 0.  1.
    9900012    2    1    2    0    0  0.12198935563E+02  0.24154079779E+02 -0.16866747154E+02  0.59301941003E+02  0.49999994483E+02 0.  0.
         12    1    1    2    0    0 -0.12198935563E+02 -0.24154079779E+02  0.16866747154E+02  0.31886058997E+02  0.00000000000E+00 0. -1.
         11    1    3    3    0    0  0.97464577625E+01  0.10869902203E+02 -0.65621605747E+01  0.16006566293E+02  0.51100000000E-03 0.  1.
        -11    1    3    3    0    0 -0.19540441992E+01 -0.13716953997E+02 -0.76019146774E+01  0.15803867334E+02  0.51100000000E-03 0. -1.
         12    1    3    3    0    0  0.44065219998E+01  0.27001131573E+02 -0.27026719018E+01  0.27491507375E+02  0.00000000000E+00 0. -1.
</event>
<event>
 7    1  0.5662448E-012  0.5930192E+02  0.7816164E-02  0.1266605E+00
        -11   -1    0    0    0    0  0.00000000000E+00  0.00000000000E+00  0.45593999997E+02  0.45594000000E+02  0.51100000000E-03 0.  1.
         11   -1    0    0    0    0 -0.00000000000E+00 -0.00000000000E+00 -0.45593999997E+02  0.45594000000E+02  0.51100000000E-03 0. -1.
    9900012    2    1    2    0    0 -0.13829384226E+02 -0.95817598680E+01  0.27086158379E+02  0.59301922066E+02  0.49999959948E+02 0.  0.
         12    1    1    2    0    0  0.13829384226E+02  0.95817598680E+01 -0.27086158379E+02  0.31886077934E+02  0.00000000000E+00 0. -1.
         11    1    3    3    0    0  0.46389470162E+00 -0.21187064404E+01  0.59162506390E+01  0.63012805968E+01  0.51100000000E-03 0. -1.
        -11    1    3    3    0    0 -0.24211986642E+02 -0.86840251967E+01  0.30103510265E+02  0.39596135181E+02  0.51100000000E-03 0.  1.
         12    1    3    3    0    0  0.99187077139E+01  0.12209717691E+01 -0.89336025245E+01  0.13404506289E+02  0.00000000000E+00 0. -1.
</event>
<event>
 7    1  0.5662448E-012  0.5930224E+02  0.7816164E-02  0.1266604E+00
        -11   -1    0    0    0    0  0.00000000000E+00  0.00000000000E+00  0.45593999997E+02  0.45594000000E+02  0.51100000000E-03 0.  1.
         11   -1    0    0    0    0 -0.00000000000E+00 -0.00000000000E+00 -0.45593999997E+02  0.45594000000E+02  0.51100000000E-03 0. -1.
    9900012    2    1    2    0    0 -0.72608207063E+01 -0.64576424859E+01  0.30369080680E+02  0.59302239461E+02  0.50000538797E+02 0.  0.
         12    1    1    2    0    0  0.72608207063E+01  0.64576424859E+01 -0.30369080680E+02  0.31885760539E+02  0.00000000000E+00 0. -1.
         11    1    3    3    0    0  0.10466482779E+02  0.42252214196E+01  0.12135698791E+02  0.16573320223E+02  0.51100000000E-03 0. -1.
        -11    1    3    3    0    0 -0.47123984513E+01 -0.90641282588E+01  0.25686820621E+02  0.27643767365E+02  0.51100000000E-03 0.  1.
        -12    1    3    3    0    0 -0.13014905034E+02 -0.16187356467E+01 -0.74534387315E+01  0.15085151874E+02  0.00000000000E+00 0.  1.
</event>
<event>
 7    1  0.5662448E-012  0.5930202E+02  0.7816164E-02  0.1266605E+00
        -11   -1    0    0    0    0  0.00000000000E+00  0.00000000000E+00  0.45593999997E+02  0.45594000000E+02  0.51100000000E-03 0.  1.
         11   -1    0    0    0    0 -0.00000000000E+00 -0.00000000000E+00 -0.45593999997E+02  0.45594000000E+02  0.51100000000E-03 0. -1.
    9900012    2    1    2    0    0 -0.39345021852E+00 -0.18627562011E+02  0.25876145831E+02  0.59302018870E+02  0.50000136495E+02 0.  0.
         12    1    1    2    0    0  0.39345021852E+00  0.18627562011E+02 -0.25876145831E+02  0.31885981130E+02  0.00000000000E+00 0. -1.
         11    1    3    3    0    0  0.17111932666E+02 -0.13503965914E+02 -0.24474225178E+01  0.21935478390E+02  0.51100000000E-03 0. -1.
        -11    1    3    3    0    0  0.23159652394E+01  0.18089204405E+00  0.85892439989E+01  0.88978384822E+01  0.51100000000E-03 0.  1.
         12    1    3    3    0    0 -0.19821348124E+02 -0.53044881413E+01  0.19734324349E+02  0.28468701998E+02  0.00000000000E+00 0. -1.
</event>
<event>
 7    1  0.5662448E-012  0.5930184E+02  0.7816164E-02  0.1266605E+00
        -11   -1    0    0    0    0  0.00000000000E+00  0.00000000000E+00  0.45593999997E+02  0.45594000000E+02  0.51100000000E-03 0.  1.
         11   -1    0    0    0    0 -0.00000000000E+00 -0.00000000000E+00 -0.45593999997E+02  0.45594000000E+02  0.51100000000E-03 0. -1.
    9900012    2    1    2    0    0  0.29317099910E+02 -0.46500525237E+01 -0.11645254885E+02  0.59301838473E+02  0.49999807493E+02 0.  0.
         12    1    1    2    0    0 -0.29317099910E+02  0.46500525237E+01  0.11645254885E+02  0.31886161527E+02  0.00000000000E+00 0. -1.
         11    1    3    3    0    0  0.26320025131E+02 -0.97523114250E+01 -0.12161124549E+02  0.30589937097E+02  0.51100000000E-03 0. -1.
        -11    1    3    3    0    0  0.14115793957E+02  0.88322772557E+01 -0.18311625752E+01  0.16751654163E+02  0.51100000000E-03 0.  1.
         12    1    3    3    0    0 -0.11118719177E+02 -0.37300183545E+01  0.23470322390E+01  0.11960247213E+02  0.00000000000E+00 0. -1.
</event>
<event>
 7    1  0.5662448E-012  0.5930190E+02  0.7816164E-02  0.1266605E+00
        -11   -1    0    0    0    0  0.00000000000E+00  0.00000000000E+00  0.45593999997E+02  0.45594000000E+02  0.51100000000E-03 0. -1.
         11   -1    0    0    0    0 -0.00000000000E+00 -0.00000000000E+00 -0.45593999997E+02  0.45594000000E+02  0.51100000000E-03 0.  1.
    9900012    2    1    2    0    0  0.13313244536E+02 -0.55566343197E+01 -0.28435972738E+02  0.59301902550E+02  0.49999924355E+02 0.  0.
         12    1    1    2    0    0 -0.13313244536E+02  0.55566343197E+01  0.28435972738E+02  0.31886097450E+02  0.00000000000E+00 0. -1.
         11    1    3    3    0    0 -0.94758713543E+01 -0.52368978161E+01 -0.16161869548E+02  0.19453104230E+02  0.51100000000E-03 0. -1.
        -11    1    3    3    0    0  0.33014378315E+01 -0.64354518635E+01 -0.17354711069E+02  0.18801609745E+02  0.51100000000E-03 0.  1.
        -12    1    3    3    0    0  0.19487678059E+02  0.61157153599E+01  0.50806078791E+01  0.21047188575E+02  0.00000000000E+00 0.  1.
</event>
<event>
 7    1  0.5662448E-012  0.5930194E+02  0.7816164E-02  0.1266605E+00
        -11   -1    0    0    0    0  0.00000000000E+00  0.00000000000E+00  0.45593999997E+02  0.45594000000E+02  0.51100000000E-03 0.  1.
         11   -1    0    0    0    0 -0.00000000000E+00 -0.00000000000E+00 -0.45593999997E+02  0.45594000000E+02  0.51100000000E-03 0. -1.
    9900012    2    1    2    0    0 -0.17012005552E+02  0.23175546511E+02 -0.13791530852E+02  0.59301943294E+02  0.49999998663E+02 0.  0.
         12    1    1    2    0    0  0.17012005552E+02 -0.23175546511E+02  0.13791530852E+02  0.31886056706E+02  0.00000000000E+00 0. -1.
         11    1    3    3    0    0 -0.29338762624E+01  0.34804829535E+01  0.85185531537E+01  0.96585267824E+01  0.51100000000E-03 0.  1.
        -11    1    3    3    0    0 -0.14619044784E+02  0.18674182652E+02 -0.32030452760E+02  0.39854629247E+02  0.51100000000E-03 0. -1.
         12    1    3    3    0    0  0.54091549463E+00  0.10208809054E+01  0.97203687546E+01  0.97887872651E+01  0.00000000000E+00 0. -1.
</event>
<event>
 7    1  0.5662448E-012  0.5930196E+02  0.7816164E-02  0.1266605E+00
        -11   -1    0    0    0    0  0.00000000000E+00  0.00000000000E+00  0.45593999997E+02  0.45594000000E+02  0.51100000000E-03 0.  1.
         11   -1    0    0    0    0 -0.00000000000E+00 -0.00000000000E+00 -0.45593999997E+02  0.45594000000E+02  0.51100000000E-03 0. -1.
    9900012    2    1    2    0    0  0.85462245042E+01  0.17833345349E+02  0.25013070154E+02  0.59301955433E+02  0.50000020800E+02 0.  0.
         12    1    1    2    0    0 -0.85462245042E+01 -0.17833345349E+02 -0.25013070154E+02  0.31886044567E+02  0.00000000000E+00 0. -1.
         11    1    3    3    0    0  0.20607694104E+02 -0.25330009177E+00  0.18645308504E+02  0.27791882748E+02  0.51100000000E-03 0. -1.
        -11    1    3    3    0    0  0.14234808372E+01 -0.43825641591E+01  0.15789952768E+01  0.48709745070E+01  0.51100000000E-03 0.  1.
        -12    1    3    3    0    0 -0.13484950437E+02  0.22469209600E+02  0.47887663728E+01  0.26639098178E+02  0.00000000000E+00 0.  1.
</event>
<event>
 7    1  0.5662448E-012  0.5930194E+02  0.7816164E-02  0.1266605E+00
        -11   -1    0    0    0    0  0.00000000000E+00  0.00000000000E+00  0.45593999997E+02  0.45594000000E+02  0.51100000000E-03 0.  1.
         11   -1    0    0    0    0 -0.00000000000E+00 -0.00000000000E+00 -0.45593999997E+02  0.45594000000E+02  0.51100000000E-03 0. -1.
    9900012    2    1    2    0    0  0.81253770098E+01  0.19639339198E+01  0.30770796421E+02  0.59301941912E+02  0.49999996142E+02 0.  0.
         12    1    1    2    0    0 -0.81253770098E+01 -0.19639339198E+01 -0.30770796421E+02  0.31886058088E+02  0.00000000000E+00 0. -1.
         11    1    3    3    0    0 -0.57169899606E+01 -0.39177008016E+01  0.25605499347E+02  0.26526853391E+02  0.51100000000E-03 0. -1.
        -11    1    3    3    0    0  0.68484100056E+01 -0.41167999003E+00  0.16603116233E+02  0.17964789699E+02  0.51100000000E-03 0.  1.
         12    1    3    3    0    0  0.69939569648E+01  0.62933147115E+01 -0.11437819159E+02  0.14810298822E+02  0.00000000000E+00 0. -1.
</event>
<event>
 7    1  0.5662448E-012  0.5930193E+02  0.7816164E-02  0.1266605E+00
        -11   -1    0    0    0    0  0.00000000000E+00  0.00000000000E+00  0.45593999997E+02  0.45594000000E+02  0.51100000000E-03 0.  1.
         11   -1    0    0    0    0 -0.00000000000E+00 -0.00000000000E+00 -0.45593999997E+02  0.45594000000E+02  0.51100000000E-03 0. -1.
    9900012    2    1    2    0    0 -0.30936057164E+02  0.13822990235E+01  0.76007328846E+01  0.59301929000E+02  0.49999972592E+02 0.  0.
         12    1    1    2    0    0  0.30936057164E+02 -0.13822990235E+01 -0.76007328846E+01  0.31886071000E+02  0.00000000000E+00 0. -1.
         11    1    3    3    0    0 -0.10815249533E+02 -0.12348475784E+01  0.47130987933E+01  0.11862030665E+02  0.51100000000E-03 0. -1.
        -11    1    3    3    0    0 -0.45017207719E+01 -0.81140608988E+01  0.19910454020E+02  0.21966557621E+02  0.51100000000E-03 0.  1.
         12    1    3    3    0    0 -0.15619086859E+02  0.10731207501E+02 -0.17022819929E+02  0.25473340713E+02  0.00000000000E+00 0. -1.
</event>
<event>
 7    1  0.5662448E-012  0.5930196E+02  0.7816164E-02  0.1266605E+00
        -11   -1    0    0    0    0  0.00000000000E+00  0.00000000000E+00  0.45593999997E+02  0.45594000000E+02  0.51100000000E-03 0. -1.
         11   -1    0    0    0    0 -0.00000000000E+00 -0.00000000000E+00 -0.45593999997E+02  0.45594000000E+02  0.51100000000E-03 0.  1.
    9900012    2    1    2    0    0 -0.29092560319E+02  0.11319787250E+02 -0.64965518668E+01  0.59301955475E+02  0.50000020877E+02 0.  0.
         12    1    1    2    0    0  0.29092560319E+02 -0.11319787250E+02  0.64965518668E+01  0.31886044525E+02  0.00000000000E+00 0. -1.
         11    1    3    3    0    0 -0.11479795568E+02  0.75705877929E+01  0.15777580451E+02  0.20929203305E+02  0.51100000000E-03 0. -1.
        -11    1    3    3    0    0 -0.19001775327E+01  0.12568380949E+02 -0.58525316070E+01  0.13993820094E+02  0.51100000000E-03 0.  1.
         12    1    3    3    0    0 -0.15712587218E+02 -0.88191814918E+01 -0.16421600711E+02  0.24378932077E+02  0.00000000000E+00 0. -1.
</event>
<event>
 7    1  0.5662448E-012  0.5930200E+02  0.7816164E-02  0.1266605E+00
        -11   -1    0    0    0    0  0.00000000000E+00  0.00000000000E+00  0.45593999997E+02  0.45594000000E+02  0.51100000000E-03 0. -1.
         11   -1    0    0    0    0 -0.00000000000E+00 -0.00000000000E+00 -0.45593999997E+02  0.45594000000E+02  0.51100000000E-03 0.  1.
    9900012    2    1    2    0    0  0.26242780104E+02  0.10301718734E+02 -0.14896575183E+02  0.59302001997E+02  0.50000105722E+02 0.  0.
         12    1    1    2    0    0 -0.26242780104E+02 -0.10301718734E+02  0.14896575183E+02  0.31885998003E+02  0.00000000000E+00 0. -1.
         11    1    3    3    0    0  0.16770681894E+02  0.21966023838E+02 -0.81771661746E+01  0.28820617990E+02  0.51100000000E-03 0. -1.
        -11    1    3    3    0    0  0.61359605143E+01  0.61200401354E+00 -0.14369558767E+02  0.15636776514E+02  0.51100000000E-03 0.  1.
         12    1    3    3    0    0  0.33361376955E+01 -0.12276309118E+02  0.76501497581E+01  0.14844607492E+02  0.00000000000E+00 0. -1.
</event>
<event>
 7    1  0.5662448E-012  0.5930198E+02  0.7816164E-02  0.1266605E+00
        -11   -1    0    0    0    0  0.00000000000E+00  0.00000000000E+00  0.45593999997E+02  0.45594000000E+02  0.51100000000E-03 0.  1.
         11   -1    0    0    0    0 -0.00000000000E+00 -0.00000000000E+00 -0.45593999997E+02  0.45594000000E+02  0.51100000000E-03 0. -1.
    9900012    2    1    2    0    0  0.76893973195E+01  0.13786686680E+02  0.27704132070E+02  0.59301976502E+02  0.50000059226E+02 0.  0.
         12    1    1    2    0    0 -0.76893973195E+01 -0.13786686680E+02 -0.27704132070E+02  0.31886023498E+02  0.00000000000E+00 0. -1.
         11    1    3    3    0    0 -0.44032039990E+01 -0.69255508472E+01  0.14866313365E+01  0.83403556870E+01  0.51100000000E-03 0. -1.
        -11    1    3    3    0    0 -0.83595712456E+01  0.18343650212E+02  0.22195594606E+02  0.29983601429E+02  0.51100000000E-03 0.  1.
         12    1    3    3    0    0  0.20452172564E+02  0.23685873146E+01  0.40219061280E+01  0.20978019386E+02  0.00000000000E+00 0. -1.
</event>
<event>
 7    1  0.5662448E-012  0.5930199E+02  0.7816164E-02  0.1266605E+00
        -11   -1    0    0    0    0  0.00000000000E+00  0.00000000000E+00  0.45593999997E+02  0.45594000000E+02  0.51100000000E-03 0.  1.
         11   -1    0    0    0    0 -0.00000000000E+00 -0.00000000000E+00 -0.45593999997E+02  0.45594000000E+02  0.51100000000E-03 0. -1.
    9900012    2    1    2    0    0 -0.57882008023E+01  0.29614451319E+02  0.10305274134E+02  0.59301989424E+02  0.50000082792E+02 0.  0.
         12    1    1    2    0    0  0.57882008023E+01 -0.29614451319E+02 -0.10305274134E+02  0.31886010576E+02  0.00000000000E+00 0. -1.
         11    1    3    3    0    0 -0.52805518864E+01 -0.52745487361E+01  0.54726612152E+01  0.92550047883E+01  0.51100000000E-03 0. -1.
        -11    1    3    3    0    0 -0.15104339459E+02  0.29580089881E+02  0.80731560679E+01  0.34180383804E+02  0.51100000000E-03 0.  1.
         12    1    3    3    0    0  0.14596690543E+02  0.53089101740E+01 -0.32405431486E+01  0.15866600831E+02  0.00000000000E+00 0. -1.
</event>
<event>
 7    1  0.5662448E-012  0.5930196E+02  0.7816164E-02  0.1266605E+00
        -11   -1    0    0    0    0  0.00000000000E+00  0.00000000000E+00  0.45593999997E+02  0.45594000000E+02  0.51100000000E-03 0.  1.
         11   -1    0    0    0    0 -0.00000000000E+00 -0.00000000000E+00 -0.45593999997E+02  0.45594000000E+02  0.51100000000E-03 0. -1.
    9900012    2    1    2    0    0  0.19960713856E+02 -0.17795589013E+02  0.17366819342E+02  0.59301960735E+02  0.50000030469E+02 0.  0.
         12    1    1    2    0    0 -0.19960713856E+02  0.17795589013E+02 -0.17366819342E+02  0.31886039265E+02  0.00000000000E+00 0. -1.
         11    1    3    3    0    0 -0.14183605499E+01  0.40621065742E+01  0.21861992735E+02  0.22281364031E+02  0.51100000000E-03 0.  1.
        -11    1    3    3    0    0  0.14510487250E+01 -0.10698730207E+02 -0.86147753887E+01  0.13812412016E+02  0.51100000000E-03 0. -1.
        -12    1    3    3    0    0  0.19928025681E+02 -0.11158965379E+02  0.41196019963E+01  0.23208184688E+02  0.00000000000E+00 0.  1.
</event>
<event>
 7    1  0.5662448E-012  0.5930198E+02  0.7816164E-02  0.1266605E+00
        -11   -1    0    0    0    0  0.00000000000E+00  0.00000000000E+00  0.45593999997E+02  0.45594000000E+02  0.51100000000E-03 0.  1.
         11   -1    0    0    0    0 -0.00000000000E+00 -0.00000000000E+00 -0.45593999997E+02  0.45594000000E+02  0.51100000000E-03 0. -1.
    9900012    2    1    2    0    0 -0.30783356278E+02  0.25923421346E+01  0.78983040822E+01  0.59301976905E+02  0.50000059960E+02 0.  0.
         12    1    1    2    0    0  0.30783356278E+02 -0.25923421346E+01 -0.78983040822E+01  0.31886023095E+02  0.00000000000E+00 0. -1.
         11    1    3    3    0    0 -0.70006368031E+01  0.71418816859E+01 -0.94029606318E+01  0.13727019289E+02  0.51100000000E-03 0. -1.
        -11    1    3    3    0    0 -0.29276092685E+02 -0.34127653051E+01  0.23056239866E+01  0.29564378433E+02  0.51100000000E-03 0.  1.
         12    1    3    3    0    0  0.54933732105E+01 -0.11367742463E+01  0.14995640727E+02  0.16010579182E+02  0.00000000000E+00 0. -1.
</event>
<event>
 7    1  0.5662448E-012  0.5930166E+02  0.7816164E-02  0.1266606E+00
        -11   -1    0    0    0    0  0.00000000000E+00  0.00000000000E+00  0.45593999997E+02  0.45594000000E+02  0.51100000000E-03 0.  1.
         11   -1    0    0    0    0 -0.00000000000E+00 -0.00000000000E+00 -0.45593999997E+02  0.45594000000E+02  0.51100000000E-03 0. -1.
    9900012    2    1    2    0    0 -0.19094224962E+02 -0.99787784352E+01  0.23506879125E+02  0.59301657906E+02  0.49999478179E+02 0.  0.
         12    1    1    2    0    0  0.19094224962E+02  0.99787784352E+01 -0.23506879125E+02  0.31886342094E+02  0.00000000000E+00 0. -1.
         11    1    3    3    0    0  0.44259163342E+01 -0.28340866056E+01 -0.28626283368E+01  0.59845988622E+01  0.51100000000E-03 0. -1.
        -11    1    3    3    0    0 -0.15858830045E+02  0.84456376109E+01 -0.39290142628E+01  0.18392075423E+02  0.51100000000E-03 0.  1.
        -12    1    3    3    0    0 -0.76613112513E+01 -0.15590329441E+02  0.30298521725E+02  0.34924983620E+02  0.00000000000E+00 0.  1.
</event>
<event>
 7    1  0.5662448E-012  0.5930197E+02  0.7816164E-02  0.1266605E+00
        -11   -1    0    0    0    0  0.00000000000E+00  0.00000000000E+00  0.45593999997E+02  0.45594000000E+02  0.51100000000E-03 0.  1.
         11   -1    0    0    0    0 -0.00000000000E+00 -0.00000000000E+00 -0.45593999997E+02  0.45594000000E+02  0.51100000000E-03 0. -1.
    9900012    2    1    2    0    0  0.34140321083E+01  0.29536756163E+02  0.11517086534E+02  0.59301970738E+02  0.50000048714E+02 0.  0.
         12    1    1    2    0    0 -0.34140321083E+01 -0.29536756163E+02 -0.11517086534E+02  0.31886029262E+02  0.00000000000E+00 0. -1.
         11    1    3    3    0    0 -0.76973212447E+01  0.15168942303E+02  0.60651714831E+01  0.18059121527E+02  0.51100000000E-03 0. -1.
        -11    1    3    3    0    0  0.15913364493E+01  0.25873699431E+02  0.41472242572E+01  0.26252240728E+02  0.51100000000E-03 0.  1.
         12    1    3    3    0    0  0.95200169037E+01 -0.11505885572E+02  0.13046907933E+01  0.14990608483E+02  0.00000000000E+00 0. -1.
</event>
<event>
 7    1  0.5662448E-012  0.5930195E+02  0.7816164E-02  0.1266605E+00
        -11   -1    0    0    0    0  0.00000000000E+00  0.00000000000E+00  0.45593999997E+02  0.45594000000E+02  0.51100000000E-03 0.  1.
         11   -1    0    0    0    0 -0.00000000000E+00 -0.00000000000E+00 -0.45593999997E+02  0.45594000000E+02  0.51100000000E-03 0. -1.
    9900012    2    1    2    0    0 -0.21434632516E+02  0.81127944903E+01  0.22168876719E+02  0.59301952886E+02  0.50000016156E+02 0.  0.
         12    1    1    2    0    0  0.21434632516E+02 -0.81127944903E+01 -0.22168876719E+02  0.31886047114E+02  0.00000000000E+00 0. -1.
         11    1    3    3    0    0 -0.24798973939E+02 -0.37471594702E+01  0.45164234628E+01  0.25483884980E+02  0.51100000000E-03 0.  1.
        -11    1    3    3    0    0 -0.73664433604E-02 -0.82871199057E+01  0.36685690868E+01  0.90628257184E+01  0.51100000000E-03 0. -1.
        -12    1    3    3    0    0  0.33717078660E+01  0.20147073866E+02  0.13983884170E+02  0.24755242188E+02  0.00000000000E+00 0.  1.
</event>
<event>
 7    1  0.5662448E-012  0.5930177E+02  0.7816164E-02  0.1266605E+00
        -11   -1    0    0    0    0  0.00000000000E+00  0.00000000000E+00  0.45593999997E+02  0.45594000000E+02  0.51100000000E-03 0. -1.
         11   -1    0    0    0    0 -0.00000000000E+00 -0.00000000000E+00 -0.45593999997E+02  0.45594000000E+02  0.51100000000E-03 0.  1.
    9900012    2    1    2    0    0  0.18919861865E+02  0.24077922445E+02 -0.88895401716E+01  0.59301773401E+02  0.49999688817E+02 0.  0.
         12    1    1    2    0    0 -0.18919861865E+02 -0.24077922445E+02  0.88895401716E+01  0.31886226599E+02  0.00000000000E+00 0. -1.
         11    1    3    3    0    0  0.79157128180E+01 -0.11246877538E+02 -0.57279234144E+00  0.13765131859E+02  0.51100000000E-03 0. -1.
        -11    1    3    3    0    0 -0.37565400430E+01  0.96209311243E+01 -0.11811964745E+02  0.15690647539E+02  0.51100000000E-03 0.  1.
        -12    1    3    3    0    0  0.14760689090E+02  0.25703868859E+02  0.34952169151E+01  0.29845994003E+02  0.00000000000E+00 0.  1.
</event>
<event>
 7    1  0.5662448E-012  0.5930194E+02  0.7816164E-02  0.1266605E+00
        -11   -1    0    0    0    0  0.00000000000E+00  0.00000000000E+00  0.45593999997E+02  0.45594000000E+02  0.51100000000E-03 0. -1.
         11   -1    0    0    0    0 -0.00000000000E+00 -0.00000000000E+00 -0.45593999997E+02  0.45594000000E+02  0.51100000000E-03 0.  1.
    9900012    2    1    2    0    0 -0.36002090771E+01  0.17641583066E+02 -0.26316042921E+02  0.59301936062E+02  0.49999985472E+02 0.  0.
         12    1    1    2    0    0  0.36002090771E+01 -0.17641583066E+02  0.26316042921E+02  0.31886063938E+02  0.00000000000E+00 0. -1.
         11    1    3    3    0    0  0.15100301431E+02 -0.31063218899E+01 -0.29310016171E+01  0.15692645084E+02  0.51100000000E-03 0. -1.
        -11    1    3    3    0    0 -0.39018384881E+01  0.29294657204E+01  0.49912733991E+01  0.69798942255E+01  0.51100000000E-03 0.  1.
        -12    1    3    3    0    0 -0.14798672020E+02  0.17818439235E+02 -0.28376314703E+02  0.36629396752E+02  0.00000000000E+00 0.  1.
</event>
<event>
 7    1  0.5662448E-012  0.5930198E+02  0.7816164E-02  0.1266605E+00
        -11   -1    0    0    0    0  0.00000000000E+00  0.00000000000E+00  0.45593999997E+02  0.45594000000E+02  0.51100000000E-03 0. -1.
         11   -1    0    0    0    0 -0.00000000000E+00 -0.00000000000E+00 -0.45593999997E+02  0.45594000000E+02  0.51100000000E-03 0.  1.
    9900012    2    1    2    0    0  0.86936474960E+01 -0.70799777265E+01 -0.29849839541E+02  0.59301976227E+02  0.50000058724E+02 0.  0.
         12    1    1    2    0    0 -0.86936474960E+01  0.70799777265E+01  0.29849839541E+02  0.31886023773E+02  0.00000000000E+00 0. -1.
         11    1    3    3    0    0  0.21983703668E+02 -0.11655711609E+02 -0.15416384752E+02  0.29271210415E+02  0.51100000000E-03 0. -1.
        -11    1    3    3    0    0  0.56337803685E+01 -0.24570659152E+01 -0.33286910892E+01  0.69897667187E+01  0.51100000000E-03 0.  1.
         12    1    3    3    0    0 -0.18923836540E+02  0.70327997979E+01 -0.11104763700E+02  0.23040999094E+02  0.00000000000E+00 0. -1.
</event>
<event>
 7    1  0.5662448E-012  0.5930193E+02  0.7816164E-02  0.1266605E+00
        -11   -1    0    0    0    0  0.00000000000E+00  0.00000000000E+00  0.45593999997E+02  0.45594000000E+02  0.51100000000E-03 0.  1.
         11   -1    0    0    0    0 -0.00000000000E+00 -0.00000000000E+00 -0.45593999997E+02  0.45594000000E+02  0.51100000000E-03 0. -1.
    9900012    2    1    2    0    0  0.14207306015E+01  0.20804880023E+02  0.24121773753E+02  0.59301929731E+02  0.49999973926E+02 0.  0.
         12    1    1    2    0    0 -0.14207306015E+01 -0.20804880023E+02 -0.24121773753E+02  0.31886070269E+02  0.00000000000E+00 0. -1.
         11    1    3    3    0    0 -0.69251396260E+00 -0.45937036157E+01 -0.73700784849E+01  0.87120460073E+01  0.51100000000E-03 0. -1.
        -11    1    3    3    0    0 -0.11863029132E+02  0.31539275542E+01  0.15732262008E+02  0.19954517969E+02  0.51100000000E-03 0.  1.
        -12    1    3    3    0    0  0.13976273696E+02  0.22244656084E+02  0.15759590230E+02  0.30635365755E+02  0.00000000000E+00 0.  1.
</event>
<event>
 7    1  0.5662448E-012  0.5930192E+02  0.7816164E-02  0.1266605E+00
        -11   -1    0    0    0    0  0.00000000000E+00  0.00000000000E+00  0.45593999997E+02  0.45594000000E+02  0.51100000000E-03 0.  1.
         11   -1    0    0    0    0 -0.00000000000E+00 -0.00000000000E+00 -0.45593999997E+02  0.45594000000E+02  0.51100000000E-03 0. -1.
    9900012    2    1    2    0    0  0.97420711518E+01  0.20664343313E+02  0.22244082510E+02  0.59301917745E+02  0.49999952066E+02 0.  0.
         12    1    1    2    0    0 -0.97420711518E+01 -0.20664343313E+02 -0.22244082510E+02  0.31886082255E+02  0.00000000000E+00 0. -1.
         11    1    3    3    0    0 -0.65335384165E+00  0.73817726108E+01  0.76402903310E+01  0.10643846801E+02  0.51100000000E-03 0.  1.
        -11    1    3    3    0    0 -0.14532835642E+02  0.52661066030E+01 -0.46660165236E+01  0.16146420687E+02  0.51100000000E-03 0. -1.
         12    1    3    3    0    0  0.24928260635E+02  0.80164640988E+01  0.19269808703E+02  0.32511650256E+02  0.00000000000E+00 0. -1.
</event>
<event>
 7    1  0.5662448E-012  0.5930202E+02  0.7816164E-02  0.1266605E+00
        -11   -1    0    0    0    0  0.00000000000E+00  0.00000000000E+00  0.45593999997E+02  0.45594000000E+02  0.51100000000E-03 0.  1.
         11   -1    0    0    0    0 -0.00000000000E+00 -0.00000000000E+00 -0.45593999997E+02  0.45594000000E+02  0.51100000000E-03 0. -1.
    9900012    2    1    2    0    0  0.17977107249E+02 -0.25218251334E+02 -0.75881060789E+01  0.59302016571E+02  0.50000132301E+02 0.  0.
         12    1    1    2    0    0 -0.17977107249E+02  0.25218251334E+02  0.75881060789E+01  0.31885983429E+02  0.00000000000E+00 0. -1.
         11    1    3    3    0    0  0.58714590819E+01  0.10240810544E+02  0.12744888571E+01  0.11873186365E+02  0.51100000000E-03 0.  1.
        -11    1    3    3    0    0 -0.49634422502E+01 -0.12089616329E+02 -0.12715681197E+02  0.18234119955E+02  0.51100000000E-03 0. -1.
        -12    1    3    3    0    0  0.17069090417E+02 -0.23369445548E+02  0.38530862613E+01  0.29194710251E+02  0.00000000000E+00 0.  1.
</event>
<event>
 7    1  0.5662448E-012  0.5930192E+02  0.7816164E-02  0.1266605E+00
        -11   -1    0    0    0    0  0.00000000000E+00  0.00000000000E+00  0.45593999997E+02  0.45594000000E+02  0.51100000000E-03 0.  1.
         11   -1    0    0    0    0 -0.00000000000E+00 -0.00000000000E+00 -0.45593999997E+02  0.45594000000E+02  0.51100000000E-03 0. -1.
    9900012    2    1    2    0    0  0.30696059472E+01  0.25623058466E+02  0.18728549669E+02  0.59301918734E+02  0.49999953870E+02 0.  0.
         12    1    1    2    0    0 -0.30696059472E+01 -0.25623058466E+02 -0.18728549669E+02  0.31886081266E+02  0.00000000000E+00 0. -1.
         11    1    3    3    0    0 -0.84249579805E+01  0.33967650945E+01  0.14674590626E+02  0.17258665660E+02  0.51100000000E-03 0. -1.
        -11    1    3    3    0    0  0.20552281529E+01  0.10674011138E+02  0.18384100983E+02  0.21357285543E+02  0.51100000000E-03 0.  1.
         12    1    3    3    0    0  0.94393357748E+01  0.11552282233E+02 -0.14330141940E+02  0.20685967531E+02  0.00000000000E+00 0. -1.
</event>
<event>
 7    1  0.5662448E-012  0.5930192E+02  0.7816164E-02  0.1266605E+00
        -11   -1    0    0    0    0  0.00000000000E+00  0.00000000000E+00  0.45593999997E+02  0.45594000000E+02  0.51100000000E-03 0.  1.
         11   -1    0    0    0    0 -0.00000000000E+00 -0.00000000000E+00 -0.45593999997E+02  0.45594000000E+02  0.51100000000E-03 0. -1.
    9900012    2    1    2    0    0 -0.56745511543E+01 -0.14637049548E+02  0.27753890844E+02  0.59301918284E+02  0.49999953049E+02 0.  0.
         12    1    1    2    0    0  0.56745511543E+01  0.14637049548E+02 -0.27753890844E+02  0.31886081716E+02  0.00000000000E+00 0. -1.
         11    1    3    3    0    0  0.41267125801E+01  0.15607400778E+01 -0.12404943124E+02  0.13166179419E+02  0.51100000000E-03 0. -1.
        -11    1    3    3    0    0  0.46532666834E+00 -0.10235976464E+02  0.13460277534E+02  0.16916584012E+02  0.51100000000E-03 0.  1.
        -12    1    3    3    0    0 -0.10266590403E+02 -0.59618131621E+01  0.26698556434E+02  0.29219154853E+02  0.00000000000E+00 0.  1.
</event>
<event>
 7    1  0.5662448E-012  0.5930197E+02  0.7816164E-02  0.1266605E+00
        -11   -1    0    0    0    0  0.00000000000E+00  0.00000000000E+00  0.45593999997E+02  0.45594000000E+02  0.51100000000E-03 0.  1.
         11   -1    0    0    0    0 -0.00000000000E+00 -0.00000000000E+00 -0.45593999997E+02  0.45594000000E+02  0.51100000000E-03 0. -1.
    9900012    2    1    2    0    0  0.10796735147E+02  0.16989883898E+02  0.24728383569E+02  0.59301974869E+02  0.50000056248E+02 0.  0.
         12    1    1    2    0    0 -0.10796735147E+02 -0.16989883898E+02 -0.24728383569E+02  0.31886025131E+02  0.00000000000E+00 0. -1.
         11    1    3    3    0    0 -0.16810133023E+01  0.25927665043E+02  0.22021986143E+02  0.34059323162E+02  0.51100000000E-03 0. -1.
        -11    1    3    3    0    0  0.76919514144E+01  0.31094229486E+01  0.77306226489E+01  0.11340068537E+02  0.51100000000E-03 0.  1.
        -12    1    3    3    0    0  0.47857970351E+01 -0.12047204093E+02 -0.50242252232E+01  0.13902583170E+02  0.00000000000E+00 0.  1.
</event>
<event>
 7    1  0.5662448E-012  0.5930195E+02  0.7816164E-02  0.1266605E+00
        -11   -1    0    0    0    0  0.00000000000E+00  0.00000000000E+00  0.45593999997E+02  0.45594000000E+02  0.51100000000E-03 0.  1.
         11   -1    0    0    0    0 -0.00000000000E+00 -0.00000000000E+00 -0.45593999997E+02  0.45594000000E+02  0.51100000000E-03 0. -1.
    9900012    2    1    2    0    0  0.79095842145E+01  0.29556530220E+02  0.89761055542E+01  0.59301945493E+02  0.50000002672E+02 0.  0.
         12    1    1    2    0    0 -0.79095842145E+01 -0.29556530220E+02 -0.89761055542E+01  0.31886054507E+02  0.00000000000E+00 0. -1.
         11    1    3    3    0    0 -0.66751209204E+01  0.78668292206E+01 -0.15677039763E+01  0.10435609101E+02  0.51100000000E-03 0. -1.
        -11    1    3    3    0    0  0.41302081814E+01  0.31300498688E+02  0.68588187628E+00  0.31579269655E+02  0.51100000000E-03 0.  1.
        -12    1    3    3    0    0  0.10454496954E+02 -0.96107976878E+01  0.98579276542E+01  0.17287066737E+02  0.00000000000E+00 0.  1.
</event>
<event>
 7    1  0.5662448E-012  0.5930196E+02  0.7816164E-02  0.1266605E+00
        -11   -1    0    0    0    0  0.00000000000E+00  0.00000000000E+00  0.45593999997E+02  0.45594000000E+02  0.51100000000E-03 0.  1.
         11   -1    0    0    0    0 -0.00000000000E+00 -0.00000000000E+00 -0.45593999997E+02  0.45594000000E+02  0.51100000000E-03 0. -1.
    9900012    2    1    2    0    0  0.46998034615E+00  0.15193553391E+02  0.28029532204E+02  0.59301958826E+02  0.50000026989E+02 0.  0.
         12    1    1    2    0    0 -0.46998034615E+00 -0.15193553391E+02 -0.28029532204E+02  0.31886041174E+02  0.00000000000E+00 0. -1.
         11    1    3    3    0    0 -0.17306160135E+01 -0.24691238989E+01  0.17523046204E+02  0.17780572352E+02  0.51100000000E-03 0. -1.
        -11    1    3    3    0    0 -0.89736258421E+01 -0.12519739783E+01 -0.85361145546E+01  0.12448238893E+02  0.51100000000E-03 0.  1.
         12    1    3    3    0    0  0.11174222202E+02  0.18914651268E+02  0.19042600554E+02  0.29073147581E+02  0.00000000000E+00 0. -1.
</event>
<event>
 7    1  0.5662448E-012  0.5930192E+02  0.7816164E-02  0.1266605E+00
        -11   -1    0    0    0    0  0.00000000000E+00  0.00000000000E+00  0.45593999997E+02  0.45594000000E+02  0.51100000000E-03 0.  1.
         11   -1    0    0    0    0 -0.00000000000E+00 -0.00000000000E+00 -0.45593999997E+02  0.45594000000E+02  0.51100000000E-03 0. -1.
    9900012    2    1    2    0    0  0.13448422942E+01  0.35995176000E+01  0.31653702015E+02  0.59301921863E+02  0.49999959576E+02 0.  0.
         12    1    1    2    0    0 -0.13448422942E+01 -0.35995176000E+01 -0.31653702015E+02  0.31886078137E+02  0.00000000000E+00 0. -1.
         11    1    3    3    0    0 -0.13128656350E+01  0.14401057167E+01 -0.25652295564E+01  0.32214784787E+01  0.51100000000E-03 0. -1.
        -11    1    3    3    0    0  0.16643523427E+02  0.92911069664E+01  0.35536731564E+02  0.40326056480E+02  0.51100000000E-03 0.  1.
         12    1    3    3    0    0 -0.13985815497E+02 -0.71316950831E+01 -0.13177999935E+01  0.15754386904E+02  0.00000000000E+00 0. -1.
</event>
<event>
 7    1  0.5662448E-012  0.5930194E+02  0.7816164E-02  0.1266605E+00
        -11   -1    0    0    0    0  0.00000000000E+00  0.00000000000E+00  0.45593999997E+02  0.45594000000E+02  0.51100000000E-03 0.  1.
         11   -1    0    0    0    0 -0.00000000000E+00 -0.00000000000E+00 -0.45593999997E+02  0.45594000000E+02  0.51100000000E-03 0. -1.
    9900012    2    1    2    0    0 -0.55387565194E+01 -0.67432887046E+00  0.31394080101E+02  0.59301940216E+02  0.49999993048E+02 0.  0.
         12    1    1    2    0    0  0.55387565194E+01  0.67432887046E+00 -0.31394080101E+02  0.31886059784E+02  0.00000000000E+00 0. -1.
         11    1    3    3    0    0 -0.69042389287E+00  0.15719646763E+01 -0.13203360515E+02  0.13314521668E+02  0.51100000000E-03 0.  1.
        -11    1    3    3    0    0  0.23785532584E+01  0.69698575850E+00  0.44970931817E+01  0.51348955293E+01  0.51100000000E-03 0. -1.
        -12    1    3    3    0    0 -0.72268858849E+01 -0.29432793052E+01  0.40100347434E+02  0.40852523018E+02  0.00000000000E+00 0.  1.
</event>
<event>
 7    1  0.5662448E-012  0.5930193E+02  0.7816164E-02  0.1266605E+00
        -11   -1    0    0    0    0  0.00000000000E+00  0.00000000000E+00  0.45593999997E+02  0.45594000000E+02  0.51100000000E-03 0. -1.
         11   -1    0    0    0    0 -0.00000000000E+00 -0.00000000000E+00 -0.45593999997E+02  0.45594000000E+02  0.51100000000E-03 0.  1.
    9900012    2    1    2    0    0  0.18281099356E+02  0.13320415561E+02 -0.22474186928E+02  0.59301934980E+02  0.49999983499E+02 0.  0.
         12    1    1    2    0    0 -0.18281099356E+02 -0.13320415561E+02  0.22474186928E+02  0.31886065020E+02  0.00000000000E+00 0. -1.
         11    1    3    3    0    0 -0.49932509258E+01  0.91890298338E+01  0.71530340948E+01  0.12670308643E+02  0.51100000000E-03 0. -1.
        -11    1    3    3    0    0 -0.22672567344E+01 -0.75778107512E+01 -0.62671393166E+01  0.10091615547E+02  0.51100000000E-03 0.  1.
        -12    1    3    3    0    0  0.25541607016E+02  0.11709196478E+02 -0.23360081706E+02  0.36540010789E+02  0.00000000000E+00 0.  1.
</event>
<event>
 7    1  0.5662448E-012  0.5930195E+02  0.7816164E-02  0.1266605E+00
        -11   -1    0    0    0    0  0.00000000000E+00  0.00000000000E+00  0.45593999997E+02  0.45594000000E+02  0.51100000000E-03 0. -1.
         11   -1    0    0    0    0 -0.00000000000E+00 -0.00000000000E+00 -0.45593999997E+02  0.45594000000E+02  0.51100000000E-03 0.  1.
    9900012    2    1    2    0    0 -0.29679447495E+02  0.42600791905E+01 -0.10849083576E+02  0.59301945167E+02  0.50000002079E+02 0.  0.
         12    1    1    2    0    0  0.29679447495E+02 -0.42600791905E+01  0.10849083576E+02  0.31886054833E+02  0.00000000000E+00 0. -1.
         11    1    3    3    0    0 -0.17728562159E+02 -0.17637655498E+02 -0.13075383511E+02  0.28219753045E+02  0.51100000000E-03 0. -1.
        -11    1    3    3    0    0 -0.97700521216E+01  0.10104470329E+01  0.22711221566E+01  0.10081315280E+02  0.51100000000E-03 0.  1.
        -12    1    3    3    0    0 -0.21808332154E+01  0.20887287656E+02 -0.44822221216E-01  0.21000876843E+02  0.00000000000E+00 0.  1.
</event>
<event>
 7    1  0.5662448E-012  0.5930194E+02  0.7816164E-02  0.1266605E+00
        -11   -1    0    0    0    0  0.00000000000E+00  0.00000000000E+00  0.45593999997E+02  0.45594000000E+02  0.51100000000E-03 0.  1.
         11   -1    0    0    0    0 -0.00000000000E+00 -0.00000000000E+00 -0.45593999997E+02  0.45594000000E+02  0.51100000000E-03 0. -1.
    9900012    2    1    2    0    0 -0.22943328768E+00  0.28368437607E+02  0.14556778399E+02  0.59301942086E+02  0.49999996459E+02 0.  0.
         12    1    1    2    0    0  0.22943328768E+00 -0.28368437607E+02 -0.14556778399E+02  0.31886057914E+02  0.00000000000E+00 0. -1.
         11    1    3    3    0    0 -0.11839449427E+02 -0.48067459477E+01 -0.30060773683E+01  0.13126837804E+02  0.51100000000E-03 0. -1.
        -11    1    3    3    0    0 -0.14435991011E+01  0.15459543295E+02 -0.32756914864E+01  0.15868573100E+02  0.51100000000E-03 0.  1.
        -12    1    3    3    0    0  0.13053615240E+02  0.17715640260E+02  0.20838547254E+02  0.30306531182E+02  0.00000000000E+00 0.  1.
</event>
<event>
 7    1  0.5662448E-012  0.5930179E+02  0.7816164E-02  0.1266605E+00
        -11   -1    0    0    0    0  0.00000000000E+00  0.00000000000E+00  0.45593999997E+02  0.45594000000E+02  0.51100000000E-03 0.  1.
         11   -1    0    0    0    0 -0.00000000000E+00 -0.00000000000E+00 -0.45593999997E+02  0.45594000000E+02  0.51100000000E-03 0. -1.
    9900012    2    1    2    0    0 -0.26852821820E+01  0.80597877430E+01  0.30733688545E+02  0.59301787769E+02  0.49999715022E+02 0.  0.
         12    1    1    2    0    0  0.26852821820E+01 -0.80597877430E+01 -0.30733688545E+02  0.31886212231E+02  0.00000000000E+00 0. -1.
         11    1    3    3    0    0 -0.60416293181E+01  0.63011136340E+01  0.14077187195E+02  0.16564193835E+02  0.51100000000E-03 0.  1.
        -11    1    3    3    0    0  0.11747297312E+02 -0.36532865014E+01  0.26188038294E+02  0.28933697419E+02  0.51100000000E-03 0. -1.
         12    1    3    3    0    0 -0.83909501754E+01  0.54119606104E+01 -0.95315369437E+01  0.13803896515E+02  0.00000000000E+00 0. -1.
</event>
<event>
 7    1  0.5662448E-012  0.5930195E+02  0.7816164E-02  0.1266605E+00
        -11   -1    0    0    0    0  0.00000000000E+00  0.00000000000E+00  0.45593999997E+02  0.45594000000E+02  0.51100000000E-03 0. -1.
         11   -1    0    0    0    0 -0.00000000000E+00 -0.00000000000E+00 -0.45593999997E+02  0.45594000000E+02  0.51100000000E-03 0.  1.
    9900012    2    1    2    0    0 -0.21076798365E+02 -0.52070981120E+01 -0.23353268323E+02  0.59301945973E+02  0.50000003548E+02 0.  0.
         12    1    1    2    0    0  0.21076798365E+02  0.52070981120E+01  0.23353268323E+02  0.31886054027E+02  0.00000000000E+00 0. -1.
         11    1    3    3    0    0 -0.25772592254E+01 -0.13187241066E+00 -0.24819484828E+02  0.24953286013E+02  0.51100000000E-03 0.  1.
        -11    1    3    3    0    0  0.33089202187E+00  0.98836908563E+01  0.27529587265E+01  0.10265262612E+02  0.51100000000E-03 0. -1.
        -12    1    3    3    0    0 -0.18830431161E+02 -0.14958916558E+02 -0.12867422210E+01  0.24083397348E+02  0.00000000000E+00 0.  1.
</event>
<event>
 7    1  0.5662448E-012  0.5930194E+02  0.7816164E-02  0.1266605E+00
        -11   -1    0    0    0    0  0.00000000000E+00  0.00000000000E+00  0.45593999997E+02  0.45594000000E+02  0.51100000000E-03 0.  1.
         11   -1    0    0    0    0 -0.00000000000E+00 -0.00000000000E+00 -0.45593999997E+02  0.45594000000E+02  0.51100000000E-03 0. -1.
    9900012    2    1    2    0    0  0.66919205773E+01 -0.27986504256E+02  0.13736611999E+02  0.59301941437E+02  0.49999995276E+02 0.  0.
         12    1    1    2    0    0 -0.66919205773E+01  0.27986504256E+02 -0.13736611999E+02  0.31886058563E+02  0.00000000000E+00 0. -1.
         11    1    3    3    0    0 -0.10726077993E+02 -0.20064974657E+02 -0.11780063788E+02  0.25620731063E+02  0.51100000000E-03 0. -1.
        -11    1    3    3    0    0  0.10637773476E+02 -0.62209379175E+00  0.72947983515E+01  0.12913686865E+02  0.51100000000E-03 0.  1.
        -12    1    3    3    0    0  0.67802250941E+01 -0.72994358064E+01  0.18221877435E+02  0.20767523509E+02  0.00000000000E+00 0.  1.
</event>
<event>
 7    1  0.5662448E-012  0.5930195E+02  0.7816164E-02  0.1266605E+00
        -11   -1    0    0    0    0  0.00000000000E+00  0.00000000000E+00  0.45593999997E+02  0.45594000000E+02  0.51100000000E-03 0. -1.
         11   -1    0    0    0    0 -0.00000000000E+00 -0.00000000000E+00 -0.45593999997E+02  0.45594000000E+02  0.51100000000E-03 0.  1.
    9900012    2    1    2    0    0  0.29912787142E+02 -0.10841952375E+02 -0.20969440363E+01  0.59301953833E+02  0.50000017882E+02 0.  0.
         12    1    1    2    0    0 -0.29912787142E+02  0.10841952375E+02  0.20969440363E+01  0.31886046167E+02  0.00000000000E+00 0. -1.
         11    1    3    3    0    0  0.21324945409E+01 -0.28721588029E+01  0.10960754140E+02  0.11529742440E+02  0.51100000000E-03 0. -1.
        -11    1    3    3    0    0  0.34380403210E+02 -0.11667563871E+02 -0.15972945730E+02  0.39664583285E+02  0.51100000000E-03 0.  1.
         12    1    3    3    0    0 -0.66001106092E+01  0.36977702989E+01  0.29152475534E+01  0.81076281078E+01  0.00000000000E+00 0. -1.
</event>
<event>
 7    1  0.5662448E-012  0.5930195E+02  0.7816164E-02  0.1266605E+00
        -11   -1    0    0    0    0  0.00000000000E+00  0.00000000000E+00  0.45593999997E+02  0.45594000000E+02  0.51100000000E-03 0. -1.
         11   -1    0    0    0    0 -0.00000000000E+00 -0.00000000000E+00 -0.45593999997E+02  0.45594000000E+02  0.51100000000E-03 0.  1.
    9900012    2    1    2    0    0 -0.59985967953E+01 -0.31233611470E+02 -0.22800746905E+01  0.59301946786E+02  0.50000005031E+02 0.  0.
         12    1    1    2    0    0  0.59985967953E+01  0.31233611470E+02  0.22800746905E+01  0.31886053214E+02  0.00000000000E+00 0. -1.
         11    1    3    3    0    0  0.15769507225E+02 -0.14015492112E+02 -0.19521946329E+01  0.21187789913E+02  0.51100000000E-03 0.  1.
        -11    1    3    3    0    0  0.19190199139E+01  0.47483674306E+01 -0.25727100425E+01  0.57313582954E+01  0.51100000000E-03 0. -1.
        -12    1    3    3    0    0 -0.23687123934E+02 -0.21966486788E+02  0.22448299849E+01  0.32382798578E+02  0.00000000000E+00 0.  1.
</event>
<event>
 7    1  0.5662448E-012  0.5930194E+02  0.7816164E-02  0.1266605E+00
        -11   -1    0    0    0    0  0.00000000000E+00  0.00000000000E+00  0.45593999997E+02  0.45594000000E+02  0.51100000000E-03 0.  1.
         11   -1    0    0    0    0 -0.00000000000E+00 -0.00000000000E+00 -0.45593999997E+02  0.45594000000E+02  0.51100000000E-03 0. -1.
    9900012    2    1    2    0    0  0.25523452067E+02 -0.19097982033E+02 -0.73585950967E+00  0.59301937020E+02  0.49999987220E+02 0.  0.
         12    1    1    2    0    0 -0.25523452067E+02  0.19097982033E+02  0.73585950967E+00  0.31886062980E+02  0.00000000000E+00 0. -1.
         11    1    3    3    0    0 -0.70818492933E+01 -0.12962492463E+01 -0.21934466176E+01  0.75262248071E+01  0.51100000000E-03 0. -1.
        -11    1    3    3    0    0  0.16503867096E+01 -0.18491162238E+02 -0.67333145813E+01  0.19748022248E+02  0.51100000000E-03 0.  1.
         12    1    3    3    0    0  0.30954914651E+02  0.68942945186E+00  0.81909016892E+01  0.32027689965E+02  0.00000000000E+00 0. -1.
</event>
<event>
 7    1  0.5662448E-012  0.5930196E+02  0.7816164E-02  0.1266605E+00
        -11   -1    0    0    0    0  0.00000000000E+00  0.00000000000E+00  0.45593999997E+02  0.45594000000E+02  0.51100000000E-03 0. -1.
         11   -1    0    0    0    0 -0.00000000000E+00 -0.00000000000E+00 -0.45593999997E+02  0.45594000000E+02  0.51100000000E-03 0.  1.
    9900012    2    1    2    0    0  0.20859835072E+02 -0.23159070690E+02 -0.67263826632E+01  0.59301960763E+02  0.50000030521E+02 0.  0.
         12    1    1    2    0    0 -0.20859835072E+02  0.23159070690E+02  0.67263826632E+01  0.31886039237E+02  0.00000000000E+00 0. -1.
         11    1    3    3    0    0  0.11178328675E+02  0.58794484555E+01  0.80155458000E+01  0.14959008017E+02  0.51100000000E-03 0. -1.
        -11    1    3    3    0    0 -0.82374387310E+01 -0.16871373667E+02 -0.12527443395E+02  0.22570677539E+02  0.51100000000E-03 0.  1.
         12    1    3    3    0    0  0.17918945128E+02 -0.12167145478E+02 -0.22144850680E+01  0.21772275208E+02  0.00000000000E+00 0. -1.
</event>
<event>
 7    1  0.5662448E-012  0.5930185E+02  0.7816164E-02  0.1266605E+00
        -11   -1    0    0    0    0  0.00000000000E+00  0.00000000000E+00  0.45593999997E+02  0.45594000000E+02  0.51100000000E-03 0. -1.
         11   -1    0    0    0    0 -0.00000000000E+00 -0.00000000000E+00 -0.45593999997E+02  0.45594000000E+02  0.51100000000E-03 0.  1.
    9900012    2    1    2    0    0  0.43484909729E+01 -0.29060752378E+02 -0.12381025757E+02  0.59301850949E+02  0.49999830246E+02 0.  0.
         12    1    1    2    0    0 -0.43484909729E+01  0.29060752378E+02  0.12381025757E+02  0.31886149051E+02  0.00000000000E+00 0. -1.
         11    1    3    3    0    0 -0.18814738065E+01  0.37682495183E+01  0.46428237597E+01  0.62686091632E+01  0.51100000000E-03 0. -1.
        -11    1    3    3    0    0 -0.10287262916E+02 -0.22054365569E+02 -0.21877593461E+02  0.32723873775E+02  0.51100000000E-03 0.  1.
         12    1    3    3    0    0  0.16517227695E+02 -0.10774636327E+02  0.48537439438E+01  0.20309368011E+02  0.00000000000E+00 0. -1.
</event>
<event>
 7    1  0.5662448E-012  0.5930193E+02  0.7816164E-02  0.1266605E+00
        -11   -1    0    0    0    0  0.00000000000E+00  0.00000000000E+00  0.45593999997E+02  0.45594000000E+02  0.51100000000E-03 0.  1.
         11   -1    0    0    0    0 -0.00000000000E+00 -0.00000000000E+00 -0.45593999997E+02  0.45594000000E+02  0.51100000000E-03 0. -1.
    9900012    2    1    2    0    0  0.12886619414E+02  0.19340128427E+02 -0.21831532299E+02  0.59301932039E+02  0.49999978136E+02 0.  0.
         12    1    1    2    0    0 -0.12886619414E+02 -0.19340128427E+02  0.21831532299E+02  0.31886067961E+02  0.00000000000E+00 0. -1.
         11    1    3    3    0    0 -0.15945965470E+01  0.17251685539E+02 -0.21851996265E+02  0.27886791374E+02  0.51100000000E-03 0. -1.
        -11    1    3    3    0    0 -0.31783867927E+01 -0.52142522443E+01 -0.85209521293E+01  0.10483186277E+02  0.51100000000E-03 0.  1.
        -12    1    3    3    0    0  0.17659602753E+02  0.73026951317E+01  0.85414160958E+01  0.20931954388E+02  0.00000000000E+00 0.  1.
</event>
<event>
 7    1  0.5662448E-012  0.5930193E+02  0.7816164E-02  0.1266605E+00
        -11   -1    0    0    0    0  0.00000000000E+00  0.00000000000E+00  0.45593999997E+02  0.45594000000E+02  0.51100000000E-03 0.  1.
         11   -1    0    0    0    0 -0.00000000000E+00 -0.00000000000E+00 -0.45593999997E+02  0.45594000000E+02  0.51100000000E-03 0. -1.
    9900012    2    1    2    0    0 -0.19964976020E+02 -0.15632013320E+02  0.19332901311E+02  0.59301934376E+02  0.49999982397E+02 0.  0.
         12    1    1    2    0    0  0.19964976020E+02  0.15632013320E+02 -0.19332901311E+02  0.31886065624E+02  0.00000000000E+00 0. -1.
         11    1    3    3    0    0 -0.22631111232E+02 -0.11073295426E+02  0.11538264588E+02  0.27711308471E+02  0.51100000000E-03 0. -1.
        -11    1    3    3    0    0 -0.12230477693E+02  0.41634557098E+01  0.59695399175E+01  0.14232159188E+02  0.51100000000E-03 0.  1.
         12    1    3    3    0    0  0.14896612906E+02 -0.87221736035E+01  0.18250968047E+01  0.17358466717E+02  0.00000000000E+00 0. -1.
</event>
<event>
 7    1  0.5662448E-012  0.5930199E+02  0.7816164E-02  0.1266605E+00
        -11   -1    0    0    0    0  0.00000000000E+00  0.00000000000E+00  0.45593999997E+02  0.45594000000E+02  0.51100000000E-03 0.  1.
         11   -1    0    0    0    0 -0.00000000000E+00 -0.00000000000E+00 -0.45593999997E+02  0.45594000000E+02  0.51100000000E-03 0. -1.
    9900012    2    1    2    0    0 -0.80979674254E+01 -0.12122302681E+02  0.28358251381E+02  0.59301988645E+02  0.50000081372E+02 0.  0.
         12    1    1    2    0    0  0.80979674254E+01  0.12122302681E+02 -0.28358251381E+02  0.31886011355E+02  0.00000000000E+00 0. -1.
         11    1    3    3    0    0 -0.36580280930E+01 -0.90705545043E+01  0.81225337210E+01  0.12713444964E+02  0.51100000000E-03 0. -1.
        -11    1    3    3    0    0  0.13321381184E+02 -0.12201613703E+02 -0.12094769001E+00  0.18065248468E+02  0.51100000000E-03 0.  1.
         12    1    3    3    0    0 -0.17761320517E+02  0.91498655258E+01  0.20356665350E+02  0.28523295213E+02  0.00000000000E+00 0. -1.
</event>
<event>
 7    1  0.5662448E-012  0.5930194E+02  0.7816164E-02  0.1266605E+00
        -11   -1    0    0    0    0  0.00000000000E+00  0.00000000000E+00  0.45593999997E+02  0.45594000000E+02  0.51100000000E-03 0. -1.
         11   -1    0    0    0    0 -0.00000000000E+00 -0.00000000000E+00 -0.45593999997E+02  0.45594000000E+02  0.51100000000E-03 0.  1.
    9900012    2    1    2    0    0  0.26307872202E+02  0.17969124713E+02  0.13142762305E+01  0.59301938707E+02  0.49999990297E+02 0.  0.
         12    1    1    2    0    0 -0.26307872202E+02 -0.17969124713E+02 -0.13142762305E+01  0.31886061293E+02  0.00000000000E+00 0. -1.
         11    1    3    3    0    0  0.14040891993E+02  0.37323559345E+01 -0.19272324066E+02  0.24135028567E+02  0.51100000000E-03 0.  1.
        -11    1    3    3    0    0 -0.22702864429E+01 -0.19700917567E+01 -0.21438043423E+01  0.36920670879E+01  0.51100000000E-03 0. -1.
        -12    1    3    3    0    0  0.14537266651E+02  0.16206860536E+02  0.22730404639E+02  0.31474843052E+02  0.00000000000E+00 0.  1.
</event>
<event>
 7    1  0.5662448E-012  0.5930193E+02  0.7816164E-02  0.1266605E+00
        -11   -1    0    0    0    0  0.00000000000E+00  0.00000000000E+00  0.45593999997E+02  0.45594000000E+02  0.51100000000E-03 0. -1.
         11   -1    0    0    0    0 -0.00000000000E+00 -0.00000000000E+00 -0.45593999997E+02  0.45594000000E+02  0.51100000000E-03 0.  1.
    9900012    2    1    2    0    0 -0.14666021532E+02  0.11760162023E+02 -0.25755148895E+02  0.59301932620E+02  0.49999979195E+02 0.  0.
         12    1    1    2    0    0  0.14666021532E+02 -0.11760162023E+02  0.25755148895E+02  0.31886067380E+02  0.00000000000E+00 0. -1.
         11    1    3    3    0    0 -0.56700947546E+01 -0.93065811524E+01  0.17822525018E+01  0.11042592608E+02  0.51100000000E-03 0. -1.
        -11    1    3    3    0    0  0.79376287564E+01 -0.43521311806E+01 -0.54429457869E+01  0.10562795804E+02  0.51100000000E-03 0.  1.
         12    1    3    3    0    0 -0.16933555534E+02  0.25418874356E+02 -0.22094455610E+02  0.37696544208E+02  0.00000000000E+00 0. -1.
</event>
<event>
 7    1  0.5662448E-012  0.5930193E+02  0.7816164E-02  0.1266605E+00
        -11   -1    0    0    0    0  0.00000000000E+00  0.00000000000E+00  0.45593999997E+02  0.45594000000E+02  0.51100000000E-03 0. -1.
         11   -1    0    0    0    0 -0.00000000000E+00 -0.00000000000E+00 -0.45593999997E+02  0.45594000000E+02  0.51100000000E-03 0.  1.
    9900012    2    1    2    0    0  0.18755546671E+02  0.13203937333E+02  0.22149643767E+02  0.59301933904E+02  0.49999981538E+02 0.  0.
         12    1    1    2    0    0 -0.18755546671E+02 -0.13203937333E+02 -0.22149643767E+02  0.31886066096E+02  0.00000000000E+00 0. -1.
         11    1    3    3    0    0 -0.79080989608E+01 -0.56783512095E+01 -0.25423013272E+01  0.10062057341E+02  0.51100000000E-03 0. -1.
        -11    1    3    3    0    0 -0.50836393452E+01  0.68486083679E+00  0.67702361386E+01  0.84940285490E+01  0.51100000000E-03 0.  1.
        -12    1    3    3    0    0  0.31747284977E+02  0.18197427706E+02  0.17921708956E+02  0.40745848015E+02  0.00000000000E+00 0.  1.
</event>
<event>
 7    1  0.5662448E-012  0.5930197E+02  0.7816164E-02  0.1266605E+00
        -11   -1    0    0    0    0  0.00000000000E+00  0.00000000000E+00  0.45593999997E+02  0.45594000000E+02  0.51100000000E-03 0. -1.
         11   -1    0    0    0    0 -0.00000000000E+00 -0.00000000000E+00 -0.45593999997E+02  0.45594000000E+02  0.51100000000E-03 0.  1.
    9900012    2    1    2    0    0 -0.26014248068E+02  0.14424904650E+02 -0.11484774605E+02  0.59301968192E+02  0.50000044070E+02 0.  0.
         12    1    1    2    0    0  0.26014248068E+02 -0.14424904650E+02  0.11484774605E+02  0.31886031808E+02  0.00000000000E+00 0. -1.
         11    1    3    3    0    0 -0.13688893227E+02  0.60792898934E+01  0.12843251051E+02  0.19730500784E+02  0.51100000000E-03 0. -1.
        -11    1    3    3    0    0 -0.45495689023E+00  0.84955420261E+01  0.35901072913E+01  0.92341805654E+01  0.51100000000E-03 0.  1.
        -12    1    3    3    0    0 -0.11870397952E+02 -0.14992726915E+00 -0.27918132947E+02  0.30337286842E+02  0.00000000000E+00 0.  1.
</event>
<event>
 7    1  0.5662448E-012  0.5930199E+02  0.7816164E-02  0.1266605E+00
        -11   -1    0    0    0    0  0.00000000000E+00  0.00000000000E+00  0.45593999997E+02  0.45594000000E+02  0.51100000000E-03 0.  1.
         11   -1    0    0    0    0 -0.00000000000E+00 -0.00000000000E+00 -0.45593999997E+02  0.45594000000E+02  0.51100000000E-03 0. -1.
    9900012    2    1    2    0    0 -0.14655077750E+00  0.20969048487E+02  0.24020725096E+02  0.59301988871E+02  0.50000081783E+02 0.  0.
         12    1    1    2    0    0  0.14655077750E+00 -0.20969048487E+02 -0.24020725096E+02  0.31886011129E+02  0.00000000000E+00 0. -1.
         11    1    3    3    0    0 -0.53778338714E+00 -0.36592780439E+01 -0.42810418198E+01  0.56574593324E+01  0.51100000000E-03 0. -1.
        -11    1    3    3    0    0  0.29558358546E+01  0.98088842303E+00  0.29656791435E+02  0.29819865630E+02  0.51100000000E-03 0.  1.
         12    1    3    3    0    0 -0.25646032449E+01  0.23647438108E+02 -0.13550245199E+01  0.23824663908E+02  0.00000000000E+00 0. -1.
</event>
<event>
 7    1  0.5662448E-012  0.5930188E+02  0.7816164E-02  0.1266605E+00
        -11   -1    0    0    0    0  0.00000000000E+00  0.00000000000E+00  0.45593999997E+02  0.45594000000E+02  0.51100000000E-03 0.  1.
         11   -1    0    0    0    0 -0.00000000000E+00 -0.00000000000E+00 -0.45593999997E+02  0.45594000000E+02  0.51100000000E-03 0. -1.
    9900012    2    1    2    0    0  0.12464811756E+02  0.24676792106E+02  0.15887393739E+02  0.59301876364E+02  0.49999876597E+02 0.  0.
         12    1    1    2    0    0 -0.12464811756E+02 -0.24676792106E+02 -0.15887393739E+02  0.31886123636E+02  0.00000000000E+00 0. -1.
         11    1    3    3    0    0  0.77824931303E+01  0.50242715442E+01  0.29877051579E+01  0.97332875353E+01  0.51100000000E-03 0. -1.
        -11    1    3    3    0    0  0.11508755098E+02  0.11770636125E+02  0.27246134187E+02  0.31833176830E+02  0.51100000000E-03 0.  1.
        -12    1    3    3    0    0 -0.68264364721E+01  0.78818844374E+01 -0.14346445607E+02  0.17735411998E+02  0.00000000000E+00 0.  1.
</event>
<event>
 7    1  0.5662448E-012  0.5930195E+02  0.7816164E-02  0.1266605E+00
        -11   -1    0    0    0    0  0.00000000000E+00  0.00000000000E+00  0.45593999997E+02  0.45594000000E+02  0.51100000000E-03 0.  1.
         11   -1    0    0    0    0 -0.00000000000E+00 -0.00000000000E+00 -0.45593999997E+02  0.45594000000E+02  0.51100000000E-03 0. -1.
    9900012    2    1    2    0    0 -0.25901228388E+02  0.99972752456E+01  0.15681236031E+02  0.59301948068E+02  0.50000007368E+02 0.  0.
         12    1    1    2    0    0  0.25901228388E+02 -0.99972752456E+01 -0.15681236031E+02  0.31886051932E+02  0.00000000000E+00 0. -1.
         11    1    3    3    0    0 -0.85065437507E+01 -0.45533395304E+01 -0.48834573866E+01  0.10813988338E+02  0.51100000000E-03 0. -1.
        -11    1    3    3    0    0 -0.11655742683E+02  0.35860414243E+01 -0.98344224393E+01  0.15666266166E+02  0.51100000000E-03 0.  1.
        -12    1    3    3    0    0 -0.57389419544E+01  0.10964573352E+02  0.30399115857E+02  0.32821693564E+02  0.00000000000E+00 0.  1.
</event>
<event>
 7    1  0.5662448E-012  0.5930193E+02  0.7816164E-02  0.1266605E+00
        -11   -1    0    0    0    0  0.00000000000E+00  0.00000000000E+00  0.45593999997E+02  0.45594000000E+02  0.51100000000E-03 0.  1.
         11   -1    0    0    0    0 -0.00000000000E+00 -0.00000000000E+00 -0.45593999997E+02  0.45594000000E+02  0.51100000000E-03 0. -1.
    9900012    2    1    2    0    0  0.22621266754E+02  0.98725792429E+01  0.20187425753E+02  0.59301926410E+02  0.49999967870E+02 0.  0.
         12    1    1    2    0    0 -0.22621266754E+02 -0.98725792429E+01 -0.20187425753E+02  0.31886073590E+02  0.00000000000E+00 0. -1.
         11    1    3    3    0    0  0.93997142396E+00 -0.64100038144E+01  0.74902243359E+01  0.99032901624E+01  0.51100000000E-03 0. -1.
        -11    1    3    3    0    0  0.20527154021E+02 -0.89755528123E+01  0.71026911982E+01  0.23502613110E+02  0.51100000000E-03 0.  1.
         12    1    3    3    0    0  0.11541413087E+01  0.25258135870E+02  0.55945102186E+01  0.25896023138E+02  0.00000000000E+00 0. -1.
</event>
<event>
 7    1  0.5662448E-012  0.5930197E+02  0.7816164E-02  0.1266605E+00
        -11   -1    0    0    0    0  0.00000000000E+00  0.00000000000E+00  0.45593999997E+02  0.45594000000E+02  0.51100000000E-03 0. -1.
         11   -1    0    0    0    0 -0.00000000000E+00 -0.00000000000E+00 -0.45593999997E+02  0.45594000000E+02  0.51100000000E-03 0.  1.
    9900012    2    1    2    0    0 -0.18355856536E+02 -0.13832779140E+02 -0.22100579251E+02  0.59301970910E+02  0.50000049026E+02 0.  0.
         12    1    1    2    0    0  0.18355856536E+02  0.13832779140E+02  0.22100579251E+02  0.31886029090E+02  0.00000000000E+00 0. -1.
         11    1    3    3    0    0 -0.17265751808E+00  0.19967443783E+01 -0.42846826891E+01  0.47302541938E+01  0.51100000000E-03 0. -1.
        -11    1    3    3    0    0 -0.26347171110E+02  0.36566344519E+01 -0.20073744806E+02  0.33324159881E+02  0.51100000000E-03 0.  1.
         12    1    3    3    0    0  0.81639720914E+01 -0.19486157970E+02  0.22578482439E+01  0.21247556835E+02  0.00000000000E+00 0. -1.
</event>
<event>
 7    1  0.5662448E-012  0.5930196E+02  0.7816164E-02  0.1266605E+00
        -11   -1    0    0    0    0  0.00000000000E+00  0.00000000000E+00  0.45593999997E+02  0.45594000000E+02  0.51100000000E-03 0.  1.
         11   -1    0    0    0    0 -0.00000000000E+00 -0.00000000000E+00 -0.45593999997E+02  0.45594000000E+02  0.51100000000E-03 0. -1.
    9900012    2    1    2    0    0 -0.23161730057E+02 -0.21641619523E+02 -0.34488272461E+01  0.59301955338E+02  0.50000020627E+02 0.  0.
         12    1    1    2    0    0  0.23161730057E+02  0.21641619523E+02  0.34488272461E+01  0.31886044662E+02  0.00000000000E+00 0. -1.
         11    1    3    3    0    0 -0.56296035694E+00 -0.24664319897E+01  0.18669919485E+02  0.18840544179E+02  0.51100000000E-03 0. -1.
        -11    1    3    3    0    0 -0.53828762030E+01 -0.79470464885E+01  0.85353374327E+00  0.96363594899E+01  0.51100000000E-03 0.  1.
        -12    1    3    3    0    0 -0.17215893497E+02 -0.11228141045E+02 -0.22972280474E+02  0.30825051669E+02  0.00000000000E+00 0.  1.
</event>
<event>
 7    1  0.5662448E-012  0.5930194E+02  0.7816164E-02  0.1266605E+00
        -11   -1    0    0    0    0  0.00000000000E+00  0.00000000000E+00  0.45593999997E+02  0.45594000000E+02  0.51100000000E-03 0.  1.
         11   -1    0    0    0    0 -0.00000000000E+00 -0.00000000000E+00 -0.45593999997E+02  0.45594000000E+02  0.51100000000E-03 0. -1.
    9900012    2    1    2    0    0  0.97014331943E+01  0.12706673670E+02  0.27588825370E+02  0.59301942748E+02  0.49999997666E+02 0.  0.
         12    1    1    2    0    0 -0.97014331943E+01 -0.12706673670E+02 -0.27588825370E+02  0.31886057252E+02  0.00000000000E+00 0. -1.
         11    1    3    3    0    0 -0.10829614591E+02 -0.48105512266E+01 -0.68701522351E+01  0.13697479596E+02  0.51100000000E-03 0. -1.
        -11    1    3    3    0    0  0.15426933349E+02  0.49931188086E+01  0.16633388897E+02  0.23229101026E+02  0.51100000000E-03 0.  1.
        -12    1    3    3    0    0  0.51041144358E+01  0.12524106088E+02  0.17825588708E+02  0.22375362126E+02  0.00000000000E+00 0.  1.
</event>
<event>
 7    1  0.5662448E-012  0.5930195E+02  0.7816164E-02  0.1266605E+00
        -11   -1    0    0    0    0  0.00000000000E+00  0.00000000000E+00  0.45593999997E+02  0.45594000000E+02  0.51100000000E-03 0.  1.
         11   -1    0    0    0    0 -0.00000000000E+00 -0.00000000000E+00 -0.45593999997E+02  0.45594000000E+02  0.51100000000E-03 0. -1.
    9900012    2    1    2    0    0  0.21742930083E+02 -0.10269263490E+02  0.20940570828E+02  0.59301948381E+02  0.50000007940E+02 0.  0.
         12    1    1    2    0    0 -0.21742930083E+02  0.10269263490E+02 -0.20940570828E+02  0.31886051619E+02  0.00000000000E+00 0. -1.
         11    1    3    3    0    0  0.14780160555E+01  0.11253086346E+02  0.39284309003E+01  0.12010372741E+02  0.51100000000E-03 0. -1.
        -11    1    3    3    0    0  0.31507615931E+01 -0.95245263531E+01 -0.93059815805E+01  0.13683756586E+02  0.51100000000E-03 0.  1.
        -12    1    3    3    0    0  0.17114152435E+02 -0.11997823483E+02  0.26318121508E+02  0.33607819054E+02  0.00000000000E+00 0.  1.
</event>
<event>
 7    1  0.5662448E-012  0.5930199E+02  0.7816164E-02  0.1266605E+00
        -11   -1    0    0    0    0  0.00000000000E+00  0.00000000000E+00  0.45593999997E+02  0.45594000000E+02  0.51100000000E-03 0.  1.
         11   -1    0    0    0    0 -0.00000000000E+00 -0.00000000000E+00 -0.45593999997E+02  0.45594000000E+02  0.51100000000E-03 0. -1.
    9900012    2    1    2    0    0 -0.48538524639E+00  0.20281017122E+02  0.24600054327E+02  0.59301985397E+02  0.50000075448E+02 0.  0.
         12    1    1    2    0    0  0.48538524639E+00 -0.20281017122E+02 -0.24600054327E+02  0.31886014603E+02  0.00000000000E+00 0. -1.
         11    1    3    3    0    0 -0.20038625818E+01  0.87372043451E+01 -0.14407075462E+01  0.90790882532E+01  0.51100000000E-03 0. -1.
        -11    1    3    3    0    0  0.27945368490E+01  0.27118156617E+02  0.17778220094E+02  0.32546412466E+02  0.51100000000E-03 0.  1.
         12    1    3    3    0    0 -0.12760595136E+01 -0.15574343839E+02  0.82625417795E+01  0.17676484678E+02  0.00000000000E+00 0. -1.
</event>
<event>
 7    1  0.5662448E-012  0.5930193E+02  0.7816164E-02  0.1266605E+00
        -11   -1    0    0    0    0  0.00000000000E+00  0.00000000000E+00  0.45593999997E+02  0.45594000000E+02  0.51100000000E-03 0.  1.
         11   -1    0    0    0    0 -0.00000000000E+00 -0.00000000000E+00 -0.45593999997E+02  0.45594000000E+02  0.51100000000E-03 0. -1.
    9900012    2    1    2    0    0 -0.29756345925E+02  0.42760866853E+00  0.11449822698E+02  0.59301930757E+02  0.49999975797E+02 0.  0.
         12    1    1    2    0    0  0.29756345925E+02 -0.42760866853E+00 -0.11449822698E+02  0.31886069243E+02  0.00000000000E+00 0. -1.
         11    1    3    3    0    0 -0.12034950998E+02  0.11031586513E+02 -0.13698184346E+00  0.16326503325E+02  0.51100000000E-03 0. -1.
        -11    1    3    3    0    0  0.96859242480E+01  0.34579015128E+01  0.71673167008E+00  0.10309603094E+02  0.51100000000E-03 0.  1.
        -12    1    3    3    0    0 -0.27407319175E+02 -0.14061879358E+02  0.10870072871E+02  0.32665824338E+02  0.00000000000E+00 0.  1.
</event>
<event>
 7    1  0.5662448E-012  0.5930195E+02  0.7816164E-02  0.1266605E+00
        -11   -1    0    0    0    0  0.00000000000E+00  0.00000000000E+00  0.45593999997E+02  0.45594000000E+02  0.51100000000E-03 0.  1.
         11   -1    0    0    0    0 -0.00000000000E+00 -0.00000000000E+00 -0.45593999997E+02  0.45594000000E+02  0.51100000000E-03 0. -1.
    9900012    2    1    2    0    0  0.31313361762E+02 -0.20666417580E-01  0.60160642670E+01  0.59301951621E+02  0.50000013849E+02 0.  0.
         12    1    1    2    0    0 -0.31313361762E+02  0.20666417580E-01 -0.60160642670E+01  0.31886048379E+02  0.00000000000E+00 0. -1.
         11    1    3    3    0    0  0.12859553768E+01  0.61851645100E+01 -0.11679457118E+02  0.13278541339E+02  0.51100000000E-03 0. -1.
        -11    1    3    3    0    0  0.11259324074E+02 -0.10341633957E+02 -0.51843411737E+01  0.16143084129E+02  0.51100000000E-03 0.  1.
        -12    1    3    3    0    0  0.18768082311E+02  0.41358030298E+01  0.22879862559E+02  0.29880326154E+02  0.00000000000E+00 0.  1.
</event>
<event>
 7    1  0.5662448E-012  0.5930199E+02  0.7816164E-02  0.1266605E+00
        -11   -1    0    0    0    0  0.00000000000E+00  0.00000000000E+00  0.45593999997E+02  0.45594000000E+02  0.51100000000E-03 0. -1.
         11   -1    0    0    0    0 -0.00000000000E+00 -0.00000000000E+00 -0.45593999997E+02  0.45594000000E+02  0.51100000000E-03 0.  1.
    9900012    2    1    2    0    0 -0.11472349143E+02 -0.22631092694E+02 -0.19311568158E+02  0.59301987140E+02  0.50000078626E+02 0.  0.
         12    1    1    2    0    0  0.11472349143E+02  0.22631092694E+02  0.19311568158E+02  0.31886012860E+02  0.00000000000E+00 0. -1.
         11    1    3    3    0    0 -0.81097733497E+01  0.50975028133E+01  0.82466042566E+01  0.12639598124E+02  0.51100000000E-03 0. -1.
        -11    1    3    3    0    0  0.72365652714E+01 -0.10611004059E+02 -0.22492918801E+02  0.25901596100E+02  0.51100000000E-03 0.  1.
        -12    1    3    3    0    0 -0.10599141065E+02 -0.17117591449E+02 -0.50652536133E+01  0.20760792916E+02  0.00000000000E+00 0.  1.
</event>
<event>
 7    1  0.5662448E-012  0.5930193E+02  0.7816164E-02  0.1266605E+00
        -11   -1    0    0    0    0  0.00000000000E+00  0.00000000000E+00  0.45593999997E+02  0.45594000000E+02  0.51100000000E-03 0.  1.
         11   -1    0    0    0    0 -0.00000000000E+00 -0.00000000000E+00 -0.45593999997E+02  0.45594000000E+02  0.51100000000E-03 0. -1.
    9900012    2    1    2    0    0  0.30145442207E+02 -0.39260450548E+01 -0.96208120828E+01  0.59301928735E+02  0.49999972109E+02 0.  0.
         12    1    1    2    0    0 -0.30145442207E+02  0.39260450548E+01  0.96208120828E+01  0.31886071265E+02  0.00000000000E+00 0. -1.
         11    1    3    3    0    0  0.78625498475E+01 -0.38797025340E+01 -0.61652616506E+01  0.10718312989E+02  0.51100000000E-03 0. -1.
        -11    1    3    3    0    0  0.24834444374E+02 -0.17148361946E+02  0.25301009103E+01  0.30285596505E+02  0.51100000000E-03 0.  1.
         12    1    3    3    0    0 -0.25515520153E+01  0.17102019425E+02 -0.59856513425E+01  0.18298019240E+02  0.00000000000E+00 0. -1.
</event>
<event>
 7    1  0.5662448E-012  0.5930195E+02  0.7816164E-02  0.1266605E+00
        -11   -1    0    0    0    0  0.00000000000E+00  0.00000000000E+00  0.45593999997E+02  0.45594000000E+02  0.51100000000E-03 0.  1.
         11   -1    0    0    0    0 -0.00000000000E+00 -0.00000000000E+00 -0.45593999997E+02  0.45594000000E+02  0.51100000000E-03 0. -1.
    9900012    2    1    2    0    0 -0.13393033012E+01  0.22016710798E+02  0.23025867678E+02  0.59301954933E+02  0.50000019888E+02 0.  0.
         12    1    1    2    0    0  0.13393033012E+01 -0.22016710798E+02 -0.23025867678E+02  0.31886045067E+02  0.00000000000E+00 0. -1.
         11    1    3    3    0    0  0.73139916844E+00 -0.86584975785E+01  0.11185122854E+02  0.14163738863E+02  0.51100000000E-03 0. -1.
        -11    1    3    3    0    0  0.13978068013E+02  0.17330391998E+02  0.92342055495E+01  0.24103929650E+02  0.51100000000E-03 0.  1.
         12    1    3    3    0    0 -0.16048770483E+02  0.13344816379E+02  0.26065392737E+01  0.21034286420E+02  0.00000000000E+00 0. -1.
</event>
<event>
 7    1  0.5662448E-012  0.5930190E+02  0.7816164E-02  0.1266605E+00
        -11   -1    0    0    0    0  0.00000000000E+00  0.00000000000E+00  0.45593999997E+02  0.45594000000E+02  0.51100000000E-03 0.  1.
         11   -1    0    0    0    0 -0.00000000000E+00 -0.00000000000E+00 -0.45593999997E+02  0.45594000000E+02  0.51100000000E-03 0. -1.
    9900012    2    1    2    0    0 -0.16600050688E+02 -0.67630581867E+01  0.26370870300E+02  0.59301898964E+02  0.49999917815E+02 0.  0.
         12    1    1    2    0    0  0.16600050688E+02  0.67630581867E+01 -0.26370870300E+02  0.31886101036E+02  0.00000000000E+00 0. -1.
         11    1    3    3    0    0 -0.92442044036E+01  0.44643880993E+01  0.14516062597E+01  0.10367894538E+02  0.51100000000E-03 0. -1.
        -11    1    3    3    0    0 -0.42790844449E+01  0.12749701633E+02  0.20256886552E+02  0.24314746729E+02  0.51100000000E-03 0.  1.
        -12    1    3    3    0    0 -0.30767618392E+01 -0.23977147919E+02  0.46623774883E+01  0.24619257697E+02  0.00000000000E+00 0.  1.
</event>
<event>
 7    1  0.5662448E-012  0.5930180E+02  0.7816164E-02  0.1266605E+00
        -11   -1    0    0    0    0  0.00000000000E+00  0.00000000000E+00  0.45593999997E+02  0.45594000000E+02  0.51100000000E-03 0.  1.
         11   -1    0    0    0    0 -0.00000000000E+00 -0.00000000000E+00 -0.45593999997E+02  0.45594000000E+02  0.51100000000E-03 0. -1.
    9900012    2    1    2    0    0  0.19267215364E+02  0.18672314876E+02  0.17229294996E+02  0.59301803351E+02  0.49999743438E+02 0.  0.
         12    1    1    2    0    0 -0.19267215364E+02 -0.18672314876E+02 -0.17229294996E+02  0.31886196649E+02  0.00000000000E+00 0. -1.
         11    1    3    3    0    0  0.38811911122E+01  0.11558545895E+02  0.29958688159E+02  0.32344808302E+02  0.51100000000E-03 0. -1.
        -11    1    3    3    0    0  0.21132427118E+01  0.96956374210E+01 -0.75839784102E+01  0.12489511942E+02  0.51100000000E-03 0.  1.
        -12    1    3    3    0    0  0.13272781540E+02 -0.25818684398E+01 -0.51454147528E+01  0.14467483107E+02  0.00000000000E+00 0.  1.
</event>
<event>
 7    1  0.5662448E-012  0.5930195E+02  0.7816164E-02  0.1266605E+00
        -11   -1    0    0    0    0  0.00000000000E+00  0.00000000000E+00  0.45593999997E+02  0.45594000000E+02  0.51100000000E-03 0. -1.
         11   -1    0    0    0    0 -0.00000000000E+00 -0.00000000000E+00 -0.45593999997E+02  0.45594000000E+02  0.51100000000E-03 0.  1.
    9900012    2    1    2    0    0  0.20177281068E+02  0.18110137729E+02  0.16781552209E+02  0.59301948905E+02  0.50000008895E+02 0.  0.
         12    1    1    2    0    0 -0.20177281068E+02 -0.18110137729E+02 -0.16781552209E+02  0.31886051095E+02  0.00000000000E+00 0. -1.
         11    1    3    3    0    0  0.16290785752E+01 -0.34621560236E+01  0.24802213088E+01  0.45598157132E+01  0.51100000000E-03 0. -1.
        -11    1    3    3    0    0 -0.72011725181E+01 -0.29523444478E+01 -0.92514710242E+01  0.12089786588E+02  0.51100000000E-03 0.  1.
         12    1    3    3    0    0  0.25749375011E+02  0.24524638200E+02  0.23552801925E+02  0.42652346604E+02  0.00000000000E+00 0. -1.
</event>
<event>
 7    1  0.5662448E-012  0.5930192E+02  0.7816164E-02  0.1266605E+00
        -11   -1    0    0    0    0  0.00000000000E+00  0.00000000000E+00  0.45593999997E+02  0.45594000000E+02  0.51100000000E-03 0.  1.
         11   -1    0    0    0    0 -0.00000000000E+00 -0.00000000000E+00 -0.45593999997E+02  0.45594000000E+02  0.51100000000E-03 0. -1.
    9900012    2    1    2    0    0 -0.40076389962E+01 -0.31232166138E+02  0.50212222765E+01  0.59301920825E+02  0.49999957684E+02 0.  0.
         12    1    1    2    0    0  0.40076389962E+01  0.31232166138E+02 -0.50212222765E+01  0.31886079175E+02  0.00000000000E+00 0. -1.
         11    1    3    3    0    0  0.33804132006E+01 -0.31002957046E+01 -0.11283994406E+02  0.12180622187E+02  0.51100000000E-03 0. -1.
        -11    1    3    3    0    0 -0.25802336132E+01 -0.50084007114E+01  0.22096656478E+02  0.22803594255E+02  0.51100000000E-03 0.  1.
         12    1    3    3    0    0 -0.48078185836E+01 -0.23123469722E+02 -0.57914397958E+01  0.24317704382E+02  0.00000000000E+00 0. -1.
</event>
<event>
 7    1  0.5662448E-012  0.5930196E+02  0.7816164E-02  0.1266605E+00
        -11   -1    0    0    0    0  0.00000000000E+00  0.00000000000E+00  0.45593999997E+02  0.45594000000E+02  0.51100000000E-03 0.  1.
         11   -1    0    0    0    0 -0.00000000000E+00 -0.00000000000E+00 -0.45593999997E+02  0.45594000000E+02  0.51100000000E-03 0. -1.
    9900012    2    1    2    0    0 -0.26968346755E+02  0.47561360702E+00  0.17005932813E+02  0.59301957821E+02  0.50000025155E+02 0.  0.
         12    1    1    2    0    0  0.26968346755E+02 -0.47561360702E+00 -0.17005932813E+02  0.31886042179E+02  0.00000000000E+00 0. -1.
         11    1    3    3    0    0  0.72539999049E+00  0.17222257742E+01  0.66318562790E+00  0.19829478565E+01  0.51100000000E-03 0. -1.
        -11    1    3    3    0    0  0.36030524531E+01 -0.14214905745E+02 -0.69286175728E+01  0.16218855510E+02  0.51100000000E-03 0.  1.
         12    1    3    3    0    0 -0.31296799199E+02  0.12968293578E+02  0.23271364758E+02  0.41100154454E+02  0.00000000000E+00 0. -1.
</event>
<event>
 7    1  0.5662448E-012  0.5930190E+02  0.7816164E-02  0.1266605E+00
        -11   -1    0    0    0    0  0.00000000000E+00  0.00000000000E+00  0.45593999997E+02  0.45594000000E+02  0.51100000000E-03 0.  1.
         11   -1    0    0    0    0 -0.00000000000E+00 -0.00000000000E+00 -0.45593999997E+02  0.45594000000E+02  0.51100000000E-03 0. -1.
    9900012    2    1    2    0    0 -0.18067312422E+02 -0.33246601595E+01  0.26062275838E+02  0.59301900125E+02  0.49999919932E+02 0.  0.
         12    1    1    2    0    0  0.18067312422E+02  0.33246601595E+01 -0.26062275838E+02  0.31886099875E+02  0.00000000000E+00 0. -1.
         11    1    3    3    0    0  0.77653061370E+01  0.38262249232E+01 -0.74106336215E+01  0.11395502073E+02  0.51100000000E-03 0. -1.
        -11    1    3    3    0    0 -0.23767254786E+02 -0.31855966918E+01  0.13664726568E+02  0.27599912659E+02  0.51100000000E-03 0.  1.
        -12    1    3    3    0    0 -0.20653637732E+01 -0.39652883909E+01  0.19808182892E+02  0.20306485393E+02  0.00000000000E+00 0.  1.
</event>
<event>
 7    1  0.5662448E-012  0.5930196E+02  0.7816164E-02  0.1266605E+00
        -11   -1    0    0    0    0  0.00000000000E+00  0.00000000000E+00  0.45593999997E+02  0.45594000000E+02  0.51100000000E-03 0.  1.
         11   -1    0    0    0    0 -0.00000000000E+00 -0.00000000000E+00 -0.45593999997E+02  0.45594000000E+02  0.51100000000E-03 0. -1.
    9900012    2    1    2    0    0  0.18063675333E+02 -0.24709696865E+02  0.89360997383E+01  0.59301962864E+02  0.50000034353E+02 0.  0.
         12    1    1    2    0    0 -0.18063675333E+02  0.24709696865E+02 -0.89360997383E+01  0.31886037136E+02  0.00000000000E+00 0. -1.
         11    1    3    3    0    0 -0.99629937027E+01 -0.62774380389E+01 -0.79852471318E+01  0.14227847478E+02  0.51100000000E-03 0. -1.
        -11    1    3    3    0    0  0.17434602171E+01 -0.10599240581E+02 -0.30281211522E+01  0.11160334779E+02  0.51100000000E-03 0.  1.
        -12    1    3    3    0    0  0.26283208819E+02 -0.78330182452E+01  0.19949468022E+02  0.33913780606E+02  0.00000000000E+00 0.  1.
</event>
<event>
 7    1  0.5662448E-012  0.5930195E+02  0.7816164E-02  0.1266605E+00
        -11   -1    0    0    0    0  0.00000000000E+00  0.00000000000E+00  0.45593999997E+02  0.45594000000E+02  0.51100000000E-03 0. -1.
         11   -1    0    0    0    0 -0.00000000000E+00 -0.00000000000E+00 -0.45593999997E+02  0.45594000000E+02  0.51100000000E-03 0.  1.
    9900012    2    1    2    0    0 -0.23921290951E+02  0.14228259588E+02 -0.15557909680E+02  0.59301951557E+02  0.50000013732E+02 0.  0.
         12    1    1    2    0    0  0.23921290951E+02 -0.14228259588E+02  0.15557909680E+02  0.31886048443E+02  0.00000000000E+00 0. -1.
         11    1    3    3    0    0  0.46396339408E+01  0.98490417794E+01  0.51618979427E+01  0.12048859602E+02  0.51100000000E-03 0. -1.
        -11    1    3    3    0    0 -0.57824990318E+01 -0.15238703319E+01  0.80866213622E+01  0.10057480855E+02  0.51100000000E-03 0.  1.
        -12    1    3    3    0    0 -0.22778425860E+02  0.59030881405E+01 -0.28806428984E+02  0.37195611100E+02  0.00000000000E+00 0.  1.
</event>
<event>
 7    1  0.5662448E-012  0.5930199E+02  0.7816164E-02  0.1266605E+00
        -11   -1    0    0    0    0  0.00000000000E+00  0.00000000000E+00  0.45593999997E+02  0.45594000000E+02  0.51100000000E-03 0.  1.
         11   -1    0    0    0    0 -0.00000000000E+00 -0.00000000000E+00 -0.45593999997E+02  0.45594000000E+02  0.51100000000E-03 0. -1.
    9900012    2    1    2    0    0 -0.90459676438E+01 -0.19882898454E+02  0.23228391109E+02  0.59301994684E+02  0.50000092384E+02 0.  0.
         12    1    1    2    0    0  0.90459676438E+01  0.19882898454E+02 -0.23228391109E+02  0.31886005316E+02  0.00000000000E+00 0. -1.
         11    1    3    3    0    0  0.28030976506E+01 -0.29107407360E+01  0.19728918656E+02  0.20138520295E+02  0.51100000000E-03 0. -1.
        -11    1    3    3    0    0 -0.68939132491E+01 -0.93976007574E+01  0.18369673492E+02  0.21755133747E+02  0.51100000000E-03 0.  1.
         12    1    3    3    0    0 -0.49551520452E+01 -0.75745569603E+01 -0.14870201040E+02  0.17408340642E+02  0.00000000000E+00 0. -1.
</event>
<event>
 7    1  0.5662448E-012  0.5930196E+02  0.7816164E-02  0.1266605E+00
        -11   -1    0    0    0    0  0.00000000000E+00  0.00000000000E+00  0.45593999997E+02  0.45594000000E+02  0.51100000000E-03 0.  1.
         11   -1    0    0    0    0 -0.00000000000E+00 -0.00000000000E+00 -0.45593999997E+02  0.45594000000E+02  0.51100000000E-03 0. -1.
    9900012    2    1    2    0    0  0.45397159495E+01 -0.29708250905E+02  0.10655052379E+02  0.59301963339E+02  0.50000035219E+02 0.  0.
         12    1    1    2    0    0 -0.45397159495E+01  0.29708250905E+02 -0.10655052379E+02  0.31886036661E+02  0.00000000000E+00 0. -1.
         11    1    3    3    0    0  0.47899843483E+01 -0.26493989387E+02 -0.98250850175E+01  0.28660211436E+02  0.51100000000E-03 0. -1.
        -11    1    3    3    0    0  0.68949944899E+01  0.66572526154E+01  0.46176039927E+01  0.10638713658E+02  0.51100000000E-03 0.  1.
        -12    1    3    3    0    0 -0.71452628887E+01 -0.98715141338E+01  0.15862533404E+02  0.20003038245E+02  0.00000000000E+00 0.  1.
</event>
<event>
 7    1  0.5662448E-012  0.5930195E+02  0.7816164E-02  0.1266605E+00
        -11   -1    0    0    0    0  0.00000000000E+00  0.00000000000E+00  0.45593999997E+02  0.45594000000E+02  0.51100000000E-03 0.  1.
         11   -1    0    0    0    0 -0.00000000000E+00 -0.00000000000E+00 -0.45593999997E+02  0.45594000000E+02  0.51100000000E-03 0. -1.
    9900012    2    1    2    0    0  0.12717264207E+02 -0.17340796493E+02  0.23543331129E+02  0.59301945484E+02  0.50000002656E+02 0.  0.
         12    1    1    2    0    0 -0.12717264207E+02  0.17340796493E+02 -0.23543331129E+02  0.31886054516E+02  0.00000000000E+00 0. -1.
         11    1    3    3    0    0  0.50136433179E+00 -0.24659729817E+01  0.28001733909E+02  0.28114577911E+02  0.51100000000E-03 0. -1.
        -11    1    3    3    0    0  0.72674722740E+01 -0.24424389890E+01  0.92611302018E+01  0.12022902908E+02  0.51100000000E-03 0.  1.
         12    1    3    3    0    0  0.49484276007E+01 -0.12432384522E+02 -0.13719532982E+02  0.19164464664E+02  0.00000000000E+00 0. -1.
</event>
<event>
 7    1  0.5662448E-012  0.5930193E+02  0.7816164E-02  0.1266605E+00
        -11   -1    0    0    0    0  0.00000000000E+00  0.00000000000E+00  0.45593999997E+02  0.45594000000E+02  0.51100000000E-03 0.  1.
         11   -1    0    0    0    0 -0.00000000000E+00 -0.00000000000E+00 -0.45593999997E+02  0.45594000000E+02  0.51100000000E-03 0. -1.
    9900012    2    1    2    0    0  0.31972430041E+01 -0.12194340995E+02  0.29288174508E+02  0.59301929669E+02  0.49999973813E+02 0.  0.
         12    1    1    2    0    0 -0.31972430041E+01  0.12194340995E+02 -0.29288174508E+02  0.31886070331E+02  0.00000000000E+00 0. -1.
         11    1    3    3    0    0 -0.21363217809E+01 -0.14414777205E+02  0.10366174821E+02  0.17883155575E+02  0.51100000000E-03 0. -1.
        -11    1    3    3    0    0  0.13464653095E+02 -0.99917230778E+01  0.20701405239E+02  0.26639812165E+02  0.51100000000E-03 0.  1.
         12    1    3    3    0    0 -0.81310883102E+01  0.12212159288E+02 -0.17794055519E+01  0.14778961929E+02  0.00000000000E+00 0. -1.
</event>
<event>
 7    1  0.5662448E-012  0.5930196E+02  0.7816164E-02  0.1266605E+00
        -11   -1    0    0    0    0  0.00000000000E+00  0.00000000000E+00  0.45593999997E+02  0.45594000000E+02  0.51100000000E-03 0.  1.
         11   -1    0    0    0    0 -0.00000000000E+00 -0.00000000000E+00 -0.45593999997E+02  0.45594000000E+02  0.51100000000E-03 0. -1.
    9900012    2    1    2    0    0  0.14402006050E+02  0.24595057714E+02  0.14296334333E+02  0.59301955755E+02  0.50000021388E+02 0.  0.
         12    1    1    2    0    0 -0.14402006050E+02 -0.24595057714E+02 -0.14296334333E+02  0.31886044245E+02  0.00000000000E+00 0. -1.
         11    1    3    3    0    0  0.48898121034E+01  0.14806065098E+02 -0.15704804190E+01  0.15671510301E+02  0.51100000000E-03 0. -1.
        -11    1    3    3    0    0  0.23844051199E+02  0.63480459647E+01  0.14977402725E+02  0.28864494760E+02  0.51100000000E-03 0.  1.
         12    1    3    3    0    0 -0.14331857252E+02  0.34409466515E+01  0.88941202705E+00  0.14765950694E+02  0.00000000000E+00 0. -1.
</event>
<event>
 7    1  0.5662448E-012  0.5930195E+02  0.7816164E-02  0.1266605E+00
        -11   -1    0    0    0    0  0.00000000000E+00  0.00000000000E+00  0.45593999997E+02  0.45594000000E+02  0.51100000000E-03 0.  1.
         11   -1    0    0    0    0 -0.00000000000E+00 -0.00000000000E+00 -0.45593999997E+02  0.45594000000E+02  0.51100000000E-03 0. -1.
    9900012    2    1    2    0    0  0.21213743664E+02  0.23419210048E+02 -0.42705537004E+01  0.59301953704E+02  0.50000017646E+02 0.  0.
         12    1    1    2    0    0 -0.21213743664E+02 -0.23419210048E+02  0.42705537004E+01  0.31886046296E+02  0.00000000000E+00 0. -1.
         11    1    3    3    0    0  0.32647613762E+02  0.23510839354E+02 -0.92048117186E+01  0.41271719258E+02  0.51100000000E-03 0.  1.
        -11    1    3    3    0    0 -0.51336894212E+01 -0.59703181903E+01 -0.42025824611E+00  0.78851812675E+01  0.51100000000E-03 0. -1.
        -12    1    3    3    0    0 -0.63001806767E+01  0.58786888846E+01  0.53545162643E+01  0.10145053178E+02  0.00000000000E+00 0.  1.
</event>
<event>
 7    1  0.5662448E-012  0.5930196E+02  0.7816164E-02  0.1266605E+00
        -11   -1    0    0    0    0  0.00000000000E+00  0.00000000000E+00  0.45593999997E+02  0.45594000000E+02  0.51100000000E-03 0.  1.
         11   -1    0    0    0    0 -0.00000000000E+00 -0.00000000000E+00 -0.45593999997E+02  0.45594000000E+02  0.51100000000E-03 0. -1.
    9900012    2    1    2    0    0  0.75115267770E+01  0.26034915391E+02  0.16807125411E+02  0.59301963581E+02  0.50000035661E+02 0.  0.
         12    1    1    2    0    0 -0.75115267770E+01 -0.26034915391E+02 -0.16807125411E+02  0.31886036419E+02  0.00000000000E+00 0. -1.
         11    1    3    3    0    0  0.40069157738E+01  0.69601878778E+01 -0.34971854288E+01  0.87595602342E+01  0.51100000000E-03 0. -1.
        -11    1    3    3    0    0  0.77355692385E+01  0.30436756820E+02  0.21938715016E+02  0.38308516207E+02  0.51100000000E-03 0.  1.
         12    1    3    3    0    0 -0.42309582352E+01 -0.11362029307E+02 -0.16344041763E+01  0.12233887141E+02  0.00000000000E+00 0. -1.
</event>
<event>
 7    1  0.5662448E-012  0.5930193E+02  0.7816164E-02  0.1266605E+00
        -11   -1    0    0    0    0  0.00000000000E+00  0.00000000000E+00  0.45593999997E+02  0.45594000000E+02  0.51100000000E-03 0.  1.
         11   -1    0    0    0    0 -0.00000000000E+00 -0.00000000000E+00 -0.45593999997E+02  0.45594000000E+02  0.51100000000E-03 0. -1.
    9900012    2    1    2    0    0  0.28137911794E+02  0.92554344930E+01  0.11803246277E+02  0.59301925133E+02  0.49999965540E+02 0.  0.
         12    1    1    2    0    0 -0.28137911794E+02 -0.92554344930E+01 -0.11803246277E+02  0.31886074867E+02  0.00000000000E+00 0. -1.
         11    1    3    3    0    0  0.10319728810E+02  0.62941088997E+01 -0.26479124003E+01  0.12374330281E+02  0.51100000000E-03 0. -1.
        -11    1    3    3    0    0  0.15439288600E+02  0.20996813266E+02  0.54295730764E+01  0.26621759217E+02  0.51100000000E-03 0.  1.
         12    1    3    3    0    0  0.23788943840E+01 -0.18035487672E+02  0.90215856007E+01  0.20305835634E+02  0.00000000000E+00 0. -1.
</event>
<event>
 7    1  0.5662448E-012  0.5930194E+02  0.7816164E-02  0.1266605E+00
        -11   -1    0    0    0    0  0.00000000000E+00  0.00000000000E+00  0.45593999997E+02  0.45594000000E+02  0.51100000000E-03 0.  1.
         11   -1    0    0    0    0 -0.00000000000E+00 -0.00000000000E+00 -0.45593999997E+02  0.45594000000E+02  0.51100000000E-03 0. -1.
    9900012    2    1    2    0    0 -0.15862120701E+02 -0.27313240014E+02 -0.43704439705E+01  0.59301941390E+02  0.49999995189E+02 0.  0.
         12    1    1    2    0    0  0.15862120701E+02  0.27313240014E+02  0.43704439705E+01  0.31886058610E+02  0.00000000000E+00 0. -1.
         11    1    3    3    0    0  0.10121489378E+02  0.51735756482E+01 -0.12089691628E+02  0.16594308546E+02  0.51100000000E-03 0. -1.
        -11    1    3    3    0    0 -0.14106157959E+01 -0.78713773389E+00  0.13317859587E+01  0.20935799093E+01  0.51100000000E-03 0.  1.
        -12    1    3    3    0    0 -0.24572994284E+02 -0.31699677928E+02  0.63874616983E+01  0.40614052934E+02  0.00000000000E+00 0.  1.
</event>
<event>
 7    1  0.5662448E-012  0.5930192E+02  0.7816164E-02  0.1266605E+00
        -11   -1    0    0    0    0  0.00000000000E+00  0.00000000000E+00  0.45593999997E+02  0.45594000000E+02  0.51100000000E-03 0. -1.
         11   -1    0    0    0    0 -0.00000000000E+00 -0.00000000000E+00 -0.45593999997E+02  0.45594000000E+02  0.51100000000E-03 0.  1.
    9900012    2    1    2    0    0  0.50211380541E+01  0.23408045497E+01 -0.31401126067E+02  0.59301922920E+02  0.49999961504E+02 0.  0.
         12    1    1    2    0    0 -0.50211380541E+01 -0.23408045497E+01  0.31401126067E+02  0.31886077080E+02  0.00000000000E+00 0. -1.
         11    1    3    3    0    0  0.29961214779E+01 -0.18900061102E+01  0.48855588067E+01  0.60346956942E+01  0.51100000000E-03 0. -1.
        -11    1    3    3    0    0 -0.79673786378E+01 -0.99787137197E+01 -0.33269636640E+02  0.35635973009E+02  0.51100000000E-03 0.  1.
         12    1    3    3    0    0  0.99923952140E+01  0.14209524380E+02 -0.30170482332E+01  0.17631254217E+02  0.00000000000E+00 0. -1.
</event>
<event>
 7    1  0.5662448E-012  0.5930195E+02  0.7816164E-02  0.1266605E+00
        -11   -1    0    0    0    0  0.00000000000E+00  0.00000000000E+00  0.45593999997E+02  0.45594000000E+02  0.51100000000E-03 0.  1.
         11   -1    0    0    0    0 -0.00000000000E+00 -0.00000000000E+00 -0.45593999997E+02  0.45594000000E+02  0.51100000000E-03 0. -1.
    9900012    2    1    2    0    0  0.13852337576E+01 -0.35261256666E+01  0.31660193150E+02  0.59301948738E+02  0.50000008590E+02 0.  0.
         12    1    1    2    0    0 -0.13852337576E+01  0.35261256666E+01 -0.31660193150E+02  0.31886051262E+02  0.00000000000E+00 0. -1.
         11    1    3    3    0    0  0.37741058643E+01  0.64629115539E+01  0.60842854178E+01  0.96452905677E+01  0.51100000000E-03 0. -1.
        -11    1    3    3    0    0 -0.65926286638E+01  0.86110932979E+01  0.28380738944E+02  0.30382232041E+02  0.51100000000E-03 0.  1.
        -12    1    3    3    0    0  0.42037565572E+01 -0.18600130518E+02 -0.28048312121E+01  0.19274426129E+02  0.00000000000E+00 0.  1.
</event>
<event>
 7    1  0.7570558E-012  0.5930193E+02  0.7816164E-02  0.1266605E+00
        -11   -1    0    0    0    0  0.00000000000E+00  0.00000000000E+00  0.45593999997E+02  0.45594000000E+02  0.51100000000E-03 0. -1.
         11   -1    0    0    0    0 -0.00000000000E+00 -0.00000000000E+00 -0.45593999997E+02  0.45594000000E+02  0.51100000000E-03 0.  1.
    9900012    2    1    2    0    0  0.84065386760E+01  0.19790770781E+02 -0.23545207601E+02  0.59301932485E+02  0.49999978949E+02 0.  0.
         12    1    1    2    0    0 -0.84065386760E+01 -0.19790770781E+02  0.23545207601E+02  0.31886067515E+02  0.00000000000E+00 0. -1.
         11    1    3    3    0    0 -0.95865015924E+01  0.31331727960E+01  0.25957072151E+01  0.10414196117E+02  0.51100000000E-03 0. -1.
        -11    1    3    3    0    0  0.64242438243E+01  0.11720417506E+02 -0.32245951795E+02  0.34906167115E+02  0.51100000000E-03 0.  1.
         12    1    3    3    0    0  0.11568796444E+02  0.49371804794E+01  0.61050369797E+01  0.13981569253E+02  0.00000000000E+00 0. -1.
</event>
<event>
 7    1  0.5662448E-012  0.5930196E+02  0.7816164E-02  0.1266605E+00
        -11   -1    0    0    0    0  0.00000000000E+00  0.00000000000E+00  0.45593999997E+02  0.45594000000E+02  0.51100000000E-03 0.  1.
         11   -1    0    0    0    0 -0.00000000000E+00 -0.00000000000E+00 -0.45593999997E+02  0.45594000000E+02  0.51100000000E-03 0. -1.
    9900012    2    1    2    0    0 -0.13238669212E+02 -0.93638021360E+01  0.27454992707E+02  0.59301956384E+02  0.50000022535E+02 0.  0.
         12    1    1    2    0    0  0.13238669212E+02  0.93638021360E+01 -0.27454992707E+02  0.31886043616E+02  0.00000000000E+00 0. -1.
         11    1    3    3    0    0  0.74147838336E+00  0.48568021520E+01 -0.44857731687E+01  0.66528549149E+01  0.51100000000E-03 0. -1.
        -11    1    3    3    0    0 -0.59196294700E+01 -0.26389995350E+02  0.23216879202E+02  0.35644036637E+02  0.51100000000E-03 0.  1.
         12    1    3    3    0    0 -0.80605181255E+01  0.12169391062E+02  0.87238866732E+01  0.17005064832E+02  0.00000000000E+00 0. -1.
</event>
<event>
 7    1  0.5662448E-012  0.5930192E+02  0.7816164E-02  0.1266605E+00
        -11   -1    0    0    0    0  0.00000000000E+00  0.00000000000E+00  0.45593999997E+02  0.45594000000E+02  0.51100000000E-03 0.  1.
         11   -1    0    0    0    0 -0.00000000000E+00 -0.00000000000E+00 -0.45593999997E+02  0.45594000000E+02  0.51100000000E-03 0. -1.
    9900012    2    1    2    0    0  0.11900551496E+01 -0.29833946170E+02  0.11191143209E+02  0.59301917430E+02  0.49999951492E+02 0.  0.
         12    1    1    2    0    0 -0.11900551496E+01  0.29833946170E+02 -0.11191143209E+02  0.31886082570E+02  0.00000000000E+00 0. -1.
         11    1    3    3    0    0  0.34344866911E+01  0.18477156577E+01 -0.49803230137E+01  0.63256121890E+01  0.51100000000E-03 0. -1.
        -11    1    3    3    0    0 -0.51128165342E+01 -0.49899738528E+01 -0.12060935897E+02  0.14018092129E+02  0.51100000000E-03 0.  1.
        -12    1    3    3    0    0  0.28683849927E+01 -0.26691687975E+02  0.28232402120E+02  0.38958213112E+02  0.00000000000E+00 0.  1.
</event>
<event>
 7    1  0.5662448E-012  0.5930196E+02  0.7816164E-02  0.1266605E+00
        -11   -1    0    0    0    0  0.00000000000E+00  0.00000000000E+00  0.45593999997E+02  0.45594000000E+02  0.51100000000E-03 0.  1.
         11   -1    0    0    0    0 -0.00000000000E+00 -0.00000000000E+00 -0.45593999997E+02  0.45594000000E+02  0.51100000000E-03 0. -1.
    9900012    2    1    2    0    0 -0.15744802414E+02  0.74935450322E+01  0.26695830608E+02  0.59301962428E+02  0.50000033557E+02 0.  0.
         12    1    1    2    0    0  0.15744802414E+02 -0.74935450322E+01 -0.26695830608E+02  0.31886037572E+02  0.00000000000E+00 0. -1.
         11    1    3    3    0    0  0.14904108102E+01 -0.10379706639E+02  0.11502854641E+02  0.15565195131E+02  0.51100000000E-03 0.  1.
        -11    1    3    3    0    0 -0.39351020582E+01  0.53915501580E+01  0.22961222485E+02  0.23911745641E+02  0.51100000000E-03 0. -1.
         12    1    3    3    0    0 -0.13300111166E+02  0.12481701513E+02 -0.77682465182E+01  0.19825021656E+02  0.00000000000E+00 0. -1.
</event>
<event>
 7    1  0.5662448E-012  0.5930194E+02  0.7816164E-02  0.1266605E+00
        -11   -1    0    0    0    0  0.00000000000E+00  0.00000000000E+00  0.45593999997E+02  0.45594000000E+02  0.51100000000E-03 0.  1.
         11   -1    0    0    0    0 -0.00000000000E+00 -0.00000000000E+00 -0.45593999997E+02  0.45594000000E+02  0.51100000000E-03 0. -1.
    9900012    2    1    2    0    0  0.97105221174E+01  0.22489185003E+02  0.20412327414E+02  0.59301940470E+02  0.49999993512E+02 0.  0.
         12    1    1    2    0    0 -0.97105221174E+01 -0.22489185003E+02 -0.20412327414E+02  0.31886059530E+02  0.00000000000E+00 0. -1.
         11    1    3    3    0    0 -0.81696315447E+01 -0.62944258669E+01 -0.16275039241E+01  0.10440854652E+02  0.51100000000E-03 0. -1.
        -11    1    3    3    0    0  0.20806679989E+02  0.80187881926E+01  0.14394075775E+02  0.26540691662E+02  0.51100000000E-03 0.  1.
         12    1    3    3    0    0 -0.29265263265E+01  0.20764822677E+02  0.76457555630E+01  0.22320394156E+02  0.00000000000E+00 0. -1.
</event>
<event>
 7    1  0.5662448E-012  0.5930189E+02  0.7816164E-02  0.1266605E+00
        -11   -1    0    0    0    0  0.00000000000E+00  0.00000000000E+00  0.45593999997E+02  0.45594000000E+02  0.51100000000E-03 0.  1.
         11   -1    0    0    0    0 -0.00000000000E+00 -0.00000000000E+00 -0.45593999997E+02  0.45594000000E+02  0.51100000000E-03 0. -1.
    9900012    2    1    2    0    0  0.16425609826E+02 -0.83498853955E+01  0.26023120870E+02  0.59301889166E+02  0.49999899946E+02 0.  0.
         12    1    1    2    0    0 -0.16425609826E+02  0.83498853955E+01 -0.26023120870E+02  0.31886110834E+02  0.00000000000E+00 0. -1.
         11    1    3    3    0    0  0.18446957466E+02 -0.21852957639E+01  0.75854097929E+01  0.20064999360E+02  0.51100000000E-03 0. -1.
        -11    1    3    3    0    0  0.34350472156E+01  0.13209077548E+02  0.11803213446E+02  0.18044254680E+02  0.51100000000E-03 0.  1.
         12    1    3    3    0    0 -0.54563948550E+01 -0.19373667180E+02  0.66344976316E+01  0.21192635127E+02  0.00000000000E+00 0. -1.
</event>
<event>
 7    1  0.5662448E-012  0.5930193E+02  0.7816164E-02  0.1266605E+00
        -11   -1    0    0    0    0  0.00000000000E+00  0.00000000000E+00  0.45593999997E+02  0.45594000000E+02  0.51100000000E-03 0.  1.
         11   -1    0    0    0    0 -0.00000000000E+00 -0.00000000000E+00 -0.45593999997E+02  0.45594000000E+02  0.51100000000E-03 0. -1.
    9900012    2    1    2    0    0 -0.12081867298E+02 -0.12144588647E+02  0.26893470069E+02  0.59301932774E+02  0.49999979475E+02 0.  0.
         12    1    1    2    0    0  0.12081867298E+02  0.12144588647E+02 -0.26893470069E+02  0.31886067226E+02  0.00000000000E+00 0. -1.
         11    1    3    3    0    0  0.92394521315E+01 -0.12894604931E+02  0.11137483464E+02  0.19382514031E+02  0.51100000000E-03 0. -1.
        -11    1    3    3    0    0 -0.93164907466E+01 -0.12169598498E+02 -0.13046368908E+01  0.15381749092E+02  0.51100000000E-03 0.  1.
        -12    1    3    3    0    0 -0.12004828683E+02  0.12919614782E+02  0.17060623496E+02  0.24537669651E+02  0.00000000000E+00 0.  1.
</event>
<event>
 7    1  0.5662448E-012  0.5930202E+02  0.7816164E-02  0.1266604E+00
        -11   -1    0    0    0    0  0.00000000000E+00  0.00000000000E+00  0.45593999997E+02  0.45594000000E+02  0.51100000000E-03 0.  1.
         11   -1    0    0    0    0 -0.00000000000E+00 -0.00000000000E+00 -0.45593999997E+02  0.45594000000E+02  0.51100000000E-03 0. -1.
    9900012    2    1    2    0    0 -0.11733971635E+02  0.13208598995E+02  0.26543597885E+02  0.59302019281E+02  0.50000137244E+02 0.  0.
         12    1    1    2    0    0  0.11733971635E+02 -0.13208598995E+02 -0.26543597885E+02  0.31885980719E+02  0.00000000000E+00 0. -1.
         11    1    3    3    0    0  0.92320909550E+01 -0.68520992822E+01  0.22119312590E+02  0.24928833861E+02  0.51100000000E-03 0.  1.
        -11    1    3    3    0    0 -0.14551698930E+01 -0.21786520933E+01 -0.28867309512E+01  0.38983663510E+01  0.51100000000E-03 0. -1.
        -12    1    3    3    0    0 -0.19510892697E+02  0.22239350371E+02  0.73110162463E+01  0.30474819069E+02  0.00000000000E+00 0.  1.
</event>
<event>
 7    1  0.5662448E-012  0.5930193E+02  0.7816164E-02  0.1266605E+00
        -11   -1    0    0    0    0  0.00000000000E+00  0.00000000000E+00  0.45593999997E+02  0.45594000000E+02  0.51100000000E-03 0.  1.
         11   -1    0    0    0    0 -0.00000000000E+00 -0.00000000000E+00 -0.45593999997E+02  0.45594000000E+02  0.51100000000E-03 0. -1.
    9900012    2    1    2    0    0 -0.14072700889E+02  0.77013888905E+01  0.27556656265E+02  0.59301927717E+02  0.49999970252E+02 0.  0.
         12    1    1    2    0    0  0.14072700889E+02 -0.77013888905E+01 -0.27556656265E+02  0.31886072283E+02  0.00000000000E+00 0. -1.
         11    1    3    3    0    0  0.64126257948E+00  0.51189265300E+01 -0.96463274916E+01  0.10939207506E+02  0.51100000000E-03 0. -1.
        -11    1    3    3    0    0  0.55628209071E+01 -0.90168498753E+00 -0.23899354342E+00  0.56404902656E+01  0.51100000000E-03 0.  1.
        -12    1    3    3    0    0 -0.20276784376E+02  0.34841473480E+01  0.37441977300E+02  0.42722229945E+02  0.00000000000E+00 0.  1.
</event>
<event>
 7    1  0.5662448E-012  0.5930196E+02  0.7816164E-02  0.1266605E+00
        -11   -1    0    0    0    0  0.00000000000E+00  0.00000000000E+00  0.45593999997E+02  0.45594000000E+02  0.51100000000E-03 0. -1.
         11   -1    0    0    0    0 -0.00000000000E+00 -0.00000000000E+00 -0.45593999997E+02  0.45594000000E+02  0.51100000000E-03 0.  1.
    9900012    2    1    2    0    0 -0.18718453590E+02  0.45064364192E+01 -0.25417140590E+02  0.59301960582E+02  0.50000030192E+02 0.  0.
         12    1    1    2    0    0  0.18718453590E+02 -0.45064364192E+01  0.25417140590E+02  0.31886039418E+02  0.00000000000E+00 0. -1.
         11    1    3    3    0    0 -0.51550615002E+01 -0.11437329328E+02 -0.15398558472E+01  0.12639553692E+02  0.51100000000E-03 0. -1.
        -11    1    3    3    0    0 -0.24003380589E+02  0.62565558975E+01 -0.99016081203E+01  0.26708586916E+02  0.51100000000E-03 0.  1.
        -12    1    3    3    0    0  0.10439988500E+02  0.96872098497E+01 -0.13975676622E+02  0.19953819975E+02  0.00000000000E+00 0.  1.
</event>
<event>
 7    1  0.5662448E-012  0.5930196E+02  0.7816164E-02  0.1266605E+00
        -11   -1    0    0    0    0  0.00000000000E+00  0.00000000000E+00  0.45593999997E+02  0.45594000000E+02  0.51100000000E-03 0.  1.
         11   -1    0    0    0    0 -0.00000000000E+00 -0.00000000000E+00 -0.45593999997E+02  0.45594000000E+02  0.51100000000E-03 0. -1.
    9900012    2    1    2    0    0  0.31140242251E+02 -0.49601801970E+01 -0.47330129047E+01  0.59301960952E+02  0.50000030865E+02 0.  0.
         12    1    1    2    0    0 -0.31140242251E+02  0.49601801970E+01  0.47330129047E+01  0.31886039048E+02  0.00000000000E+00 0. -1.
         11    1    3    3    0    0  0.26763154329E+02 -0.14138226043E+02 -0.12862821283E+02  0.32887809853E+02  0.51100000000E-03 0. -1.
        -11    1    3    3    0    0  0.12954471378E+01 -0.19495629854E+01 -0.70004523615E+01  0.73814167101E+01  0.51100000000E-03 0.  1.
        -12    1    3    3    0    0  0.30816407838E+01  0.11127608832E+02  0.15130260740E+02  0.19032734388E+02  0.00000000000E+00 0.  1.
</event>
<event>
 7    1  0.5662448E-012  0.5930195E+02  0.7816164E-02  0.1266605E+00
        -11   -1    0    0    0    0  0.00000000000E+00  0.00000000000E+00  0.45593999997E+02  0.45594000000E+02  0.51100000000E-03 0.  1.
         11   -1    0    0    0    0 -0.00000000000E+00 -0.00000000000E+00 -0.45593999997E+02  0.45594000000E+02  0.51100000000E-03 0. -1.
    9900012    2    1    2    0    0 -0.19465023771E+02  0.21964166786E+02  0.12466284638E+02  0.59301952492E+02  0.50000015436E+02 0.  0.
         12    1    1    2    0    0  0.19465023771E+02 -0.21964166786E+02 -0.12466284638E+02  0.31886047508E+02  0.00000000000E+00 0. -1.
         11    1    3    3    0    0 -0.12986401117E+02  0.15079987584E+02  0.21031799382E+01  0.20011896602E+02  0.51100000000E-03 0. -1.
        -11    1    3    3    0    0 -0.16257397670E+02  0.36515344660E+00  0.18774316680E+02  0.24837698829E+02  0.51100000000E-03 0.  1.
        -12    1    3    3    0    0  0.97787750165E+01  0.65190257559E+01 -0.84112119804E+01  0.14452357061E+02  0.00000000000E+00 0.  1.
</event>
<event>
 7    1  0.5662448E-012  0.5930200E+02  0.7816164E-02  0.1266605E+00
        -11   -1    0    0    0    0  0.00000000000E+00  0.00000000000E+00  0.45593999997E+02  0.45594000000E+02  0.51100000000E-03 0. -1.
         11   -1    0    0    0    0 -0.00000000000E+00 -0.00000000000E+00 -0.45593999997E+02  0.45594000000E+02  0.51100000000E-03 0.  1.
    9900012    2    1    2    0    0  0.22388526356E+02 -0.21914031076E+02 -0.59368640306E+01  0.59301996411E+02  0.50000095534E+02 0.  0.
         12    1    1    2    0    0 -0.22388526356E+02  0.21914031076E+02  0.59368640306E+01  0.31886003589E+02  0.00000000000E+00 0. -1.
         11    1    3    3    0    0  0.12979285261E+02 -0.26474327218E+02  0.59790404308E+01  0.30084892758E+02  0.51100000000E-03 0. -1.
        -11    1    3    3    0    0  0.17424428345E+02 -0.59867344918E-01 -0.76752429448E+01  0.19040053618E+02  0.51100000000E-03 0.  1.
        -12    1    3    3    0    0 -0.80151872507E+01  0.46201634869E+01 -0.42406615166E+01  0.10177050035E+02  0.00000000000E+00 0.  1.
</event>
<event>
 7    1  0.5662448E-012  0.5930191E+02  0.7816164E-02  0.1266605E+00
        -11   -1    0    0    0    0  0.00000000000E+00  0.00000000000E+00  0.45593999997E+02  0.45594000000E+02  0.51100000000E-03 0. -1.
         11   -1    0    0    0    0 -0.00000000000E+00 -0.00000000000E+00 -0.45593999997E+02  0.45594000000E+02  0.51100000000E-03 0.  1.
    9900012    2    1    2    0    0  0.27966173819E+02 -0.15262785526E+02 -0.12896175929E+01  0.59301911911E+02  0.49999941427E+02 0.  0.
         12    1    1    2    0    0 -0.27966173819E+02  0.15262785526E+02  0.12896175929E+01  0.31886088089E+02  0.00000000000E+00 0. -1.
         11    1    3    3    0    0 -0.82503675553E+01 -0.68270453188E+01 -0.75587304775E+01  0.13107689319E+02  0.51100000000E-03 0. -1.
        -11    1    3    3    0    0  0.69382664560E+01  0.92403887053E+01  0.11391518775E+01  0.11611287271E+02  0.51100000000E-03 0.  1.
         12    1    3    3    0    0  0.29278274918E+02 -0.17676128913E+02  0.51299610070E+01  0.34582935321E+02  0.00000000000E+00 0. -1.
</event>
<event>
 7    1  0.5662448E-012  0.5930196E+02  0.7816164E-02  0.1266605E+00
        -11   -1    0    0    0    0  0.00000000000E+00  0.00000000000E+00  0.45593999997E+02  0.45594000000E+02  0.51100000000E-03 0.  1.
         11   -1    0    0    0    0 -0.00000000000E+00 -0.00000000000E+00 -0.45593999997E+02  0.45594000000E+02  0.51100000000E-03 0. -1.
    9900012    2    1    2    0    0  0.29372624536E+02  0.10014130432E+02  0.73270450520E+01  0.59301961211E+02  0.50000031338E+02 0.  0.
         12    1    1    2    0    0 -0.29372624536E+02 -0.10014130432E+02 -0.73270450520E+01  0.31886038789E+02  0.00000000000E+00 0. -1.
         11    1    3    3    0    0  0.22006669682E+02  0.72400385568E+01 -0.80130139438E+01  0.24513670911E+02  0.51100000000E-03 0. -1.
        -11    1    3    3    0    0  0.90857412373E+01 -0.10158499107E+02 -0.12463376438E+01  0.13685728176E+02  0.51100000000E-03 0.  1.
         12    1    3    3    0    0 -0.17197863830E+01  0.12932590982E+02  0.16586396640E+02  0.21102562124E+02  0.00000000000E+00 0. -1.
</event>
<event>
 7    1  0.5662448E-012  0.5930194E+02  0.7816164E-02  0.1266605E+00
        -11   -1    0    0    0    0  0.00000000000E+00  0.00000000000E+00  0.45593999997E+02  0.45594000000E+02  0.51100000000E-03 0.  1.
         11   -1    0    0    0    0 -0.00000000000E+00 -0.00000000000E+00 -0.45593999997E+02  0.45594000000E+02  0.51100000000E-03 0. -1.
    9900012    2    1    2    0    0 -0.10534249382E+02 -0.90311001526E+01  0.28708698766E+02  0.59301944038E+02  0.50000000018E+02 0.  0.
         12    1    1    2    0    0  0.10534249382E+02  0.90311001526E+01 -0.28708698766E+02  0.31886055962E+02  0.00000000000E+00 0. -1.
         11    1    3    3    0    0  0.44836108889E+01  0.32944138873E+01  0.52293469291E+01  0.76355745710E+01  0.51100000000E-03 0. -1.
        -11    1    3    3    0    0 -0.14589854562E+02 -0.14651407119E+01  0.33696851530E+02  0.36748990418E+02  0.51100000000E-03 0.  1.
        -12    1    3    3    0    0 -0.42800570844E+00 -0.10860373328E+02 -0.10217499693E+02  0.14917379049E+02  0.00000000000E+00 0.  1.
</event>
<event>
 7    1  0.5662448E-012  0.5930196E+02  0.7816164E-02  0.1266605E+00
        -11   -1    0    0    0    0  0.00000000000E+00  0.00000000000E+00  0.45593999997E+02  0.45594000000E+02  0.51100000000E-03 0.  1.
         11   -1    0    0    0    0 -0.00000000000E+00 -0.00000000000E+00 -0.45593999997E+02  0.45594000000E+02  0.51100000000E-03 0. -1.
    9900012    2    1    2    0    0 -0.21382808302E+02  0.13233512426E+02  0.19605340869E+02  0.59301957088E+02  0.50000023818E+02 0.  0.
         12    1    1    2    0    0  0.21382808302E+02 -0.13233512426E+02 -0.19605340869E+02  0.31886042912E+02  0.00000000000E+00 0. -1.
         11    1    3    3    0    0 -0.19213970274E+02  0.14162612156E+02  0.40094289905E+01  0.24203961615E+02  0.51100000000E-03 0. -1.
        -11    1    3    3    0    0 -0.10463689065E+02 -0.13032687139E+02  0.93476215245E+01  0.19149876014E+02  0.51100000000E-03 0.  1.
         12    1    3    3    0    0  0.82948510373E+01  0.12103587410E+02  0.62482903543E+01  0.15948119459E+02  0.00000000000E+00 0. -1.
</event>
<event>
 7    1  0.5662448E-012  0.5930191E+02  0.7816164E-02  0.1266605E+00
        -11   -1    0    0    0    0  0.00000000000E+00  0.00000000000E+00  0.45593999997E+02  0.45594000000E+02  0.51100000000E-03 0. -1.
         11   -1    0    0    0    0 -0.00000000000E+00 -0.00000000000E+00 -0.45593999997E+02  0.45594000000E+02  0.51100000000E-03 0.  1.
    9900012    2    1    2    0    0  0.28040567908E+02  0.87272398984E+01 -0.12421125609E+02  0.59301913281E+02  0.49999943926E+02 0.  0.
         12    1    1    2    0    0 -0.28040567908E+02 -0.87272398984E+01  0.12421125609E+02  0.31886086719E+02  0.00000000000E+00 0. -1.
         11    1    3    3    0    0 -0.12877633617E+01 -0.50613339285E+01 -0.12772312801E+02  0.13798819158E+02  0.51100000000E-03 0. -1.
        -11    1    3    3    0    0  0.75855744860E+01  0.49456158482E+01 -0.14953804189E+02  0.17481885378E+02  0.51100000000E-03 0.  1.
        -12    1    3    3    0    0  0.21742756784E+02  0.88429579786E+01  0.15304991381E+02  0.28021208745E+02  0.00000000000E+00 0.  1.
</event>
<event>
 7    1  0.5662448E-012  0.5930195E+02  0.7816164E-02  0.1266605E+00
        -11   -1    0    0    0    0  0.00000000000E+00  0.00000000000E+00  0.45593999997E+02  0.45594000000E+02  0.51100000000E-03 0.  1.
         11   -1    0    0    0    0 -0.00000000000E+00 -0.00000000000E+00 -0.45593999997E+02  0.45594000000E+02  0.51100000000E-03 0. -1.
    9900012    2    1    2    0    0  0.17584701910E+02 -0.15421336844E+00  0.26598399726E+02  0.59301946764E+02  0.50000004990E+02 0.  0.
         12    1    1    2    0    0 -0.17584701910E+02  0.15421336844E+00 -0.26598399726E+02  0.31886053236E+02  0.00000000000E+00 0. -1.
         11    1    3    3    0    0  0.38837851067E+01  0.61277156389E+01  0.44885408725E+01  0.85311010504E+01  0.51100000000E-03 0. -1.
        -11    1    3    3    0    0 -0.30096049312E+01  0.12556554087E+02  0.22092241393E+02  0.25588901938E+02  0.51100000000E-03 0.  1.
         12    1    3    3    0    0  0.16710521734E+02 -0.18838483094E+02  0.17617460684E-01  0.25181943775E+02  0.00000000000E+00 0. -1.
</event>
<event>
 7    1  0.5662448E-012  0.5930196E+02  0.7816164E-02  0.1266605E+00
        -11   -1    0    0    0    0  0.00000000000E+00  0.00000000000E+00  0.45593999997E+02  0.45594000000E+02  0.51100000000E-03 0.  1.
         11   -1    0    0    0    0 -0.00000000000E+00 -0.00000000000E+00 -0.45593999997E+02  0.45594000000E+02  0.51100000000E-03 0. -1.
    9900012    2    1    2    0    0  0.10909260276E+02 -0.29897428782E+02 -0.19624897535E+01  0.59301959582E+02  0.50000028366E+02 0.  0.
         12    1    1    2    0    0 -0.10909260276E+02  0.29897428782E+02  0.19624897535E+01  0.31886040418E+02  0.00000000000E+00 0. -1.
         11    1    3    3    0    0  0.35030017215E+01 -0.26438131847E+02 -0.75075190619E+01  0.27705751738E+02  0.51100000000E-03 0. -1.
        -11    1    3    3    0    0  0.15790858767E+02  0.70844823962E+01  0.84221242414E+00  0.17327735958E+02  0.51100000000E-03 0.  1.
        -12    1    3    3    0    0 -0.83846002124E+01 -0.10543779331E+02  0.47028168842E+01  0.14268471886E+02  0.00000000000E+00 0.  1.
</event>
<event>
 7    1  0.5662448E-012  0.5930201E+02  0.7816164E-02  0.1266605E+00
        -11   -1    0    0    0    0  0.00000000000E+00  0.00000000000E+00  0.45593999997E+02  0.45594000000E+02  0.51100000000E-03 0.  1.
         11   -1    0    0    0    0 -0.00000000000E+00 -0.00000000000E+00 -0.45593999997E+02  0.45594000000E+02  0.51100000000E-03 0. -1.
    9900012    2    1    2    0    0 -0.38794528775E+01  0.31090468675E+02  0.59202342954E+01  0.59302006662E+02  0.50000114229E+02 0.  0.
         12    1    1    2    0    0  0.38794528775E+01 -0.31090468675E+02 -0.59202342954E+01  0.31885993338E+02  0.00000000000E+00 0. -1.
         11    1    3    3    0    0 -0.46273794441E+01  0.11276622202E+02 -0.78782112242E+00  0.12214561440E+02  0.51100000000E-03 0. -1.
        -11    1    3    3    0    0 -0.64496238322E+01  0.14804244978E+02  0.23283496104E+02  0.28335216745E+02  0.51100000000E-03 0.  1.
         12    1    3    3    0    0  0.71975503988E+01  0.50096014953E+01 -0.16575440686E+02  0.18752228476E+02  0.00000000000E+00 0. -1.
</event>
<event>
 7    1  0.5662448E-012  0.5930201E+02  0.7816164E-02  0.1266605E+00
        -11   -1    0    0    0    0  0.00000000000E+00  0.00000000000E+00  0.45593999997E+02  0.45594000000E+02  0.51100000000E-03 0. -1.
         11   -1    0    0    0    0 -0.00000000000E+00 -0.00000000000E+00 -0.45593999997E+02  0.45594000000E+02  0.51100000000E-03 0.  1.
    9900012    2    1    2    0    0 -0.71303934326E+01  0.30293792173E+02 -0.69397430334E+01  0.59302009532E+02  0.50000119464E+02 0.  0.
         12    1    1    2    0    0  0.71303934326E+01 -0.30293792173E+02  0.69397430334E+01  0.31885990468E+02  0.00000000000E+00 0. -1.
         11    1    3    3    0    0 -0.55684617477E+01  0.24370230688E+02 -0.88949894733E+01  0.26533690811E+02  0.51100000000E-03 0. -1.
        -11    1    3    3    0    0 -0.11255640061E+02  0.98071779596E+01 -0.91616783773E+01  0.17515893459E+02  0.51100000000E-03 0.  1.
         12    1    3    3    0    0  0.96937083761E+01 -0.38836164747E+01  0.11116924817E+02  0.15252425263E+02  0.00000000000E+00 0. -1.
</event>
<event>
 7    1  0.5662448E-012  0.5930202E+02  0.7816164E-02  0.1266605E+00
        -11   -1    0    0    0    0  0.00000000000E+00  0.00000000000E+00  0.45593999997E+02  0.45594000000E+02  0.51100000000E-03 0. -1.
         11   -1    0    0    0    0 -0.00000000000E+00 -0.00000000000E+00 -0.45593999997E+02  0.45594000000E+02  0.51100000000E-03 0.  1.
    9900012    2    1    2    0    0  0.12153686073E+02  0.17868447049E+02 -0.23446162453E+02  0.59302015322E+02  0.50000130024E+02 0.  0.
         12    1    1    2    0    0 -0.12153686073E+02 -0.17868447049E+02  0.23446162453E+02  0.31885984678E+02  0.00000000000E+00 0. -1.
         11    1    3    3    0    0  0.74391377032E+01 -0.54243262693E+01 -0.47685937056E+01  0.10368392905E+02  0.51100000000E-03 0. -1.
        -11    1    3    3    0    0  0.28438539244E+01 -0.11077613692E+01 -0.23746673635E+02  0.23941995518E+02  0.51100000000E-03 0.  1.
         12    1    3    3    0    0  0.18706944452E+01  0.24400534687E+02  0.50691048871E+01  0.24991626899E+02  0.00000000000E+00 0. -1.
</event>
<event>
 7    1  0.5662448E-012  0.5930195E+02  0.7816164E-02  0.1266605E+00
        -11   -1    0    0    0    0  0.00000000000E+00  0.00000000000E+00  0.45593999997E+02  0.45594000000E+02  0.51100000000E-03 0.  1.
         11   -1    0    0    0    0 -0.00000000000E+00 -0.00000000000E+00 -0.45593999997E+02  0.45594000000E+02  0.51100000000E-03 0. -1.
    9900012    2    1    2    0    0 -0.21191494671E+02  0.69329576135E+01  0.22794187655E+02  0.59301947586E+02  0.50000006490E+02 0.  0.
         12    1    1    2    0    0  0.21191494671E+02 -0.69329576135E+01 -0.22794187655E+02  0.31886052414E+02  0.00000000000E+00 0. -1.
         11    1    3    3    0    0 -0.38300000148E+00  0.11148625626E+02  0.17206524322E+01  0.11287124851E+02  0.51100000000E-03 0. -1.
        -11    1    3    3    0    0 -0.18431932329E+02  0.10231611270E+02 -0.14715550174E+01  0.21132616331E+02  0.51100000000E-03 0.  1.
        -12    1    3    3    0    0 -0.23765623411E+01 -0.14447279283E+02  0.22545090240E+02  0.26882206405E+02  0.00000000000E+00 0.  1.
</event>
<event>
 7    1  0.5662448E-012  0.5930195E+02  0.7816164E-02  0.1266605E+00
        -11   -1    0    0    0    0  0.00000000000E+00  0.00000000000E+00  0.45593999997E+02  0.45594000000E+02  0.51100000000E-03 0.  1.
         11   -1    0    0    0    0 -0.00000000000E+00 -0.00000000000E+00 -0.45593999997E+02  0.45594000000E+02  0.51100000000E-03 0. -1.
    9900012    2    1    2    0    0 -0.29141479825E+02 -0.10256630901E+02  0.78927757390E+01  0.59301949245E+02  0.50000009516E+02 0.  0.
         12    1    1    2    0    0  0.29141479825E+02  0.10256630901E+02 -0.78927757390E+01  0.31886050755E+02  0.00000000000E+00 0. -1.
         11    1    3    3    0    0  0.45963696979E+00 -0.13310711751E+02 -0.13009921232E+02  0.18618387798E+02  0.51100000000E-03 0. -1.
        -11    1    3    3    0    0 -0.78421877449E+01 -0.66933376517E+01  0.10353764462E+02  0.14611677397E+02  0.51100000000E-03 0.  1.
        -12    1    3    3    0    0 -0.21758929050E+02  0.97474185018E+01  0.10548932509E+02  0.26071884050E+02  0.00000000000E+00 0.  1.
</event>
<event>
 7    1  0.5662448E-012  0.5930191E+02  0.7816164E-02  0.1266605E+00
        -11   -1    0    0    0    0  0.00000000000E+00  0.00000000000E+00  0.45593999997E+02  0.45594000000E+02  0.51100000000E-03 0.  1.
         11   -1    0    0    0    0 -0.00000000000E+00 -0.00000000000E+00 -0.45593999997E+02  0.45594000000E+02  0.51100000000E-03 0. -1.
    9900012    2    1    2    0    0  0.17676240030E+02 -0.18755306004E+02  0.18775294997E+02  0.59301911072E+02  0.49999939896E+02 0.  0.
         12    1    1    2    0    0 -0.17676240030E+02  0.18755306004E+02 -0.18775294997E+02  0.31886088928E+02  0.00000000000E+00 0. -1.
         11    1    3    3    0    0 -0.57915706910E+01 -0.37304918483E+00 -0.66563105362E+01  0.88310773396E+01  0.51100000000E-03 0. -1.
        -11    1    3    3    0    0  0.10951199417E+02 -0.22402998104E+02  0.38949678046E+01  0.25238737433E+02  0.51100000000E-03 0.  1.
        -12    1    3    3    0    0  0.12516611304E+02  0.40207412853E+01  0.21536637729E+02  0.25232096300E+02  0.00000000000E+00 0.  1.
</event>
<event>
 7    1  0.5662448E-012  0.5930190E+02  0.7816164E-02  0.1266605E+00
        -11   -1    0    0    0    0  0.00000000000E+00  0.00000000000E+00  0.45593999997E+02  0.45594000000E+02  0.51100000000E-03 0. -1.
         11   -1    0    0    0    0 -0.00000000000E+00 -0.00000000000E+00 -0.45593999997E+02  0.45594000000E+02  0.51100000000E-03 0.  1.
    9900012    2    1    2    0    0 -0.24273904564E+02  0.18336006036E+02 -0.95546583613E+01  0.59301904966E+02  0.49999928760E+02 0.  0.
         12    1    1    2    0    0  0.24273904564E+02 -0.18336006036E+02  0.95546583613E+01  0.31886095034E+02  0.00000000000E+00 0. -1.
         11    1    3    3    0    0 -0.28650787970E+00  0.20116459003E+02  0.10271452949E+02  0.22588863529E+02  0.51100000000E-03 0. -1.
        -11    1    3    3    0    0 -0.39537206925E+01  0.73763568969E+01 -0.26434353268E+01  0.87766906617E+01  0.51100000000E-03 0.  1.
        -12    1    3    3    0    0 -0.20033675992E+02 -0.91568098642E+01 -0.17182675984E+02  0.27936350775E+02  0.00000000000E+00 0.  1.
</event>
<event>
 7    1  0.5662448E-012  0.5930194E+02  0.7816164E-02  0.1266605E+00
        -11   -1    0    0    0    0  0.00000000000E+00  0.00000000000E+00  0.45593999997E+02  0.45594000000E+02  0.51100000000E-03 0. -1.
         11   -1    0    0    0    0 -0.00000000000E+00 -0.00000000000E+00 -0.45593999997E+02  0.45594000000E+02  0.51100000000E-03 0.  1.
    9900012    2    1    2    0    0 -0.13919084420E+02  0.26852524735E+02 -0.10095637755E+02  0.59301938822E+02  0.49999990507E+02 0.  0.
         12    1    1    2    0    0  0.13919084420E+02 -0.26852524735E+02  0.10095637755E+02  0.31886061178E+02  0.00000000000E+00 0. -1.
         11    1    3    3    0    0 -0.16532869552E+02  0.15312097987E+02 -0.43303425419E+01  0.22946633461E+02  0.51100000000E-03 0. -1.
        -11    1    3    3    0    0  0.90363825099E+01  0.19246175883E+02 -0.12126536763E+02  0.24477017570E+02  0.51100000000E-03 0.  1.
         12    1    3    3    0    0 -0.64225973781E+01 -0.77057491351E+01  0.63612415497E+01  0.11878287792E+02  0.00000000000E+00 0. -1.
</event>
<event>
 7    1  0.5662448E-012  0.5930187E+02  0.7816164E-02  0.1266605E+00
        -11   -1    0    0    0    0  0.00000000000E+00  0.00000000000E+00  0.45593999997E+02  0.45594000000E+02  0.51100000000E-03 0. -1.
         11   -1    0    0    0    0 -0.00000000000E+00 -0.00000000000E+00 -0.45593999997E+02  0.45594000000E+02  0.51100000000E-03 0.  1.
    9900012    2    1    2    0    0  0.30079097538E+02  0.10434392107E+02 -0.17598124893E+01  0.59301865281E+02  0.49999856384E+02 0.  0.
         12    1    1    2    0    0 -0.30079097538E+02 -0.10434392107E+02  0.17598124893E+01  0.31886134719E+02  0.00000000000E+00 0. -1.
         11    1    3    3    0    0  0.47747624987E+01 -0.94400641903E+01 -0.88619340990E+01  0.13800255254E+02  0.51100000000E-03 0. -1.
        -11    1    3    3    0    0 -0.38306181028E+01 -0.43929982155E+01  0.47360147476E+01  0.75101201270E+01  0.51100000000E-03 0.  1.
        -12    1    3    3    0    0  0.29134953142E+02  0.24267454512E+02  0.23661068621E+01  0.37991489900E+02  0.00000000000E+00 0.  1.
</event>
<event>
 7    1  0.5662448E-012  0.5930184E+02  0.7816164E-02  0.1266605E+00
        -11   -1    0    0    0    0  0.00000000000E+00  0.00000000000E+00  0.45593999997E+02  0.45594000000E+02  0.51100000000E-03 0.  1.
         11   -1    0    0    0    0 -0.00000000000E+00 -0.00000000000E+00 -0.45593999997E+02  0.45594000000E+02  0.51100000000E-03 0. -1.
    9900012    2    1    2    0    0  0.50595485090E+01  0.24637941717E+02 -0.19598471038E+02  0.59301838892E+02  0.49999808258E+02 0.  0.
         12    1    1    2    0    0 -0.50595485090E+01 -0.24637941717E+02  0.19598471038E+02  0.31886161108E+02  0.00000000000E+00 0. -1.
         11    1    3    3    0    0  0.27283005049E+01 -0.48147255576E+01  0.65554721600E+01  0.85790105106E+01  0.51100000000E-03 0. -1.
        -11    1    3    3    0    0 -0.70621544934E+01  0.61777437462E+01  0.50673372560E+01  0.10663791587E+02  0.51100000000E-03 0.  1.
         12    1    3    3    0    0  0.93934024974E+01  0.23274923528E+02 -0.31221280454E+02  0.40059036795E+02  0.00000000000E+00 0. -1.
</event>
<event>
 7    1  0.5662448E-012  0.5930194E+02  0.7816164E-02  0.1266605E+00
        -11   -1    0    0    0    0  0.00000000000E+00  0.00000000000E+00  0.45593999997E+02  0.45594000000E+02  0.51100000000E-03 0.  1.
         11   -1    0    0    0    0 -0.00000000000E+00 -0.00000000000E+00 -0.45593999997E+02  0.45594000000E+02  0.51100000000E-03 0. -1.
    9900012    2    1    2    0    0  0.27765549921E+02  0.41559102626E+01 -0.15116992854E+02  0.59301939951E+02  0.49999992565E+02 0.  0.
         12    1    1    2    0    0 -0.27765549921E+02 -0.41559102626E+01  0.15116992854E+02  0.31886060049E+02  0.00000000000E+00 0. -1.
         11    1    3    3    0    0 -0.12818450032E+01  0.29895731751E+01 -0.38939459466E+01  0.50738042609E+01  0.51100000000E-03 0. -1.
        -11    1    3    3    0    0  0.69680276419E+01 -0.15612849636E+02  0.95458251838E+01  0.19581554118E+02  0.51100000000E-03 0.  1.
         12    1    3    3    0    0  0.22079367282E+02  0.16779186724E+02 -0.20768872091E+02  0.34646581572E+02  0.00000000000E+00 0. -1.
</event>
<event>
 7    1  0.5662448E-012  0.5930194E+02  0.7816164E-02  0.1266605E+00
        -11   -1    0    0    0    0  0.00000000000E+00  0.00000000000E+00  0.45593999997E+02  0.45594000000E+02  0.51100000000E-03 0. -1.
         11   -1    0    0    0    0 -0.00000000000E+00 -0.00000000000E+00 -0.45593999997E+02  0.45594000000E+02  0.51100000000E-03 0.  1.
    9900012    2    1    2    0    0  0.11868791820E+02 -0.28417951592E+02  0.82627416189E+01  0.59301935787E+02  0.49999984971E+02 0.  0.
         12    1    1    2    0    0 -0.11868791820E+02  0.28417951592E+02 -0.82627416189E+01  0.31886064213E+02  0.00000000000E+00 0. -1.
         11    1    3    3    0    0 -0.76473680657E+01 -0.93852987918E+01  0.13179852654E+02  0.17896217142E+02  0.51100000000E-03 0. -1.
        -11    1    3    3    0    0 -0.31032013574E+01  0.41345051531E+01  0.53490807080E+01  0.74388612171E+01  0.51100000000E-03 0.  1.
        -12    1    3    3    0    0  0.22619361243E+02 -0.23167157953E+02 -0.10266191743E+02  0.33966857428E+02  0.00000000000E+00 0.  1.
</event>
<event>
 7    1  0.5662448E-012  0.5930195E+02  0.7816164E-02  0.1266605E+00
        -11   -1    0    0    0    0  0.00000000000E+00  0.00000000000E+00  0.45593999997E+02  0.45594000000E+02  0.51100000000E-03 0.  1.
         11   -1    0    0    0    0 -0.00000000000E+00 -0.00000000000E+00 -0.45593999997E+02  0.45594000000E+02  0.51100000000E-03 0. -1.
    9900012    2    1    2    0    0  0.13080745386E+02 -0.64279850318E+01  0.28360105251E+02  0.59301945662E+02  0.50000002980E+02 0.  0.
         12    1    1    2    0    0 -0.13080745386E+02  0.64279850318E+01 -0.28360105251E+02  0.31886054338E+02  0.00000000000E+00 0. -1.
         11    1    3    3    0    0  0.17438559677E+02  0.95096575541E+01  0.19659883590E+02  0.27947235524E+02  0.51100000000E-03 0. -1.
        -11    1    3    3    0    0 -0.15042119270E+01  0.42626425722E+01  0.99365858708E+01  0.10916433220E+02  0.51100000000E-03 0.  1.
         12    1    3    3    0    0 -0.28536023634E+01 -0.20200285158E+02 -0.12363642095E+01  0.20438276918E+02  0.00000000000E+00 0. -1.
</event>
<event>
 7    1  0.5662448E-012  0.5930195E+02  0.7816164E-02  0.1266605E+00
        -11   -1    0    0    0    0  0.00000000000E+00  0.00000000000E+00  0.45593999997E+02  0.45594000000E+02  0.51100000000E-03 0.  1.
         11   -1    0    0    0    0 -0.00000000000E+00 -0.00000000000E+00 -0.45593999997E+02  0.45594000000E+02  0.51100000000E-03 0. -1.
    9900012    2    1    2    0    0  0.26665973384E+02  0.16359182449E+02  0.61662866344E+01  0.59301951675E+02  0.50000013946E+02 0.  0.
         12    1    1    2    0    0 -0.26665973384E+02 -0.16359182449E+02 -0.61662866344E+01  0.31886048325E+02  0.00000000000E+00 0. -1.
         11    1    3    3    0    0 -0.62465734347E+01 -0.10507199243E+01 -0.52738938523E+01  0.82424297789E+01  0.51100000000E-03 0. -1.
        -11    1    3    3    0    0  0.26626634905E+01  0.71398550481E+01 -0.10010003659E+02  0.12580440393E+02  0.51100000000E-03 0.  1.
        -12    1    3    3    0    0  0.30249883329E+02  0.10270047325E+02  0.21450184145E+02  0.38479081503E+02  0.00000000000E+00 0.  1.
</event>
<event>
 7    1  0.5662448E-012  0.5930195E+02  0.7816164E-02  0.1266605E+00
        -11   -1    0    0    0    0  0.00000000000E+00  0.00000000000E+00  0.45593999997E+02  0.45594000000E+02  0.51100000000E-03 0. -1.
         11   -1    0    0    0    0 -0.00000000000E+00 -0.00000000000E+00 -0.45593999997E+02  0.45594000000E+02  0.51100000000E-03 0.  1.
    9900012    2    1    2    0    0 -0.30465493825E+01  0.84982179559E+00 -0.31728800801E+02  0.59301945674E+02  0.50000003002E+02 0.  0.
         12    1    1    2    0    0  0.30465493825E+01 -0.84982179559E+00  0.31728800801E+02  0.31886054326E+02  0.00000000000E+00 0. -1.
         11    1    3    3    0    0 -0.55698314919E+01  0.77322901226E+01 -0.42100347587E+01  0.10418048105E+02  0.51100000000E-03 0. -1.
        -11    1    3    3    0    0 -0.14229651460E+02 -0.12349336950E+01 -0.27742289042E+02  0.31203247322E+02  0.51100000000E-03 0.  1.
         12    1    3    3    0    0  0.16752933570E+02 -0.56475346319E+01  0.22352299981E+00  0.17680650247E+02  0.00000000000E+00 0. -1.
</event>
<event>
 7    1  0.5662448E-012  0.5930187E+02  0.7816164E-02  0.1266605E+00
        -11   -1    0    0    0    0  0.00000000000E+00  0.00000000000E+00  0.45593999997E+02  0.45594000000E+02  0.51100000000E-03 0.  1.
         11   -1    0    0    0    0 -0.00000000000E+00 -0.00000000000E+00 -0.45593999997E+02  0.45594000000E+02  0.51100000000E-03 0. -1.
    9900012    2    1    2    0    0 -0.28099487117E+02  0.14495015190E+02  0.41277518927E+01  0.59301874847E+02  0.49999873830E+02 0.  0.
         12    1    1    2    0    0  0.28099487117E+02 -0.14495015190E+02 -0.41277518927E+01  0.31886125153E+02  0.00000000000E+00 0. -1.
         11    1    3    3    0    0 -0.15035740855E+02 -0.17631288424E+01 -0.10474095031E+02  0.18408932434E+02  0.51100000000E-03 0. -1.
        -11    1    3    3    0    0  0.20642293881E+01  0.13452251212E+02 -0.62523565782E+01  0.14977184938E+02  0.51100000000E-03 0.  1.
        -12    1    3    3    0    0 -0.15127975650E+02  0.28058928208E+01  0.20854203502E+02  0.25915757474E+02  0.00000000000E+00 0.  1.
</event>
<event>
 7    1  0.5662448E-012  0.5930195E+02  0.7816164E-02  0.1266605E+00
        -11   -1    0    0    0    0  0.00000000000E+00  0.00000000000E+00  0.45593999997E+02  0.45594000000E+02  0.51100000000E-03 0.  1.
         11   -1    0    0    0    0 -0.00000000000E+00 -0.00000000000E+00 -0.45593999997E+02  0.45594000000E+02  0.51100000000E-03 0. -1.
    9900012    2    1    2    0    0 -0.19050232891E+02  0.25562682030E+02  0.59862838285E+00  0.59301945968E+02  0.50000003539E+02 0.  0.
         12    1    1    2    0    0  0.19050232891E+02 -0.25562682030E+02 -0.59862838285E+00  0.31886054032E+02  0.00000000000E+00 0. -1.
         11    1    3    3    0    0 -0.68924068777E+01 -0.98603464445E+01  0.30154611763E+00  0.12034227640E+02  0.51100000000E-03 0. -1.
        -11    1    3    3    0    0  0.13406284619E+01  0.16733831884E+02 -0.12472134765E+02  0.20913454044E+02  0.51100000000E-03 0.  1.
        -12    1    3    3    0    0 -0.13498454475E+02  0.18689196590E+02  0.12769217030E+02  0.26354264284E+02  0.00000000000E+00 0.  1.
</event>
<event>
 7    1  0.5662448E-012  0.5930197E+02  0.7816164E-02  0.1266605E+00
        -11   -1    0    0    0    0  0.00000000000E+00  0.00000000000E+00  0.45593999997E+02  0.45594000000E+02  0.51100000000E-03 0.  1.
         11   -1    0    0    0    0 -0.00000000000E+00 -0.00000000000E+00 -0.45593999997E+02  0.45594000000E+02  0.51100000000E-03 0. -1.
    9900012    2    1    2    0    0  0.14244056586E+02 -0.84369839170E+01  0.27251483809E+02  0.59301965198E+02  0.50000038609E+02 0.  0.
         12    1    1    2    0    0 -0.14244056586E+02  0.84369839170E+01 -0.27251483809E+02  0.31886034802E+02  0.00000000000E+00 0. -1.
         11    1    3    3    0    0 -0.84122727027E+01 -0.47793477060E+01  0.80668032577E+01  0.12596896903E+02  0.51100000000E-03 0. -1.
        -11    1    3    3    0    0  0.37303899223E+01  0.13918734591E+00  0.25975498135E+02  0.26242364332E+02  0.51100000000E-03 0.  1.
        -12    1    3    3    0    0  0.18925939366E+02 -0.37968235569E+01 -0.67908175840E+01  0.20462703963E+02  0.00000000000E+00 0.  1.
</event>
<event>
 7    1  0.5662448E-012  0.5930196E+02  0.7816164E-02  0.1266605E+00
        -11   -1    0    0    0    0  0.00000000000E+00  0.00000000000E+00  0.45593999997E+02  0.45594000000E+02  0.51100000000E-03 0.  1.
         11   -1    0    0    0    0 -0.00000000000E+00 -0.00000000000E+00 -0.45593999997E+02  0.45594000000E+02  0.51100000000E-03 0. -1.
    9900012    2    1    2    0    0  0.23690473170E+02  0.47154581064E+01  0.20814544458E+02  0.59301963477E+02  0.50000035471E+02 0.  0.
         12    1    1    2    0    0 -0.23690473170E+02 -0.47154581064E+01 -0.20814544458E+02  0.31886036523E+02  0.00000000000E+00 0. -1.
         11    1    3    3    0    0  0.15013103665E+01  0.15054923842E+02  0.92649715029E+01  0.17741036101E+02  0.51100000000E-03 0. -1.
        -11    1    3    3    0    0 -0.42273269364E+01  0.65528550180E+01  0.57123558068E+01  0.96664994201E+01  0.51100000000E-03 0.  1.
         12    1    3    3    0    0  0.26416489739E+02 -0.16892320754E+02  0.58372171482E+01  0.31894427956E+02  0.00000000000E+00 0. -1.
</event>
<event>
 7    1  0.5662448E-012  0.5930194E+02  0.7816164E-02  0.1266605E+00
        -11   -1    0    0    0    0  0.00000000000E+00  0.00000000000E+00  0.45593999997E+02  0.45594000000E+02  0.51100000000E-03 0.  1.
         11   -1    0    0    0    0 -0.00000000000E+00 -0.00000000000E+00 -0.45593999997E+02  0.45594000000E+02  0.51100000000E-03 0. -1.
    9900012    2    1    2    0    0  0.71206170421E+01 -0.94500692319E+01  0.29609352607E+02  0.59301941019E+02  0.49999994513E+02 0.  0.
         12    1    1    2    0    0 -0.71206170421E+01  0.94500692319E+01 -0.29609352607E+02  0.31886058981E+02  0.00000000000E+00 0. -1.
         11    1    3    3    0    0 -0.10079058043E+02 -0.59409824472E+01  0.82417735285E+01  0.14311167480E+02  0.51100000000E-03 0. -1.
        -11    1    3    3    0    0 -0.62097425994E+01 -0.25597802310E+01  0.20471263575E+02  0.21544976459E+02  0.51100000000E-03 0.  1.
         12    1    3    3    0    0  0.23409417685E+02 -0.94930655367E+00  0.89631550267E+00  0.23445797081E+02  0.00000000000E+00 0. -1.
</event>
<event>
 7    1  0.5662448E-012  0.5930190E+02  0.7816164E-02  0.1266605E+00
        -11   -1    0    0    0    0  0.00000000000E+00  0.00000000000E+00  0.45593999997E+02  0.45594000000E+02  0.51100000000E-03 0. -1.
         11   -1    0    0    0    0 -0.00000000000E+00 -0.00000000000E+00 -0.45593999997E+02  0.45594000000E+02  0.51100000000E-03 0.  1.
    9900012    2    1    2    0    0 -0.36544304722E+01  0.17009883301E+02 -0.26721384261E+02  0.59301900069E+02  0.49999919829E+02 0.  0.
         12    1    1    2    0    0  0.36544304722E+01 -0.17009883301E+02  0.26721384261E+02  0.31886099931E+02  0.00000000000E+00 0. -1.
         11    1    3    3    0    0 -0.53245800623E+01  0.71815538642E+01  0.79824661963E+01  0.11985225721E+02  0.51100000000E-03 0. -1.
        -11    1    3    3    0    0 -0.71637037590E+01 -0.89174666357E+01 -0.12072424483E+02  0.16630793604E+02  0.51100000000E-03 0.  1.
         12    1    3    3    0    0  0.88338533492E+01  0.18745796072E+02 -0.22631425975E+02  0.30685880744E+02  0.00000000000E+00 0. -1.
</event>
<event>
 7    1  0.5662448E-012  0.5930195E+02  0.7816164E-02  0.1266605E+00
        -11   -1    0    0    0    0  0.00000000000E+00  0.00000000000E+00  0.45593999997E+02  0.45594000000E+02  0.51100000000E-03 0.  1.
         11   -1    0    0    0    0 -0.00000000000E+00 -0.00000000000E+00 -0.45593999997E+02  0.45594000000E+02  0.51100000000E-03 0. -1.
    9900012    2    1    2    0    0 -0.25673682223E+02  0.17266588819E+02  0.77101817292E+01  0.59301953669E+02  0.50000017583E+02 0.  0.
         12    1    1    2    0    0  0.25673682223E+02 -0.17266588819E+02 -0.77101817292E+01  0.31886046331E+02  0.00000000000E+00 0. -1.
         11    1    3    3    0    0 -0.15091531104E+01  0.88718230409E+00  0.18871968701E+02  0.18952990225E+02  0.51100000000E-03 0. -1.
        -11    1    3    3    0    0 -0.11584599695E+02  0.11981457184E+02  0.67859033713E+01  0.17994631176E+02  0.51100000000E-03 0.  1.
         12    1    3    3    0    0 -0.12579929418E+02  0.43979493305E+01 -0.17947690343E+02  0.22354332268E+02  0.00000000000E+00 0. -1.
</event>
<event>
 7    1  0.5662448E-012  0.5930208E+02  0.7816164E-02  0.1266604E+00
        -11   -1    0    0    0    0  0.00000000000E+00  0.00000000000E+00  0.45593999997E+02  0.45594000000E+02  0.51100000000E-03 0.  1.
         11   -1    0    0    0    0 -0.00000000000E+00 -0.00000000000E+00 -0.45593999997E+02  0.45594000000E+02  0.51100000000E-03 0. -1.
    9900012    2    1    2    0    0  0.31872068228E+02  0.78157185223E+00  0.52165936118E+00  0.59302082792E+02  0.50000253072E+02 0.  0.
         12    1    1    2    0    0 -0.31872068228E+02 -0.78157185223E+00 -0.52165936118E+00  0.31885917208E+02  0.00000000000E+00 0. -1.
         11    1    3    3    0    0  0.86153742593E+01  0.15747738743E+02  0.88405860594E+01  0.20009295622E+02  0.51100000000E-03 0.  1.
        -11    1    3    3    0    0  0.52315515744E+01  0.70656803801E+00  0.85515756628E+01  0.10049767005E+02  0.51100000000E-03 0. -1.
         12    1    3    3    0    0  0.18025142394E+02 -0.15672734929E+02 -0.16870502361E+02  0.29243020166E+02  0.00000000000E+00 0. -1.
</event>
<event>
 7    1  0.5662448E-012  0.5930194E+02  0.7816164E-02  0.1266605E+00
        -11   -1    0    0    0    0  0.00000000000E+00  0.00000000000E+00  0.45593999997E+02  0.45594000000E+02  0.51100000000E-03 0.  1.
         11   -1    0    0    0    0 -0.00000000000E+00 -0.00000000000E+00 -0.45593999997E+02  0.45594000000E+02  0.51100000000E-03 0. -1.
    9900012    2    1    2    0    0 -0.16706522020E+02 -0.26893679195E+02  0.37871748892E+01  0.59301944234E+02  0.50000000377E+02 0.  0.
         12    1    1    2    0    0  0.16706522020E+02  0.26893679195E+02 -0.37871748892E+01  0.31886055766E+02  0.00000000000E+00 0. -1.
         11    1    3    3    0    0 -0.22076222618E+02 -0.30357861517E+01  0.34747756832E+01  0.22553262933E+02  0.51100000000E-03 0. -1.
        -11    1    3    3    0    0 -0.50630258152E+00 -0.90037545372E+00  0.10789162299E+02  0.10838498127E+02  0.51100000000E-03 0.  1.
        -12    1    3    3    0    0  0.58760031788E+01 -0.22957517589E+02 -0.10476763093E+02  0.25910183174E+02  0.00000000000E+00 0.  1.
</event>
<event>
 7    1  0.5662448E-012  0.5930191E+02  0.7816164E-02  0.1266605E+00
        -11   -1    0    0    0    0  0.00000000000E+00  0.00000000000E+00  0.45593999997E+02  0.45594000000E+02  0.51100000000E-03 0.  1.
         11   -1    0    0    0    0 -0.00000000000E+00 -0.00000000000E+00 -0.45593999997E+02  0.45594000000E+02  0.51100000000E-03 0. -1.
    9900012    2    1    2    0    0 -0.28863902449E+02 -0.11812111656E+02  0.66386604386E+01  0.59301911203E+02  0.49999940136E+02 0.  0.
         12    1    1    2    0    0  0.28863902449E+02  0.11812111656E+02 -0.66386604386E+01  0.31886088797E+02  0.00000000000E+00 0. -1.
         11    1    3    3    0    0  0.31763940865E+01 -0.42881263229E+01  0.13066617765E+02  0.14114319213E+02  0.51100000000E-03 0. -1.
        -11    1    3    3    0    0 -0.68579620473E+01  0.87647260676E+01 -0.10028862881E+02  0.14980993206E+02  0.51100000000E-03 0.  1.
        -12    1    3    3    0    0 -0.25182334488E+02 -0.16288711400E+02  0.36009055548E+01  0.30206598785E+02  0.00000000000E+00 0.  1.
</event>
<event>
 7    1  0.5662448E-012  0.5930196E+02  0.7816164E-02  0.1266605E+00
        -11   -1    0    0    0    0  0.00000000000E+00  0.00000000000E+00  0.45593999997E+02  0.45594000000E+02  0.51100000000E-03 0.  1.
         11   -1    0    0    0    0 -0.00000000000E+00 -0.00000000000E+00 -0.45593999997E+02  0.45594000000E+02  0.51100000000E-03 0. -1.
    9900012    2    1    2    0    0 -0.22560199061E+02  0.22493302644E+02  0.13447035241E+01  0.59301961157E+02  0.50000031240E+02 0.  0.
         12    1    1    2    0    0  0.22560199061E+02 -0.22493302644E+02 -0.13447035241E+01  0.31886038843E+02  0.00000000000E+00 0. -1.
         11    1    3    3    0    0 -0.96141080419E+01  0.78012817033E+01  0.43628179113E+01  0.13127271234E+02  0.51100000000E-03 0. -1.
        -11    1    3    3    0    0  0.27011458635E+01  0.19012902196E+02  0.13141375776E+02  0.23269774310E+02  0.51100000000E-03 0.  1.
         12    1    3    3    0    0 -0.15647236883E+02 -0.43208812556E+01 -0.16159490164E+02  0.22904915613E+02  0.00000000000E+00 0. -1.
</event>
<event>
 7    1  0.5662448E-012  0.5930195E+02  0.7816164E-02  0.1266605E+00
        -11   -1    0    0    0    0  0.00000000000E+00  0.00000000000E+00  0.45593999997E+02  0.45594000000E+02  0.51100000000E-03 0. -1.
         11   -1    0    0    0    0 -0.00000000000E+00 -0.00000000000E+00 -0.45593999997E+02  0.45594000000E+02  0.51100000000E-03 0.  1.
    9900012    2    1    2    0    0 -0.11211112781E+02  0.96125002043E+01 -0.28260059450E+02  0.59301950228E+02  0.50000011308E+02 0.  0.
         12    1    1    2    0    0  0.11211112781E+02 -0.96125002043E+01  0.28260059450E+02  0.31886049772E+02  0.00000000000E+00 0. -1.
         11    1    3    3    0    0 -0.25687393494E+00  0.12159014561E+00  0.43563546430E+01  0.43656150103E+01  0.51100000000E-03 0. -1.
        -11    1    3    3    0    0  0.49347860045E+01 -0.14455716736E+02 -0.89228161493E+01  0.17690011519E+02  0.51100000000E-03 0.  1.
         12    1    3    3    0    0 -0.15889024851E+02  0.23946626794E+02 -0.23693597943E+02  0.37246323698E+02  0.00000000000E+00 0. -1.
</event>
<event>
 7    1  0.5662448E-012  0.5930192E+02  0.7816164E-02  0.1266605E+00
        -11   -1    0    0    0    0  0.00000000000E+00  0.00000000000E+00  0.45593999997E+02  0.45594000000E+02  0.51100000000E-03 0.  1.
         11   -1    0    0    0    0 -0.00000000000E+00 -0.00000000000E+00 -0.45593999997E+02  0.45594000000E+02  0.51100000000E-03 0. -1.
    9900012    2    1    2    0    0  0.68490255551E+01  0.18681213100E+02  0.24916369024E+02  0.59301916527E+02  0.49999949845E+02 0.  0.
         12    1    1    2    0    0 -0.68490255551E+01 -0.18681213100E+02 -0.24916369024E+02  0.31886083473E+02  0.00000000000E+00 0. -1.
         11    1    3    3    0    0  0.45888236149E+01  0.13862882402E+02  0.14142569440E+01  0.14670955444E+02  0.51100000000E-03 0. -1.
        -11    1    3    3    0    0  0.13681202550E+02  0.52482667556E+00  0.28364858248E+02  0.31496284383E+02  0.51100000000E-03 0.  1.
         12    1    3    3    0    0 -0.11421000609E+02  0.42935040222E+01 -0.48627461684E+01  0.13134676700E+02  0.00000000000E+00 0. -1.
</event>
<event>
 7    1  0.5662448E-012  0.5930195E+02  0.7816164E-02  0.1266605E+00
        -11   -1    0    0    0    0  0.00000000000E+00  0.00000000000E+00  0.45593999997E+02  0.45594000000E+02  0.51100000000E-03 0. -1.
         11   -1    0    0    0    0 -0.00000000000E+00 -0.00000000000E+00 -0.45593999997E+02  0.45594000000E+02  0.51100000000E-03 0.  1.
    9900012    2    1    2    0    0  0.30918329757E+02  0.72038758691E+01 -0.29801701613E+01  0.59301947302E+02  0.50000005971E+02 0.  0.
         12    1    1    2    0    0 -0.30918329757E+02 -0.72038758691E+01  0.29801701613E+01  0.31886052698E+02  0.00000000000E+00 0. -1.
         11    1    3    3    0    0  0.22181108510E+02 -0.68400515499E+01 -0.10458213309E+01  0.23235352858E+02  0.51100000000E-03 0. -1.
        -11    1    3    3    0    0  0.10881998452E+02  0.22410373712E+01 -0.14780178720E+02  0.18490371064E+02  0.51100000000E-03 0.  1.
         12    1    3    3    0    0 -0.21447772055E+01  0.11802890048E+02  0.12845829890E+02  0.17576223380E+02  0.00000000000E+00 0. -1.
</event>
<event>
 7    1  0.5662448E-012  0.5930195E+02  0.7816164E-02  0.1266605E+00
        -11   -1    0    0    0    0  0.00000000000E+00  0.00000000000E+00  0.45593999997E+02  0.45594000000E+02  0.51100000000E-03 0. -1.
         11   -1    0    0    0    0 -0.00000000000E+00 -0.00000000000E+00 -0.45593999997E+02  0.45594000000E+02  0.51100000000E-03 0.  1.
    9900012    2    1    2    0    0 -0.28503207761E+02 -0.69448631334E+01  0.12492241198E+02  0.59301951848E+02  0.50000014262E+02 0.  0.
         12    1    1    2    0    0  0.28503207761E+02  0.69448631334E+01 -0.12492241198E+02  0.31886048152E+02  0.00000000000E+00 0. -1.
         11    1    3    3    0    0 -0.13820390328E+01  0.10961114086E+02  0.10793611734E+02  0.15445326426E+02  0.51100000000E-03 0. -1.
        -11    1    3    3    0    0 -0.29670402422E+02 -0.16156997524E+02  0.98069447670E+01  0.35178935669E+02  0.51100000000E-03 0.  1.
         12    1    3    3    0    0  0.25492336939E+01 -0.17489796952E+01 -0.81083153030E+01  0.86776897532E+01  0.00000000000E+00 0. -1.
</event>
<event>
 7    1  0.5662448E-012  0.5930194E+02  0.7816164E-02  0.1266605E+00
        -11   -1    0    0    0    0  0.00000000000E+00  0.00000000000E+00  0.45593999997E+02  0.45594000000E+02  0.51100000000E-03 0.  1.
         11   -1    0    0    0    0 -0.00000000000E+00 -0.00000000000E+00 -0.45593999997E+02  0.45594000000E+02  0.51100000000E-03 0. -1.
    9900012    2    1    2    0    0  0.18546254479E+02 -0.14551372730E+02  0.21471260979E+02  0.59301936405E+02  0.49999986098E+02 0.  0.
         12    1    1    2    0    0 -0.18546254479E+02  0.14551372730E+02 -0.21471260979E+02  0.31886063595E+02  0.00000000000E+00 0. -1.
         11    1    3    3    0    0  0.11355602572E+02 -0.21002723978E+02  0.28917348908E+02  0.37500362564E+02  0.51100000000E-03 0.  1.
        -11    1    3    3    0    0 -0.59721287017E+01  0.36282552766E+01 -0.31996671275E+01  0.76855987125E+01  0.51100000000E-03 0. -1.
        -12    1    3    3    0    0  0.13162780609E+02  0.28230959717E+01 -0.42464208012E+01  0.14115975129E+02  0.00000000000E+00 0.  1.
</event>
<event>
 7    1  0.5662448E-012  0.5930192E+02  0.7816164E-02  0.1266605E+00
        -11   -1    0    0    0    0  0.00000000000E+00  0.00000000000E+00  0.45593999997E+02  0.45594000000E+02  0.51100000000E-03 0. -1.
         11   -1    0    0    0    0 -0.00000000000E+00 -0.00000000000E+00 -0.45593999997E+02  0.45594000000E+02  0.51100000000E-03 0.  1.
    9900012    2    1    2    0    0  0.38134940975E+01 -0.30314488123E+02 -0.91220068184E+01  0.59301922540E+02  0.49999960812E+02 0.  0.
         12    1    1    2    0    0 -0.38134940975E+01  0.30314488123E+02  0.91220068184E+01  0.31886077460E+02  0.00000000000E+00 0. -1.
         11    1    3    3    0    0  0.13879950382E+02 -0.61694199098E+01 -0.61991703638E+01  0.16405623368E+02  0.51100000000E-03 0.  1.
        -11    1    3    3    0    0 -0.11157601208E+02 -0.12105973597E+02 -0.17454532610E+02  0.23993902774E+02  0.51100000000E-03 0. -1.
         12    1    3    3    0    0  0.10911449228E+01 -0.12039094616E+02  0.14531696155E+02  0.18902396397E+02  0.00000000000E+00 0. -1.
</event>
<event>
 7    1  0.5662448E-012  0.5930195E+02  0.7816164E-02  0.1266605E+00
        -11   -1    0    0    0    0  0.00000000000E+00  0.00000000000E+00  0.45593999997E+02  0.45594000000E+02  0.51100000000E-03 0.  1.
         11   -1    0    0    0    0 -0.00000000000E+00 -0.00000000000E+00 -0.45593999997E+02  0.45594000000E+02  0.51100000000E-03 0. -1.
    9900012    2    1    2    0    0  0.12291260835E+02 -0.13121567634E+02  0.26333814313E+02  0.59301946523E+02  0.50000004551E+02 0.  0.
         12    1    1    2    0    0 -0.12291260835E+02  0.13121567634E+02 -0.26333814313E+02  0.31886053477E+02  0.00000000000E+00 0. -1.
         11    1    3    3    0    0  0.17314131526E+01 -0.46234724709E+01 -0.13512465470E+01  0.51186088624E+01  0.51100000000E-03 0. -1.
        -11    1    3    3    0    0 -0.10740142792E+02 -0.19218299632E+02  0.18032677517E+02  0.28458235480E+02  0.51100000000E-03 0.  1.
         12    1    3    3    0    0  0.21299990474E+02  0.10720204469E+02  0.96523833426E+01  0.25725102181E+02  0.00000000000E+00 0. -1.
</event>
<event>
 7    1  0.5662448E-012  0.5930195E+02  0.7816164E-02  0.1266605E+00
        -11   -1    0    0    0    0  0.00000000000E+00  0.00000000000E+00  0.45593999997E+02  0.45594000000E+02  0.51100000000E-03 0. -1.
         11   -1    0    0    0    0 -0.00000000000E+00 -0.00000000000E+00 -0.45593999997E+02  0.45594000000E+02  0.51100000000E-03 0.  1.
    9900012    2    1    2    0    0 -0.31238006749E+00  0.29019243594E+02  0.13210080570E+02  0.59301948053E+02  0.50000007342E+02 0.  0.
         12    1    1    2    0    0  0.31238006749E+00 -0.29019243594E+02 -0.13210080570E+02  0.31886051947E+02  0.00000000000E+00 0. -1.
         11    1    3    3    0    0  0.10280090665E+02  0.28547308770E+01  0.22569436513E+02  0.24964158653E+02  0.51100000000E-03 0. -1.
        -11    1    3    3    0    0 -0.66470082257E+01  0.42625590103E+01  0.34976862730E+01  0.86363150241E+01  0.51100000000E-03 0.  1.
        -12    1    3    3    0    0 -0.39454625071E+01  0.21901953707E+02 -0.12857042216E+02  0.25701474376E+02  0.00000000000E+00 0.  1.
</event>
<event>
 7    1  0.5662448E-012  0.5930193E+02  0.7816164E-02  0.1266605E+00
        -11   -1    0    0    0    0  0.00000000000E+00  0.00000000000E+00  0.45593999997E+02  0.45594000000E+02  0.51100000000E-03 0.  1.
         11   -1    0    0    0    0 -0.00000000000E+00 -0.00000000000E+00 -0.45593999997E+02  0.45594000000E+02  0.51100000000E-03 0. -1.
    9900012    2    1    2    0    0  0.83078248863E+01  0.22095943601E+02  0.21435273451E+02  0.59301927400E+02  0.49999969675E+02 0.  0.
         12    1    1    2    0    0 -0.83078248863E+01 -0.22095943601E+02 -0.21435273451E+02  0.31886072600E+02  0.00000000000E+00 0. -1.
         11    1    3    3    0    0  0.22782544960E+01  0.11283759605E+02 -0.12329713621E+02  0.16868180478E+02  0.51100000000E-03 0. -1.
        -11    1    3    3    0    0  0.49386724440E+01  0.10694254908E+02  0.36974596778E+01  0.12346205161E+02  0.51100000000E-03 0.  1.
        -12    1    3    3    0    0  0.10908979463E+01  0.11792908738E+00  0.30067527395E+02  0.30087541761E+02  0.00000000000E+00 0.  1.
</event>
<event>
 7    1  0.5662448E-012  0.5930195E+02  0.7816164E-02  0.1266605E+00
        -11   -1    0    0    0    0  0.00000000000E+00  0.00000000000E+00  0.45593999997E+02  0.45594000000E+02  0.51100000000E-03 0.  1.
         11   -1    0    0    0    0 -0.00000000000E+00 -0.00000000000E+00 -0.45593999997E+02  0.45594000000E+02  0.51100000000E-03 0. -1.
    9900012    2    1    2    0    0  0.29531266473E+01  0.23868449464E+02  0.20935529708E+02  0.59301949116E+02  0.50000009280E+02 0.  0.
         12    1    1    2    0    0 -0.29531266473E+01 -0.23868449464E+02 -0.20935529708E+02  0.31886050884E+02  0.00000000000E+00 0. -1.
         11    1    3    3    0    0  0.20308139811E+02  0.19712842558E+02  0.59708387610E+01  0.28925207347E+02  0.51100000000E-03 0. -1.
        -11    1    3    3    0    0 -0.32932764308E+01  0.18435712230E+01 -0.47399688612E+01  0.60590205125E+01  0.51100000000E-03 0.  1.
        -12    1    3    3    0    0 -0.14061736733E+02  0.23120356833E+01  0.19704659809E+02  0.24317721257E+02  0.00000000000E+00 0.  1.
</event>
<event>
 7    1  0.5662448E-012  0.5930193E+02  0.7816164E-02  0.1266605E+00
        -11   -1    0    0    0    0  0.00000000000E+00  0.00000000000E+00  0.45593999997E+02  0.45594000000E+02  0.51100000000E-03 0. -1.
         11   -1    0    0    0    0 -0.00000000000E+00 -0.00000000000E+00 -0.45593999997E+02  0.45594000000E+02  0.51100000000E-03 0.  1.
    9900012    2    1    2    0    0  0.19912291257E+02 -0.17171379842E+02 -0.18037896626E+02  0.59301931828E+02  0.49999977750E+02 0.  0.
         12    1    1    2    0    0 -0.19912291257E+02  0.17171379842E+02  0.18037896626E+02  0.31886068172E+02  0.00000000000E+00 0. -1.
         11    1    3    3    0    0  0.23281341329E+02 -0.23412613910E+02 -0.76256926918E+01  0.33886907995E+02  0.51100000000E-03 0. -1.
        -11    1    3    3    0    0  0.91848814321E+01  0.95043244701E+00 -0.63227864687E+01  0.11191201801E+02  0.51100000000E-03 0.  1.
         12    1    3    3    0    0 -0.12553931503E+02  0.52908016214E+01 -0.40894174654E+01  0.14223822032E+02  0.00000000000E+00 0. -1.
</event>
<event>
 7    1  0.5662448E-012  0.5930195E+02  0.7816164E-02  0.1266605E+00
        -11   -1    0    0    0    0  0.00000000000E+00  0.00000000000E+00  0.45593999997E+02  0.45594000000E+02  0.51100000000E-03 0. -1.
         11   -1    0    0    0    0 -0.00000000000E+00 -0.00000000000E+00 -0.45593999997E+02  0.45594000000E+02  0.51100000000E-03 0.  1.
    9900012    2    1    2    0    0 -0.22266731297E+02 -0.22809914781E+02  0.78780157819E+00  0.59301950287E+02  0.50000011415E+02 0.  0.
         12    1    1    2    0    0  0.22266731297E+02  0.22809914781E+02 -0.78780157819E+00  0.31886049713E+02  0.00000000000E+00 0. -1.
         11    1    3    3    0    0 -0.13433374855E+01 -0.14732060864E+01  0.58872148343E+01  0.62156407987E+01  0.51100000000E-03 0. -1.
        -11    1    3    3    0    0  0.12586167965E+02 -0.14167290204E+01  0.35525812299E+01  0.13154450913E+02  0.51100000000E-03 0.  1.
         12    1    3    3    0    0 -0.33509561776E+02 -0.19919979675E+02 -0.86519944859E+01  0.39931858575E+02  0.00000000000E+00 0. -1.
</event>
<event>
 7    1  0.5662448E-012  0.5930195E+02  0.7816164E-02  0.1266605E+00
        -11   -1    0    0    0    0  0.00000000000E+00  0.00000000000E+00  0.45593999997E+02  0.45594000000E+02  0.51100000000E-03 0. -1.
         11   -1    0    0    0    0 -0.00000000000E+00 -0.00000000000E+00 -0.45593999997E+02  0.45594000000E+02  0.51100000000E-03 0.  1.
    9900012    2    1    2    0    0 -0.28266509930E+02  0.38007161296E+01 -0.14257605441E+02  0.59301947569E+02  0.50000006459E+02 0.  0.
         12    1    1    2    0    0  0.28266509930E+02 -0.38007161296E+01  0.14257605441E+02  0.31886052431E+02  0.00000000000E+00 0. -1.
         11    1    3    3    0    0  0.56516115010E+01 -0.15773403311E+01  0.23942481114E+01  0.63372817010E+01  0.51100000000E-03 0. -1.
        -11    1    3    3    0    0 -0.64795596273E+01 -0.10574204239E+02 -0.17219888887E+02  0.21220816709E+02  0.51100000000E-03 0.  1.
         12    1    3    3    0    0 -0.27438561803E+02  0.15952260700E+02  0.56803533472E+00  0.31743849159E+02  0.00000000000E+00 0. -1.
</event>
<event>
 7    1  0.5662448E-012  0.5930193E+02  0.7816164E-02  0.1266605E+00
        -11   -1    0    0    0    0  0.00000000000E+00  0.00000000000E+00  0.45593999997E+02  0.45594000000E+02  0.51100000000E-03 0.  1.
         11   -1    0    0    0    0 -0.00000000000E+00 -0.00000000000E+00 -0.45593999997E+02  0.45594000000E+02  0.51100000000E-03 0. -1.
    9900012    2    1    2    0    0  0.32995703622E+01 -0.23867278773E+02  0.20885090596E+02  0.59301934551E+02  0.49999982717E+02 0.  0.
         12    1    1    2    0    0 -0.32995703622E+01  0.23867278773E+02 -0.20885090596E+02  0.31886065449E+02  0.00000000000E+00 0. -1.
         11    1    3    3    0    0  0.62201147681E+00  0.32177124134E+01  0.55041763944E+01  0.64059760767E+01  0.51100000000E-03 0. -1.
        -11    1    3    3    0    0  0.99309575861E+01 -0.24082646161E+02  0.27867294094E+02  0.38146872022E+02  0.51100000000E-03 0.  1.
         12    1    3    3    0    0 -0.72533987007E+01 -0.30023450257E+01 -0.12486379892E+02  0.14749086452E+02  0.00000000000E+00 0. -1.
</event>
<event>
 7    1  0.5662448E-012  0.5930195E+02  0.7816164E-02  0.1266605E+00
        -11   -1    0    0    0    0  0.00000000000E+00  0.00000000000E+00  0.45593999997E+02  0.45594000000E+02  0.51100000000E-03 0.  1.
         11   -1    0    0    0    0 -0.00000000000E+00 -0.00000000000E+00 -0.45593999997E+02  0.45594000000E+02  0.51100000000E-03 0. -1.
    9900012    2    1    2    0    0 -0.22032035468E+02 -0.23049519194E+02 -0.17165309735E+00  0.59301946831E+02  0.50000005112E+02 0.  0.
         12    1    1    2    0    0  0.22032035468E+02  0.23049519194E+02  0.17165309735E+00  0.31886053169E+02  0.00000000000E+00 0. -1.
         11    1    3    3    0    0  0.10888607057E+02 -0.30681435072E+01  0.58079378343E+01  0.12716422861E+02  0.51100000000E-03 0. -1.
        -11    1    3    3    0    0 -0.99672044281E+01 -0.67348580158E+01  0.99966699924E+01  0.15640872348E+02  0.51100000000E-03 0.  1.
         12    1    3    3    0    0 -0.22953438097E+02 -0.13246517671E+02 -0.15976260924E+02  0.30944651622E+02  0.00000000000E+00 0. -1.
</event>
<event>
 7    1  0.5662448E-012  0.5930195E+02  0.7816164E-02  0.1266605E+00
        -11   -1    0    0    0    0  0.00000000000E+00  0.00000000000E+00  0.45593999997E+02  0.45594000000E+02  0.51100000000E-03 0.  1.
         11   -1    0    0    0    0 -0.00000000000E+00 -0.00000000000E+00 -0.45593999997E+02  0.45594000000E+02  0.51100000000E-03 0. -1.
    9900012    2    1    2    0    0  0.11303145247E+02 -0.20093850489E+02  0.22027177885E+02  0.59301945282E+02  0.50000002287E+02 0.  0.
         12    1    1    2    0    0 -0.11303145247E+02  0.20093850489E+02 -0.22027177885E+02  0.31886054718E+02  0.00000000000E+00 0. -1.
         11    1    3    3    0    0 -0.21647718622E+01 -0.22683251794E+00 -0.49309571628E+01  0.53899934146E+01  0.51100000000E-03 0. -1.
        -11    1    3    3    0    0 -0.11705687660E+02  0.31054789552E+01  0.10666115253E+02  0.16137940946E+02  0.51100000000E-03 0.  1.
         12    1    3    3    0    0  0.25173604769E+02 -0.22972496926E+02  0.16292019794E+02  0.37774010921E+02  0.00000000000E+00 0. -1.
</event>
<event>
 7    1  0.5662448E-012  0.5930194E+02  0.7816164E-02  0.1266605E+00
        -11   -1    0    0    0    0  0.00000000000E+00  0.00000000000E+00  0.45593999997E+02  0.45594000000E+02  0.51100000000E-03 0.  1.
         11   -1    0    0    0    0 -0.00000000000E+00 -0.00000000000E+00 -0.45593999997E+02  0.45594000000E+02  0.51100000000E-03 0. -1.
    9900012    2    1    2    0    0  0.76787823261E+01  0.26581452042E+02  0.15848764389E+02  0.59301943121E+02  0.49999998346E+02 0.  0.
         12    1    1    2    0    0 -0.76787823261E+01 -0.26581452042E+02 -0.15848764389E+02  0.31886056879E+02  0.00000000000E+00 0. -1.
         11    1    3    3    0    0 -0.20893891728E+01  0.57783099117E+01  0.13697548892E+02  0.15012570016E+02  0.51100000000E-03 0. -1.
        -11    1    3    3    0    0 -0.13090927274E+02  0.16345424969E+02  0.65628537142E+00  0.20951754224E+02  0.51100000000E-03 0.  1.
         12    1    3    3    0    0  0.22859098772E+02  0.44577171610E+01  0.14949301251E+01  0.23337618881E+02  0.00000000000E+00 0. -1.
</event>
<event>
 7    1  0.5662448E-012  0.5930194E+02  0.7816164E-02  0.1266605E+00
        -11   -1    0    0    0    0  0.00000000000E+00  0.00000000000E+00  0.45593999997E+02  0.45594000000E+02  0.51100000000E-03 0.  1.
         11   -1    0    0    0    0 -0.00000000000E+00 -0.00000000000E+00 -0.45593999997E+02  0.45594000000E+02  0.51100000000E-03 0. -1.
    9900012    2    1    2    0    0  0.25969647694E+02 -0.18026671755E+02 -0.41638171263E+01  0.59301939268E+02  0.49999991320E+02 0.  0.
         12    1    1    2    0    0 -0.25969647694E+02  0.18026671755E+02  0.41638171263E+01  0.31886060732E+02  0.00000000000E+00 0. -1.
         11    1    3    3    0    0 -0.81534310452E+01 -0.15609488755E+02 -0.11098226940E+02  0.20815984686E+02  0.51100000000E-03 0. -1.
        -11    1    3    3    0    0  0.16197215775E+02 -0.32685865190E+01 -0.46008874949E+01  0.17152306629E+02  0.51100000000E-03 0.  1.
        -12    1    3    3    0    0  0.17925862964E+02  0.85140351873E+00  0.11535297308E+02  0.21333647953E+02  0.00000000000E+00 0.  1.
</event>
<event>
 7    1  0.5662448E-012  0.5930198E+02  0.7816164E-02  0.1266605E+00
        -11   -1    0    0    0    0  0.00000000000E+00  0.00000000000E+00  0.45593999997E+02  0.45594000000E+02  0.51100000000E-03 0.  1.
         11   -1    0    0    0    0 -0.00000000000E+00 -0.00000000000E+00 -0.45593999997E+02  0.45594000000E+02  0.51100000000E-03 0. -1.
    9900012    2    1    2    0    0 -0.19679518421E+02  0.51388829058E+01  0.24556597536E+02  0.59301983545E+02  0.50000072070E+02 0.  0.
         12    1    1    2    0    0  0.19679518421E+02 -0.51388829058E+01 -0.24556597536E+02  0.31886016455E+02  0.00000000000E+00 0. -1.
         11    1    3    3    0    0  0.16769920148E+01 -0.39584266948E+01 -0.42521152036E+01  0.60466460192E+01  0.51100000000E-03 0. -1.
        -11    1    3    3    0    0 -0.11294000391E+02 -0.14018036973E+02  0.19082595212E+02  0.26233666265E+02  0.51100000000E-03 0.  1.
        -12    1    3    3    0    0 -0.10062510044E+02  0.23115346573E+02  0.97261175280E+01  0.27021671261E+02  0.00000000000E+00 0.  1.
</event>
<event>
 7    1  0.5662448E-012  0.5930192E+02  0.7816164E-02  0.1266605E+00
        -11   -1    0    0    0    0  0.00000000000E+00  0.00000000000E+00  0.45593999997E+02  0.45594000000E+02  0.51100000000E-03 0. -1.
         11   -1    0    0    0    0 -0.00000000000E+00 -0.00000000000E+00 -0.45593999997E+02  0.45594000000E+02  0.51100000000E-03 0.  1.
    9900012    2    1    2    0    0 -0.31187478797E+01 -0.25225308652E+02 -0.19253032091E+02  0.59301921068E+02  0.49999958127E+02 0.  0.
         12    1    1    2    0    0  0.31187478797E+01  0.25225308652E+02  0.19253032091E+02  0.31886078932E+02  0.00000000000E+00 0. -1.
         11    1    3    3    0    0  0.46750489236E+01  0.45019287401E+01 -0.22964280367E+02  0.23863813984E+02  0.51100000000E-03 0.  1.
        -11    1    3    3    0    0 -0.51379563652E+01 -0.12980408223E+01  0.43832239699E+01  0.68772202392E+01  0.51100000000E-03 0. -1.
        -12    1    3    3    0    0 -0.26558404380E+01 -0.28429196570E+02 -0.67197569416E+00  0.28560886845E+02  0.00000000000E+00 0.  1.
</event>
<event>
 7    1  0.5662448E-012  0.5930195E+02  0.7816164E-02  0.1266605E+00
        -11   -1    0    0    0    0  0.00000000000E+00  0.00000000000E+00  0.45593999997E+02  0.45594000000E+02  0.51100000000E-03 0. -1.
         11   -1    0    0    0    0 -0.00000000000E+00 -0.00000000000E+00 -0.45593999997E+02  0.45594000000E+02  0.51100000000E-03 0.  1.
    9900012    2    1    2    0    0 -0.25375702693E+02 -0.18376290502E+02  0.59250266133E+01  0.59301948502E+02  0.50000008160E+02 0.  0.
         12    1    1    2    0    0  0.25375702693E+02  0.18376290502E+02 -0.59250266133E+01  0.31886051498E+02  0.00000000000E+00 0. -1.
         11    1    3    3    0    0 -0.32406191197E+01 -0.14091479576E+02 -0.84046537528E+01  0.16724521335E+02  0.51100000000E-03 0.  1.
        -11    1    3    3    0    0 -0.73581842514E+00 -0.10457041434E+02  0.17178433781E+02  0.20124356679E+02  0.51100000000E-03 0. -1.
        -12    1    3    3    0    0 -0.21399265148E+02  0.61722305081E+01 -0.28487534153E+01  0.22453070488E+02  0.00000000000E+00 0.  1.
</event>
<event>
 7    1  0.5662448E-012  0.5930184E+02  0.7816164E-02  0.1266605E+00
        -11   -1    0    0    0    0  0.00000000000E+00  0.00000000000E+00  0.45593999997E+02  0.45594000000E+02  0.51100000000E-03 0. -1.
         11   -1    0    0    0    0 -0.00000000000E+00 -0.00000000000E+00 -0.45593999997E+02  0.45594000000E+02  0.51100000000E-03 0.  1.
    9900012    2    1    2    0    0  0.22200480928E+01 -0.13702490007E+02 -0.28706100791E+02  0.59301842054E+02  0.49999814025E+02 0.  0.
         12    1    1    2    0    0 -0.22200480928E+01  0.13702490007E+02  0.28706100791E+02  0.31886157946E+02  0.00000000000E+00 0. -1.
         11    1    3    3    0    0  0.17448211515E+02  0.16716933625E+01 -0.10683849096E+01  0.17560640374E+02  0.51100000000E-03 0. -1.
        -11    1    3    3    0    0 -0.83768458773E+01  0.30591925754E+01 -0.15182229498E+01  0.90462814046E+01  0.51100000000E-03 0.  1.
        -12    1    3    3    0    0 -0.68513175453E+01 -0.18433375945E+02 -0.26119492931E+02  0.32694920275E+02  0.00000000000E+00 0.  1.
</event>
<event>
 7    1  0.5662448E-012  0.5930196E+02  0.7816164E-02  0.1266605E+00
        -11   -1    0    0    0    0  0.00000000000E+00  0.00000000000E+00  0.45593999997E+02  0.45594000000E+02  0.51100000000E-03 0.  1.
         11   -1    0    0    0    0 -0.00000000000E+00 -0.00000000000E+00 -0.45593999997E+02  0.45594000000E+02  0.51100000000E-03 0. -1.
    9900012    2    1    2    0    0  0.10036547211E+02  0.23880194928E+02  0.18593644031E+02  0.59301959354E+02  0.50000027951E+02 0.  0.
         12    1    1    2    0    0 -0.10036547211E+02 -0.23880194928E+02 -0.18593644031E+02  0.31886040646E+02  0.00000000000E+00 0. -1.
         11    1    3    3    0    0  0.18939350988E+01  0.20594047668E+01  0.34200383256E+01  0.44186876515E+01  0.51100000000E-03 0. -1.
        -11    1    3    3    0    0  0.16106368514E+02  0.11684778934E+02  0.29517606769E+02  0.35598290340E+02  0.51100000000E-03 0.  1.
         12    1    3    3    0    0 -0.79637564023E+01  0.10136011227E+02 -0.14344001064E+02  0.19284981363E+02  0.00000000000E+00 0. -1.
</event>
<event>
 7    1  0.5662448E-012  0.5930194E+02  0.7816164E-02  0.1266605E+00
        -11   -1    0    0    0    0  0.00000000000E+00  0.00000000000E+00  0.45593999997E+02  0.45594000000E+02  0.51100000000E-03 0. -1.
         11   -1    0    0    0    0 -0.00000000000E+00 -0.00000000000E+00 -0.45593999997E+02  0.45594000000E+02  0.51100000000E-03 0.  1.
    9900012    2    1    2    0    0 -0.58896508286E+01  0.30786777667E+02  0.58486945575E+01  0.59301938876E+02  0.49999990604E+02 0.  0.
         12    1    1    2    0    0  0.58896508286E+01 -0.30786777667E+02 -0.58486945575E+01  0.31886061124E+02  0.00000000000E+00 0. -1.
         11    1    3    3    0    0  0.10443172564E+02  0.16172557396E+02  0.10020831732E+02  0.21703191811E+02  0.51100000000E-03 0. -1.
        -11    1    3    3    0    0 -0.10092566655E+02  0.14396879461E+02  0.11309488559E+02  0.20905371836E+02  0.51100000000E-03 0.  1.
        -12    1    3    3    0    0 -0.62402567379E+01  0.21734081064E+00 -0.15481625733E+02  0.16693375228E+02  0.00000000000E+00 0.  1.
</event>
<event>
 7    1  0.5662448E-012  0.5930195E+02  0.7816164E-02  0.1266605E+00
        -11   -1    0    0    0    0  0.00000000000E+00  0.00000000000E+00  0.45593999997E+02  0.45594000000E+02  0.51100000000E-03 0. -1.
         11   -1    0    0    0    0 -0.00000000000E+00 -0.00000000000E+00 -0.45593999997E+02  0.45594000000E+02  0.51100000000E-03 0.  1.
    9900012    2    1    2    0    0 -0.21604702874E+02 -0.19733587372E+02 -0.12670546537E+02  0.59301946522E+02  0.50000004549E+02 0.  0.
         12    1    1    2    0    0  0.21604702874E+02  0.19733587372E+02  0.12670546537E+02  0.31886053478E+02  0.00000000000E+00 0. -1.
         11    1    3    3    0    0  0.62065896077E+01  0.28508487855E+00 -0.15090604685E+02  0.16319601036E+02  0.51100000000E-03 0. -1.
        -11    1    3    3    0    0  0.15100183630E+01 -0.57825171643E+01  0.79252744050E+01  0.99261087476E+01  0.51100000000E-03 0.  1.
        -12    1    3    3    0    0 -0.29321310845E+02 -0.14236155087E+02 -0.55052162567E+01  0.33056236739E+02  0.00000000000E+00 0.  1.
</event>
<event>
 7    1  0.5662448E-012  0.5930196E+02  0.7816164E-02  0.1266605E+00
        -11   -1    0    0    0    0  0.00000000000E+00  0.00000000000E+00  0.45593999997E+02  0.45594000000E+02  0.51100000000E-03 0.  1.
         11   -1    0    0    0    0 -0.00000000000E+00 -0.00000000000E+00 -0.45593999997E+02  0.45594000000E+02  0.51100000000E-03 0. -1.
    9900012    2    1    2    0    0  0.11276302757E+02 -0.33432123148E+00  0.29823699739E+02  0.59301955393E+02  0.50000020727E+02 0.  0.
         12    1    1    2    0    0 -0.11276302757E+02  0.33432123148E+00 -0.29823699739E+02  0.31886044607E+02  0.00000000000E+00 0. -1.
         11    1    3    3    0    0  0.29086601767E+01  0.24833204192E+01 -0.95692504920E+01  0.10305228749E+02  0.51100000000E-03 0. -1.
        -11    1    3    3    0    0 -0.51490200181E+01 -0.11820992027E+02  0.17637546538E+02  0.21847913122E+02  0.51100000000E-03 0.  1.
        -12    1    3    3    0    0  0.13516662598E+02  0.90033503760E+01  0.21755403693E+02  0.27148813522E+02  0.00000000000E+00 0.  1.
</event>
<event>
 7    1  0.5662448E-012  0.5930193E+02  0.7816164E-02  0.1266605E+00
        -11   -1    0    0    0    0  0.00000000000E+00  0.00000000000E+00  0.45593999997E+02  0.45594000000E+02  0.51100000000E-03 0.  1.
         11   -1    0    0    0    0 -0.00000000000E+00 -0.00000000000E+00 -0.45593999997E+02  0.45594000000E+02  0.51100000000E-03 0. -1.
    9900012    2    1    2    0    0 -0.16123510312E+02 -0.12496702074E+02  0.24506860385E+02  0.59301931671E+02  0.49999977465E+02 0.  0.
         12    1    1    2    0    0  0.16123510312E+02  0.12496702074E+02 -0.24506860385E+02  0.31886068329E+02  0.00000000000E+00 0. -1.
         11    1    3    3    0    0 -0.19720854699E+02  0.36846586001E+01  0.12921794924E+02  0.23863394632E+02  0.51100000000E-03 0. -1.
        -11    1    3    3    0    0  0.16385080268E+02 -0.85348521966E+01  0.78815053924E+01  0.20085633794E+02  0.51100000000E-03 0.  1.
         12    1    3    3    0    0 -0.12787735881E+02 -0.76465084773E+01  0.37035600688E+01  0.15352903245E+02  0.00000000000E+00 0. -1.
</event>
<event>
 7    1  0.5662448E-012  0.5930195E+02  0.7816164E-02  0.1266605E+00
        -11   -1    0    0    0    0  0.00000000000E+00  0.00000000000E+00  0.45593999997E+02  0.45594000000E+02  0.51100000000E-03 0. -1.
         11   -1    0    0    0    0 -0.00000000000E+00 -0.00000000000E+00 -0.45593999997E+02  0.45594000000E+02  0.51100000000E-03 0.  1.
    9900012    2    1    2    0    0 -0.22924796977E+02  0.12622173340E+02  0.18216875212E+02  0.59301951033E+02  0.50000012776E+02 0.  0.
         12    1    1    2    0    0  0.22924796977E+02 -0.12622173340E+02 -0.18216875212E+02  0.31886048967E+02  0.00000000000E+00 0. -1.
         11    1    3    3    0    0 -0.73924791579E+01 -0.15679032937E-01  0.10377171549E+02  0.12741062889E+02  0.51100000000E-03 0. -1.
        -11    1    3    3    0    0  0.29580955428E+01  0.41184442723E+01 -0.15077183898E+02  0.15907023198E+02  0.51100000000E-03 0.  1.
         12    1    3    3    0    0 -0.18490413362E+02  0.85194081002E+01  0.22916887561E+02  0.30653864946E+02  0.00000000000E+00 0. -1.
</event>
<event>
 7    1  0.5662448E-012  0.5930194E+02  0.7816164E-02  0.1266605E+00
        -11   -1    0    0    0    0  0.00000000000E+00  0.00000000000E+00  0.45593999997E+02  0.45594000000E+02  0.51100000000E-03 0. -1.
         11   -1    0    0    0    0 -0.00000000000E+00 -0.00000000000E+00 -0.45593999997E+02  0.45594000000E+02  0.51100000000E-03 0.  1.
    9900012    2    1    2    0    0  0.19657171387E+02 -0.24134516329E+02  0.69167526115E+01  0.59301941415E+02  0.49999995236E+02 0.  0.
         12    1    1    2    0    0 -0.19657171387E+02  0.24134516329E+02 -0.69167526115E+01  0.31886058585E+02  0.00000000000E+00 0. -1.
         11    1    3    3    0    0  0.42829190135E+01 -0.42205346922E+01  0.16699435309E+02  0.17749012600E+02  0.51100000000E-03 0. -1.
        -11    1    3    3    0    0 -0.10832612025E+01  0.77530199327E+01  0.25502818402E+00  0.78324844427E+01  0.51100000000E-03 0.  1.
        -12    1    3    3    0    0  0.16457513576E+02 -0.27667001570E+02 -0.10037710882E+02  0.33720444373E+02  0.00000000000E+00 0.  1.
</event>
<event>
 7    1  0.5662448E-012  0.5930195E+02  0.7816164E-02  0.1266605E+00
        -11   -1    0    0    0    0  0.00000000000E+00  0.00000000000E+00  0.45593999997E+02  0.45594000000E+02  0.51100000000E-03 0.  1.
         11   -1    0    0    0    0 -0.00000000000E+00 -0.00000000000E+00 -0.45593999997E+02  0.45594000000E+02  0.51100000000E-03 0. -1.
    9900012    2    1    2    0    0 -0.83165786432E+01 -0.89233490492E+01  0.29460626316E+02  0.59301950676E+02  0.50000012125E+02 0.  0.
         12    1    1    2    0    0  0.83165786432E+01  0.89233490492E+01 -0.29460626316E+02  0.31886049324E+02  0.00000000000E+00 0. -1.
         11    1    3    3    0    0  0.96350424512E+01  0.10462358355E+02  0.59220292160E+01  0.15406667897E+02  0.51100000000E-03 0. -1.
        -11    1    3    3    0    0 -0.40706568939E+01 -0.12980871385E+02 -0.23735755047E+01  0.13809675246E+02  0.51100000000E-03 0.  1.
        -12    1    3    3    0    0 -0.13880964201E+02 -0.64048360193E+01  0.25912172604E+02  0.30085607533E+02  0.00000000000E+00 0.  1.
</event>
<event>
 7    1  0.5662448E-012  0.5930196E+02  0.7816164E-02  0.1266605E+00
        -11   -1    0    0    0    0  0.00000000000E+00  0.00000000000E+00  0.45593999997E+02  0.45594000000E+02  0.51100000000E-03 0.  1.
         11   -1    0    0    0    0 -0.00000000000E+00 -0.00000000000E+00 -0.45593999997E+02  0.45594000000E+02  0.51100000000E-03 0. -1.
    9900012    2    1    2    0    0  0.73626034447E+01 -0.18984266628E+02  0.24537916597E+02  0.59301958229E+02  0.50000025900E+02 0.  0.
         12    1    1    2    0    0 -0.73626034447E+01  0.18984266628E+02 -0.24537916597E+02  0.31886041771E+02  0.00000000000E+00 0. -1.
         11    1    3    3    0    0  0.85971049815E+01  0.38263890624E+01  0.22111348079E+01  0.96664670237E+01  0.51100000000E-03 0. -1.
        -11    1    3    3    0    0 -0.11482698341E+02  0.50296006157E+01  0.49762607301E-01  0.12536016916E+02  0.51100000000E-03 0.  1.
        -12    1    3    3    0    0  0.10248196804E+02 -0.27840256306E+02  0.22277019182E+02  0.37099474290E+02  0.00000000000E+00 0.  1.
</event>
<event>
 7    1  0.5662448E-012  0.5930189E+02  0.7816164E-02  0.1266605E+00
        -11   -1    0    0    0    0  0.00000000000E+00  0.00000000000E+00  0.45593999997E+02  0.45594000000E+02  0.51100000000E-03 0. -1.
         11   -1    0    0    0    0 -0.00000000000E+00 -0.00000000000E+00 -0.45593999997E+02  0.45594000000E+02  0.51100000000E-03 0.  1.
    9900012    2    1    2    0    0 -0.13373467674E+02 -0.24481696094E+02  0.15444133016E+02  0.59301885061E+02  0.49999892459E+02 0.  0.
         12    1    1    2    0    0  0.13373467674E+02  0.24481696094E+02 -0.15444133016E+02  0.31886114939E+02  0.00000000000E+00 0. -1.
         11    1    3    3    0    0  0.10292823912E+02 -0.10262322300E+02  0.36248008506E+01  0.14979875318E+02  0.51100000000E-03 0. -1.
        -11    1    3    3    0    0  0.53742476869E+00  0.46868411026E+01 -0.68968228278E+01  0.83559242626E+01  0.51100000000E-03 0.  1.
        -12    1    3    3    0    0 -0.24203716355E+02 -0.18906214896E+02  0.18716154993E+02  0.35966085481E+02  0.00000000000E+00 0.  1.
</event>
<event>
 7    1  0.5662448E-012  0.5930181E+02  0.7816164E-02  0.1266605E+00
        -11   -1    0    0    0    0  0.00000000000E+00  0.00000000000E+00  0.45593999997E+02  0.45594000000E+02  0.51100000000E-03 0.  1.
         11   -1    0    0    0    0 -0.00000000000E+00 -0.00000000000E+00 -0.45593999997E+02  0.45594000000E+02  0.51100000000E-03 0. -1.
    9900012    2    1    2    0    0 -0.25431506064E+02 -0.19079821578E+02  0.24347502806E+01  0.59301810183E+02  0.49999755899E+02 0.  0.
         12    1    1    2    0    0  0.25431506064E+02  0.19079821578E+02 -0.24347502806E+01  0.31886189817E+02  0.00000000000E+00 0. -1.
         11    1    3    3    0    0 -0.24518216522E+01 -0.18598589501E+01 -0.16155554097E+01  0.34757048596E+01  0.51100000000E-03 0. -1.
        -11    1    3    3    0    0 -0.21066198050E+01 -0.30156125589E+02  0.71806180320E+01  0.31070742397E+02  0.51100000000E-03 0.  1.
         12    1    3    3    0    0 -0.20873064607E+02  0.12936162961E+02 -0.31303123417E+01  0.24755362926E+02  0.00000000000E+00 0. -1.
</event>
<event>
 7    1  0.9239779E-012  0.5930194E+02  0.7816164E-02  0.1266605E+00
        -11   -1    0    0    0    0  0.00000000000E+00  0.00000000000E+00  0.45593999997E+02  0.45594000000E+02  0.51100000000E-03 0. -1.
         11   -1    0    0    0    0 -0.00000000000E+00 -0.00000000000E+00 -0.45593999997E+02  0.45594000000E+02  0.51100000000E-03 0.  1.
    9900012    2    1    2    0    0  0.22788968095E+02 -0.15145341291E+02 -0.16370769110E+02  0.59301944883E+02  0.50000001561E+02 0.  0.
         12    1    1    2    0    0 -0.22788968095E+02  0.15145341291E+02  0.16370769110E+02  0.31886055117E+02  0.00000000000E+00 0. -1.
         11    1    3    3    0    0 -0.66189189327E+01 -0.10266901670E+02  0.26556548468E+01  0.12500874396E+02  0.51100000000E-03 0. -1.
        -11    1    3    3    0    0  0.24141567853E+02 -0.13010122080E+02 -0.23625634613E+01  0.27525629535E+02  0.51100000000E-03 0.  1.
        -12    1    3    3    0    0  0.52663191745E+01  0.81316824599E+01 -0.16663860495E+02  0.19275440952E+02  0.00000000000E+00 0.  1.
</event>
<event>
 7    1  0.5662448E-012  0.5930195E+02  0.7816164E-02  0.1266605E+00
        -11   -1    0    0    0    0  0.00000000000E+00  0.00000000000E+00  0.45593999997E+02  0.45594000000E+02  0.51100000000E-03 0. -1.
         11   -1    0    0    0    0 -0.00000000000E+00 -0.00000000000E+00 -0.45593999997E+02  0.45594000000E+02  0.51100000000E-03 0.  1.
    9900012    2    1    2    0    0  0.24317789825E+02 -0.15492111880E+02  0.13614694534E+02  0.59301947567E+02  0.50000006455E+02 0.  0.
         12    1    1    2    0    0 -0.24317789825E+02  0.15492111880E+02 -0.13614694534E+02  0.31886052433E+02  0.00000000000E+00 0. -1.
         11    1    3    3    0    0 -0.49873219790E+01  0.13728530180E+02  0.78486311142E+01  0.16581523816E+02  0.51100000000E-03 0. -1.
        -11    1    3    3    0    0  0.31987768790E+01 -0.81992532232E+01  0.15885292353E+01  0.89433412287E+01  0.51100000000E-03 0.  1.
        -12    1    3    3    0    0  0.26106334925E+02 -0.21021388837E+02  0.41775341847E+01  0.33777082523E+02  0.00000000000E+00 0.  1.
</event>
<event>
 7    1  0.5662448E-012  0.5930194E+02  0.7816164E-02  0.1266605E+00
        -11   -1    0    0    0    0  0.00000000000E+00  0.00000000000E+00  0.45593999997E+02  0.45594000000E+02  0.51100000000E-03 0. -1.
         11   -1    0    0    0    0 -0.00000000000E+00 -0.00000000000E+00 -0.45593999997E+02  0.45594000000E+02  0.51100000000E-03 0.  1.
    9900012    2    1    2    0    0 -0.22366250886E+02 -0.22705905239E+02 -0.95588771127E+00  0.59301936701E+02  0.49999986637E+02 0.  0.
         12    1    1    2    0    0  0.22366250886E+02  0.22705905239E+02  0.95588771127E+00  0.31886063299E+02  0.00000000000E+00 0. -1.
         11    1    3    3    0    0 -0.16925967903E+02 -0.11390500399E+02 -0.11445482872E+02  0.23392968329E+02  0.51100000000E-03 0. -1.
        -11    1    3    3    0    0  0.32547257743E+01 -0.21044331057E+02  0.65013366225E+01  0.22264871158E+02  0.51100000000E-03 0.  1.
         12    1    3    3    0    0 -0.86950087573E+01  0.97289262177E+01  0.39882585379E+01  0.13644097215E+02  0.00000000000E+00 0. -1.
</event>
<event>
 7    1  0.5662448E-012  0.5930228E+02  0.7816164E-02  0.1266604E+00
        -11   -1    0    0    0    0  0.00000000000E+00  0.00000000000E+00  0.45593999997E+02  0.45594000000E+02  0.51100000000E-03 0. -1.
         11   -1    0    0    0    0 -0.00000000000E+00 -0.00000000000E+00 -0.45593999997E+02  0.45594000000E+02  0.51100000000E-03 0.  1.
    9900012    2    1    2    0    0 -0.19972818857E+02  0.24382195433E+02  0.48264228174E+01  0.59302277420E+02  0.50000608023E+02 0.  0.
         12    1    1    2    0    0  0.19972818857E+02 -0.24382195433E+02 -0.48264228174E+01  0.31885722580E+02  0.00000000000E+00 0. -1.
         11    1    3    3    0    0 -0.71566834218E+01 -0.77680769789E+01 -0.52191025084E+01  0.11781348344E+02  0.51100000000E-03 0. -1.
        -11    1    3    3    0    0 -0.48196339214E+01 -0.44723523632E+01 -0.37598286389E+01  0.75741084262E+01  0.51100000000E-03 0.  1.
        -12    1    3    3    0    0 -0.79965015141E+01  0.36622624775E+02  0.13805353965E+02  0.39946820649E+02  0.00000000000E+00 0.  1.
</event>
<event>
 7    1  0.5662448E-012  0.5930195E+02  0.7816164E-02  0.1266605E+00
        -11   -1    0    0    0    0  0.00000000000E+00  0.00000000000E+00  0.45593999997E+02  0.45594000000E+02  0.51100000000E-03 0.  1.
         11   -1    0    0    0    0 -0.00000000000E+00 -0.00000000000E+00 -0.45593999997E+02  0.45594000000E+02  0.51100000000E-03 0. -1.
    9900012    2    1    2    0    0  0.38380004379E+01 -0.30507970107E+02  0.84412058584E+01  0.59301945936E+02  0.50000003481E+02 0.  0.
         12    1    1    2    0    0 -0.38380004379E+01  0.30507970107E+02 -0.84412058584E+01  0.31886054064E+02  0.00000000000E+00 0. -1.
         11    1    3    3    0    0 -0.57015559555E+01 -0.50736489269E+01  0.82465314661E+01  0.11236322140E+02  0.51100000000E-03 0. -1.
        -11    1    3    3    0    0 -0.15549322718E+02 -0.87121051098E+01  0.14976884336E+01  0.17886455304E+02  0.51100000000E-03 0.  1.
         12    1    3    3    0    0  0.25088879111E+02 -0.16722216070E+02 -0.13030140413E+01  0.30179168493E+02  0.00000000000E+00 0. -1.
</event>
<event>
 7    1  0.5662448E-012  0.5930195E+02  0.7816164E-02  0.1266605E+00
        -11   -1    0    0    0    0  0.00000000000E+00  0.00000000000E+00  0.45593999997E+02  0.45594000000E+02  0.51100000000E-03 0.  1.
         11   -1    0    0    0    0 -0.00000000000E+00 -0.00000000000E+00 -0.45593999997E+02  0.45594000000E+02  0.51100000000E-03 0. -1.
    9900012    2    1    2    0    0 -0.18603944118E+02 -0.79279615493E+01 -0.24652800363E+02  0.59301954826E+02  0.50000019693E+02 0.  0.
         12    1    1    2    0    0  0.18603944118E+02  0.79279615493E+01  0.24652800363E+02  0.31886045174E+02  0.00000000000E+00 0. -1.
         11    1    3    3    0    0  0.32489265657E+01  0.13815635390E+02 -0.36234238184E+01  0.14647747454E+02  0.51100000000E-03 0. -1.
        -11    1    3    3    0    0  0.42931475273E+01 -0.35304702689E+01  0.13453662101E+01  0.57188588469E+01  0.51100000000E-03 0.  1.
         12    1    3    3    0    0 -0.26146018211E+02 -0.18213126670E+02 -0.22374742755E+02  0.38935348525E+02  0.00000000000E+00 0. -1.
</event>
<event>
 7    1  0.5662448E-012  0.5930195E+02  0.7816164E-02  0.1266605E+00
        -11   -1    0    0    0    0  0.00000000000E+00  0.00000000000E+00  0.45593999997E+02  0.45594000000E+02  0.51100000000E-03 0.  1.
         11   -1    0    0    0    0 -0.00000000000E+00 -0.00000000000E+00 -0.45593999997E+02  0.45594000000E+02  0.51100000000E-03 0. -1.
    9900012    2    1    2    0    0  0.39729130579E+01  0.29957387831E+02 -0.10173064197E+02  0.59301947266E+02  0.50000005906E+02 0.  0.
         12    1    1    2    0    0 -0.39729130579E+01 -0.29957387831E+02  0.10173064197E+02  0.31886052734E+02  0.00000000000E+00 0. -1.
         11    1    3    3    0    0  0.12378831869E+02  0.18406018919E+02 -0.24147079267E+02  0.32788693910E+02  0.51100000000E-03 0. -1.
        -11    1    3    3    0    0 -0.17503376001E+01  0.58769240133E+01 -0.34365228652E+01  0.70293390327E+01  0.51100000000E-03 0.  1.
        -12    1    3    3    0    0 -0.66555812109E+01  0.56744448981E+01  0.17410537936E+02  0.19483914324E+02  0.00000000000E+00 0.  1.
</event>
<event>
 7    1  0.5662448E-012  0.5930196E+02  0.7816164E-02  0.1266605E+00
        -11   -1    0    0    0    0  0.00000000000E+00  0.00000000000E+00  0.45593999997E+02  0.45594000000E+02  0.51100000000E-03 0.  1.
         11   -1    0    0    0    0 -0.00000000000E+00 -0.00000000000E+00 -0.45593999997E+02  0.45594000000E+02  0.51100000000E-03 0. -1.
    9900012    2    1    2    0    0 -0.22951842303E+02 -0.62144608578E+01  0.21244126745E+02  0.59301960578E+02  0.50000030184E+02 0.  0.
         12    1    1    2    0    0  0.22951842303E+02  0.62144608578E+01 -0.21244126745E+02  0.31886039422E+02  0.00000000000E+00 0. -1.
         11    1    3    3    0    0  0.22269941842E+01  0.53795802512E+01 -0.51078852778E+01  0.77453133602E+01  0.51100000000E-03 0. -1.
        -11    1    3    3    0    0 -0.16267831426E+02 -0.13358113821E+02 -0.26032792471E+01  0.21209870515E+02  0.51100000000E-03 0.  1.
         12    1    3    3    0    0 -0.89110050611E+01  0.17640727119E+01  0.28955291270E+02  0.30346776703E+02  0.00000000000E+00 0. -1.
</event>
<event>
 7    1  0.5662448E-012  0.5930195E+02  0.7816164E-02  0.1266605E+00
        -11   -1    0    0    0    0  0.00000000000E+00  0.00000000000E+00  0.45593999997E+02  0.45594000000E+02  0.51100000000E-03 0.  1.
         11   -1    0    0    0    0 -0.00000000000E+00 -0.00000000000E+00 -0.45593999997E+02  0.45594000000E+02  0.51100000000E-03 0. -1.
    9900012    2    1    2    0    0  0.71600761387E+00 -0.21521843080E+02  0.23516334949E+02  0.59301946530E+02  0.50000004564E+02 0.  0.
         12    1    1    2    0    0 -0.71600761387E+00  0.21521843080E+02 -0.23516334949E+02  0.31886053470E+02  0.00000000000E+00 0. -1.
         11    1    3    3    0    0 -0.54669825921E+01 -0.22740683248E+02  0.75853573136E+01  0.24587887650E+02  0.51100000000E-03 0. -1.
        -11    1    3    3    0    0  0.15446940667E+02  0.23636539027E+01 -0.70020548742E+00  0.15642414255E+02  0.51100000000E-03 0.  1.
         12    1    3    3    0    0 -0.92639504610E+01 -0.11448137341E+01  0.16631183123E+02  0.19071644625E+02  0.00000000000E+00 0. -1.
</event>
<event>
 7    1  0.5662448E-012  0.5930194E+02  0.7816164E-02  0.1266605E+00
        -11   -1    0    0    0    0  0.00000000000E+00  0.00000000000E+00  0.45593999997E+02  0.45594000000E+02  0.51100000000E-03 0. -1.
         11   -1    0    0    0    0 -0.00000000000E+00 -0.00000000000E+00 -0.45593999997E+02  0.45594000000E+02  0.51100000000E-03 0.  1.
    9900012    2    1    2    0    0 -0.67171453562E+01  0.19220097573E+02 -0.24539536017E+02  0.59301936894E+02  0.49999986990E+02 0.  0.
         12    1    1    2    0    0  0.67171453562E+01 -0.19220097573E+02  0.24539536017E+02  0.31886063106E+02  0.00000000000E+00 0. -1.
         11    1    3    3    0    0 -0.15432776588E+02  0.90169614422E+01 -0.71929114673E+01  0.19266918864E+02  0.51100000000E-03 0. -1.
        -11    1    3    3    0    0  0.11773892513E+02 -0.78350621760E+01  0.93181795982E+00  0.14173250480E+02  0.51100000000E-03 0.  1.
         12    1    3    3    0    0 -0.30582612815E+01  0.18038198307E+02 -0.18278442510E+02  0.25861767550E+02  0.00000000000E+00 0. -1.
</event>
<event>
 7    1  0.5662448E-012  0.5930199E+02  0.7816164E-02  0.1266605E+00
        -11   -1    0    0    0    0  0.00000000000E+00  0.00000000000E+00  0.45593999997E+02  0.45594000000E+02  0.51100000000E-03 0.  1.
         11   -1    0    0    0    0 -0.00000000000E+00 -0.00000000000E+00 -0.45593999997E+02  0.45594000000E+02  0.51100000000E-03 0. -1.
    9900012    2    1    2    0    0  0.94135948430E-01 -0.11846014911E+02  0.29603724799E+02  0.59301992837E+02  0.50000089016E+02 0.  0.
         12    1    1    2    0    0 -0.94135948430E-01  0.11846014911E+02 -0.29603724799E+02  0.31886007163E+02  0.00000000000E+00 0. -1.
         11    1    3    3    0    0 -0.11195525160E+02 -0.14313538131E+02  0.19036548321E+01  0.18271317944E+02  0.51100000000E-03 0.  1.
        -11    1    3    3    0    0  0.10032247772E+01 -0.10413051881E+01 -0.57136682785E+01  0.58937918105E+01  0.51100000000E-03 0. -1.
        -12    1    3    3    0    0  0.10286436332E+02  0.35088284081E+01  0.33413738245E+02  0.35136883082E+02  0.00000000000E+00 0.  1.
</event>
<event>
 7    1  0.5662448E-012  0.5930193E+02  0.7816164E-02  0.1266605E+00
        -11   -1    0    0    0    0  0.00000000000E+00  0.00000000000E+00  0.45593999997E+02  0.45594000000E+02  0.51100000000E-03 0.  1.
         11   -1    0    0    0    0 -0.00000000000E+00 -0.00000000000E+00 -0.45593999997E+02  0.45594000000E+02  0.51100000000E-03 0. -1.
    9900012    2    1    2    0    0  0.14412351713E+02  0.14919653237E+02  0.24215890810E+02  0.59301932473E+02  0.49999978927E+02 0.  0.
         12    1    1    2    0    0 -0.14412351713E+02 -0.14919653237E+02 -0.24215890810E+02  0.31886067527E+02  0.00000000000E+00 0. -1.
         11    1    3    3    0    0  0.12165834159E+02  0.81344259698E+01  0.17301497087E+02  0.22660940148E+02  0.51100000000E-03 0. -1.
        -11    1    3    3    0    0 -0.95698705195E+00 -0.13059379002E+02 -0.40979294868E+01  0.13720649784E+02  0.51100000000E-03 0.  1.
         12    1    3    3    0    0  0.32035046058E+01  0.19844606270E+02  0.11012323209E+02  0.22920342542E+02  0.00000000000E+00 0. -1.
</event>
<event>
 7    1  0.5662448E-012  0.5930195E+02  0.7816164E-02  0.1266605E+00
        -11   -1    0    0    0    0  0.00000000000E+00  0.00000000000E+00  0.45593999997E+02  0.45594000000E+02  0.51100000000E-03 0. -1.
         11   -1    0    0    0    0 -0.00000000000E+00 -0.00000000000E+00 -0.45593999997E+02  0.45594000000E+02  0.51100000000E-03 0.  1.
    9900012    2    1    2    0    0  0.18463748025E+01 -0.21862401423E+02 -0.23137558790E+02  0.59301947835E+02  0.50000006944E+02 0.  0.
         12    1    1    2    0    0 -0.18463748025E+01  0.21862401423E+02  0.23137558790E+02  0.31886052165E+02  0.00000000000E+00 0. -1.
         11    1    3    3    0    0 -0.17073466961E+02  0.17487428329E+01 -0.82284056920E+01  0.19033340118E+02  0.51100000000E-03 0. -1.
        -11    1    3    3    0    0 -0.31291872294E+01 -0.46255562354E+01 -0.89787210142E+01  0.10573789033E+02  0.51100000000E-03 0.  1.
        -12    1    3    3    0    0  0.22049028992E+02 -0.18985588021E+02 -0.59304320838E+01  0.29694818684E+02  0.00000000000E+00 0.  1.
</event>
<event>
 7    1  0.5662448E-012  0.5930195E+02  0.7816164E-02  0.1266605E+00
        -11   -1    0    0    0    0  0.00000000000E+00  0.00000000000E+00  0.45593999997E+02  0.45594000000E+02  0.51100000000E-03 0.  1.
         11   -1    0    0    0    0 -0.00000000000E+00 -0.00000000000E+00 -0.45593999997E+02  0.45594000000E+02  0.51100000000E-03 0. -1.
    9900012    2    1    2    0    0 -0.16689497650E+02  0.10182260400E+02  0.25189334317E+02  0.59301947845E+02  0.50000006962E+02 0.  0.
         12    1    1    2    0    0  0.16689497650E+02 -0.10182260400E+02 -0.25189334317E+02  0.31886052155E+02  0.00000000000E+00 0. -1.
         11    1    3    3    0    0 -0.12911968907E+02 -0.97024396513E+01  0.70399664758E+01  0.17618666365E+02  0.51100000000E-03 0. -1.
        -11    1    3    3    0    0  0.22460915937E+01  0.17181931735E+02 -0.46549536566E+01  0.17942471942E+02  0.51100000000E-03 0.  1.
        -12    1    3    3    0    0 -0.60236203362E+01  0.27027683167E+01  0.22804321498E+02  0.23740809538E+02  0.00000000000E+00 0.  1.
</event>
<event>
 7    1  0.5662448E-012  0.5930201E+02  0.7816164E-02  0.1266605E+00
        -11   -1    0    0    0    0  0.00000000000E+00  0.00000000000E+00  0.45593999997E+02  0.45594000000E+02  0.51100000000E-03 0.  1.
         11   -1    0    0    0    0 -0.00000000000E+00 -0.00000000000E+00 -0.45593999997E+02  0.45594000000E+02  0.51100000000E-03 0. -1.
    9900012    2    1    2    0    0  0.25122461188E+02 -0.60623651165E+01  0.18676888746E+02  0.59302007775E+02  0.50000116259E+02 0.  0.
         12    1    1    2    0    0 -0.25122461188E+02  0.60623651165E+01 -0.18676888746E+02  0.31885992225E+02  0.00000000000E+00 0. -1.
         11    1    3    3    0    0 -0.45946071913E+01 -0.10034893613E+02 -0.10118122365E+01  0.11083017159E+02  0.51100000000E-03 0. -1.
        -11    1    3    3    0    0  0.30589872958E+02 -0.81320056018E+01  0.11990362231E+02  0.33847283929E+02  0.51100000000E-03 0.  1.
         12    1    3    3    0    0 -0.87280457818E+00  0.12104534099E+02  0.76983387517E+01  0.14371706688E+02  0.00000000000E+00 0. -1.
</event>
<event>
 7    1  0.5662448E-012  0.5930187E+02  0.7816164E-02  0.1266605E+00
        -11   -1    0    0    0    0  0.00000000000E+00  0.00000000000E+00  0.45593999997E+02  0.45594000000E+02  0.51100000000E-03 0. -1.
         11   -1    0    0    0    0 -0.00000000000E+00 -0.00000000000E+00 -0.45593999997E+02  0.45594000000E+02  0.51100000000E-03 0.  1.
    9900012    2    1    2    0    0 -0.29234297455E+02 -0.83858903002E+01 -0.95790238315E+01  0.59301874469E+02  0.49999873142E+02 0.  0.
         12    1    1    2    0    0  0.29234297455E+02  0.83858903002E+01  0.95790238315E+01  0.31886125531E+02  0.00000000000E+00 0. -1.
         11    1    3    3    0    0  0.65435918564E+01 -0.30474123128E+01  0.72801743118E+01  0.10252134142E+02  0.51100000000E-03 0. -1.
        -11    1    3    3    0    0 -0.56825853868E+01  0.88787819789E+01 -0.11032449552E+02  0.15259078920E+02  0.51100000000E-03 0.  1.
         12    1    3    3    0    0 -0.30095303924E+02 -0.14217259966E+02 -0.58267485916E+01  0.33790661408E+02  0.00000000000E+00 0. -1.
</event>
<event>
 7    1  0.5662448E-012  0.5930195E+02  0.7816164E-02  0.1266605E+00
        -11   -1    0    0    0    0  0.00000000000E+00  0.00000000000E+00  0.45593999997E+02  0.45594000000E+02  0.51100000000E-03 0. -1.
         11   -1    0    0    0    0 -0.00000000000E+00 -0.00000000000E+00 -0.45593999997E+02  0.45594000000E+02  0.51100000000E-03 0.  1.
    9900012    2    1    2    0    0  0.20838309831E+02  0.24118513292E+02  0.88442572131E+00  0.59301952128E+02  0.50000014772E+02 0.  0.
         12    1    1    2    0    0 -0.20838309831E+02 -0.24118513292E+02 -0.88442572131E+00  0.31886047872E+02  0.00000000000E+00 0. -1.
         11    1    3    3    0    0  0.10279197104E+02 -0.74489051306E+01  0.91116173255E+01  0.15625928814E+02  0.51100000000E-03 0. -1.
        -11    1    3    3    0    0  0.96204704329E+01  0.17100779873E+01 -0.96990497160E+01  0.13767693479E+02  0.51100000000E-03 0.  1.
         12    1    3    3    0    0  0.93864229502E+00  0.29857340435E+02  0.14718581119E+01  0.29908329835E+02  0.00000000000E+00 0. -1.
</event>
<event>
 7    1  0.5662448E-012  0.5930194E+02  0.7816164E-02  0.1266605E+00
        -11   -1    0    0    0    0  0.00000000000E+00  0.00000000000E+00  0.45593999997E+02  0.45594000000E+02  0.51100000000E-03 0.  1.
         11   -1    0    0    0    0 -0.00000000000E+00 -0.00000000000E+00 -0.45593999997E+02  0.45594000000E+02  0.51100000000E-03 0. -1.
    9900012    2    1    2    0    0 -0.13194948187E+02  0.23252296820E+02 -0.17376568578E+02  0.59301935636E+02  0.49999984696E+02 0.  0.
         12    1    1    2    0    0  0.13194948187E+02 -0.23252296820E+02  0.17376568578E+02  0.31886064364E+02  0.00000000000E+00 0. -1.
         11    1    3    3    0    0 -0.71839362353E+01  0.28259714790E+02 -0.93733724680E+01  0.30628100357E+02  0.51100000000E-03 0. -1.
        -11    1    3    3    0    0 -0.13543094276E+02  0.37802260101E+01 -0.95496334990E+01  0.16997088324E+02  0.51100000000E-03 0.  1.
        -12    1    3    3    0    0  0.75320823244E+01 -0.87876439799E+01  0.15464373891E+01  0.11676746955E+02  0.00000000000E+00 0.  1.
</event>
<event>
 7    1  0.5662448E-012  0.5930198E+02  0.7816164E-02  0.1266605E+00
        -11   -1    0    0    0    0  0.00000000000E+00  0.00000000000E+00  0.45593999997E+02  0.45594000000E+02  0.51100000000E-03 0. -1.
         11   -1    0    0    0    0 -0.00000000000E+00 -0.00000000000E+00 -0.45593999997E+02  0.45594000000E+02  0.51100000000E-03 0.  1.
    9900012    2    1    2    0    0  0.97716041847E+01 -0.12422757578E+02 -0.27693118878E+02  0.59301984455E+02  0.50000073729E+02 0.  0.
         12    1    1    2    0    0 -0.97716041847E+01  0.12422757578E+02  0.27693118878E+02  0.31886015545E+02  0.00000000000E+00 0. -1.
         11    1    3    3    0    0 -0.14255038174E+01 -0.16945867854E+02 -0.61038411638E+01  0.18067965455E+02  0.51100000000E-03 0. -1.
        -11    1    3    3    0    0  0.59838833012E+01 -0.10967414330E+01 -0.29557583165E+02  0.30177150693E+02  0.51100000000E-03 0.  1.
        -12    1    3    3    0    0  0.52132247009E+01  0.56198517088E+01  0.79683054508E+01  0.11056868307E+02  0.00000000000E+00 0.  1.
</event>
<event>
 7    1  0.5662448E-012  0.5930195E+02  0.7816164E-02  0.1266605E+00
        -11   -1    0    0    0    0  0.00000000000E+00  0.00000000000E+00  0.45593999997E+02  0.45594000000E+02  0.51100000000E-03 0. -1.
         11   -1    0    0    0    0 -0.00000000000E+00 -0.00000000000E+00 -0.45593999997E+02  0.45594000000E+02  0.51100000000E-03 0.  1.
    9900012    2    1    2    0    0  0.28458929317E+02  0.44203369563E+01 -0.13684672915E+02  0.59301948042E+02  0.50000007320E+02 0.  0.
         12    1    1    2    0    0 -0.28458929317E+02 -0.44203369563E+01  0.13684672915E+02  0.31886051958E+02  0.00000000000E+00 0. -1.
         11    1    3    3    0    0 -0.59040807772E+01  0.26073362315E+01 -0.18077740439E+02  0.19195339843E+02  0.51100000000E-03 0. -1.
        -11    1    3    3    0    0  0.84765871625E+01  0.58469051705E+01 -0.60041125478E+01  0.11920075409E+02  0.51100000000E-03 0.  1.
        -12    1    3    3    0    0  0.25886422932E+02 -0.40339044458E+01  0.10397180071E+02  0.28186532790E+02  0.00000000000E+00 0.  1.
</event>
<event>
 7    1  0.5662448E-012  0.5930196E+02  0.7816164E-02  0.1266605E+00
        -11   -1    0    0    0    0  0.00000000000E+00  0.00000000000E+00  0.45593999997E+02  0.45594000000E+02  0.51100000000E-03 0.  1.
         11   -1    0    0    0    0 -0.00000000000E+00 -0.00000000000E+00 -0.45593999997E+02  0.45594000000E+02  0.51100000000E-03 0. -1.
    9900012    2    1    2    0    0  0.13750181632E+02  0.23261784864E+02  0.16927543380E+02  0.59301955171E+02  0.50000020322E+02 0.  0.
         12    1    1    2    0    0 -0.13750181632E+02 -0.23261784864E+02 -0.16927543380E+02  0.31886044829E+02  0.00000000000E+00 0. -1.
         11    1    3    3    0    0 -0.37991206225E+01 -0.19383119338E+01 -0.42109610479E+01  0.59935435149E+01  0.51100000000E-03 0. -1.
        -11    1    3    3    0    0 -0.80443189928E+01  0.20169583617E+02  0.15345280169E+02  0.26589486551E+02  0.51100000000E-03 0.  1.
         12    1    3    3    0    0  0.25593621247E+02  0.50305131808E+01  0.57932242589E+01  0.26718925104E+02  0.00000000000E+00 0. -1.
</event>
<event>
 7    1  0.5662448E-012  0.5930189E+02  0.7816164E-02  0.1266605E+00
        -11   -1    0    0    0    0  0.00000000000E+00  0.00000000000E+00  0.45593999997E+02  0.45594000000E+02  0.51100000000E-03 0. -1.
         11   -1    0    0    0    0 -0.00000000000E+00 -0.00000000000E+00 -0.45593999997E+02  0.45594000000E+02  0.51100000000E-03 0.  1.
    9900012    2    1    2    0    0 -0.19891944658E+02 -0.24467707122E+02  0.47292399296E+01  0.59301892298E+02  0.49999905657E+02 0.  0.
         12    1    1    2    0    0  0.19891944658E+02  0.24467707122E+02 -0.47292399296E+01  0.31886107702E+02  0.00000000000E+00 0. -1.
         11    1    3    3    0    0 -0.38560954106E+01 -0.13352168566E+02 -0.84538376463E+00  0.13923525100E+02  0.51100000000E-03 0. -1.
        -11    1    3    3    0    0 -0.21014413946E+01 -0.16523072855E+02 -0.13291113128E+02  0.21309192405E+02  0.51100000000E-03 0.  1.
         12    1    3    3    0    0 -0.13934407852E+02  0.54075342994E+01  0.18865736822E+02  0.24069174793E+02  0.00000000000E+00 0. -1.
</event>
<event>
 7    1  0.5662448E-012  0.5930181E+02  0.7816164E-02  0.1266605E+00
        -11   -1    0    0    0    0  0.00000000000E+00  0.00000000000E+00  0.45593999997E+02  0.45594000000E+02  0.51100000000E-03 0. -1.
         11   -1    0    0    0    0 -0.00000000000E+00 -0.00000000000E+00 -0.45593999997E+02  0.45594000000E+02  0.51100000000E-03 0.  1.
    9900012    2    1    2    0    0  0.21184702926E+02  0.19417165052E+02 -0.13817057804E+02  0.59301811406E+02  0.49999758129E+02 0.  0.
         12    1    1    2    0    0 -0.21184702926E+02 -0.19417165052E+02  0.13817057804E+02  0.31886188594E+02  0.00000000000E+00 0. -1.
         11    1    3    3    0    0  0.25400761797E+02  0.15904768061E+02  0.42726655577E+01  0.30272363935E+02  0.51100000000E-03 0.  1.
        -11    1    3    3    0    0  0.68660291646E+01  0.16076092884E+01  0.74758461914E+00  0.70912373488E+01  0.51100000000E-03 0. -1.
         12    1    3    3    0    0 -0.11082088036E+02  0.19047877019E+01 -0.18837307981E+02  0.21938210122E+02  0.00000000000E+00 0. -1.
</event>
<event>
 7    1  0.5662448E-012  0.5930194E+02  0.7816164E-02  0.1266605E+00
        -11   -1    0    0    0    0  0.00000000000E+00  0.00000000000E+00  0.45593999997E+02  0.45594000000E+02  0.51100000000E-03 0. -1.
         11   -1    0    0    0    0 -0.00000000000E+00 -0.00000000000E+00 -0.45593999997E+02  0.45594000000E+02  0.51100000000E-03 0.  1.
    9900012    2    1    2    0    0 -0.37961769117E+01  0.11342620243E+02 -0.29557647276E+02  0.59301944967E+02  0.50000001712E+02 0.  0.
         12    1    1    2    0    0  0.37961769117E+01 -0.11342620243E+02  0.29557647276E+02  0.31886055033E+02  0.00000000000E+00 0. -1.
         11    1    3    3    0    0 -0.69124541704E+01  0.17206890366E+02 -0.11659736211E+02  0.21904532578E+02  0.51100000000E-03 0.  1.
        -11    1    3    3    0    0 -0.31347479565E+01  0.70510514862E+01  0.58280965971E+01  0.96700921411E+01  0.51100000000E-03 0. -1.
        -12    1    3    3    0    0  0.62510252152E+01 -0.12915321609E+02 -0.23726007662E+02  0.27727320247E+02  0.00000000000E+00 0.  1.
</event>
<event>
 7    1  0.5662448E-012  0.5930190E+02  0.7816164E-02  0.1266605E+00
        -11   -1    0    0    0    0  0.00000000000E+00  0.00000000000E+00  0.45593999997E+02  0.45594000000E+02  0.51100000000E-03 0.  1.
         11   -1    0    0    0    0 -0.00000000000E+00 -0.00000000000E+00 -0.45593999997E+02  0.45594000000E+02  0.51100000000E-03 0. -1.
    9900012    2    1    2    0    0 -0.17579991118E+02  0.24954865944E+01  0.26484705006E+02  0.59301903653E+02  0.49999926366E+02 0.  0.
         12    1    1    2    0    0  0.17579991118E+02 -0.24954865944E+01 -0.26484705006E+02  0.31886096347E+02  0.00000000000E+00 0. -1.
         11    1    3    3    0    0 -0.97455086565E+01  0.21306604210E+01  0.16587273962E+02  0.19355937346E+02  0.51100000000E-03 0. -1.
        -11    1    3    3    0    0 -0.10196501954E+01 -0.18494566227E+02  0.31518655090E+01  0.18788904249E+02  0.51100000000E-03 0.  1.
         12    1    3    3    0    0 -0.68148322656E+01  0.18859392400E+02  0.67455655345E+01  0.21157062057E+02  0.00000000000E+00 0. -1.
</event>
<event>
 7    1  0.5662448E-012  0.5930197E+02  0.7816164E-02  0.1266605E+00
        -11   -1    0    0    0    0  0.00000000000E+00  0.00000000000E+00  0.45593999997E+02  0.45594000000E+02  0.51100000000E-03 0. -1.
         11   -1    0    0    0    0 -0.00000000000E+00 -0.00000000000E+00 -0.45593999997E+02  0.45594000000E+02  0.51100000000E-03 0.  1.
    9900012    2    1    2    0    0 -0.10698604643E+02  0.10470428818E+02 -0.28153669843E+02  0.59301966277E+02  0.50000040578E+02 0.  0.
         12    1    1    2    0    0  0.10698604643E+02 -0.10470428818E+02  0.28153669843E+02  0.31886033723E+02  0.00000000000E+00 0. -1.
         11    1    3    3    0    0 -0.13775945780E+02 -0.13251077208E+01 -0.13081285203E+02  0.19043440220E+02  0.51100000000E-03 0. -1.
        -11    1    3    3    0    0 -0.34258564162E+01 -0.26772929476E+01  0.98198834679E+01  0.10739390173E+02  0.51100000000E-03 0.  1.
        -12    1    3    3    0    0  0.65031975526E+01  0.14472829486E+02 -0.24892268108E+02  0.29519135884E+02  0.00000000000E+00 0.  1.
</event>
<event>
 7    1  0.5662448E-012  0.5930194E+02  0.7816164E-02  0.1266605E+00
        -11   -1    0    0    0    0  0.00000000000E+00  0.00000000000E+00  0.45593999997E+02  0.45594000000E+02  0.51100000000E-03 0. -1.
         11   -1    0    0    0    0 -0.00000000000E+00 -0.00000000000E+00 -0.45593999997E+02  0.45594000000E+02  0.51100000000E-03 0.  1.
    9900012    2    1    2    0    0  0.18584289795E+02  0.23772319065E+02 -0.10306407892E+02  0.59301936829E+02  0.49999986871E+02 0.  0.
         12    1    1    2    0    0 -0.18584289795E+02 -0.23772319065E+02  0.10306407892E+02  0.31886063171E+02  0.00000000000E+00 0. -1.
         11    1    3    3    0    0 -0.34372858875E+01 -0.87076444222E+01  0.58699989457E+01  0.11049655811E+02  0.51100000000E-03 0. -1.
        -11    1    3    3    0    0  0.30996887080E+00  0.20552067459E+02 -0.91775523935E+01  0.22510242685E+02  0.51100000000E-03 0.  1.
        -12    1    3    3    0    0  0.21711606812E+02  0.11927896028E+02 -0.69988544443E+01  0.25742038333E+02  0.00000000000E+00 0.  1.
</event>
<event>
 7    1  0.5662448E-012  0.5930195E+02  0.7816164E-02  0.1266605E+00
        -11   -1    0    0    0    0  0.00000000000E+00  0.00000000000E+00  0.45593999997E+02  0.45594000000E+02  0.51100000000E-03 0. -1.
         11   -1    0    0    0    0 -0.00000000000E+00 -0.00000000000E+00 -0.45593999997E+02  0.45594000000E+02  0.51100000000E-03 0.  1.
    9900012    2    1    2    0    0  0.29151203291E+02 -0.12740877530E+02  0.21442442953E+01  0.59301946668E+02  0.50000004814E+02 0.  0.
         12    1    1    2    0    0 -0.29151203291E+02  0.12740877530E+02 -0.21442442953E+01  0.31886053332E+02  0.00000000000E+00 0. -1.
         11    1    3    3    0    0 -0.66187728253E+00  0.76437472242E+01  0.58357944457E+00  0.76945122258E+01  0.51100000000E-03 0. -1.
        -11    1    3    3    0    0 -0.65957072200E+01  0.79071831665E+00  0.63841024619E+01  0.92133247905E+01  0.51100000000E-03 0.  1.
        -12    1    3    3    0    0  0.36408787793E+02 -0.21175343071E+02 -0.48234376112E+01  0.42394109651E+02  0.00000000000E+00 0.  1.
</event>
<event>
 7    1  0.5662448E-012  0.5930201E+02  0.7816164E-02  0.1266605E+00
        -11   -1    0    0    0    0  0.00000000000E+00  0.00000000000E+00  0.45593999997E+02  0.45594000000E+02  0.51100000000E-03 0. -1.
         11   -1    0    0    0    0 -0.00000000000E+00 -0.00000000000E+00 -0.45593999997E+02  0.45594000000E+02  0.51100000000E-03 0.  1.
    9900012    2    1    2    0    0 -0.21468910531E+02  0.21518255442E+02 -0.96315421329E+01  0.59302014983E+02  0.50000129405E+02 0.  0.
         12    1    1    2    0    0  0.21468910531E+02 -0.21518255442E+02  0.96315421329E+01  0.31885985017E+02  0.00000000000E+00 0. -1.
         11    1    3    3    0    0  0.34585101786E+01  0.16765629641E+02 -0.96087939183E+01  0.19631009927E+02  0.51100000000E-03 0. -1.
        -11    1    3    3    0    0 -0.90454846593E+01  0.11945700949E+02 -0.11421389142E+02  0.18840612890E+02  0.51100000000E-03 0.  1.
         12    1    3    3    0    0 -0.15881936050E+02 -0.71930751476E+01  0.11398640928E+02  0.20830392166E+02  0.00000000000E+00 0. -1.
</event>
<event>
 7    1  0.5662448E-012  0.5930202E+02  0.7816164E-02  0.1266605E+00
        -11   -1    0    0    0    0  0.00000000000E+00  0.00000000000E+00  0.45593999997E+02  0.45594000000E+02  0.51100000000E-03 0.  1.
         11   -1    0    0    0    0 -0.00000000000E+00 -0.00000000000E+00 -0.45593999997E+02  0.45594000000E+02  0.51100000000E-03 0. -1.
    9900012    2    1    2    0    0  0.43770876469E+01 -0.16095346003E+02  0.27175300816E+02  0.59302015090E+02  0.50000129601E+02 0.  0.
         12    1    1    2    0    0 -0.43770876469E+01  0.16095346003E+02 -0.27175300816E+02  0.31885984910E+02  0.00000000000E+00 0. -1.
         11    1    3    3    0    0 -0.13834239782E+02 -0.74274129924E+01 -0.10023562736E+01  0.15733956034E+02  0.51100000000E-03 0. -1.
        -11    1    3    3    0    0 -0.67014487816E-01  0.66274664879E+01  0.14847902981E+02  0.16260013106E+02  0.51100000000E-03 0.  1.
         12    1    3    3    0    0  0.18278341917E+02 -0.15295399499E+02  0.13329754108E+02  0.27308045951E+02  0.00000000000E+00 0. -1.
</event>
<event>
 7    1  0.5662448E-012  0.5930195E+02  0.7816164E-02  0.1266605E+00
        -11   -1    0    0    0    0  0.00000000000E+00  0.00000000000E+00  0.45593999997E+02  0.45594000000E+02  0.51100000000E-03 0.  1.
         11   -1    0    0    0    0 -0.00000000000E+00 -0.00000000000E+00 -0.45593999997E+02  0.45594000000E+02  0.51100000000E-03 0. -1.
    9900012    2    1    2    0    0 -0.24855852516E+02  0.19041403488E+02  0.60275600435E+01  0.59301953974E+02  0.50000018140E+02 0.  0.
         12    1    1    2    0    0  0.24855852516E+02 -0.19041403488E+02 -0.60275600435E+01  0.31886046026E+02  0.00000000000E+00 0. -1.
         11    1    3    3    0    0  0.12575424297E+02  0.25924494699E+01  0.45424258188E+01  0.13619681460E+02  0.51100000000E-03 0. -1.
        -11    1    3    3    0    0 -0.14637527708E+01 -0.50032680756E+00  0.55053068013E+01  0.57185052527E+01  0.51100000000E-03 0.  1.
        -12    1    3    3    0    0 -0.35967524042E+02  0.16949280826E+02 -0.40201725765E+01  0.39963767261E+02  0.00000000000E+00 0.  1.
</event>
<event>
 7    1  0.5662448E-012  0.5930193E+02  0.7816164E-02  0.1266605E+00
        -11   -1    0    0    0    0  0.00000000000E+00  0.00000000000E+00  0.45593999997E+02  0.45594000000E+02  0.51100000000E-03 0.  1.
         11   -1    0    0    0    0 -0.00000000000E+00 -0.00000000000E+00 -0.45593999997E+02  0.45594000000E+02  0.51100000000E-03 0. -1.
    9900012    2    1    2    0    0 -0.21914595100E+02  0.21721269172E+02  0.80410558800E+01  0.59301927923E+02  0.49999970629E+02 0.  0.
         12    1    1    2    0    0  0.21914595100E+02 -0.21721269172E+02 -0.80410558800E+01  0.31886072077E+02  0.00000000000E+00 0. -1.
         11    1    3    3    0    0 -0.81905069825E+01 -0.69556051806E+01 -0.87937022255E+01  0.13885029606E+02  0.51100000000E-03 0. -1.
        -11    1    3    3    0    0  0.47075612270E+01  0.82747450746E+01 -0.45817015756E+01  0.10565250984E+02  0.51100000000E-03 0.  1.
        -12    1    3    3    0    0 -0.18431649345E+02  0.20402129278E+02  0.21416459681E+02  0.34851647334E+02  0.00000000000E+00 0.  1.
</event>
<event>
 7    1  0.5662448E-012  0.5930197E+02  0.7816164E-02  0.1266605E+00
        -11   -1    0    0    0    0  0.00000000000E+00  0.00000000000E+00  0.45593999997E+02  0.45594000000E+02  0.51100000000E-03 0.  1.
         11   -1    0    0    0    0 -0.00000000000E+00 -0.00000000000E+00 -0.45593999997E+02  0.45594000000E+02  0.51100000000E-03 0. -1.
    9900012    2    1    2    0    0  0.64349169235E+01  0.20982775542E+02  0.23130805696E+02  0.59301965480E+02  0.50000039124E+02 0.  0.
         12    1    1    2    0    0 -0.64349169235E+01 -0.20982775542E+02 -0.23130805696E+02  0.31886034520E+02  0.00000000000E+00 0. -1.
         11    1    3    3    0    0  0.58119308739E+01  0.16310714951E+02 -0.63491118925E+01  0.18442591596E+02  0.51100000000E-03 0. -1.
        -11    1    3    3    0    0 -0.46423157204E+01  0.14908928336E+02  0.11048484765E+02  0.19128414865E+02  0.51100000000E-03 0.  1.
        -12    1    3    3    0    0  0.52653017700E+01 -0.10236867745E+02  0.18431432823E+02  0.21730959019E+02  0.00000000000E+00 0.  1.
</event>
<event>
 7    1  0.5662448E-012  0.5930195E+02  0.7816164E-02  0.1266605E+00
        -11   -1    0    0    0    0  0.00000000000E+00  0.00000000000E+00  0.45593999997E+02  0.45594000000E+02  0.51100000000E-03 0.  1.
         11   -1    0    0    0    0 -0.00000000000E+00 -0.00000000000E+00 -0.45593999997E+02  0.45594000000E+02  0.51100000000E-03 0. -1.
    9900012    2    1    2    0    0 -0.23652794920E-01  0.48397635614E+01  0.31516599375E+02  0.59301954354E+02  0.50000018832E+02 0.  0.
         12    1    1    2    0    0  0.23652794920E-01 -0.48397635614E+01 -0.31516599375E+02  0.31886045646E+02  0.00000000000E+00 0. -1.
         11    1    3    3    0    0  0.63491861815E+01  0.16227259926E+02  0.99135293962E+01  0.20047797765E+02  0.51100000000E-03 0. -1.
        -11    1    3    3    0    0 -0.12113811181E+02  0.66517956673E+01  0.83735470335E+01  0.16158808654E+02  0.51100000000E-03 0.  1.
         12    1    3    3    0    0  0.57409722048E+01 -0.18039292032E+02  0.13229522946E+02  0.23095347935E+02  0.00000000000E+00 0. -1.
</event>
<event>
 7    1  0.5662448E-012  0.5930194E+02  0.7816164E-02  0.1266605E+00
        -11   -1    0    0    0    0  0.00000000000E+00  0.00000000000E+00  0.45593999997E+02  0.45594000000E+02  0.51100000000E-03 0.  1.
         11   -1    0    0    0    0 -0.00000000000E+00 -0.00000000000E+00 -0.45593999997E+02  0.45594000000E+02  0.51100000000E-03 0. -1.
    9900012    2    1    2    0    0 -0.31469308708E+02 -0.48803418766E+01  0.16080028439E+01  0.59301940341E+02  0.49999993277E+02 0.  0.
         12    1    1    2    0    0  0.31469308708E+02  0.48803418766E+01 -0.16080028439E+01  0.31886059659E+02  0.00000000000E+00 0. -1.
         11    1    3    3    0    0 -0.47711208143E+01  0.97541300650E-01 -0.10542279205E+02  0.11572068062E+02  0.51100000000E-03 0. -1.
        -11    1    3    3    0    0 -0.28208125154E+02 -0.60214558294E+01 -0.60216205343E+01  0.29465508126E+02  0.51100000000E-03 0.  1.
         12    1    3    3    0    0  0.15099372600E+01  0.10435726521E+01  0.18171902584E+02  0.18264364153E+02  0.00000000000E+00 0. -1.
</event>
<event>
 7    1  0.5662448E-012  0.5930194E+02  0.7816164E-02  0.1266605E+00
        -11   -1    0    0    0    0  0.00000000000E+00  0.00000000000E+00  0.45593999997E+02  0.45594000000E+02  0.51100000000E-03 0.  1.
         11   -1    0    0    0    0 -0.00000000000E+00 -0.00000000000E+00 -0.45593999997E+02  0.45594000000E+02  0.51100000000E-03 0. -1.
    9900012    2    1    2    0    0 -0.77416989793E+01 -0.18980006747E+02  0.24424297115E+02  0.59301939585E+02  0.49999991898E+02 0.  0.
         12    1    1    2    0    0  0.77416989793E+01  0.18980006747E+02 -0.24424297115E+02  0.31886060415E+02  0.00000000000E+00 0. -1.
         11    1    3    3    0    0 -0.60986235146E+01 -0.30503802675E+01  0.12379313410E+02  0.14133132325E+02  0.51100000000E-03 0. -1.
        -11    1    3    3    0    0 -0.19518164873E+02 -0.16507499545E+02  0.84791262174E+01  0.26932357544E+02  0.51100000000E-03 0.  1.
         12    1    3    3    0    0  0.17875089408E+02  0.57787306508E+00  0.35658574883E+01  0.18236449716E+02  0.00000000000E+00 0. -1.
</event>
<event>
 7    1  0.5662448E-012  0.5930195E+02  0.7816164E-02  0.1266605E+00
        -11   -1    0    0    0    0  0.00000000000E+00  0.00000000000E+00  0.45593999997E+02  0.45594000000E+02  0.51100000000E-03 0. -1.
         11   -1    0    0    0    0 -0.00000000000E+00 -0.00000000000E+00 -0.45593999997E+02  0.45594000000E+02  0.51100000000E-03 0.  1.
    9900012    2    1    2    0    0 -0.16900331395E+02 -0.12131414895E+02 -0.24164596126E+02  0.59301950785E+02  0.50000012325E+02 0.  0.
         12    1    1    2    0    0  0.16900331395E+02  0.12131414895E+02  0.24164596126E+02  0.31886049215E+02  0.00000000000E+00 0. -1.
         11    1    3    3    0    0 -0.18065554142E+01 -0.14900546343E+02 -0.24380125459E+02  0.28630061849E+02  0.51100000000E-03 0. -1.
        -11    1    3    3    0    0 -0.22569948063E+02 -0.24044641364E-01 -0.10345866255E+01  0.22593660691E+02  0.51100000000E-03 0.  1.
         12    1    3    3    0    0  0.74761720823E+01  0.27931760897E+01  0.12501159592E+01  0.80782282453E+01  0.00000000000E+00 0. -1.
</event>
<event>
 7    1  0.5662448E-012  0.5930197E+02  0.7816164E-02  0.1266605E+00
        -11   -1    0    0    0    0  0.00000000000E+00  0.00000000000E+00  0.45593999997E+02  0.45594000000E+02  0.51100000000E-03 0.  1.
         11   -1    0    0    0    0 -0.00000000000E+00 -0.00000000000E+00 -0.45593999997E+02  0.45594000000E+02  0.51100000000E-03 0. -1.
    9900012    2    1    2    0    0  0.19756802242E+02  0.23377702626E+02  0.89370387874E+01  0.59301970502E+02  0.50000048282E+02 0.  0.
         12    1    1    2    0    0 -0.19756802242E+02 -0.23377702626E+02 -0.89370387874E+01  0.31886029498E+02  0.00000000000E+00 0. -1.
         11    1    3    3    0    0 -0.17704345493E+00  0.13065471160E+02 -0.13998274219E+02  0.19149139991E+02  0.51100000000E-03 0. -1.
        -11    1    3    3    0    0  0.12800832620E+02 -0.65120031047E+01  0.73401935926E+01  0.16129040345E+02  0.51100000000E-03 0.  1.
        -12    1    3    3    0    0  0.71330130770E+01  0.16824234571E+02  0.15595119414E+02  0.24023790167E+02  0.00000000000E+00 0.  1.
</event>
<event>
 7    1  0.5662448E-012  0.5930193E+02  0.7816164E-02  0.1266605E+00
        -11   -1    0    0    0    0  0.00000000000E+00  0.00000000000E+00  0.45593999997E+02  0.45594000000E+02  0.51100000000E-03 0.  1.
         11   -1    0    0    0    0 -0.00000000000E+00 -0.00000000000E+00 -0.45593999997E+02  0.45594000000E+02  0.51100000000E-03 0. -1.
    9900012    2    1    2    0    0 -0.23475325163E+02 -0.16104728348E+02  0.14362043027E+02  0.59301930211E+02  0.49999974801E+02 0.  0.
         12    1    1    2    0    0  0.23475325163E+02  0.16104728348E+02 -0.14362043027E+02  0.31886069789E+02  0.00000000000E+00 0. -1.
         11    1    3    3    0    0 -0.11816161135E+02  0.81662352998E+01  0.47836339037E+01  0.15139095631E+02  0.51100000000E-03 0. -1.
        -11    1    3    3    0    0 -0.20854827460E+02 -0.49346391376E+01  0.23267193197E+01  0.21556625776E+02  0.51100000000E-03 0.  1.
        -12    1    3    3    0    0  0.91956634309E+01 -0.19336324510E+02  0.72516898031E+01  0.22606208804E+02  0.00000000000E+00 0.  1.
</event>
<event>
 7    1  0.5662448E-012  0.5930195E+02  0.7816164E-02  0.1266605E+00
        -11   -1    0    0    0    0  0.00000000000E+00  0.00000000000E+00  0.45593999997E+02  0.45594000000E+02  0.51100000000E-03 0. -1.
         11   -1    0    0    0    0 -0.00000000000E+00 -0.00000000000E+00 -0.45593999997E+02  0.45594000000E+02  0.51100000000E-03 0.  1.
    9900012    2    1    2    0    0 -0.29596270014E+02 -0.44516549059E+01  0.10998356129E+02  0.59301948697E+02  0.50000008515E+02 0.  0.
         12    1    1    2    0    0  0.29596270014E+02  0.44516549059E+01 -0.10998356129E+02  0.31886051303E+02  0.00000000000E+00 0. -1.
         11    1    3    3    0    0 -0.62478255992E+01  0.54117112808E+01 -0.72142631410E+01  0.10971214000E+02  0.51100000000E-03 0.  1.
        -11    1    3    3    0    0  0.24054393111E+01  0.11221817362E+02  0.43038368579E+01  0.12257174844E+02  0.51100000000E-03 0. -1.
        -12    1    3    3    0    0 -0.25753883726E+02 -0.21085183549E+02  0.13908782412E+02  0.36073559853E+02  0.00000000000E+00 0.  1.
</event>
<event>
 7    1  0.5662448E-012  0.5930195E+02  0.7816164E-02  0.1266605E+00
        -11   -1    0    0    0    0  0.00000000000E+00  0.00000000000E+00  0.45593999997E+02  0.45594000000E+02  0.51100000000E-03 0. -1.
         11   -1    0    0    0    0 -0.00000000000E+00 -0.00000000000E+00 -0.45593999997E+02  0.45594000000E+02  0.51100000000E-03 0.  1.
    9900012    2    1    2    0    0 -0.69062214559E+01 -0.23718563340E+02  0.20160700222E+02  0.59301953284E+02  0.50000016882E+02 0.  0.
         12    1    1    2    0    0  0.69062214559E+01  0.23718563340E+02 -0.20160700222E+02  0.31886046716E+02  0.00000000000E+00 0. -1.
         11    1    3    3    0    0  0.70639642933E+01  0.10634089109E+02  0.13147581169E+02  0.18326001571E+02  0.51100000000E-03 0. -1.
        -11    1    3    3    0    0 -0.92882275600E+01 -0.70142601333E+01 -0.20043178267E+01  0.11810516781E+02  0.51100000000E-03 0.  1.
        -12    1    3    3    0    0 -0.46819581892E+01 -0.27338392316E+02  0.90174368804E+01  0.29165434933E+02  0.00000000000E+00 0.  1.
</event>
<event>
 7    1  0.5662448E-012  0.5930195E+02  0.7816164E-02  0.1266605E+00
        -11   -1    0    0    0    0  0.00000000000E+00  0.00000000000E+00  0.45593999997E+02  0.45594000000E+02  0.51100000000E-03 0. -1.
         11   -1    0    0    0    0 -0.00000000000E+00 -0.00000000000E+00 -0.45593999997E+02  0.45594000000E+02  0.51100000000E-03 0.  1.
    9900012    2    1    2    0    0 -0.17287130682E+02  0.25673203621E+02 -0.76656199790E+01  0.59301952878E+02  0.50000016141E+02 0.  0.
         12    1    1    2    0    0  0.17287130682E+02 -0.25673203621E+02  0.76656199790E+01  0.31886047122E+02  0.00000000000E+00 0. -1.
         11    1    3    3    0    0 -0.44137694152E+01  0.85074952364E+01 -0.55429055329E+01  0.11071704370E+02  0.51100000000E-03 0. -1.
        -11    1    3    3    0    0  0.14020931506E+01  0.11793966495E+01 -0.20144610529E+02  0.20227757545E+02  0.51100000000E-03 0.  1.
         12    1    3    3    0    0 -0.14275454417E+02  0.15986311735E+02  0.18021896083E+02  0.28002490963E+02  0.00000000000E+00 0. -1.
</event>
<event>
 7    1  0.5662448E-012  0.5930194E+02  0.7816164E-02  0.1266605E+00
        -11   -1    0    0    0    0  0.00000000000E+00  0.00000000000E+00  0.45593999997E+02  0.45594000000E+02  0.51100000000E-03 0.  1.
         11   -1    0    0    0    0 -0.00000000000E+00 -0.00000000000E+00 -0.45593999997E+02  0.45594000000E+02  0.51100000000E-03 0. -1.
    9900012    2    1    2    0    0 -0.49354063105E+01  0.18223690769E+02  0.25695515561E+02  0.59301942536E+02  0.49999997279E+02 0.  0.
         12    1    1    2    0    0  0.49354063105E+01 -0.18223690769E+02 -0.25695515561E+02  0.31886057464E+02  0.00000000000E+00 0. -1.
         11    1    3    3    0    0  0.18324818954E+02  0.61266937811E+01  0.13188954189E+02  0.23394099240E+02  0.51100000000E-03 0.  1.
        -11    1    3    3    0    0 -0.68279658663E+01  0.15137345809E+02  0.87877833146E+01  0.18787908129E+02  0.51100000000E-03 0. -1.
        -12    1    3    3    0    0 -0.16432259398E+02 -0.30403488219E+01  0.37187780568E+01  0.17119935167E+02  0.00000000000E+00 0.  1.
</event>
<event>
 7    1  0.5662448E-012  0.5930195E+02  0.7816164E-02  0.1266605E+00
        -11   -1    0    0    0    0  0.00000000000E+00  0.00000000000E+00  0.45593999997E+02  0.45594000000E+02  0.51100000000E-03 0. -1.
         11   -1    0    0    0    0 -0.00000000000E+00 -0.00000000000E+00 -0.45593999997E+02  0.45594000000E+02  0.51100000000E-03 0.  1.
    9900012    2    1    2    0    0  0.22928749296E+01 -0.19148912408E+02 -0.25392565205E+02  0.59301945219E+02  0.50000002172E+02 0.  0.
         12    1    1    2    0    0 -0.22928749296E+01  0.19148912408E+02  0.25392565205E+02  0.31886054781E+02  0.00000000000E+00 0. -1.
         11    1    3    3    0    0  0.10461082958E+01 -0.14520288388E+01  0.50217065267E+01  0.53310662177E+01  0.51100000000E-03 0. -1.
        -11    1    3    3    0    0 -0.17490941566E+02 -0.11223068253E+02 -0.43641456398E+01  0.21235255244E+02  0.51100000000E-03 0.  1.
        -12    1    3    3    0    0  0.18737708200E+02 -0.64738153165E+01 -0.26050126092E+02  0.32735623756E+02  0.00000000000E+00 0.  1.
</event>
<event>
 7    1  0.5662448E-012  0.5930195E+02  0.7816164E-02  0.1266605E+00
        -11   -1    0    0    0    0  0.00000000000E+00  0.00000000000E+00  0.45593999997E+02  0.45594000000E+02  0.51100000000E-03 0.  1.
         11   -1    0    0    0    0 -0.00000000000E+00 -0.00000000000E+00 -0.45593999997E+02  0.45594000000E+02  0.51100000000E-03 0. -1.
    9900012    2    1    2    0    0  0.10925189519E+02  0.14733154680E+02  0.26082461080E+02  0.59301946798E+02  0.50000005052E+02 0.  0.
         12    1    1    2    0    0 -0.10925189519E+02 -0.14733154680E+02 -0.26082461080E+02  0.31886053202E+02  0.00000000000E+00 0. -1.
         11    1    3    3    0    0 -0.96031546216E+01  0.12755105902E+02  0.68840606165E+01  0.17386879998E+02  0.51100000000E-03 0. -1.
        -11    1    3    3    0    0  0.53207417648E+01  0.78648997814E+01 -0.64801748262E+01  0.11496069221E+02  0.51100000000E-03 0.  1.
        -12    1    3    3    0    0  0.15207602376E+02 -0.58868510030E+01  0.25678575290E+02  0.30418997578E+02  0.00000000000E+00 0.  1.
</event>
<event>
 7    1  0.5662448E-012  0.5930196E+02  0.7816164E-02  0.1266605E+00
        -11   -1    0    0    0    0  0.00000000000E+00  0.00000000000E+00  0.45593999997E+02  0.45594000000E+02  0.51100000000E-03 0. -1.
         11   -1    0    0    0    0 -0.00000000000E+00 -0.00000000000E+00 -0.45593999997E+02  0.45594000000E+02  0.51100000000E-03 0.  1.
    9900012    2    1    2    0    0  0.31885443420E+02 -0.91447201469E-01 -0.17287849533E+00  0.59301956789E+02  0.50000023273E+02 0.  0.
         12    1    1    2    0    0 -0.31885443420E+02  0.91447201469E-01  0.17287849533E+00  0.31886043211E+02  0.00000000000E+00 0. -1.
         11    1    3    3    0    0  0.40199676723E+01 -0.10956902793E+02 -0.10584030430E+02  0.15755492988E+02  0.51100000000E-03 0. -1.
        -11    1    3    3    0    0  0.21634177099E+02  0.39653532304E+00 -0.66005741300E+01  0.22622166963E+02  0.51100000000E-03 0.  1.
         12    1    3    3    0    0  0.62312986494E+01  0.10468920268E+02  0.17011726065E+02  0.20924296837E+02  0.00000000000E+00 0. -1.
</event>
<event>
 7    1  0.5662448E-012  0.5930197E+02  0.7816164E-02  0.1266605E+00
        -11   -1    0    0    0    0  0.00000000000E+00  0.00000000000E+00  0.45593999997E+02  0.45594000000E+02  0.51100000000E-03 0.  1.
         11   -1    0    0    0    0 -0.00000000000E+00 -0.00000000000E+00 -0.45593999997E+02  0.45594000000E+02  0.51100000000E-03 0. -1.
    9900012    2    1    2    0    0 -0.22120092417E+01 -0.10030786857E+02  0.30186244434E+02  0.59301968216E+02  0.50000044114E+02 0.  0.
         12    1    1    2    0    0  0.22120092417E+01  0.10030786857E+02 -0.30186244434E+02  0.31886031784E+02  0.00000000000E+00 0. -1.
         11    1    3    3    0    0  0.14337365978E+02 -0.18294325663E+01  0.11902095311E+02  0.18723428098E+02  0.51100000000E-03 0. -1.
        -11    1    3    3    0    0 -0.18389129006E+00  0.78411377376E+01  0.15656654051E+02  0.17511369831E+02  0.51100000000E-03 0.  1.
         12    1    3    3    0    0 -0.16365483929E+02 -0.16042492028E+02  0.26274950723E+01  0.23067170287E+02  0.00000000000E+00 0. -1.
</event>
<event>
 7    1  0.5662448E-012  0.5930196E+02  0.7816164E-02  0.1266605E+00
        -11   -1    0    0    0    0  0.00000000000E+00  0.00000000000E+00  0.45593999997E+02  0.45594000000E+02  0.51100000000E-03 0.  1.
         11   -1    0    0    0    0 -0.00000000000E+00 -0.00000000000E+00 -0.45593999997E+02  0.45594000000E+02  0.51100000000E-03 0. -1.
    9900012    2    1    2    0    0 -0.37230123297E+01 -0.16825300272E+02  0.26828496305E+02  0.59301956595E+02  0.50000022920E+02 0.  0.
         12    1    1    2    0    0  0.37230123297E+01  0.16825300272E+02 -0.26828496305E+02  0.31886043405E+02  0.00000000000E+00 0. -1.
         11    1    3    3    0    0 -0.76576761840E+01  0.49177021094E+01 -0.70636596947E+01  0.11520377039E+02  0.51100000000E-03 0.  1.
        -11    1    3    3    0    0  0.57185595866E+01 -0.99310248696E+01 -0.40150691704E+00  0.11466838569E+02  0.51100000000E-03 0. -1.
        -12    1    3    3    0    0 -0.17838957323E+01 -0.11811977512E+02  0.34293662916E+02  0.36314740987E+02  0.00000000000E+00 0.  1.
</event>
<event>
 7    1  0.5662448E-012  0.5930193E+02  0.7816164E-02  0.1266605E+00
        -11   -1    0    0    0    0  0.00000000000E+00  0.00000000000E+00  0.45593999997E+02  0.45594000000E+02  0.51100000000E-03 0.  1.
         11   -1    0    0    0    0 -0.00000000000E+00 -0.00000000000E+00 -0.45593999997E+02  0.45594000000E+02  0.51100000000E-03 0. -1.
    9900012    2    1    2    0    0  0.21690194626E+02 -0.61994207929E+01  0.22534951948E+02  0.59301930622E+02  0.49999975551E+02 0.  0.
         12    1    1    2    0    0 -0.21690194626E+02  0.61994207929E+01 -0.22534951948E+02  0.31886069378E+02  0.00000000000E+00 0. -1.
         11    1    3    3    0    0  0.12155408780E+02 -0.14439748222E+01 -0.16370003468E+00  0.12241969771E+02  0.51100000000E-03 0. -1.
        -11    1    3    3    0    0  0.21336916148E+02  0.20238219935E+01  0.10126231152E+01  0.21456589944E+02  0.51100000000E-03 0.  1.
        -12    1    3    3    0    0 -0.11802130303E+02 -0.67792679642E+01  0.21686028867E+02  0.25603370908E+02  0.00000000000E+00 0.  1.
</event>
<event>
 7    1  0.5662448E-012  0.5930194E+02  0.7816164E-02  0.1266605E+00
        -11   -1    0    0    0    0  0.00000000000E+00  0.00000000000E+00  0.45593999997E+02  0.45594000000E+02  0.51100000000E-03 0. -1.
         11   -1    0    0    0    0 -0.00000000000E+00 -0.00000000000E+00 -0.45593999997E+02  0.45594000000E+02  0.51100000000E-03 0.  1.
    9900012    2    1    2    0    0 -0.20966376591E+02 -0.22834444957E+02  0.74645814696E+01  0.59301940344E+02  0.49999993281E+02 0.  0.
         12    1    1    2    0    0  0.20966376591E+02  0.22834444957E+02 -0.74645814696E+01  0.31886059656E+02  0.00000000000E+00 0. -1.
         11    1    3    3    0    0 -0.43473569855E+01 -0.10870101870E+02  0.23530411098E+02  0.26281911538E+02  0.51100000000E-03 0. -1.
        -11    1    3    3    0    0  0.33482084156E+01 -0.77234499841E+01 -0.41723344342E+01  0.93952410370E+01  0.51100000000E-03 0.  1.
         12    1    3    3    0    0 -0.19967228021E+02 -0.42408931034E+01 -0.11893495194E+02  0.23624787768E+02  0.00000000000E+00 0. -1.
</event>
<event>
 7    1  0.5662448E-012  0.5930192E+02  0.7816164E-02  0.1266605E+00
        -11   -1    0    0    0    0  0.00000000000E+00  0.00000000000E+00  0.45593999997E+02  0.45594000000E+02  0.51100000000E-03 0.  1.
         11   -1    0    0    0    0 -0.00000000000E+00 -0.00000000000E+00 -0.45593999997E+02  0.45594000000E+02  0.51100000000E-03 0. -1.
    9900012    2    1    2    0    0 -0.28389980051E+02  0.11848013475E+01 -0.14468143493E+02  0.59301923138E+02  0.49999961903E+02 0.  0.
         12    1    1    2    0    0  0.28389980051E+02 -0.11848013475E+01  0.14468143493E+02  0.31886076862E+02  0.00000000000E+00 0. -1.
         11    1    3    3    0    0  0.42729342558E+01  0.22662471464E+00  0.92387716467E+01  0.10181563127E+02  0.51100000000E-03 0. -1.
        -11    1    3    3    0    0  0.51235313902E+01 -0.27234766092E+00 -0.18724597878E+01  0.54617628173E+01  0.51100000000E-03 0.  1.
        -12    1    3    3    0    0 -0.37786445696E+02  0.12305242938E+01 -0.21834455352E+02  0.43658597194E+02  0.00000000000E+00 0.  1.
</event>
<event>
 7    1  0.5662448E-012  0.5930205E+02  0.7816164E-02  0.1266604E+00
        -11   -1    0    0    0    0  0.00000000000E+00  0.00000000000E+00  0.45593999997E+02  0.45594000000E+02  0.51100000000E-03 0. -1.
         11   -1    0    0    0    0 -0.00000000000E+00 -0.00000000000E+00 -0.45593999997E+02  0.45594000000E+02  0.51100000000E-03 0.  1.
    9900012    2    1    2    0    0 -0.30231353490E+02 -0.60222441927E+01 -0.81554566498E+01  0.59302052749E+02  0.50000198281E+02 0.  0.
         12    1    1    2    0    0  0.30231353490E+02  0.60222441927E+01  0.81554566498E+01  0.31885947251E+02  0.00000000000E+00 0. -1.
         11    1    3    3    0    0 -0.28223435959E+02 -0.90480632612E+01 -0.52950272499E+00  0.29643045719E+02  0.51100000000E-03 0. -1.
        -11    1    3    3    0    0 -0.94521931127E+01  0.91711971897E+00 -0.15780724696E+02  0.18417826566E+02  0.51100000000E-03 0.  1.
        -12    1    3    3    0    0  0.74442755821E+01  0.21086993495E+01  0.81547707711E+01  0.11241180464E+02  0.00000000000E+00 0.  1.
</event>
<event>
 7    1  0.5662448E-012  0.5930173E+02  0.7816164E-02  0.1266606E+00
        -11   -1    0    0    0    0  0.00000000000E+00  0.00000000000E+00  0.45593999997E+02  0.45594000000E+02  0.51100000000E-03 0. -1.
         11   -1    0    0    0    0 -0.00000000000E+00 -0.00000000000E+00 -0.45593999997E+02  0.45594000000E+02  0.51100000000E-03 0.  1.
    9900012    2    1    2    0    0  0.35227563920E+01  0.70452087923E+01 -0.30898048291E+02  0.59301730733E+02  0.49999611001E+02 0.  0.
         12    1    1    2    0    0 -0.35227563920E+01 -0.70452087923E+01  0.30898048291E+02  0.31886269267E+02  0.00000000000E+00 0. -1.
         11    1    3    3    0    0  0.66021804585E+01  0.18325179472E+01 -0.92538103074E+01  0.11514335165E+02  0.51100000000E-03 0. -1.
        -11    1    3    3    0    0 -0.11349412750E+02 -0.14266963214E+02 -0.19212988141E+02  0.26485738100E+02  0.51100000000E-03 0.  1.
         12    1    3    3    0    0  0.82699886839E+01  0.19479654059E+02 -0.24312498428E+01  0.21301657468E+02  0.00000000000E+00 0. -1.
</event>
<event>
 7    1  0.5662448E-012  0.5930196E+02  0.7816164E-02  0.1266605E+00
        -11   -1    0    0    0    0  0.00000000000E+00  0.00000000000E+00  0.45593999997E+02  0.45594000000E+02  0.51100000000E-03 0.  1.
         11   -1    0    0    0    0 -0.00000000000E+00 -0.00000000000E+00 -0.45593999997E+02  0.45594000000E+02  0.51100000000E-03 0. -1.
    9900012    2    1    2    0    0 -0.21335815862E+02 -0.94643044686E+00  0.23677130892E+02  0.59301963928E+02  0.50000036293E+02 0.  0.
         12    1    1    2    0    0  0.21335815862E+02  0.94643044686E+00 -0.23677130892E+02  0.31886036072E+02  0.00000000000E+00 0. -1.
         11    1    3    3    0    0 -0.13104766049E+01 -0.28077401636E+01  0.17719361202E+02  0.17988232693E+02  0.51100000000E-03 0.  1.
        -11    1    3    3    0    0  0.93695665085E+01  0.45149405128E+01 -0.23285804386E+01  0.10658130770E+02  0.51100000000E-03 0. -1.
         12    1    3    3    0    0 -0.29394905766E+02 -0.26536307961E+01  0.82863501287E+01  0.30655600465E+02  0.00000000000E+00 0. -1.
</event>
<event>
 7    1  0.5662448E-012  0.5930176E+02  0.7816164E-02  0.1266605E+00
        -11   -1    0    0    0    0  0.00000000000E+00  0.00000000000E+00  0.45593999997E+02  0.45594000000E+02  0.51100000000E-03 0.  1.
         11   -1    0    0    0    0 -0.00000000000E+00 -0.00000000000E+00 -0.45593999997E+02  0.45594000000E+02  0.51100000000E-03 0. -1.
    9900012    2    1    2    0    0  0.70375668932E+01 -0.17716304699E+02  0.25560466615E+02  0.59301760749E+02  0.49999665743E+02 0.  0.
         12    1    1    2    0    0 -0.70375668932E+01  0.17716304699E+02 -0.25560466615E+02  0.31886239251E+02  0.00000000000E+00 0. -1.
         11    1    3    3    0    0  0.27290520480E+01 -0.80719842029E+01  0.52359329975E+01  0.10000982385E+02  0.51100000000E-03 0. -1.
        -11    1    3    3    0    0  0.16912429299E+02 -0.63333022649E+01  0.28628277911E+02  0.33848475280E+02  0.51100000000E-03 0.  1.
         12    1    3    3    0    0 -0.12603914454E+02 -0.33110182313E+01 -0.83037442932E+01  0.15452303083E+02  0.00000000000E+00 0. -1.
</event>
<event>
 7    1  0.5662448E-012  0.5930193E+02  0.7816164E-02  0.1266605E+00
        -11   -1    0    0    0    0  0.00000000000E+00  0.00000000000E+00  0.45593999997E+02  0.45594000000E+02  0.51100000000E-03 0. -1.
         11   -1    0    0    0    0 -0.00000000000E+00 -0.00000000000E+00 -0.45593999997E+02  0.45594000000E+02  0.51100000000E-03 0.  1.
    9900012    2    1    2    0    0  0.13764314794E+02  0.13386337461E+02 -0.25457235771E+02  0.59301933365E+02  0.49999980554E+02 0.  0.
         12    1    1    2    0    0 -0.13764314794E+02 -0.13386337461E+02  0.25457235771E+02  0.31886066635E+02  0.00000000000E+00 0. -1.
         11    1    3    3    0    0  0.23946681374E+02 -0.49450941020E+01 -0.51958808611E+01  0.24997893565E+02  0.51100000000E-03 0. -1.
        -11    1    3    3    0    0  0.27128541682E+01  0.12696586352E+02 -0.61185969948E+01  0.14352704002E+02  0.51100000000E-03 0.  1.
        -12    1    3    3    0    0 -0.12895220748E+02  0.56348452104E+01 -0.14142757915E+02  0.19951335798E+02  0.00000000000E+00 0.  1.
</event>
<event>
 7    1  0.5662448E-012  0.5930193E+02  0.7816164E-02  0.1266605E+00
        -11   -1    0    0    0    0  0.00000000000E+00  0.00000000000E+00  0.45593999997E+02  0.45594000000E+02  0.51100000000E-03 0. -1.
         11   -1    0    0    0    0 -0.00000000000E+00 -0.00000000000E+00 -0.45593999997E+02  0.45594000000E+02  0.51100000000E-03 0.  1.
    9900012    2    1    2    0    0  0.16405926393E+02 -0.25669827287E+02  0.94141839451E+01  0.59301932304E+02  0.49999978620E+02 0.  0.
         12    1    1    2    0    0 -0.16405926393E+02  0.25669827287E+02 -0.94141839451E+01  0.31886067696E+02  0.00000000000E+00 0. -1.
         11    1    3    3    0    0  0.18540429113E+02 -0.25791902951E+02 -0.97448527408E+01  0.33225471023E+02  0.51100000000E-03 0. -1.
        -11    1    3    3    0    0  0.70517084252E+01 -0.25613705360E+01  0.51094343166E+01  0.90770881914E+01  0.51100000000E-03 0.  1.
         12    1    3    3    0    0 -0.91862111451E+01  0.26834462002E+01  0.14049602369E+02  0.16999373090E+02  0.00000000000E+00 0. -1.
</event>
<event>
 7    1  0.5662448E-012  0.5930195E+02  0.7816164E-02  0.1266605E+00
        -11   -1    0    0    0    0  0.00000000000E+00  0.00000000000E+00  0.45593999997E+02  0.45594000000E+02  0.51100000000E-03 0. -1.
         11   -1    0    0    0    0 -0.00000000000E+00 -0.00000000000E+00 -0.45593999997E+02  0.45594000000E+02  0.51100000000E-03 0.  1.
    9900012    2    1    2    0    0 -0.14980544170E+02  0.28121875527E+02  0.12097395960E+01  0.59301952006E+02  0.50000014550E+02 0.  0.
         12    1    1    2    0    0  0.14980544170E+02 -0.28121875527E+02 -0.12097395960E+01  0.31886047994E+02  0.00000000000E+00 0. -1.
         11    1    3    3    0    0 -0.12444854030E+02  0.40757137043E+01 -0.74626363933E+01  0.15072384556E+02  0.51100000000E-03 0. -1.
        -11    1    3    3    0    0  0.45602508323E+01  0.91783398080E+01 -0.13285140559E+02  0.16778938263E+02  0.51100000000E-03 0.  1.
         12    1    3    3    0    0 -0.70959409730E+01  0.14867822015E+02  0.21957516549E+02  0.27450629187E+02  0.00000000000E+00 0. -1.
</event>
<event>
 7    1  0.5662448E-012  0.5930194E+02  0.7816164E-02  0.1266605E+00
        -11   -1    0    0    0    0  0.00000000000E+00  0.00000000000E+00  0.45593999997E+02  0.45594000000E+02  0.51100000000E-03 0.  1.
         11   -1    0    0    0    0 -0.00000000000E+00 -0.00000000000E+00 -0.45593999997E+02  0.45594000000E+02  0.51100000000E-03 0. -1.
    9900012    2    1    2    0    0 -0.64061919966E+01 -0.22590888571E+02  0.21571581924E+02  0.59301942090E+02  0.49999996466E+02 0.  0.
         12    1    1    2    0    0  0.64061919966E+01  0.22590888571E+02 -0.21571581924E+02  0.31886057910E+02  0.00000000000E+00 0. -1.
         11    1    3    3    0    0 -0.36250832764E+01  0.76484868382E+01  0.63004388080E+01  0.10551592729E+02  0.51100000000E-03 0. -1.
        -11    1    3    3    0    0 -0.10582321957E+02 -0.17996473972E+02  0.24001028393E+02  0.31810501059E+02  0.51100000000E-03 0.  1.
        -12    1    3    3    0    0  0.78012132363E+01 -0.12242901437E+02 -0.87298852772E+01  0.16939848303E+02  0.00000000000E+00 0.  1.
</event>
<event>
 7    1  0.5662448E-012  0.5930199E+02  0.7816164E-02  0.1266605E+00
        -11   -1    0    0    0    0  0.00000000000E+00  0.00000000000E+00  0.45593999997E+02  0.45594000000E+02  0.51100000000E-03 0.  1.
         11   -1    0    0    0    0 -0.00000000000E+00 -0.00000000000E+00 -0.45593999997E+02  0.45594000000E+02  0.51100000000E-03 0. -1.
    9900012    2    1    2    0    0  0.87090826810E+01  0.14892637352E+01  0.30637422283E+02  0.59301989403E+02  0.50000082754E+02 0.  0.
         12    1    1    2    0    0 -0.87090826810E+01 -0.14892637352E+01 -0.30637422283E+02  0.31886010597E+02  0.00000000000E+00 0. -1.
         11    1    3    3    0    0  0.57537599117E+01 -0.32732296295E+01  0.97222781417E+01  0.11761907917E+02  0.51100000000E-03 0.  1.
        -11    1    3    3    0    0  0.10505300267E+02  0.78157494943E+01 -0.94203546156E+01  0.16130417081E+02  0.51100000000E-03 0. -1.
         12    1    3    3    0    0 -0.75499774979E+01 -0.30532561296E+01  0.30335498757E+02  0.31409664405E+02  0.00000000000E+00 0. -1.
</event>
<event>
 7    1  0.5662448E-012  0.5930192E+02  0.7816164E-02  0.1266605E+00
        -11   -1    0    0    0    0  0.00000000000E+00  0.00000000000E+00  0.45593999997E+02  0.45594000000E+02  0.51100000000E-03 0.  1.
         11   -1    0    0    0    0 -0.00000000000E+00 -0.00000000000E+00 -0.45593999997E+02  0.45594000000E+02  0.51100000000E-03 0. -1.
    9900012    2    1    2    0    0  0.27846417457E+00  0.20474631031E+02  0.24442464143E+02  0.59301919784E+02  0.49999955786E+02 0.  0.
         12    1    1    2    0    0 -0.27846417457E+00 -0.20474631031E+02 -0.24442464143E+02  0.31886080216E+02  0.00000000000E+00 0. -1.
         11    1    3    3    0    0 -0.20453178659E+01  0.30191850505E+01 -0.67486176128E+01  0.76708958725E+01  0.51100000000E-03 0. -1.
        -11    1    3    3    0    0 -0.10120248079E+01 -0.96446042979E+01 -0.60941289641E+00  0.97166851659E+01  0.51100000000E-03 0.  1.
        -12    1    3    3    0    0  0.33358068484E+01  0.27100050278E+02  0.31800494652E+02  0.41914338746E+02  0.00000000000E+00 0.  1.
</event>
<event>
 7    1  0.5739531E-012  0.5930195E+02  0.7816164E-02  0.1266605E+00
        -11   -1    0    0    0    0  0.00000000000E+00  0.00000000000E+00  0.45593999997E+02  0.45594000000E+02  0.51100000000E-03 0. -1.
         11   -1    0    0    0    0 -0.00000000000E+00 -0.00000000000E+00 -0.45593999997E+02  0.45594000000E+02  0.51100000000E-03 0.  1.
    9900012    2    1    2    0    0  0.30152887157E+02  0.11320476838E+01 -0.10307365621E+02  0.59301954120E+02  0.50000018405E+02 0.  0.
         12    1    1    2    0    0 -0.30152887157E+02 -0.11320476838E+01  0.10307365621E+02  0.31886045880E+02  0.00000000000E+00 0. -1.
         11    1    3    3    0    0 -0.41959680639E+01  0.36718321840E+01  0.87446087594E+01  0.10370953775E+02  0.51100000000E-03 0. -1.
        -11    1    3    3    0    0  0.24187861128E+02  0.58690223221E+01  0.10233526003E+01  0.24910746672E+02  0.51100000000E-03 0.  1.
        -12    1    3    3    0    0  0.10160994093E+02 -0.84088068224E+01 -0.20075326980E+02  0.24020253673E+02  0.00000000000E+00 0.  1.
</event>
<event>
 7    1  0.5662448E-012  0.5930200E+02  0.7816164E-02  0.1266605E+00
        -11   -1    0    0    0    0  0.00000000000E+00  0.00000000000E+00  0.45593999997E+02  0.45594000000E+02  0.51100000000E-03 0.  1.
         11   -1    0    0    0    0 -0.00000000000E+00 -0.00000000000E+00 -0.45593999997E+02  0.45594000000E+02  0.51100000000E-03 0. -1.
    9900012    2    1    2    0    0  0.76446649063E+01  0.13617732349E+02  0.27799882594E+02  0.59301999811E+02  0.50000101735E+02 0.  0.
         12    1    1    2    0    0 -0.76446649063E+01 -0.13617732349E+02 -0.27799882594E+02  0.31886000189E+02  0.00000000000E+00 0. -1.
         11    1    3    3    0    0  0.79770738653E+01 -0.78539812790E+01  0.80059655529E+01  0.13762783660E+02  0.51100000000E-03 0. -1.
        -11    1    3    3    0    0  0.17231333083E+02  0.11984331081E+02  0.11385204495E+02  0.23878147184E+02  0.51100000000E-03 0.  1.
        -12    1    3    3    0    0 -0.17563742042E+02  0.94873825469E+01  0.84087125454E+01  0.21661068967E+02  0.00000000000E+00 0.  1.
</event>
<event>
 7    1  0.5662448E-012  0.5930186E+02  0.7816164E-02  0.1266605E+00
        -11   -1    0    0    0    0  0.00000000000E+00  0.00000000000E+00  0.45593999997E+02  0.45594000000E+02  0.51100000000E-03 0. -1.
         11   -1    0    0    0    0 -0.00000000000E+00 -0.00000000000E+00 -0.45593999997E+02  0.45594000000E+02  0.51100000000E-03 0.  1.
    9900012    2    1    2    0    0 -0.30838011443E+02  0.96641260016E-02  0.81081916691E+01  0.59301861706E+02  0.49999849864E+02 0.  0.
         12    1    1    2    0    0  0.30838011443E+02 -0.96641260016E-02 -0.81081916691E+01  0.31886138294E+02  0.00000000000E+00 0. -1.
         11    1    3    3    0    0 -0.21692257542E+02  0.99309836530E+00  0.14384985426E+02  0.26047419979E+02  0.51100000000E-03 0.  1.
        -11    1    3    3    0    0  0.35154926894E+00  0.14201634755E+02  0.20415706301E+00  0.14207452164E+02  0.51100000000E-03 0. -1.
         12    1    3    3    0    0 -0.94973031706E+01 -0.15185068995E+02 -0.64809508198E+01  0.19046989563E+02  0.00000000000E+00 0. -1.
</event>
<event>
 7    1  0.5662448E-012  0.5930194E+02  0.7816164E-02  0.1266605E+00
        -11   -1    0    0    0    0  0.00000000000E+00  0.00000000000E+00  0.45593999997E+02  0.45594000000E+02  0.51100000000E-03 0.  1.
         11   -1    0    0    0    0 -0.00000000000E+00 -0.00000000000E+00 -0.45593999997E+02  0.45594000000E+02  0.51100000000E-03 0. -1.
    9900012    2    1    2    0    0  0.30964484782E+02  0.65818855429E+01 -0.38210459445E+01  0.59301938355E+02  0.49999989654E+02 0.  0.
         12    1    1    2    0    0 -0.30964484782E+02 -0.65818855429E+01  0.38210459445E+01  0.31886061645E+02  0.00000000000E+00 0. -1.
         11    1    3    3    0    0 -0.21191184279E+01  0.17043731440E+02 -0.12237996221E+01  0.17218511262E+02  0.51100000000E-03 0. -1.
        -11    1    3    3    0    0  0.19072152725E+02  0.62598605637E+01 -0.27931373735E+01  0.20266585319E+02  0.51100000000E-03 0.  1.
        -12    1    3    3    0    0  0.14011450485E+02 -0.16721706461E+02  0.19589105106E+00  0.21816841773E+02  0.00000000000E+00 0.  1.
</event>
<event>
 7    1  0.5662448E-012  0.5930193E+02  0.7816164E-02  0.1266605E+00
        -11   -1    0    0    0    0  0.00000000000E+00  0.00000000000E+00  0.45593999997E+02  0.45594000000E+02  0.51100000000E-03 0.  1.
         11   -1    0    0    0    0 -0.00000000000E+00 -0.00000000000E+00 -0.45593999997E+02  0.45594000000E+02  0.51100000000E-03 0. -1.
    9900012    2    1    2    0    0  0.15827822377E+02 -0.15255139507E+02  0.23097234179E+02  0.59301929855E+02  0.49999974152E+02 0.  0.
         12    1    1    2    0    0 -0.15827822377E+02  0.15255139507E+02 -0.23097234179E+02  0.31886070145E+02  0.00000000000E+00 0. -1.
         11    1    3    3    0    0  0.21696835895E+02 -0.21181638339E+02 -0.31730200307E-01  0.30321865009E+02  0.51100000000E-03 0.  1.
        -11    1    3    3    0    0 -0.65944357614E+01  0.52375753387E+00  0.16468693386E+01  0.68171169746E+01  0.51100000000E-03 0. -1.
        -12    1    3    3    0    0  0.72542224306E+00  0.54027412986E+01  0.21482095041E+02  0.22162947871E+02  0.00000000000E+00 0.  1.
</event>
<event>
 7    1  0.5662448E-012  0.5930189E+02  0.7816164E-02  0.1266605E+00
        -11   -1    0    0    0    0  0.00000000000E+00  0.00000000000E+00  0.45593999997E+02  0.45594000000E+02  0.51100000000E-03 0.  1.
         11   -1    0    0    0    0 -0.00000000000E+00 -0.00000000000E+00 -0.45593999997E+02  0.45594000000E+02  0.51100000000E-03 0. -1.
    9900012    2    1    2    0    0  0.29266419585E+02  0.82449717958E+01  0.96031715053E+01  0.59301893649E+02  0.49999908122E+02 0.  0.
         12    1    1    2    0    0 -0.29266419585E+02 -0.82449717958E+01 -0.96031715053E+01  0.31886106351E+02  0.00000000000E+00 0. -1.
         11    1    3    3    0    0  0.67253680669E+01  0.18802147264E+01  0.10334770523E+02  0.12472901229E+02  0.51100000000E-03 0. -1.
        -11    1    3    3    0    0  0.18946059992E+02  0.22936183211E+02  0.11262816601E+01  0.29770626465E+02  0.51100000000E-03 0.  1.
         12    1    3    3    0    0  0.35949915264E+01 -0.16571426141E+02 -0.18578806774E+01  0.17058365955E+02  0.00000000000E+00 0. -1.
</event>
<event>
 7    1  0.5662448E-012  0.5930195E+02  0.7816164E-02  0.1266605E+00
        -11   -1    0    0    0    0  0.00000000000E+00  0.00000000000E+00  0.45593999997E+02  0.45594000000E+02  0.51100000000E-03 0.  1.
         11   -1    0    0    0    0 -0.00000000000E+00 -0.00000000000E+00 -0.45593999997E+02  0.45594000000E+02  0.51100000000E-03 0. -1.
    9900012    2    1    2    0    0 -0.27049808256E+01 -0.30531247165E+02  0.87889849806E+01  0.59301949262E+02  0.50000009545E+02 0.  0.
         12    1    1    2    0    0  0.27049808256E+01  0.30531247165E+02 -0.87889849806E+01  0.31886050738E+02  0.00000000000E+00 0. -1.
         11    1    3    3    0    0 -0.43227177629E+01  0.25007530124E+01 -0.43572605711E+01  0.66276220798E+01  0.51100000000E-03 0. -1.
        -11    1    3    3    0    0 -0.95456465324E+01  0.49490835895E+01  0.64088396634E+01  0.12517428737E+02  0.51100000000E-03 0.  1.
        -12    1    3    3    0    0  0.11163383470E+02 -0.37981083767E+02  0.67374058882E+01  0.40156898445E+02  0.00000000000E+00 0.  1.
</event>
<event>
 7    1  0.5662448E-012  0.5930193E+02  0.7816164E-02  0.1266605E+00
        -11   -1    0    0    0    0  0.00000000000E+00  0.00000000000E+00  0.45593999997E+02  0.45594000000E+02  0.51100000000E-03 0.  1.
         11   -1    0    0    0    0 -0.00000000000E+00 -0.00000000000E+00 -0.45593999997E+02  0.45594000000E+02  0.51100000000E-03 0. -1.
    9900012    2    1    2    0    0  0.69694750368E+01  0.15139481184E+02  0.27183522340E+02  0.59301931575E+02  0.49999977289E+02 0.  0.
         12    1    1    2    0    0 -0.69694750368E+01 -0.15139481184E+02 -0.27183522340E+02  0.31886068425E+02  0.00000000000E+00 0. -1.
         11    1    3    3    0    0  0.26863878783E+01  0.17280597426E+02  0.20355870484E+02  0.26836489910E+02  0.51100000000E-03 0. -1.
        -11    1    3    3    0    0 -0.14468537564E+01 -0.10795519478E+02  0.15496975892E+02  0.18941829074E+02  0.51100000000E-03 0.  1.
         12    1    3    3    0    0  0.57299409148E+01  0.86544032359E+01 -0.86693240370E+01  0.13523612591E+02  0.00000000000E+00 0. -1.
</event>
<event>
 7    1  0.5662448E-012  0.5930194E+02  0.7816164E-02  0.1266605E+00
        -11   -1    0    0    0    0  0.00000000000E+00  0.00000000000E+00  0.45593999997E+02  0.45594000000E+02  0.51100000000E-03 0. -1.
         11   -1    0    0    0    0 -0.00000000000E+00 -0.00000000000E+00 -0.45593999997E+02  0.45594000000E+02  0.51100000000E-03 0.  1.
    9900012    2    1    2    0    0  0.18627193617E+02 -0.21745846752E+02 -0.14030908876E+02  0.59301943535E+02  0.49999999102E+02 0.  0.
         12    1    1    2    0    0 -0.18627193617E+02  0.21745846752E+02  0.14030908876E+02  0.31886056465E+02  0.00000000000E+00 0. -1.
         11    1    3    3    0    0 -0.11249234896E+02 -0.17996232890E+01 -0.24510730461E+01  0.11652969109E+02  0.51100000000E-03 0. -1.
        -11    1    3    3    0    0  0.96288337103E+01 -0.37955459799E+01  0.96569996897E+01  0.14155502505E+02  0.51100000000E-03 0.  1.
        -12    1    3    3    0    0  0.20247594802E+02 -0.16150677483E+02 -0.21236835520E+02  0.33493471921E+02  0.00000000000E+00 0.  1.
</event>
<event>
 7    1  0.5662448E-012  0.5930194E+02  0.7816164E-02  0.1266605E+00
        -11   -1    0    0    0    0  0.00000000000E+00  0.00000000000E+00  0.45593999997E+02  0.45594000000E+02  0.51100000000E-03 0.  1.
         11   -1    0    0    0    0 -0.00000000000E+00 -0.00000000000E+00 -0.45593999997E+02  0.45594000000E+02  0.51100000000E-03 0. -1.
    9900012    2    1    2    0    0  0.39060384589E+00  0.15748862007E+02  0.27722579397E+02  0.59301942948E+02  0.49999998031E+02 0.  0.
         12    1    1    2    0    0 -0.39060384589E+00 -0.15748862007E+02 -0.27722579397E+02  0.31886057052E+02  0.00000000000E+00 0. -1.
         11    1    3    3    0    0 -0.49730966423E+01 -0.44674485327E+01  0.72524471391E+00  0.67242670056E+01  0.51100000000E-03 0. -1.
        -11    1    3    3    0    0 -0.11661277491E+02  0.19530900060E+02  0.27079880947E+01  0.22907960399E+02  0.51100000000E-03 0.  1.
        -12    1    3    3    0    0  0.17024977979E+02  0.68541047953E+00  0.24289346589E+02  0.29669715543E+02  0.00000000000E+00 0.  1.
</event>
<event>
 7    1  0.5662448E-012  0.5930196E+02  0.7816164E-02  0.1266605E+00
        -11   -1    0    0    0    0  0.00000000000E+00  0.00000000000E+00  0.45593999997E+02  0.45594000000E+02  0.51100000000E-03 0. -1.
         11   -1    0    0    0    0 -0.00000000000E+00 -0.00000000000E+00 -0.45593999997E+02  0.45594000000E+02  0.51100000000E-03 0.  1.
    9900012    2    1    2    0    0 -0.16589579784E+02 -0.26863588206E+02  0.44557035300E+01  0.59301955676E+02  0.50000021243E+02 0.  0.
         12    1    1    2    0    0  0.16589579784E+02  0.26863588206E+02 -0.44557035300E+01  0.31886044324E+02  0.00000000000E+00 0. -1.
         11    1    3    3    0    0 -0.22420313851E+02 -0.56199418622E+01  0.21472120074E+01  0.23213460306E+02  0.51100000000E-03 0. -1.
        -11    1    3    3    0    0 -0.44829351550E+01 -0.12060096624E+02  0.13250414036E+02  0.18469328916E+02  0.51100000000E-03 0.  1.
        -12    1    3    3    0    0  0.10313669221E+02 -0.91835497193E+01 -0.10941922514E+02  0.17619166454E+02  0.00000000000E+00 0.  1.
</event>
<event>
 7    1  0.5662448E-012  0.5930192E+02  0.7816164E-02  0.1266605E+00
        -11   -1    0    0    0    0  0.00000000000E+00  0.00000000000E+00  0.45593999997E+02  0.45594000000E+02  0.51100000000E-03 0.  1.
         11   -1    0    0    0    0 -0.00000000000E+00 -0.00000000000E+00 -0.45593999997E+02  0.45594000000E+02  0.51100000000E-03 0. -1.
    9900012    2    1    2    0    0 -0.11439857689E+02  0.15149621720E+02  0.25619151571E+02  0.59301916681E+02  0.49999950126E+02 0.  0.
         12    1    1    2    0    0  0.11439857689E+02 -0.15149621720E+02 -0.25619151571E+02  0.31886083319E+02  0.00000000000E+00 0. -1.
         11    1    3    3    0    0 -0.14108218244E+02  0.11409747081E+02  0.37710195051E+01  0.18532262108E+02  0.51100000000E-03 0. -1.
        -11    1    3    3    0    0 -0.97965614940E+01  0.14687681254E+02  0.13319328668E+02  0.22115720973E+02  0.51100000000E-03 0.  1.
         12    1    3    3    0    0  0.12464922049E+02 -0.10947806615E+02  0.85288033976E+01  0.18653933600E+02  0.00000000000E+00 0. -1.
</event>
<event>
 7    1  0.5662448E-012  0.5930195E+02  0.7816164E-02  0.1266605E+00
        -11   -1    0    0    0    0  0.00000000000E+00  0.00000000000E+00  0.45593999997E+02  0.45594000000E+02  0.51100000000E-03 0.  1.
         11   -1    0    0    0    0 -0.00000000000E+00 -0.00000000000E+00 -0.45593999997E+02  0.45594000000E+02  0.51100000000E-03 0. -1.
    9900012    2    1    2    0    0  0.12188357884E+02 -0.23156139066E+02  0.18219698331E+02  0.59301948949E+02  0.50000008976E+02 0.  0.
         12    1    1    2    0    0 -0.12188357884E+02  0.23156139066E+02 -0.18219698331E+02  0.31886051051E+02  0.00000000000E+00 0. -1.
         11    1    3    3    0    0  0.16262974354E+02  0.12593067920E+01  0.41258777363E+01  0.16825369411E+02  0.51100000000E-03 0. -1.
        -11    1    3    3    0    0  0.11050845656E+02 -0.60169722632E+01 -0.32708500307E+01  0.13000907857E+02  0.51100000000E-03 0.  1.
         12    1    3    3    0    0 -0.15125462126E+02 -0.18398473594E+02  0.17364670626E+02  0.29475671682E+02  0.00000000000E+00 0. -1.
</event>
<event>
 7    1  0.5662448E-012  0.5930199E+02  0.7816164E-02  0.1266605E+00
        -11   -1    0    0    0    0  0.00000000000E+00  0.00000000000E+00  0.45593999997E+02  0.45594000000E+02  0.51100000000E-03 0. -1.
         11   -1    0    0    0    0 -0.00000000000E+00 -0.00000000000E+00 -0.45593999997E+02  0.45594000000E+02  0.51100000000E-03 0.  1.
    9900012    2    1    2    0    0  0.25128973022E+02 -0.51324533883E+01 -0.18944923611E+02  0.59301992198E+02  0.50000087851E+02 0.  0.
         12    1    1    2    0    0 -0.25128973022E+02  0.51324533883E+01  0.18944923611E+02  0.31886007802E+02  0.00000000000E+00 0. -1.
         11    1    3    3    0    0 -0.25527155706E+01  0.54197285722E+01  0.14800845519E+01  0.61709371349E+01  0.51100000000E-03 0. -1.
        -11    1    3    3    0    0  0.21062061337E+02  0.82904010447E+01 -0.23835354068E+02  0.32870431713E+02  0.51100000000E-03 0.  1.
        -12    1    3    3    0    0  0.66196272561E+01 -0.18842583005E+02  0.34103459048E+01  0.20260623349E+02  0.00000000000E+00 0.  1.
</event>
<event>
 7    1  0.5662448E-012  0.5930195E+02  0.7816164E-02  0.1266605E+00
        -11   -1    0    0    0    0  0.00000000000E+00  0.00000000000E+00  0.45593999997E+02  0.45594000000E+02  0.51100000000E-03 0.  1.
         11   -1    0    0    0    0 -0.00000000000E+00 -0.00000000000E+00 -0.45593999997E+02  0.45594000000E+02  0.51100000000E-03 0. -1.
    9900012    2    1    2    0    0 -0.29599628134E+02  0.95569460208E+01 -0.70176173409E+01  0.59301950448E+02  0.50000011709E+02 0.  0.
         12    1    1    2    0    0  0.29599628134E+02 -0.95569460208E+01  0.70176173409E+01  0.31886049552E+02  0.00000000000E+00 0. -1.
         11    1    3    3    0    0 -0.31138668645E+02  0.35326194892E+01 -0.62847447845E+01  0.31962385748E+02  0.51100000000E-03 0. -1.
        -11    1    3    3    0    0 -0.99634831482E+01 -0.51334894614E+01  0.82714401780E+00  0.11238677768E+02  0.51100000000E-03 0.  1.
         12    1    3    3    0    0  0.11502523659E+02  0.11157815993E+02 -0.15600165742E+01  0.16100886931E+02  0.00000000000E+00 0. -1.
</event>
<event>
 7    1  0.5662448E-012  0.5930193E+02  0.7816164E-02  0.1266605E+00
        -11   -1    0    0    0    0  0.00000000000E+00  0.00000000000E+00  0.45593999997E+02  0.45594000000E+02  0.51100000000E-03 0.  1.
         11   -1    0    0    0    0 -0.00000000000E+00 -0.00000000000E+00 -0.45593999997E+02  0.45594000000E+02  0.51100000000E-03 0. -1.
    9900012    2    1    2    0    0 -0.22844097157E+02 -0.18134955604E+02 -0.12883779118E+02  0.59301934798E+02  0.49999983168E+02 0.  0.
         12    1    1    2    0    0  0.22844097157E+02  0.18134955604E+02  0.12883779118E+02  0.31886065202E+02  0.00000000000E+00 0. -1.
         11    1    3    3    0    0 -0.28590298493E+02 -0.29148673576E+01  0.82803262293E+00  0.28750430569E+02  0.51100000000E-03 0. -1.
        -11    1    3    3    0    0 -0.63209229008E+01 -0.69157648048E+01  0.14369153424E+01  0.94787443849E+01  0.51100000000E-03 0.  1.
         12    1    3    3    0    0  0.12067124237E+02 -0.83043234418E+01 -0.15148727084E+02  0.21072759844E+02  0.00000000000E+00 0. -1.
</event>
<event>
 7    1  0.5662448E-012  0.5930192E+02  0.7816164E-02  0.1266605E+00
        -11   -1    0    0    0    0  0.00000000000E+00  0.00000000000E+00  0.45593999997E+02  0.45594000000E+02  0.51100000000E-03 0. -1.
         11   -1    0    0    0    0 -0.00000000000E+00 -0.00000000000E+00 -0.45593999997E+02  0.45594000000E+02  0.51100000000E-03 0.  1.
    9900012    2    1    2    0    0  0.29616402025E+02  0.81795297791E+01 -0.85256187125E+01  0.59301919169E+02  0.49999954663E+02 0.  0.
         12    1    1    2    0    0 -0.29616402025E+02 -0.81795297791E+01  0.85256187125E+01  0.31886080831E+02  0.00000000000E+00 0. -1.
         11    1    3    3    0    0  0.56653731081E+01 -0.40355338303E+01 -0.35355785713E+01  0.78027111855E+01  0.51100000000E-03 0. -1.
        -11    1    3    3    0    0  0.10700044817E+02 -0.23215786020E+01  0.18107956304E+02  0.21160783730E+02  0.51100000000E-03 0.  1.
        -12    1    3    3    0    0  0.13250984100E+02  0.14536642211E+02 -0.23097996445E+02  0.30338424253E+02  0.00000000000E+00 0.  1.
</event>
<event>
 7    1  0.5662448E-012  0.5930193E+02  0.7816164E-02  0.1266605E+00
        -11   -1    0    0    0    0  0.00000000000E+00  0.00000000000E+00  0.45593999997E+02  0.45594000000E+02  0.51100000000E-03 0.  1.
         11   -1    0    0    0    0 -0.00000000000E+00 -0.00000000000E+00 -0.45593999997E+02  0.45594000000E+02  0.51100000000E-03 0. -1.
    9900012    2    1    2    0    0  0.27550788746E+02 -0.15584649097E+02  0.38463073924E+01  0.59301932062E+02  0.49999978177E+02 0.  0.
         12    1    1    2    0    0 -0.27550788746E+02  0.15584649097E+02 -0.38463073924E+01  0.31886067938E+02  0.00000000000E+00 0. -1.
         11    1    3    3    0    0  0.11724136868E+02  0.42870973577E+00  0.29829394222E+01  0.12105251141E+02  0.51100000000E-03 0. -1.
        -11    1    3    3    0    0  0.29171067874E+02 -0.15265417650E+02 -0.35660173908E+01  0.33116471087E+02  0.51100000000E-03 0.  1.
         12    1    3    3    0    0 -0.13344415996E+02 -0.74794118256E+00  0.44293853610E+01  0.14080209834E+02  0.00000000000E+00 0. -1.
</event>
<event>
 7    1  0.5662448E-012  0.5930192E+02  0.7816164E-02  0.1266605E+00
        -11   -1    0    0    0    0  0.00000000000E+00  0.00000000000E+00  0.45593999997E+02  0.45594000000E+02  0.51100000000E-03 0.  1.
         11   -1    0    0    0    0 -0.00000000000E+00 -0.00000000000E+00 -0.45593999997E+02  0.45594000000E+02  0.51100000000E-03 0. -1.
    9900012    2    1    2    0    0 -0.23325460865E+02  0.21410965242E+02 -0.37703478162E+01  0.59301920281E+02  0.49999956692E+02 0.  0.
         12    1    1    2    0    0  0.23325460865E+02 -0.21410965242E+02  0.37703478162E+01  0.31886079719E+02  0.00000000000E+00 0. -1.
         11    1    3    3    0    0  0.63558582112E+01 -0.24167147218E+00 -0.28059858591E+01  0.69518987050E+01  0.51100000000E-03 0. -1.
        -11    1    3    3    0    0 -0.20859211982E+02  0.12167975449E+02  0.17480137913E+02  0.29811433591E+02  0.51100000000E-03 0.  1.
         12    1    3    3    0    0 -0.88221070945E+01  0.94846612651E+01 -0.18444499870E+02  0.22538587985E+02  0.00000000000E+00 0. -1.
</event>
<event>
 7    1  0.5662448E-012  0.5930193E+02  0.7816164E-02  0.1266605E+00
        -11   -1    0    0    0    0  0.00000000000E+00  0.00000000000E+00  0.45593999997E+02  0.45594000000E+02  0.51100000000E-03 0.  1.
         11   -1    0    0    0    0 -0.00000000000E+00 -0.00000000000E+00 -0.45593999997E+02  0.45594000000E+02  0.51100000000E-03 0. -1.
    9900012    2    1    2    0    0 -0.28773153065E+02 -0.70091162375E+01  0.11819461499E+02  0.59301925957E+02  0.49999967043E+02 0.  0.
         12    1    1    2    0    0  0.28773153065E+02  0.70091162375E+01 -0.11819461499E+02  0.31886074043E+02  0.00000000000E+00 0. -1.
         11    1    3    3    0    0 -0.18010362557E+02  0.19838671621E+01 -0.50192216939E+01  0.18801634903E+02  0.51100000000E-03 0. -1.
        -11    1    3    3    0    0 -0.12786839556E+02  0.22966661010E+01 -0.64767436893E+01  0.14516409683E+02  0.51100000000E-03 0.  1.
        -12    1    3    3    0    0  0.20240490478E+01 -0.11289649501E+02  0.23315426882E+02  0.25983881371E+02  0.00000000000E+00 0.  1.
</event>
<event>
 7    1  0.5662448E-012  0.5930194E+02  0.7816164E-02  0.1266605E+00
        -11   -1    0    0    0    0  0.00000000000E+00  0.00000000000E+00  0.45593999997E+02  0.45594000000E+02  0.51100000000E-03 0.  1.
         11   -1    0    0    0    0 -0.00000000000E+00 -0.00000000000E+00 -0.45593999997E+02  0.45594000000E+02  0.51100000000E-03 0. -1.
    9900012    2    1    2    0    0  0.20764640218E+02  0.23182510535E+02  0.69369755079E+01  0.59301941804E+02  0.49999995945E+02 0.  0.
         12    1    1    2    0    0 -0.20764640218E+02 -0.23182510535E+02 -0.69369755079E+01  0.31886058196E+02  0.00000000000E+00 0. -1.
         11    1    3    3    0    0  0.64080358782E+01 -0.58263240108E+01 -0.33757404812E+00  0.86673486023E+01  0.51100000000E-03 0. -1.
        -11    1    3    3    0    0  0.15865670605E+02  0.42976249079E+01 -0.11073494165E+02  0.19819469137E+02  0.51100000000E-03 0.  1.
        -12    1    3    3    0    0 -0.15090662655E+01  0.24711209638E+02  0.18348043721E+02  0.30815124065E+02  0.00000000000E+00 0.  1.
</event>
<event>
 7    1  0.5662448E-012  0.5930192E+02  0.7816164E-02  0.1266605E+00
        -11   -1    0    0    0    0  0.00000000000E+00  0.00000000000E+00  0.45593999997E+02  0.45594000000E+02  0.51100000000E-03 0.  1.
         11   -1    0    0    0    0 -0.00000000000E+00 -0.00000000000E+00 -0.45593999997E+02  0.45594000000E+02  0.51100000000E-03 0. -1.
    9900012    2    1    2    0    0 -0.16424678567E+02 -0.97398146967E+01  0.25536017080E+02  0.59301918010E+02  0.49999952551E+02 0.  0.
         12    1    1    2    0    0  0.16424678567E+02  0.97398146967E+01 -0.25536017080E+02  0.31886081990E+02  0.00000000000E+00 0. -1.
         11    1    3    3    0    0  0.41983557647E+01 -0.44542807906E+00  0.17529186773E+02  0.18030446098E+02  0.51100000000E-03 0.  1.
        -11    1    3    3    0    0  0.85972087523E+00 -0.16870565093E+02  0.75097317768E+01  0.18486512872E+02  0.51100000000E-03 0. -1.
         12    1    3    3    0    0 -0.21482755207E+02  0.75761784750E+01  0.49709852980E+00  0.22784959041E+02  0.00000000000E+00 0. -1.
</event>
<event>
 7    1  0.5662448E-012  0.5930194E+02  0.7816164E-02  0.1266605E+00
        -11   -1    0    0    0    0  0.00000000000E+00  0.00000000000E+00  0.45593999997E+02  0.45594000000E+02  0.51100000000E-03 0.  1.
         11   -1    0    0    0    0 -0.00000000000E+00 -0.00000000000E+00 -0.45593999997E+02  0.45594000000E+02  0.51100000000E-03 0. -1.
    9900012    2    1    2    0    0  0.19544303683E+02  0.49742503417E+01  0.24698135619E+02  0.59301939158E+02  0.49999991119E+02 0.  0.
         12    1    1    2    0    0 -0.19544303683E+02 -0.49742503417E+01 -0.24698135619E+02  0.31886060842E+02  0.00000000000E+00 0. -1.
         11    1    3    3    0    0  0.22486919623E+02  0.99992155517E+01 -0.61340618009E+00  0.24617516795E+02  0.51100000000E-03 0. -1.
        -11    1    3    3    0    0 -0.19844806149E+01  0.87820254523E+01  0.56127292269E+01  0.10609658995E+02  0.51100000000E-03 0.  1.
        -12    1    3    3    0    0 -0.95813532480E+00 -0.13806990662E+02  0.19698812573E+02  0.24074763368E+02  0.00000000000E+00 0.  1.
</event>
<event>
 7    1  0.5662448E-012  0.5930193E+02  0.7816164E-02  0.1266605E+00
        -11   -1    0    0    0    0  0.00000000000E+00  0.00000000000E+00  0.45593999997E+02  0.45594000000E+02  0.51100000000E-03 0. -1.
         11   -1    0    0    0    0 -0.00000000000E+00 -0.00000000000E+00 -0.45593999997E+02  0.45594000000E+02  0.51100000000E-03 0.  1.
    9900012    2    1    2    0    0 -0.20373030110E+02  0.24252662805E+02  0.36700993710E+01  0.59301927203E+02  0.49999969316E+02 0.  0.
         12    1    1    2    0    0  0.20373030110E+02 -0.24252662805E+02 -0.36700993710E+01  0.31886072797E+02  0.00000000000E+00 0. -1.
         11    1    3    3    0    0 -0.74663586123E+01  0.83311749037E+01 -0.10186981492E+02  0.15130418976E+02  0.51100000000E-03 0. -1.
        -11    1    3    3    0    0 -0.76386294400E+00 -0.95706974967E+00 -0.11395017446E+02  0.11460623541E+02  0.51100000000E-03 0.  1.
         12    1    3    3    0    0 -0.12142808554E+02  0.16878557651E+02  0.25252098309E+02  0.32710884686E+02  0.00000000000E+00 0. -1.
</event>
<event>
 7    1  0.5662448E-012  0.5930194E+02  0.7816164E-02  0.1266605E+00
        -11   -1    0    0    0    0  0.00000000000E+00  0.00000000000E+00  0.45593999997E+02  0.45594000000E+02  0.51100000000E-03 0.  1.
         11   -1    0    0    0    0 -0.00000000000E+00 -0.00000000000E+00 -0.45593999997E+02  0.45594000000E+02  0.51100000000E-03 0. -1.
    9900012    2    1    2    0    0 -0.59123054022E+00  0.11360374208E+02  0.29787802830E+02  0.59301939517E+02  0.49999991773E+02 0.  0.
         12    1    1    2    0    0  0.59123054022E+00 -0.11360374208E+02 -0.29787802830E+02  0.31886060483E+02  0.00000000000E+00 0. -1.
         11    1    3    3    0    0 -0.14488520508E+02  0.62370367961E+01  0.13446319491E+02  0.20727309584E+02  0.51100000000E-03 0.  1.
        -11    1    3    3    0    0  0.34997571645E+01  0.25847918113E+00 -0.95921517633E+01  0.10213935941E+02  0.51100000000E-03 0. -1.
         12    1    3    3    0    0  0.10397532803E+02  0.48648582306E+01  0.25933635103E+02  0.28360693991E+02  0.00000000000E+00 0. -1.
</event>
<event>
 7    1  0.5662448E-012  0.5930194E+02  0.7816164E-02  0.1266605E+00
        -11   -1    0    0    0    0  0.00000000000E+00  0.00000000000E+00  0.45593999997E+02  0.45594000000E+02  0.51100000000E-03 0. -1.
         11   -1    0    0    0    0 -0.00000000000E+00 -0.00000000000E+00 -0.45593999997E+02  0.45594000000E+02  0.51100000000E-03 0.  1.
    9900012    2    1    2    0    0  0.87501216260E+01 -0.28518747276E+02 -0.11262210022E+02  0.59301938010E+02  0.49999989025E+02 0.  0.
         12    1    1    2    0    0 -0.87501216260E+01  0.28518747276E+02  0.11262210022E+02  0.31886061990E+02  0.00000000000E+00 0. -1.
         11    1    3    3    0    0  0.60337576442E+01  0.96269872513E+01 -0.15784770959E+02  0.19448498897E+02  0.51100000000E-03 0. -1.
        -11    1    3    3    0    0  0.14916904350E+01 -0.17164759706E+02  0.71873636385E+01  0.18668484471E+02  0.51100000000E-03 0.  1.
        -12    1    3    3    0    0  0.12246735468E+01 -0.20980974822E+02 -0.26648027009E+01  0.21184954642E+02  0.00000000000E+00 0.  1.
</event>
<event>
 7    1  0.5662448E-012  0.5930192E+02  0.7816164E-02  0.1266605E+00
        -11   -1    0    0    0    0  0.00000000000E+00  0.00000000000E+00  0.45593999997E+02  0.45594000000E+02  0.51100000000E-03 0.  1.
         11   -1    0    0    0    0 -0.00000000000E+00 -0.00000000000E+00 -0.45593999997E+02  0.45594000000E+02  0.51100000000E-03 0. -1.
    9900012    2    1    2    0    0 -0.29947403249E+02  0.64043026255E+01  0.88803065573E+01  0.59301923132E+02  0.49999961891E+02 0.  0.
         12    1    1    2    0    0  0.29947403249E+02 -0.64043026255E+01 -0.88803065573E+01  0.31886076868E+02  0.00000000000E+00 0. -1.
         11    1    3    3    0    0 -0.72821182380E+01 -0.51055163411E+01 -0.11994232759E+02  0.14931750161E+02  0.51100000000E-03 0.  1.
        -11    1    3    3    0    0 -0.10788509688E+01  0.13163282013E+02 -0.14321788362E+01  0.13284842839E+02  0.51100000000E-03 0. -1.
        -12    1    3    3    0    0 -0.21586434042E+02 -0.16534630464E+01  0.22306718152E+02  0.31085330132E+02  0.00000000000E+00 0.  1.
</event>
<event>
 7    1  0.5662448E-012  0.5930187E+02  0.7816164E-02  0.1266605E+00
        -11   -1    0    0    0    0  0.00000000000E+00  0.00000000000E+00  0.45593999997E+02  0.45594000000E+02  0.51100000000E-03 0. -1.
         11   -1    0    0    0    0 -0.00000000000E+00 -0.00000000000E+00 -0.45593999997E+02  0.45594000000E+02  0.51100000000E-03 0.  1.
    9900012    2    1    2    0    0 -0.15965471120E+02 -0.26996341590E+02  0.57468826776E+01  0.59301868409E+02  0.49999862090E+02 0.  0.
         12    1    1    2    0    0  0.15965471120E+02  0.26996341590E+02 -0.57468826776E+01  0.31886131591E+02  0.00000000000E+00 0. -1.
         11    1    3    3    0    0  0.67134178465E+01 -0.18177972112E+02  0.81529301501E+01  0.21023294689E+02  0.51100000000E-03 0. -1.
        -11    1    3    3    0    0 -0.29979739103E+01 -0.12961403195E+02 -0.10143282442E+02  0.16729375341E+02  0.51100000000E-03 0.  1.
        -12    1    3    3    0    0 -0.19680915056E+02  0.41430337170E+01  0.77372349692E+01  0.21549198380E+02  0.00000000000E+00 0.  1.
</event>
<event>
 7    1  0.5662448E-012  0.5930193E+02  0.7816164E-02  0.1266605E+00
        -11   -1    0    0    0    0  0.00000000000E+00  0.00000000000E+00  0.45593999997E+02  0.45594000000E+02  0.51100000000E-03 0.  1.
         11   -1    0    0    0    0 -0.00000000000E+00 -0.00000000000E+00 -0.45593999997E+02  0.45594000000E+02  0.51100000000E-03 0. -1.
    9900012    2    1    2    0    0 -0.19787236544E+02  0.24930834969E+02  0.19080068981E+01  0.59301925412E+02  0.49999966049E+02 0.  0.
         12    1    1    2    0    0  0.19787236544E+02 -0.24930834969E+02 -0.19080068981E+01  0.31886074588E+02  0.00000000000E+00 0. -1.
         11    1    3    3    0    0  0.19499269370E+01  0.16579288936E+02 -0.51466089123E+01  0.17468904380E+02  0.51100000000E-03 0. -1.
        -11    1    3    3    0    0 -0.27734241893E+02  0.20734331748E+00 -0.25924795163E+01  0.27855917054E+02  0.51100000000E-03 0.  1.
         12    1    3    3    0    0  0.59970784114E+01  0.81442027156E+01  0.96470953268E+01  0.13977103977E+02  0.00000000000E+00 0. -1.
</event>
<event>
 7    1  0.5662448E-012  0.5930196E+02  0.7816164E-02  0.1266605E+00
        -11   -1    0    0    0    0  0.00000000000E+00  0.00000000000E+00  0.45593999997E+02  0.45594000000E+02  0.51100000000E-03 0. -1.
         11   -1    0    0    0    0 -0.00000000000E+00 -0.00000000000E+00 -0.45593999997E+02  0.45594000000E+02  0.51100000000E-03 0.  1.
    9900012    2    1    2    0    0 -0.14330576366E+02 -0.74825317294E+01 -0.27483922248E+02  0.59301957878E+02  0.50000025259E+02 0.  0.
         12    1    1    2    0    0  0.14330576366E+02  0.74825317294E+01  0.27483922248E+02  0.31886042122E+02  0.00000000000E+00 0. -1.
         11    1    3    3    0    0  0.39952221853E+01  0.55865675485E+01 -0.12135890849E+01  0.69745491619E+01  0.51100000000E-03 0. -1.
        -11    1    3    3    0    0  0.98205898905E+01  0.49435547929E+01 -0.23804356169E+01  0.11249408597E+02  0.51100000000E-03 0.  1.
        -12    1    3    3    0    0 -0.28146388442E+02 -0.18012654071E+02 -0.23889897547E+02  0.41078000119E+02  0.00000000000E+00 0.  1.
</event>
<event>
 7    1  0.5662448E-012  0.5930183E+02  0.7816164E-02  0.1266605E+00
        -11   -1    0    0    0    0  0.00000000000E+00  0.00000000000E+00  0.45593999997E+02  0.45594000000E+02  0.51100000000E-03 0.  1.
         11   -1    0    0    0    0 -0.00000000000E+00 -0.00000000000E+00 -0.45593999997E+02  0.45594000000E+02  0.51100000000E-03 0. -1.
    9900012    2    1    2    0    0 -0.22519005979E+02  0.18484441850E+02  0.12959467315E+02  0.59301827231E+02  0.49999786990E+02 0.  0.
         12    1    1    2    0    0  0.22519005979E+02 -0.18484441850E+02 -0.12959467315E+02  0.31886172769E+02  0.00000000000E+00 0. -1.
         11    1    3    3    0    0 -0.62457981743E+01  0.18167293567E+02 -0.26965640169E+01  0.19399278547E+02  0.51100000000E-03 0. -1.
        -11    1    3    3    0    0 -0.16340244022E+02  0.13368049475E+02  0.23132911467E+01  0.21238164649E+02  0.51100000000E-03 0.  1.
         12    1    3    3    0    0  0.67036218259E-01 -0.13050901191E+02  0.13342740185E+02  0.18664384035E+02  0.00000000000E+00 0. -1.
</event>
<event>
 7    1  0.5662448E-012  0.5930194E+02  0.7816164E-02  0.1266605E+00
        -11   -1    0    0    0    0  0.00000000000E+00  0.00000000000E+00  0.45593999997E+02  0.45594000000E+02  0.51100000000E-03 0.  1.
         11   -1    0    0    0    0 -0.00000000000E+00 -0.00000000000E+00 -0.45593999997E+02  0.45594000000E+02  0.51100000000E-03 0. -1.
    9900012    2    1    2    0    0 -0.20951075151E+01 -0.70179326910E+01  0.31033528138E+02  0.59301941550E+02  0.49999995482E+02 0.  0.
         12    1    1    2    0    0  0.20951075151E+01  0.70179326910E+01 -0.31033528138E+02  0.31886058450E+02  0.00000000000E+00 0. -1.
         11    1    3    3    0    0  0.81642587155E+01 -0.64194646298E+01  0.25291335503E+01  0.10689301347E+02  0.51100000000E-03 0. -1.
        -11    1    3    3    0    0  0.74513558000E+01 -0.13131828512E+02  0.20556966179E+02  0.25506008745E+02  0.51100000000E-03 0.  1.
        -12    1    3    3    0    0 -0.17710722031E+02  0.12533360451E+02  0.79474284088E+01  0.23106631459E+02  0.00000000000E+00 0.  1.
</event>
<event>
 7    1  0.5662448E-012  0.5930200E+02  0.7816164E-02  0.1266605E+00
        -11   -1    0    0    0    0  0.00000000000E+00  0.00000000000E+00  0.45593999997E+02  0.45594000000E+02  0.51100000000E-03 0. -1.
         11   -1    0    0    0    0 -0.00000000000E+00 -0.00000000000E+00 -0.45593999997E+02  0.45594000000E+02  0.51100000000E-03 0.  1.
    9900012    2    1    2    0    0  0.13496732426E+02  0.59860062107E+01 -0.28261685283E+02  0.59302001323E+02  0.50000104494E+02 0.  0.
         12    1    1    2    0    0 -0.13496732426E+02 -0.59860062107E+01  0.28261685283E+02  0.31885998677E+02  0.00000000000E+00 0. -1.
         11    1    3    3    0    0  0.87347933036E+01 -0.12780616059E+02 -0.52438756897E+01  0.16344387215E+02  0.51100000000E-03 0. -1.
        -11    1    3    3    0    0 -0.51834354279E+01  0.81602513220E+01  0.53730548074E+01  0.11060172815E+02  0.51100000000E-03 0.  1.
        -12    1    3    3    0    0  0.99453745505E+01  0.10606370948E+02 -0.28390864401E+02  0.31897441294E+02  0.00000000000E+00 0.  1.
</event>
<event>
 7    1  0.5662448E-012  0.5930198E+02  0.7816164E-02  0.1266605E+00
        -11   -1    0    0    0    0  0.00000000000E+00  0.00000000000E+00  0.45593999997E+02  0.45594000000E+02  0.51100000000E-03 0. -1.
         11   -1    0    0    0    0 -0.00000000000E+00 -0.00000000000E+00 -0.45593999997E+02  0.45594000000E+02  0.51100000000E-03 0.  1.
    9900012    2    1    2    0    0  0.18357188147E+02  0.10826622679E+02 -0.23717427122E+02  0.59301976972E+02  0.50000060082E+02 0.  0.
         12    1    1    2    0    0 -0.18357188147E+02 -0.10826622679E+02  0.23717427122E+02  0.31886023028E+02  0.00000000000E+00 0. -1.
         11    1    3    3    0    0  0.43963697406E+01  0.31717072178E+00 -0.16869483101E+00  0.44110228258E+01  0.51100000000E-03 0. -1.
        -11    1    3    3    0    0  0.16717679866E+02  0.26207835708E+02 -0.23472082897E+02  0.38952152038E+02  0.51100000000E-03 0.  1.
         12    1    3    3    0    0 -0.27568614591E+01 -0.15698383751E+02 -0.76649393158E-01  0.15938802108E+02  0.00000000000E+00 0. -1.
</event>
<event>
 7    1  0.5662448E-012  0.5930197E+02  0.7816164E-02  0.1266605E+00
        -11   -1    0    0    0    0  0.00000000000E+00  0.00000000000E+00  0.45593999997E+02  0.45594000000E+02  0.51100000000E-03 0. -1.
         11   -1    0    0    0    0 -0.00000000000E+00 -0.00000000000E+00 -0.45593999997E+02  0.45594000000E+02  0.51100000000E-03 0.  1.
    9900012    2    1    2    0    0 -0.12790009276E+02 -0.37483919319E+01 -0.28966951960E+02  0.59301967240E+02  0.50000042333E+02 0.  0.
         12    1    1    2    0    0  0.12790009276E+02  0.37483919319E+01  0.28966951960E+02  0.31886032760E+02  0.00000000000E+00 0. -1.
         11    1    3    3    0    0 -0.99888897906E+01 -0.16377262097E+02 -0.28442301265E+02  0.34306808866E+02  0.51100000000E-03 0. -1.
        -11    1    3    3    0    0  0.33341410423E+00  0.23009861975E+01 -0.10223495274E+02  0.10484539013E+02  0.51100000000E-03 0.  1.
         12    1    3    3    0    0 -0.31345335896E+01  0.10327883967E+02  0.96988445792E+01  0.14510619361E+02  0.00000000000E+00 0. -1.
</event>
<event>
 7    1  0.5662448E-012  0.5930194E+02  0.7816164E-02  0.1266605E+00
        -11   -1    0    0    0    0  0.00000000000E+00  0.00000000000E+00  0.45593999997E+02  0.45594000000E+02  0.51100000000E-03 0.  1.
         11   -1    0    0    0    0 -0.00000000000E+00 -0.00000000000E+00 -0.45593999997E+02  0.45594000000E+02  0.51100000000E-03 0. -1.
    9900012    2    1    2    0    0 -0.19124362433E+02 -0.24024172092E+01  0.25400941521E+02  0.59301942278E+02  0.49999996808E+02 0.  0.
         12    1    1    2    0    0  0.19124362433E+02  0.24024172092E+01 -0.25400941521E+02  0.31886057722E+02  0.00000000000E+00 0. -1.
         11    1    3    3    0    0 -0.16860606201E+02 -0.19840264047E+01  0.31925384759E+01  0.17274510251E+02  0.51100000000E-03 0. -1.
        -11    1    3    3    0    0 -0.13395753720E+02  0.12642088212E+02  0.13067763500E+02  0.22583955704E+02  0.51100000000E-03 0.  1.
        -12    1    3    3    0    0  0.11131997488E+02 -0.13060479016E+02  0.91406395452E+01  0.19443476322E+02  0.00000000000E+00 0.  1.
</event>
<event>
 7    1  0.5662448E-012  0.5930194E+02  0.7816164E-02  0.1266605E+00
        -11   -1    0    0    0    0  0.00000000000E+00  0.00000000000E+00  0.45593999997E+02  0.45594000000E+02  0.51100000000E-03 0. -1.
         11   -1    0    0    0    0 -0.00000000000E+00 -0.00000000000E+00 -0.45593999997E+02  0.45594000000E+02  0.51100000000E-03 0.  1.
    9900012    2    1    2    0    0  0.10147843005E+02  0.22142634773E+02 -0.20577800995E+02  0.59301939000E+02  0.49999990830E+02 0.  0.
         12    1    1    2    0    0 -0.10147843005E+02 -0.22142634773E+02  0.20577800995E+02  0.31886061000E+02  0.00000000000E+00 0. -1.
         11    1    3    3    0    0  0.81986446511E+01 -0.43995589043E+01  0.15277311177E+01  0.94290962078E+01  0.51100000000E-03 0. -1.
        -11    1    3    3    0    0 -0.71191027231E+01 -0.36642241263E+00  0.64418344643E+01  0.96079717158E+01  0.51100000000E-03 0.  1.
        -12    1    3    3    0    0  0.90683010774E+01  0.26908616090E+02 -0.28547366577E+02  0.40264871076E+02  0.00000000000E+00 0.  1.
</event>
<event>
 7    1  0.5662448E-012  0.5930195E+02  0.7816164E-02  0.1266605E+00
        -11   -1    0    0    0    0  0.00000000000E+00  0.00000000000E+00  0.45593999997E+02  0.45594000000E+02  0.51100000000E-03 0.  1.
         11   -1    0    0    0    0 -0.00000000000E+00 -0.00000000000E+00 -0.45593999997E+02  0.45594000000E+02  0.51100000000E-03 0. -1.
    9900012    2    1    2    0    0 -0.27383871840E+02 -0.26085924631E+01  0.16125733750E+02  0.59301945359E+02  0.50000002428E+02 0.  0.
         12    1    1    2    0    0  0.27383871840E+02  0.26085924631E+01 -0.16125733750E+02  0.31886054641E+02  0.00000000000E+00 0. -1.
         11    1    3    3    0    0 -0.61545384133E+01 -0.20353424567E+01 -0.54926345037E+01  0.84964696227E+01  0.51100000000E-03 0. -1.
        -11    1    3    3    0    0 -0.18390255922E+02 -0.18817984525E+02  0.18287971103E+02  0.32043219904E+02  0.51100000000E-03 0.  1.
         12    1    3    3    0    0 -0.28390775046E+01  0.18244734519E+02  0.33303971505E+01  0.18762255832E+02  0.00000000000E+00 0. -1.
</event>
<event>
 7    1  0.5662448E-012  0.5930193E+02  0.7816164E-02  0.1266605E+00
        -11   -1    0    0    0    0  0.00000000000E+00  0.00000000000E+00  0.45593999997E+02  0.45594000000E+02  0.51100000000E-03 0.  1.
         11   -1    0    0    0    0 -0.00000000000E+00 -0.00000000000E+00 -0.45593999997E+02  0.45594000000E+02  0.51100000000E-03 0. -1.
    9900012    2    1    2    0    0 -0.21680051459E+02 -0.31601905498E+01  0.23167003909E+02  0.59301929284E+02  0.49999973111E+02 0.  0.
         12    1    1    2    0    0  0.21680051459E+02  0.31601905498E+01 -0.23167003909E+02  0.31886070716E+02  0.00000000000E+00 0. -1.
         11    1    3    3    0    0 -0.71903459364E+01 -0.17141131334E+01 -0.42358189466E+01  0.85194730428E+01  0.51100000000E-03 0. -1.
        -11    1    3    3    0    0 -0.12614988927E+02 -0.17822235796E+02  0.40643074111E+01  0.22210101967E+02  0.51100000000E-03 0.  1.
        -12    1    3    3    0    0 -0.18747165957E+01  0.16376158380E+02  0.23338515445E+02  0.28572354274E+02  0.00000000000E+00 0.  1.
</event>
<event>
 7    1  0.5662448E-012  0.5930198E+02  0.7816164E-02  0.1266605E+00
        -11   -1    0    0    0    0  0.00000000000E+00  0.00000000000E+00  0.45593999997E+02  0.45594000000E+02  0.51100000000E-03 0.  1.
         11   -1    0    0    0    0 -0.00000000000E+00 -0.00000000000E+00 -0.45593999997E+02  0.45594000000E+02  0.51100000000E-03 0. -1.
    9900012    2    1    2    0    0  0.19919353290E+02  0.16866152284E+02  0.18315853751E+02  0.59301980697E+02  0.50000066876E+02 0.  0.
         12    1    1    2    0    0 -0.19919353290E+02 -0.16866152284E+02 -0.18315853751E+02  0.31886019303E+02  0.00000000000E+00 0. -1.
         11    1    3    3    0    0  0.17904981258E+01  0.19161875174E+02  0.13135719325E+01  0.19290122218E+02  0.51100000000E-03 0. -1.
        -11    1    3    3    0    0  0.18256686003E+02  0.89222070090E+01  0.19882558119E+02  0.28429359461E+02  0.51100000000E-03 0.  1.
        -12    1    3    3    0    0 -0.12783083925E+00 -0.11217929899E+02 -0.28802763003E+01  0.11582499018E+02  0.00000000000E+00 0.  1.
</event>
<event>
 7    1  0.5662448E-012  0.5930194E+02  0.7816164E-02  0.1266605E+00
        -11   -1    0    0    0    0  0.00000000000E+00  0.00000000000E+00  0.45593999997E+02  0.45594000000E+02  0.51100000000E-03 0.  1.
         11   -1    0    0    0    0 -0.00000000000E+00 -0.00000000000E+00 -0.45593999997E+02  0.45594000000E+02  0.51100000000E-03 0. -1.
    9900012    2    1    2    0    0 -0.28421963210E+02 -0.26379022743E+01  0.14211061153E+02  0.59301940660E+02  0.49999993858E+02 0.  0.
         12    1    1    2    0    0  0.28421963210E+02  0.26379022743E+01 -0.14211061153E+02  0.31886059340E+02  0.00000000000E+00 0. -1.
         11    1    3    3    0    0 -0.13148983259E+02  0.15325435542E+02  0.24886439037E+01  0.20345959895E+02  0.51100000000E-03 0. -1.
        -11    1    3    3    0    0 -0.96297735439E+01  0.56192821845E+01  0.94244091711E+01  0.14598916373E+02  0.51100000000E-03 0.  1.
        -12    1    3    3    0    0 -0.56432064069E+01 -0.23582620001E+02  0.22980080787E+01  0.24357064392E+02  0.00000000000E+00 0.  1.
</event>
<event>
 7    1  0.5662448E-012  0.5930194E+02  0.7816164E-02  0.1266605E+00
        -11   -1    0    0    0    0  0.00000000000E+00  0.00000000000E+00  0.45593999997E+02  0.45594000000E+02  0.51100000000E-03 0.  1.
         11   -1    0    0    0    0 -0.00000000000E+00 -0.00000000000E+00 -0.45593999997E+02  0.45594000000E+02  0.51100000000E-03 0. -1.
    9900012    2    1    2    0    0 -0.45227856183E+01 -0.76202463776E+01  0.30630004610E+02  0.59301938359E+02  0.49999989661E+02 0.  0.
         12    1    1    2    0    0  0.45227856183E+01  0.76202463776E+01 -0.30630004610E+02  0.31886061641E+02  0.00000000000E+00 0. -1.
         11    1    3    3    0    0 -0.78075055582E+01  0.51332516043E+01 -0.95653096513E+00  0.93926762332E+01  0.51100000000E-03 0.  1.
        -11    1    3    3    0    0 -0.10345937572E+02 -0.81736244645E+01 -0.20355737742E+01  0.13341293865E+02  0.51100000000E-03 0. -1.
        -12    1    3    3    0    0  0.13630657512E+02 -0.45798735174E+01  0.33622109349E+02  0.36567968261E+02  0.00000000000E+00 0.  1.
</event>
<event>
 7    1  0.5662448E-012  0.5930195E+02  0.7816164E-02  0.1266605E+00
        -11   -1    0    0    0    0  0.00000000000E+00  0.00000000000E+00  0.45593999997E+02  0.45594000000E+02  0.51100000000E-03 0.  1.
         11   -1    0    0    0    0 -0.00000000000E+00 -0.00000000000E+00 -0.45593999997E+02  0.45594000000E+02  0.51100000000E-03 0. -1.
    9900012    2    1    2    0    0 -0.76174531683E+00 -0.12184318884E+02  0.29456447714E+02  0.59301949844E+02  0.50000010608E+02 0.  0.
         12    1    1    2    0    0  0.76174531683E+00  0.12184318884E+02 -0.29456447714E+02  0.31886050156E+02  0.00000000000E+00 0. -1.
         11    1    3    3    0    0 -0.89840831487E+01  0.13998860918E+01  0.10615252342E+02  0.13977017337E+02  0.51100000000E-03 0. -1.
        -11    1    3    3    0    0  0.55356733932E+01 -0.59575892404E+01  0.30259609696E+02  0.31333377231E+02  0.51100000000E-03 0.  1.
         12    1    3    3    0    0  0.26866644387E+01 -0.76266157353E+01 -0.11418414324E+02  0.13991555276E+02  0.00000000000E+00 0. -1.
</event>
<event>
 7    1  0.5662448E-012  0.5930214E+02  0.7816164E-02  0.1266604E+00
        -11   -1    0    0    0    0  0.00000000000E+00  0.00000000000E+00  0.45593999997E+02  0.45594000000E+02  0.51100000000E-03 0. -1.
         11   -1    0    0    0    0 -0.00000000000E+00 -0.00000000000E+00 -0.45593999997E+02  0.45594000000E+02  0.51100000000E-03 0.  1.
    9900012    2    1    2    0    0 -0.28895696138E+01 -0.27468564222E+02 -0.15932250925E+02  0.59302137106E+02  0.50000352127E+02 0.  0.
         12    1    1    2    0    0  0.28895696138E+01  0.27468564222E+02  0.15932250925E+02  0.31885862894E+02  0.00000000000E+00 0. -1.
         11    1    3    3    0    0  0.48414151056E+01 -0.75331913591E+01  0.15754416837E+02  0.18121532011E+02  0.51100000000E-03 0. -1.
        -11    1    3    3    0    0  0.18050731688E+01 -0.17461644310E+01 -0.13551591802E+02  0.13782344502E+02  0.51100000000E-03 0.  1.
        -12    1    3    3    0    0 -0.95360578883E+01 -0.18189208432E+02 -0.18135075961E+02  0.27398260593E+02  0.00000000000E+00 0.  1.
</event>
<event>
 7    1  0.5662448E-012  0.5930194E+02  0.7816164E-02  0.1266605E+00
        -11   -1    0    0    0    0  0.00000000000E+00  0.00000000000E+00  0.45593999997E+02  0.45594000000E+02  0.51100000000E-03 0.  1.
         11   -1    0    0    0    0 -0.00000000000E+00 -0.00000000000E+00 -0.45593999997E+02  0.45594000000E+02  0.51100000000E-03 0. -1.
    9900012    2    1    2    0    0  0.31700632231E+02 -0.64056843423E+00  0.33735150353E+01  0.59301936972E+02  0.49999987132E+02 0.  0.
         12    1    1    2    0    0 -0.31700632231E+02  0.64056843423E+00 -0.33735150353E+01  0.31886063028E+02  0.00000000000E+00 0. -1.
         11    1    3    3    0    0  0.18481235037E+02  0.12187716992E+02 -0.94257298326E+01  0.24061190268E+02  0.51100000000E-03 0. -1.
        -11    1    3    3    0    0  0.37454060864E+01  0.86019864597E+01  0.30905365167E+01  0.98779377416E+01  0.51100000000E-03 0.  1.
        -12    1    3    3    0    0  0.94739911073E+01 -0.21430271886E+02  0.97087083512E+01  0.25362808962E+02  0.00000000000E+00 0.  1.
</event>
<event>
 7    1  0.5662448E-012  0.5930192E+02  0.7816164E-02  0.1266605E+00
        -11   -1    0    0    0    0  0.00000000000E+00  0.00000000000E+00  0.45593999997E+02  0.45594000000E+02  0.51100000000E-03 0. -1.
         11   -1    0    0    0    0 -0.00000000000E+00 -0.00000000000E+00 -0.45593999997E+02  0.45594000000E+02  0.51100000000E-03 0.  1.
    9900012    2    1    2    0    0 -0.19674957440E+02 -0.11373209181E+02 -0.22366682182E+02  0.59301916685E+02  0.49999950134E+02 0.  0.
         12    1    1    2    0    0  0.19674957440E+02  0.11373209181E+02  0.22366682182E+02  0.31886083315E+02  0.00000000000E+00 0. -1.
         11    1    3    3    0    0 -0.13155305339E+02 -0.21899250043E+02 -0.71332669277E+01  0.26524002494E+02  0.51100000000E-03 0. -1.
        -11    1    3    3    0    0 -0.24649703373E+01 -0.33238522317E+01 -0.17665053808E+02  0.18143268689E+02  0.51100000000E-03 0.  1.
         12    1    3    3    0    0 -0.40546817630E+01  0.13849893093E+02  0.24316385540E+01  0.14634645502E+02  0.00000000000E+00 0. -1.
</event>
<event>
 7    1  0.5662448E-012  0.5930192E+02  0.7816164E-02  0.1266605E+00
        -11   -1    0    0    0    0  0.00000000000E+00  0.00000000000E+00  0.45593999997E+02  0.45594000000E+02  0.51100000000E-03 0. -1.
         11   -1    0    0    0    0 -0.00000000000E+00 -0.00000000000E+00 -0.45593999997E+02  0.45594000000E+02  0.51100000000E-03 0.  1.
    9900012    2    1    2    0    0  0.11169036239E+02 -0.29626190922E+02 -0.37766810084E+01  0.59301923439E+02  0.49999962450E+02 0.  0.
         12    1    1    2    0    0 -0.11169036239E+02  0.29626190922E+02  0.37766810084E+01  0.31886076561E+02  0.00000000000E+00 0. -1.
         11    1    3    3    0    0 -0.23211840310E+01 -0.11712156425E+02  0.48589437532E+00  0.11949836695E+02  0.51100000000E-03 0. -1.
        -11    1    3    3    0    0 -0.14870455425E+02 -0.52144498331E+01  0.11901585150E+01  0.15803082267E+02  0.51100000000E-03 0.  1.
         12    1    3    3    0    0  0.28360675695E+02 -0.12699584664E+02 -0.54527338988E+01  0.31549004477E+02  0.00000000000E+00 0. -1.
</event>
<event>
 7    1  0.5662448E-012  0.5930196E+02  0.7816164E-02  0.1266605E+00
        -11   -1    0    0    0    0  0.00000000000E+00  0.00000000000E+00  0.45593999997E+02  0.45594000000E+02  0.51100000000E-03 0.  1.
         11   -1    0    0    0    0 -0.00000000000E+00 -0.00000000000E+00 -0.45593999997E+02  0.45594000000E+02  0.51100000000E-03 0. -1.
    9900012    2    1    2    0    0 -0.35216542252E+01  0.98442571870E+01  0.30123220176E+02  0.59301955375E+02  0.50000020696E+02 0.  0.
         12    1    1    2    0    0  0.35216542252E+01 -0.98442571870E+01 -0.30123220176E+02  0.31886044625E+02  0.00000000000E+00 0. -1.
         11    1    3    3    0    0 -0.11540900341E+02 -0.18763681517E+01  0.21575001057E+02  0.24539637508E+02  0.51100000000E-03 0. -1.
        -11    1    3    3    0    0 -0.29628120306E+01  0.17320693153E+02  0.12780624593E+02  0.21728530362E+02  0.51100000000E-03 0.  1.
         12    1    3    3    0    0  0.10982058147E+02 -0.56000678140E+01 -0.42324054747E+01  0.13033787506E+02  0.00000000000E+00 0. -1.
</event>
<event>
 7    1  0.5662448E-012  0.5930198E+02  0.7816164E-02  0.1266605E+00
        -11   -1    0    0    0    0  0.00000000000E+00  0.00000000000E+00  0.45593999997E+02  0.45594000000E+02  0.51100000000E-03 0.  1.
         11   -1    0    0    0    0 -0.00000000000E+00 -0.00000000000E+00 -0.45593999997E+02  0.45594000000E+02  0.51100000000E-03 0. -1.
    9900012    2    1    2    0    0 -0.25880023588E+02 -0.77739917863E+01  0.16926531226E+02  0.59301983809E+02  0.50000072552E+02 0.  0.
         12    1    1    2    0    0  0.25880023588E+02  0.77739917863E+01 -0.16926531226E+02  0.31886016191E+02  0.00000000000E+00 0. -1.
         11    1    3    3    0    0 -0.19521056195E+01 -0.11893097988E+02  0.61950278287E+01  0.13551194271E+02  0.51100000000E-03 0. -1.
        -11    1    3    3    0    0 -0.26930732276E+02 -0.95664116648E+01  0.13272859330E+02  0.31511099126E+02  0.51100000000E-03 0.  1.
        -12    1    3    3    0    0  0.30028143081E+01  0.13685517867E+02 -0.25413559327E+01  0.14239690412E+02  0.00000000000E+00 0.  1.
</event>
<event>
 7    1  0.5662448E-012  0.5930195E+02  0.7816164E-02  0.1266605E+00
        -11   -1    0    0    0    0  0.00000000000E+00  0.00000000000E+00  0.45593999997E+02  0.45594000000E+02  0.51100000000E-03 0. -1.
         11   -1    0    0    0    0 -0.00000000000E+00 -0.00000000000E+00 -0.45593999997E+02  0.45594000000E+02  0.51100000000E-03 0.  1.
    9900012    2    1    2    0    0 -0.23880462206E+01  0.11717642388E+02 -0.29558660285E+02  0.59301948101E+02  0.50000007429E+02 0.  0.
         12    1    1    2    0    0  0.23880462206E+01 -0.11717642388E+02  0.29558660285E+02  0.31886051899E+02  0.00000000000E+00 0. -1.
         11    1    3    3    0    0  0.19487787287E+02  0.93241508833E+00 -0.10083126118E+02  0.21961618424E+02  0.51100000000E-03 0. -1.
        -11    1    3    3    0    0 -0.89899274000E+01  0.10777558803E+02 -0.56535690128E-01  0.14034876735E+02  0.51100000000E-03 0.  1.
         12    1    3    3    0    0 -0.12885906107E+02  0.76684963035E-02 -0.19418998477E+02  0.23305452942E+02  0.00000000000E+00 0. -1.
</event>
<event>
 7    1  0.5662448E-012  0.5930191E+02  0.7816164E-02  0.1266605E+00
        -11   -1    0    0    0    0  0.00000000000E+00  0.00000000000E+00  0.45593999997E+02  0.45594000000E+02  0.51100000000E-03 0.  1.
         11   -1    0    0    0    0 -0.00000000000E+00 -0.00000000000E+00 -0.45593999997E+02  0.45594000000E+02  0.51100000000E-03 0. -1.
    9900012    2    1    2    0    0 -0.57112254461E+01  0.39242363342E+01  0.31124029632E+02  0.59301906676E+02  0.49999931880E+02 0.  0.
         12    1    1    2    0    0  0.57112254461E+01 -0.39242363342E+01 -0.31124029632E+02  0.31886093324E+02  0.00000000000E+00 0. -1.
         11    1    3    3    0    0 -0.19229073962E+02  0.10215840024E+02  0.12153567389E+02  0.24936516865E+02  0.51100000000E-03 0. -1.
        -11    1    3    3    0    0 -0.62549507833E+01 -0.32791284799E+01  0.40187396397E+00  0.70737964229E+01  0.51100000000E-03 0.  1.
        -12    1    3    3    0    0  0.19772799299E+02 -0.30124752102E+01  0.18568588279E+02  0.27291593388E+02  0.00000000000E+00 0.  1.
</event>
<event>
 7    1  0.5662448E-012  0.5930182E+02  0.7816164E-02  0.1266605E+00
        -11   -1    0    0    0    0  0.00000000000E+00  0.00000000000E+00  0.45593999997E+02  0.45594000000E+02  0.51100000000E-03 0.  1.
         11   -1    0    0    0    0 -0.00000000000E+00 -0.00000000000E+00 -0.45593999997E+02  0.45594000000E+02  0.51100000000E-03 0. -1.
    9900012    2    1    2    0    0  0.60269961961E+01  0.67637275183E+01  0.30572140011E+02  0.59301820581E+02  0.49999774862E+02 0.  0.
         12    1    1    2    0    0 -0.60269961961E+01 -0.67637275183E+01 -0.30572140011E+02  0.31886179419E+02  0.00000000000E+00 0. -1.
         11    1    3    3    0    0 -0.13998082460E+02  0.12401208734E+02  0.71481421868E+01  0.20020794879E+02  0.51100000000E-03 0. -1.
        -11    1    3    3    0    0  0.13742452936E+02 -0.72482845691E+01  0.59459899626E+00  0.15548189288E+02  0.51100000000E-03 0.  1.
        -12    1    3    3    0    0  0.62826257200E+01  0.16108033539E+01  0.22829398828E+02  0.23732836414E+02  0.00000000000E+00 0.  1.
</event>
<event>
 7    1  0.5662448E-012  0.5930195E+02  0.7816164E-02  0.1266605E+00
        -11   -1    0    0    0    0  0.00000000000E+00  0.00000000000E+00  0.45593999997E+02  0.45594000000E+02  0.51100000000E-03 0.  1.
         11   -1    0    0    0    0 -0.00000000000E+00 -0.00000000000E+00 -0.45593999997E+02  0.45594000000E+02  0.51100000000E-03 0. -1.
    9900012    2    1    2    0    0 -0.21003315915E+01 -0.13599009245E+02  0.28764134837E+02  0.59301954492E+02  0.50000019084E+02 0.  0.
         12    1    1    2    0    0  0.21003315915E+01  0.13599009245E+02 -0.28764134837E+02  0.31886045508E+02  0.00000000000E+00 0. -1.
         11    1    3    3    0    0 -0.23614003938E-01 -0.61195352708E+01  0.24561358420E+02  0.25312242043E+02  0.51100000000E-03 0.  1.
        -11    1    3    3    0    0  0.11146698343E+02 -0.96466796923E+01  0.11532257697E+02  0.18716310557E+02  0.51100000000E-03 0. -1.
         12    1    3    3    0    0 -0.13223415931E+02  0.21672057185E+01 -0.73294812795E+01  0.15273401891E+02  0.00000000000E+00 0. -1.
</event>
<event>
 7    1  0.5662448E-012  0.5930198E+02  0.7816164E-02  0.1266605E+00
        -11   -1    0    0    0    0  0.00000000000E+00  0.00000000000E+00  0.45593999997E+02  0.45594000000E+02  0.51100000000E-03 0. -1.
         11   -1    0    0    0    0 -0.00000000000E+00 -0.00000000000E+00 -0.45593999997E+02  0.45594000000E+02  0.51100000000E-03 0.  1.
    9900012    2    1    2    0    0 -0.37222110825E+01  0.24454627265E+02 -0.20120503436E+02  0.59301979418E+02  0.50000064543E+02 0.  0.
         12    1    1    2    0    0  0.37222110825E+01 -0.24454627265E+02  0.20120503436E+02  0.31886020582E+02  0.00000000000E+00 0. -1.
         11    1    3    3    0    0 -0.27907660457E+01 -0.20764152665E+01  0.16233799378E+01  0.38386505655E+01  0.51100000000E-03 0. -1.
        -11    1    3    3    0    0  0.17546472294E+02  0.13617287334E+02  0.25084731663E+01  0.22351770448E+02  0.51100000000E-03 0.  1.
        -12    1    3    3    0    0 -0.18477917330E+02  0.12913755197E+02 -0.24252356541E+02  0.33111558404E+02  0.00000000000E+00 0.  1.
</event>
<event>
 7    1  0.5662448E-012  0.5930194E+02  0.7816164E-02  0.1266605E+00
        -11   -1    0    0    0    0  0.00000000000E+00  0.00000000000E+00  0.45593999997E+02  0.45594000000E+02  0.51100000000E-03 0.  1.
         11   -1    0    0    0    0 -0.00000000000E+00 -0.00000000000E+00 -0.45593999997E+02  0.45594000000E+02  0.51100000000E-03 0. -1.
    9900012    2    1    2    0    0  0.17979568054E+02 -0.64894427742E+01  0.25521422612E+02  0.59301941180E+02  0.49999994806E+02 0.  0.
         12    1    1    2    0    0 -0.17979568054E+02  0.64894427742E+01 -0.25521422612E+02  0.31886058820E+02  0.00000000000E+00 0. -1.
         11    1    3    3    0    0  0.49644799207E+01 -0.86541315873E+01 -0.19024067657E+01  0.10156732062E+02  0.51100000000E-03 0. -1.
        -11    1    3    3    0    0  0.63978145046E+01 -0.18229433631E+02  0.13801718754E+02  0.23743035227E+02  0.51100000000E-03 0.  1.
        -12    1    3    3    0    0  0.66172736287E+01  0.20394122444E+02  0.13622110624E+02  0.25402173891E+02  0.00000000000E+00 0.  1.
</event>
<event>
 7    1  0.5662448E-012  0.5930195E+02  0.7816164E-02  0.1266605E+00
        -11   -1    0    0    0    0  0.00000000000E+00  0.00000000000E+00  0.45593999997E+02  0.45594000000E+02  0.51100000000E-03 0.  1.
         11   -1    0    0    0    0 -0.00000000000E+00 -0.00000000000E+00 -0.45593999997E+02  0.45594000000E+02  0.51100000000E-03 0. -1.
    9900012    2    1    2    0    0  0.22639385607E+02 -0.54995797186E+01  0.21770008474E+02  0.59301946204E+02  0.50000003969E+02 0.  0.
         12    1    1    2    0    0 -0.22639385607E+02  0.54995797186E+01 -0.21770008474E+02  0.31886053796E+02  0.00000000000E+00 0. -1.
         11    1    3    3    0    0 -0.12202096579E+01 -0.77093256395E+01  0.24144011955E+02  0.25374316286E+02  0.51100000000E-03 0. -1.
        -11    1    3    3    0    0 -0.46375437589E+01  0.30604215529E+00  0.19525554828E+01  0.50411255777E+01  0.51100000000E-03 0.  1.
         12    1    3    3    0    0  0.28497139023E+02  0.19037037656E+01 -0.43265589638E+01  0.28886504341E+02  0.00000000000E+00 0. -1.
</event>
<event>
 7    1  0.5662448E-012  0.5930194E+02  0.7816164E-02  0.1266605E+00
        -11   -1    0    0    0    0  0.00000000000E+00  0.00000000000E+00  0.45593999997E+02  0.45594000000E+02  0.51100000000E-03 0. -1.
         11   -1    0    0    0    0 -0.00000000000E+00 -0.00000000000E+00 -0.45593999997E+02  0.45594000000E+02  0.51100000000E-03 0.  1.
    9900012    2    1    2    0    0 -0.24105070593E+02  0.13842026309E+02 -0.15622561485E+02  0.59301944302E+02  0.50000000500E+02 0.  0.
         12    1    1    2    0    0  0.24105070593E+02 -0.13842026309E+02  0.15622561485E+02  0.31886055698E+02  0.00000000000E+00 0. -1.
         11    1    3    3    0    0 -0.58248883095E+01 -0.11190383037E+02 -0.58150412842E+01  0.13891317495E+02  0.51100000000E-03 0. -1.
        -11    1    3    3    0    0 -0.10440837030E+02 -0.14508645278E+01 -0.13947577127E+02  0.17482877158E+02  0.51100000000E-03 0.  1.
         12    1    3    3    0    0 -0.78393452540E+01  0.26483273874E+02  0.41400569260E+01  0.27927749649E+02  0.00000000000E+00 0. -1.
</event>
<event>
 7    1  0.5662448E-012  0.5930193E+02  0.7816164E-02  0.1266605E+00
        -11   -1    0    0    0    0  0.00000000000E+00  0.00000000000E+00  0.45593999997E+02  0.45594000000E+02  0.51100000000E-03 0.  1.
         11   -1    0    0    0    0 -0.00000000000E+00 -0.00000000000E+00 -0.45593999997E+02  0.45594000000E+02  0.51100000000E-03 0. -1.
    9900012    2    1    2    0    0 -0.11749460120E+02 -0.26453096924E+02  0.13375547499E+02  0.59301930614E+02  0.49999975536E+02 0.  0.
         12    1    1    2    0    0  0.11749460120E+02  0.26453096924E+02 -0.13375547499E+02  0.31886069386E+02  0.00000000000E+00 0. -1.
         11    1    3    3    0    0  0.77441965208E+01 -0.61377603408E+01  0.57197228502E+01  0.11417526505E+02  0.51100000000E-03 0. -1.
        -11    1    3    3    0    0 -0.11599170055E+02  0.99587514618E+01 -0.12954393259E+01  0.15342608642E+02  0.51100000000E-03 0.  1.
         12    1    3    3    0    0 -0.78944865864E+01 -0.30274088045E+02  0.89512639744E+01  0.32541795467E+02  0.00000000000E+00 0. -1.
</event>
<event>
 7    1  0.5662448E-012  0.5930192E+02  0.7816164E-02  0.1266605E+00
        -11   -1    0    0    0    0  0.00000000000E+00  0.00000000000E+00  0.45593999997E+02  0.45594000000E+02  0.51100000000E-03 0.  1.
         11   -1    0    0    0    0 -0.00000000000E+00 -0.00000000000E+00 -0.45593999997E+02  0.45594000000E+02  0.51100000000E-03 0. -1.
    9900012    2    1    2    0    0  0.21852415869E+02  0.20264102920E+02  0.11338448679E+02  0.59301915811E+02  0.49999948540E+02 0.  0.
         12    1    1    2    0    0 -0.21852415869E+02 -0.20264102920E+02 -0.11338448679E+02  0.31886084189E+02  0.00000000000E+00 0. -1.
         11    1    3    3    0    0 -0.51157947000E+00  0.73804503288E+00  0.15041217038E+02  0.15068000340E+02  0.51100000000E-03 0. -1.
        -11    1    3    3    0    0 -0.74574451016E+01  0.35681152998E+01 -0.61784186274E+01  0.10320745672E+02  0.51100000000E-03 0.  1.
         12    1    3    3    0    0  0.29821440440E+02  0.15957942587E+02  0.24756502687E+01  0.33913169799E+02  0.00000000000E+00 0. -1.
</event>
<event>
 7    1  0.5662448E-012  0.5930194E+02  0.7816164E-02  0.1266605E+00
        -11   -1    0    0    0    0  0.00000000000E+00  0.00000000000E+00  0.45593999997E+02  0.45594000000E+02  0.51100000000E-03 0.  1.
         11   -1    0    0    0    0 -0.00000000000E+00 -0.00000000000E+00 -0.45593999997E+02  0.45594000000E+02  0.51100000000E-03 0. -1.
    9900012    2    1    2    0    0 -0.29160076232E+02  0.63385678317E+01  0.11235351670E+02  0.59301943249E+02  0.49999998579E+02 0.  0.
         12    1    1    2    0    0  0.29160076232E+02 -0.63385678317E+01 -0.11235351670E+02  0.31886056751E+02  0.00000000000E+00 0. -1.
         11    1    3    3    0    0 -0.23195131972E+01 -0.82694071975E+01  0.41576674699E+01  0.95419828087E+01  0.51100000000E-03 0. -1.
        -11    1    3    3    0    0 -0.26661441909E+02 -0.26347381299E+00 -0.87301278258E+01  0.28055606128E+02  0.51100000000E-03 0.  1.
        -12    1    3    3    0    0 -0.17912112574E+00  0.14871448842E+02  0.15807812026E+02  0.21704354312E+02  0.00000000000E+00 0.  1.
</event>
<event>
 7    1  0.5662448E-012  0.5930199E+02  0.7816164E-02  0.1266605E+00
        -11   -1    0    0    0    0  0.00000000000E+00  0.00000000000E+00  0.45593999997E+02  0.45594000000E+02  0.51100000000E-03 0. -1.
         11   -1    0    0    0    0 -0.00000000000E+00 -0.00000000000E+00 -0.45593999997E+02  0.45594000000E+02  0.51100000000E-03 0.  1.
    9900012    2    1    2    0    0 -0.14447585318E+02 -0.21484015813E+02 -0.18612413799E+02  0.59301990460E+02  0.50000084681E+02 0.  0.
         12    1    1    2    0    0  0.14447585318E+02  0.21484015813E+02  0.18612413799E+02  0.31886009540E+02  0.00000000000E+00 0. -1.
         11    1    3    3    0    0 -0.24569518814E+02  0.10132556907E+01 -0.87665855847E+01  0.26106339554E+02  0.51100000000E-03 0. -1.
        -11    1    3    3    0    0  0.39963221930E+00 -0.84451922784E+01 -0.13302583252E+02  0.15761970054E+02  0.51100000000E-03 0.  1.
        -12    1    3    3    0    0  0.97223012768E+01 -0.14052079225E+02  0.34567550375E+01  0.17433680852E+02  0.00000000000E+00 0.  1.
</event>
<event>
 7    1  0.5662448E-012  0.5930198E+02  0.7816164E-02  0.1266605E+00
        -11   -1    0    0    0    0  0.00000000000E+00  0.00000000000E+00  0.45593999997E+02  0.45594000000E+02  0.51100000000E-03 0.  1.
         11   -1    0    0    0    0 -0.00000000000E+00 -0.00000000000E+00 -0.45593999997E+02  0.45594000000E+02  0.51100000000E-03 0. -1.
    9900012    2    1    2    0    0  0.20209991457E+02  0.67229988549E+01  0.23729217662E+02  0.59301980506E+02  0.50000066527E+02 0.  0.
         12    1    1    2    0    0 -0.20209991457E+02 -0.67229988549E+01 -0.23729217662E+02  0.31886019494E+02  0.00000000000E+00 0. -1.
         11    1    3    3    0    0  0.10168281130E+02  0.10557526008E+02  0.10713925464E+02  0.18156087014E+02  0.51100000000E-03 0. -1.
        -11    1    3    3    0    0  0.22632231579E+02  0.46817574924E+00  0.15730786756E+02  0.27566188475E+02  0.51100000000E-03 0.  1.
         12    1    3    3    0    0 -0.12590521252E+02 -0.43027029024E+01 -0.27154945583E+01  0.13579705017E+02  0.00000000000E+00 0. -1.
</event>
<event>
 7    1  0.5662448E-012  0.5930198E+02  0.7816164E-02  0.1266605E+00
        -11   -1    0    0    0    0  0.00000000000E+00  0.00000000000E+00  0.45593999997E+02  0.45594000000E+02  0.51100000000E-03 0.  1.
         11   -1    0    0    0    0 -0.00000000000E+00 -0.00000000000E+00 -0.45593999997E+02  0.45594000000E+02  0.51100000000E-03 0. -1.
    9900012    2    1    2    0    0 -0.24858079303E+02 -0.70884038152E+01  0.18669459689E+02  0.59301979547E+02  0.50000064778E+02 0.  0.
         12    1    1    2    0    0  0.24858079303E+02  0.70884038152E+01 -0.18669459689E+02  0.31886020453E+02  0.00000000000E+00 0. -1.
         11    1    3    3    0    0 -0.27657599388E+02 -0.64099086652E+01  0.18535758933E+02  0.33905812075E+02  0.51100000000E-03 0. -1.
        -11    1    3    3    0    0 -0.53939174510E+00 -0.37497979847E+01  0.12057422628E+02  0.12638566734E+02  0.51100000000E-03 0.  1.
         12    1    3    3    0    0  0.33389118304E+01  0.30713028347E+01 -0.11923721872E+02  0.12757600738E+02  0.00000000000E+00 0. -1.
</event>
<event>
 7    1  0.5662448E-012  0.5930195E+02  0.7816164E-02  0.1266605E+00
        -11   -1    0    0    0    0  0.00000000000E+00  0.00000000000E+00  0.45593999997E+02  0.45594000000E+02  0.51100000000E-03 0.  1.
         11   -1    0    0    0    0 -0.00000000000E+00 -0.00000000000E+00 -0.45593999997E+02  0.45594000000E+02  0.51100000000E-03 0. -1.
    9900012    2    1    2    0    0 -0.13749796784E+02 -0.20387008339E+02  0.20298607305E+02  0.59301945382E+02  0.50000002469E+02 0.  0.
         12    1    1    2    0    0  0.13749796784E+02  0.20387008339E+02 -0.20298607305E+02  0.31886054618E+02  0.00000000000E+00 0. -1.
         11    1    3    3    0    0  0.26924754739E+01 -0.57097440435E+01  0.18358102594E+02  0.19413153591E+02  0.51100000000E-03 0. -1.
        -11    1    3    3    0    0 -0.21351928436E+02 -0.18557350448E+02  0.97130006880E+01  0.29910240491E+02  0.51100000000E-03 0.  1.
         12    1    3    3    0    0  0.49096561784E+01  0.38800861519E+01 -0.77724959773E+01  0.99785513004E+01  0.00000000000E+00 0. -1.
</event>
<event>
 7    1  0.5662448E-012  0.5930195E+02  0.7816164E-02  0.1266605E+00
        -11   -1    0    0    0    0  0.00000000000E+00  0.00000000000E+00  0.45593999997E+02  0.45594000000E+02  0.51100000000E-03 0.  1.
         11   -1    0    0    0    0 -0.00000000000E+00 -0.00000000000E+00 -0.45593999997E+02  0.45594000000E+02  0.51100000000E-03 0. -1.
    9900012    2    1    2    0    0 -0.87662938366E+01 -0.11136173738E+02  0.28563220999E+02  0.59301954980E+02  0.50000019975E+02 0.  0.
         12    1    1    2    0    0  0.87662938366E+01  0.11136173738E+02 -0.28563220999E+02  0.31886045020E+02  0.00000000000E+00 0. -1.
         11    1    3    3    0    0 -0.79626186136E+00 -0.50436610275E+01  0.28404000661E+02  0.28859310514E+02  0.51100000000E-03 0. -1.
        -11    1    3    3    0    0 -0.18249225454E+02 -0.24545338088E+01  0.40710343223E+01  0.18858215361E+02  0.51100000000E-03 0.  1.
         12    1    3    3    0    0  0.10279193479E+02 -0.36379789014E+01 -0.39118139840E+01  0.11584429106E+02  0.00000000000E+00 0. -1.
</event>
<event>
 7    1  0.5662448E-012  0.5930195E+02  0.7816164E-02  0.1266605E+00
        -11   -1    0    0    0    0  0.00000000000E+00  0.00000000000E+00  0.45593999997E+02  0.45594000000E+02  0.51100000000E-03 0. -1.
         11   -1    0    0    0    0 -0.00000000000E+00 -0.00000000000E+00 -0.45593999997E+02  0.45594000000E+02  0.51100000000E-03 0.  1.
    9900012    2    1    2    0    0 -0.15385576772E+02 -0.27708213782E+02 -0.35013089096E+01  0.59301949011E+02  0.50000009088E+02 0.  0.
         12    1    1    2    0    0  0.15385576772E+02  0.27708213782E+02  0.35013089096E+01  0.31886050989E+02  0.00000000000E+00 0. -1.
         11    1    3    3    0    0  0.33775351222E+01 -0.68794611509E+01  0.14532278686E+01  0.78004231121E+01  0.51100000000E-03 0. -1.
        -11    1    3    3    0    0  0.13158009519E+02 -0.15499716120E+00 -0.78565088999E-01  0.13159156940E+02  0.51100000000E-03 0.  1.
        -12    1    3    3    0    0 -0.31921121413E+02 -0.20673755470E+02 -0.48759716892E+01  0.38342368959E+02  0.00000000000E+00 0.  1.
</event>
<event>
 7    1  0.5662448E-012  0.5930194E+02  0.7816164E-02  0.1266605E+00
        -11   -1    0    0    0    0  0.00000000000E+00  0.00000000000E+00  0.45593999997E+02  0.45594000000E+02  0.51100000000E-03 0. -1.
         11   -1    0    0    0    0 -0.00000000000E+00 -0.00000000000E+00 -0.45593999997E+02  0.45594000000E+02  0.51100000000E-03 0.  1.
    9900012    2    1    2    0    0  0.79993040246E+01  0.30419122580E+02  0.52353354453E+01  0.59301943163E+02  0.49999998422E+02 0.  0.
         12    1    1    2    0    0 -0.79993040246E+01 -0.30419122580E+02 -0.52353354453E+01  0.31886056837E+02  0.00000000000E+00 0. -1.
         11    1    3    3    0    0  0.17832262844E+01  0.59631022754E+00 -0.50772309706E+01  0.54142179914E+01  0.51100000000E-03 0. -1.
        -11    1    3    3    0    0  0.20772679150E+02  0.15104760732E+01  0.16381957221E+01  0.20891850624E+02  0.51100000000E-03 0.  1.
         12    1    3    3    0    0 -0.14556601410E+02  0.28312336279E+02  0.86743706937E+01  0.32995874547E+02  0.00000000000E+00 0. -1.
</event>
<event>
 7    1  0.5662448E-012  0.5930200E+02  0.7816164E-02  0.1266605E+00
        -11   -1    0    0    0    0  0.00000000000E+00  0.00000000000E+00  0.45593999997E+02  0.45594000000E+02  0.51100000000E-03 0.  1.
         11   -1    0    0    0    0 -0.00000000000E+00 -0.00000000000E+00 -0.45593999997E+02  0.45594000000E+02  0.51100000000E-03 0. -1.
    9900012    2    1    2    0    0  0.10357063400E+02 -0.10332950658E+02  0.28331583793E+02  0.59301995675E+02  0.50000094193E+02 0.  0.
         12    1    1    2    0    0 -0.10357063400E+02  0.10332950658E+02 -0.28331583793E+02  0.31886004325E+02  0.00000000000E+00 0. -1.
         11    1    3    3    0    0  0.30562664930E+01 -0.96930980472E+01 -0.49716399450E+00  0.10175661498E+02  0.51100000000E-03 0. -1.
        -11    1    3    3    0    0 -0.70697200020E+00 -0.12648554587E+02  0.31940426728E+02  0.34360974992E+02  0.51100000000E-03 0.  1.
         12    1    3    3    0    0  0.80077689077E+01  0.12008701976E+02 -0.31116789413E+01  0.14765359185E+02  0.00000000000E+00 0. -1.
</event>
<event>
 7    1  0.5662448E-012  0.5930200E+02  0.7816164E-02  0.1266605E+00
        -11   -1    0    0    0    0  0.00000000000E+00  0.00000000000E+00  0.45593999997E+02  0.45594000000E+02  0.51100000000E-03 0.  1.
         11   -1    0    0    0    0 -0.00000000000E+00 -0.00000000000E+00 -0.45593999997E+02  0.45594000000E+02  0.51100000000E-03 0. -1.
    9900012    2    1    2    0    0  0.10473025577E+02  0.56277479838E+00  0.30111730548E+02  0.59301995283E+02  0.50000093477E+02 0.  0.
         12    1    1    2    0    0 -0.10473025577E+02 -0.56277479838E+00 -0.30111730548E+02  0.31886004717E+02  0.00000000000E+00 0. -1.
         11    1    3    3    0    0 -0.22077981810E+01  0.17002472355E+02  0.54203594793E+01  0.17981622178E+02  0.51100000000E-03 0. -1.
        -11    1    3    3    0    0 -0.18420848279E+01 -0.13304195776E+01  0.19629406452E+02  0.19760488118E+02  0.51100000000E-03 0.  1.
        -12    1    3    3    0    0  0.14522908586E+02 -0.15109277980E+02  0.50619646171E+01  0.21559884987E+02  0.00000000000E+00 0.  1.
</event>
<event>
 7    1  0.5662448E-012  0.5930188E+02  0.7816164E-02  0.1266605E+00
        -11   -1    0    0    0    0  0.00000000000E+00  0.00000000000E+00  0.45593999997E+02  0.45594000000E+02  0.51100000000E-03 0.  1.
         11   -1    0    0    0    0 -0.00000000000E+00 -0.00000000000E+00 -0.45593999997E+02  0.45594000000E+02  0.51100000000E-03 0. -1.
    9900012    2    1    2    0    0 -0.10083060975E+02 -0.54439822641E+01  0.29756002899E+02  0.59301878096E+02  0.49999879756E+02 0.  0.
         12    1    1    2    0    0  0.10083060975E+02  0.54439822641E+01 -0.29756002899E+02  0.31886121904E+02  0.00000000000E+00 0. -1.
         11    1    3    3    0    0  0.22029627269E+01 -0.20158771838E+00 -0.80069733553E+01  0.83069431777E+01  0.51100000000E-03 0. -1.
        -11    1    3    3    0    0  0.59407873318E+00  0.10644331148E+02  0.37398232766E+01  0.11297831364E+02  0.51100000000E-03 0.  1.
        -12    1    3    3    0    0 -0.12880102435E+02 -0.15886725694E+02  0.34023152978E+02  0.39697103554E+02  0.00000000000E+00 0.  1.
</event>
<event>
 7    1  0.5662448E-012  0.5930225E+02  0.7816164E-02  0.1266604E+00
        -11   -1    0    0    0    0  0.00000000000E+00  0.00000000000E+00  0.45593999997E+02  0.45594000000E+02  0.51100000000E-03 0. -1.
         11   -1    0    0    0    0 -0.00000000000E+00 -0.00000000000E+00 -0.45593999997E+02  0.45594000000E+02  0.51100000000E-03 0.  1.
    9900012    2    1    2    0    0  0.13980983435E+02 -0.16755468425E+02 -0.23248391570E+02  0.59302245649E+02  0.50000550082E+02 0.  0.
         12    1    1    2    0    0 -0.13980983435E+02  0.16755468425E+02  0.23248391570E+02  0.31885754351E+02  0.00000000000E+00 0. -1.
         11    1    3    3    0    0  0.68197107010E+01  0.58127198894E+01  0.78564427128E+00  0.89951878102E+01  0.51100000000E-03 0. -1.
        -11    1    3    3    0    0  0.16565453405E+02  0.29701154325E+01 -0.11217111024E+02  0.20225217235E+02  0.51100000000E-03 0.  1.
         12    1    3    3    0    0 -0.94041806716E+01 -0.25538303747E+02 -0.12816924817E+02  0.30081840604E+02  0.00000000000E+00 0. -1.
</event>
<event>
 7    1  0.5662448E-012  0.5930198E+02  0.7816164E-02  0.1266605E+00
        -11   -1    0    0    0    0  0.00000000000E+00  0.00000000000E+00  0.45593999997E+02  0.45594000000E+02  0.51100000000E-03 0. -1.
         11   -1    0    0    0    0 -0.00000000000E+00 -0.00000000000E+00 -0.45593999997E+02  0.45594000000E+02  0.51100000000E-03 0.  1.
    9900012    2    1    2    0    0  0.50490872513E+01  0.45702537073E+00 -0.31480409608E+02  0.59301978872E+02  0.50000063548E+02 0.  0.
         12    1    1    2    0    0 -0.50490872513E+01 -0.45702537073E+00  0.31480409608E+02  0.31886021128E+02  0.00000000000E+00 0. -1.
         11    1    3    3    0    0  0.15373872111E+02 -0.22625777769E+01 -0.14966738665E+01  0.15611381579E+02  0.51100000000E-03 0. -1.
        -11    1    3    3    0    0  0.63972853807E+01 -0.83005980274E+01 -0.48331302174E+01  0.11540551799E+02  0.51100000000E-03 0.  1.
         12    1    3    3    0    0 -0.16722070240E+02  0.11020201175E+02 -0.25150605524E+02  0.32150045495E+02  0.00000000000E+00 0. -1.
</event>
<event>
 7    1  0.5662448E-012  0.5930194E+02  0.7816164E-02  0.1266605E+00
        -11   -1    0    0    0    0  0.00000000000E+00  0.00000000000E+00  0.45593999997E+02  0.45594000000E+02  0.51100000000E-03 0. -1.
         11   -1    0    0    0    0 -0.00000000000E+00 -0.00000000000E+00 -0.45593999997E+02  0.45594000000E+02  0.51100000000E-03 0.  1.
    9900012    2    1    2    0    0  0.11582400266E+02 -0.18642981896E+02 -0.23130243715E+02  0.59301938088E+02  0.49999989168E+02 0.  0.
         12    1    1    2    0    0 -0.11582400266E+02  0.18642981896E+02  0.23130243715E+02  0.31886061912E+02  0.00000000000E+00 0. -1.
         11    1    3    3    0    0 -0.49436390297E+01 -0.92385382865E+00 -0.86385202706E+01  0.99958544147E+01  0.51100000000E-03 0. -1.
        -11    1    3    3    0    0 -0.22966369370E+00 -0.16740044423E+02 -0.24567665584E+02  0.29729648925E+02  0.51100000000E-03 0.  1.
        -12    1    3    3    0    0  0.16755702989E+02 -0.97908364487E+00  0.10075942140E+02  0.19576434748E+02  0.00000000000E+00 0.  1.
</event>
<event>
 7    1  0.5662448E-012  0.5930195E+02  0.7816164E-02  0.1266605E+00
        -11   -1    0    0    0    0  0.00000000000E+00  0.00000000000E+00  0.45593999997E+02  0.45594000000E+02  0.51100000000E-03 0. -1.
         11   -1    0    0    0    0 -0.00000000000E+00 -0.00000000000E+00 -0.45593999997E+02  0.45594000000E+02  0.51100000000E-03 0.  1.
    9900012    2    1    2    0    0  0.68815274794E+01 -0.69678986608E+01 -0.30344908387E+02  0.59301945098E+02  0.50000001952E+02 0.  0.
         12    1    1    2    0    0 -0.68815274794E+01  0.69678986608E+01  0.30344908387E+02  0.31886054902E+02  0.00000000000E+00 0. -1.
         11    1    3    3    0    0 -0.20020049610E+02  0.44626886810E+01 -0.14168300605E+02  0.24929073768E+02  0.51100000000E-03 0.  1.
        -11    1    3    3    0    0  0.91265309259E+01 -0.47534532483E+00 -0.27305802808E+01  0.95381124364E+01  0.51100000000E-03 0. -1.
        -12    1    3    3    0    0  0.17775046163E+02 -0.10955242017E+02 -0.13446027501E+02  0.24834758894E+02  0.00000000000E+00 0.  1.
</event>
<event>
 7    1  0.5662448E-012  0.5930196E+02  0.7816164E-02  0.1266605E+00
        -11   -1    0    0    0    0  0.00000000000E+00  0.00000000000E+00  0.45593999997E+02  0.45594000000E+02  0.51100000000E-03 0.  1.
         11   -1    0    0    0    0 -0.00000000000E+00 -0.00000000000E+00 -0.45593999997E+02  0.45594000000E+02  0.51100000000E-03 0. -1.
    9900012    2    1    2    0    0  0.10191727570E+02  0.11201830913E+02  0.28060069876E+02  0.59301955276E+02  0.50000020514E+02 0.  0.
         12    1    1    2    0    0 -0.10191727570E+02 -0.11201830913E+02 -0.28060069876E+02  0.31886044724E+02  0.00000000000E+00 0. -1.
         11    1    3    3    0    0 -0.76744655315E+01  0.14809693955E+02  0.18647645811E+02  0.25019175661E+02  0.51100000000E-03 0. -1.
        -11    1    3    3    0    0  0.30960489287E+01 -0.46029169530E+01  0.16832950091E+02  0.17723446969E+02  0.51100000000E-03 0.  1.
         12    1    3    3    0    0  0.14770144173E+02  0.99505391148E+00 -0.74205260255E+01  0.16559332645E+02  0.00000000000E+00 0. -1.
</event>
<event>
 7    1  0.5662448E-012  0.5930192E+02  0.7816164E-02  0.1266605E+00
        -11   -1    0    0    0    0  0.00000000000E+00  0.00000000000E+00  0.45593999997E+02  0.45594000000E+02  0.51100000000E-03 0. -1.
         11   -1    0    0    0    0 -0.00000000000E+00 -0.00000000000E+00 -0.45593999997E+02  0.45594000000E+02  0.51100000000E-03 0.  1.
    9900012    2    1    2    0    0 -0.19917908118E+02 -0.16010628647E+02 -0.19069837129E+02  0.59301921822E+02  0.49999959502E+02 0.  0.
         12    1    1    2    0    0  0.19917908118E+02  0.16010628647E+02  0.19069837129E+02  0.31886078178E+02  0.00000000000E+00 0. -1.
         11    1    3    3    0    0 -0.22098805616E+02  0.14658205755E+01 -0.67218512377E+01  0.23144958932E+02  0.51100000000E-03 0. -1.
        -11    1    3    3    0    0 -0.12562959329E+02 -0.67833361854E+01 -0.22708718031E+00  0.14279116421E+02  0.51100000000E-03 0.  1.
        -12    1    3    3    0    0  0.14743856828E+02 -0.10693113037E+02 -0.12120898711E+02  0.21877846469E+02  0.00000000000E+00 0.  1.
</event>
<event>
 7    1  0.5662448E-012  0.5930195E+02  0.7816164E-02  0.1266605E+00
        -11   -1    0    0    0    0  0.00000000000E+00  0.00000000000E+00  0.45593999997E+02  0.45594000000E+02  0.51100000000E-03 0.  1.
         11   -1    0    0    0    0 -0.00000000000E+00 -0.00000000000E+00 -0.45593999997E+02  0.45594000000E+02  0.51100000000E-03 0. -1.
    9900012    2    1    2    0    0 -0.28586691624E+02  0.13566225157E+02  0.39343015780E+01  0.59301950826E+02  0.50000012399E+02 0.  0.
         12    1    1    2    0    0  0.28586691624E+02 -0.13566225157E+02 -0.39343015780E+01  0.31886049174E+02  0.00000000000E+00 0. -1.
         11    1    3    3    0    0  0.48242223982E+01 -0.50103841878E+01  0.34003210042E+01  0.77420446039E+01  0.51100000000E-03 0. -1.
        -11    1    3    3    0    0  0.33559258860E+01 -0.27436560337E+01 -0.71580254909E+01  0.83682265847E+01  0.51100000000E-03 0.  1.
        -12    1    3    3    0    0 -0.36766839908E+02  0.21320265379E+02  0.76920060647E+01  0.43191679638E+02  0.00000000000E+00 0.  1.
</event>
<event>
 7    1  0.5662448E-012  0.5930196E+02  0.7816164E-02  0.1266605E+00
        -11   -1    0    0    0    0  0.00000000000E+00  0.00000000000E+00  0.45593999997E+02  0.45594000000E+02  0.51100000000E-03 0. -1.
         11   -1    0    0    0    0 -0.00000000000E+00 -0.00000000000E+00 -0.45593999997E+02  0.45594000000E+02  0.51100000000E-03 0.  1.
    9900012    2    1    2    0    0  0.28322276390E+02  0.11723306689E+02 -0.87824992462E+01  0.59301959910E+02  0.50000028965E+02 0.  0.
         12    1    1    2    0    0 -0.28322276390E+02 -0.11723306689E+02  0.87824992462E+01  0.31886040090E+02  0.00000000000E+00 0. -1.
         11    1    3    3    0    0 -0.21318368500E+01  0.43663281966E+01  0.11792626101E+02  0.12754433774E+02  0.51100000000E-03 0. -1.
        -11    1    3    3    0    0  0.13945795819E+02 -0.10472948761E+02 -0.80019754961E+01  0.19188524927E+02  0.51100000000E-03 0.  1.
        -12    1    3    3    0    0  0.16508317421E+02  0.17829927253E+02 -0.12573149851E+02  0.27359001208E+02  0.00000000000E+00 0.  1.
</event>
<event>
 7    1  0.5662448E-012  0.5930194E+02  0.7816164E-02  0.1266605E+00
        -11   -1    0    0    0    0  0.00000000000E+00  0.00000000000E+00  0.45593999997E+02  0.45594000000E+02  0.51100000000E-03 0.  1.
         11   -1    0    0    0    0 -0.00000000000E+00 -0.00000000000E+00 -0.45593999997E+02  0.45594000000E+02  0.51100000000E-03 0. -1.
    9900012    2    1    2    0    0 -0.25304425873E+02  0.13530835905E+02  0.13904082760E+02  0.59301937113E+02  0.49999987389E+02 0.  0.
         12    1    1    2    0    0  0.25304425873E+02 -0.13530835905E+02 -0.13904082760E+02  0.31886062887E+02  0.00000000000E+00 0. -1.
         11    1    3    3    0    0 -0.84188449148E+01 -0.68573396741E+01 -0.14128738144E+02  0.17819127333E+02  0.51100000000E-03 0. -1.
        -11    1    3    3    0    0 -0.11203937973E+02  0.14055669647E+02  0.79153818598E+01  0.19640349935E+02  0.51100000000E-03 0.  1.
        -12    1    3    3    0    0 -0.56816429853E+01  0.63325059319E+01  0.20117439044E+02  0.21842459845E+02  0.00000000000E+00 0.  1.
</event>
<event>
 7    1  0.5662448E-012  0.5930190E+02  0.7816164E-02  0.1266605E+00
        -11   -1    0    0    0    0  0.00000000000E+00  0.00000000000E+00  0.45593999997E+02  0.45594000000E+02  0.51100000000E-03 0. -1.
         11   -1    0    0    0    0 -0.00000000000E+00 -0.00000000000E+00 -0.45593999997E+02  0.45594000000E+02  0.51100000000E-03 0.  1.
    9900012    2    1    2    0    0 -0.30128866468E+02 -0.96612395263E+01 -0.39541330715E+01  0.59301900957E+02  0.49999921449E+02 0.  0.
         12    1    1    2    0    0  0.30128866468E+02  0.96612395263E+01  0.39541330715E+01  0.31886099043E+02  0.00000000000E+00 0. -1.
         11    1    3    3    0    0  0.65140279297E+01 -0.41956006339E+01  0.25720805611E+01  0.81640200405E+01  0.51100000000E-03 0.  1.
        -11    1    3    3    0    0 -0.28456454794E+01  0.98605829093E+01 -0.93995078506E+01  0.13916879736E+02  0.51100000000E-03 0. -1.
        -12    1    3    3    0    0 -0.33797248918E+02 -0.15326221802E+02  0.28732942180E+01  0.37221001180E+02  0.00000000000E+00 0.  1.
</event>
<event>
 7    1  0.5662448E-012  0.5930195E+02  0.7816164E-02  0.1266605E+00
        -11   -1    0    0    0    0  0.00000000000E+00  0.00000000000E+00  0.45593999997E+02  0.45594000000E+02  0.51100000000E-03 0.  1.
         11   -1    0    0    0    0 -0.00000000000E+00 -0.00000000000E+00 -0.45593999997E+02  0.45594000000E+02  0.51100000000E-03 0. -1.
    9900012    2    1    2    0    0 -0.36486562574E+01  0.24822464079E+02  0.19678745743E+02  0.59301945847E+02  0.50000003319E+02 0.  0.
         12    1    1    2    0    0  0.36486562574E+01 -0.24822464079E+02 -0.19678745743E+02  0.31886054153E+02  0.00000000000E+00 0. -1.
         11    1    3    3    0    0 -0.18550844252E+02 -0.53229276639E+01  0.22591823012E+01  0.19431193641E+02  0.51100000000E-03 0. -1.
        -11    1    3    3    0    0 -0.19796228704E+01  0.52874806578E+01  0.42311748129E+01  0.70554375466E+01  0.51100000000E-03 0.  1.
         12    1    3    3    0    0  0.16881810866E+02  0.24857911085E+02  0.13188388628E+02  0.32815314660E+02  0.00000000000E+00 0. -1.
</event>
<event>
 7    1  0.5662448E-012  0.5930194E+02  0.7816164E-02  0.1266605E+00
        -11   -1    0    0    0    0  0.00000000000E+00  0.00000000000E+00  0.45593999997E+02  0.45594000000E+02  0.51100000000E-03 0. -1.
         11   -1    0    0    0    0 -0.00000000000E+00 -0.00000000000E+00 -0.45593999997E+02  0.45594000000E+02  0.51100000000E-03 0.  1.
    9900012    2    1    2    0    0  0.15429813127E+02 -0.94879928364E+01 -0.26241567122E+02  0.59301937430E+02  0.49999987967E+02 0.  0.
         12    1    1    2    0    0 -0.15429813127E+02  0.94879928364E+01  0.26241567122E+02  0.31886062570E+02  0.00000000000E+00 0. -1.
         11    1    3    3    0    0  0.12946828542E+02 -0.11221322303E+02 -0.39375145668E+01  0.17579603657E+02  0.51100000000E-03 0. -1.
        -11    1    3    3    0    0  0.15738853224E+02  0.11175283753E+01 -0.23600325800E+02  0.28389007531E+02  0.51100000000E-03 0.  1.
         12    1    3    3    0    0 -0.13255868638E+02  0.61580109088E+00  0.12962732451E+01  0.13333326242E+02  0.00000000000E+00 0. -1.
</event>
<event>
 7    1  0.5662448E-012  0.5930196E+02  0.7816164E-02  0.1266605E+00
        -11   -1    0    0    0    0  0.00000000000E+00  0.00000000000E+00  0.45593999997E+02  0.45594000000E+02  0.51100000000E-03 0.  1.
         11   -1    0    0    0    0 -0.00000000000E+00 -0.00000000000E+00 -0.45593999997E+02  0.45594000000E+02  0.51100000000E-03 0. -1.
    9900012    2    1    2    0    0 -0.11771556388E+02  0.12432335855E+01  0.29607507923E+02  0.59301957678E+02  0.50000024895E+02 0.  0.
         12    1    1    2    0    0  0.11771556388E+02 -0.12432335855E+01 -0.29607507923E+02  0.31886042322E+02  0.00000000000E+00 0. -1.
         11    1    3    3    0    0  0.34371172262E+01  0.44295878705E+01  0.89165770843E+01  0.10532823491E+02  0.51100000000E-03 0. -1.
        -11    1    3    3    0    0 -0.28285939297E+02  0.50130975834E+01  0.13558471077E+02  0.31765667748E+02  0.51100000000E-03 0.  1.
         12    1    3    3    0    0  0.13077265683E+02 -0.81994518684E+01  0.71324597620E+01  0.17003466439E+02  0.00000000000E+00 0. -1.
</event>
<event>
 7    1  0.5662448E-012  0.5930195E+02  0.7816164E-02  0.1266605E+00
        -11   -1    0    0    0    0  0.00000000000E+00  0.00000000000E+00  0.45593999997E+02  0.45594000000E+02  0.51100000000E-03 0. -1.
         11   -1    0    0    0    0 -0.00000000000E+00 -0.00000000000E+00 -0.45593999997E+02  0.45594000000E+02  0.51100000000E-03 0.  1.
    9900012    2    1    2    0    0  0.88629629597E+01 -0.30614775158E+02 -0.95048345308E+00  0.59301953065E+02  0.50000016481E+02 0.  0.
         12    1    1    2    0    0 -0.88629629597E+01  0.30614775158E+02  0.95048345308E+00  0.31886046935E+02  0.00000000000E+00 0. -1.
         11    1    3    3    0    0  0.94758945968E+01 -0.48732788312E+01  0.86767602841E+00  0.10690850618E+02  0.51100000000E-03 0. -1.
        -11    1    3    3    0    0  0.11034009219E+02  0.43464678324E+01  0.86646017435E+01  0.14687289256E+02  0.51100000000E-03 0.  1.
        -12    1    3    3    0    0 -0.11646940856E+02 -0.30087964159E+02 -0.10482761225E+02  0.33923813191E+02  0.00000000000E+00 0.  1.
</event>
<event>
 7    1  0.5662448E-012  0.5930198E+02  0.7816164E-02  0.1266605E+00
        -11   -1    0    0    0    0  0.00000000000E+00  0.00000000000E+00  0.45593999997E+02  0.45594000000E+02  0.51100000000E-03 0. -1.
         11   -1    0    0    0    0 -0.00000000000E+00 -0.00000000000E+00 -0.45593999997E+02  0.45594000000E+02  0.51100000000E-03 0.  1.
    9900012    2    1    2    0    0 -0.14846345568E+02 -0.19391785475E+02  0.20500318296E+02  0.59301978441E+02  0.50000062762E+02 0.  0.
         12    1    1    2    0    0  0.14846345568E+02  0.19391785475E+02 -0.20500318296E+02  0.31886021559E+02  0.00000000000E+00 0. -1.
         11    1    3    3    0    0  0.85502122488E+01 -0.15915098706E+02  0.94532928986E+01  0.20390224207E+02  0.51100000000E-03 0. -1.
        -11    1    3    3    0    0  0.93304031753E+00  0.77700615393E+01  0.91516707541E+01  0.12041490706E+02  0.51100000000E-03 0.  1.
        -12    1    3    3    0    0 -0.24329598134E+02 -0.11246748308E+02  0.18953546436E+01  0.26870263528E+02  0.00000000000E+00 0.  1.
</event>
<event>
 7    1  0.5662448E-012  0.5930197E+02  0.7816164E-02  0.1266605E+00
        -11   -1    0    0    0    0  0.00000000000E+00  0.00000000000E+00  0.45593999997E+02  0.45594000000E+02  0.51100000000E-03 0.  1.
         11   -1    0    0    0    0 -0.00000000000E+00 -0.00000000000E+00 -0.45593999997E+02  0.45594000000E+02  0.51100000000E-03 0. -1.
    9900012    2    1    2    0    0  0.27527777847E+02 -0.95693322143E+01  0.12937075649E+02  0.59301974870E+02  0.50000056250E+02 0.  0.
         12    1    1    2    0    0 -0.27527777847E+02  0.95693322143E+01 -0.12937075649E+02  0.31886025130E+02  0.00000000000E+00 0. -1.
         11    1    3    3    0    0 -0.37916928003E+01 -0.16336531945E+01 -0.31617336021E+01  0.52002227533E+01  0.51100000000E-03 0. -1.
        -11    1    3    3    0    0  0.23650300226E+02  0.14586372534E+02  0.72440046130E+01  0.28715406450E+02  0.51100000000E-03 0.  1.
        -12    1    3    3    0    0  0.76691704217E+01 -0.22522051554E+02  0.88548046381E+01  0.25386345667E+02  0.00000000000E+00 0.  1.
</event>
<event>
 7    1  0.5662448E-012  0.5930195E+02  0.7816164E-02  0.1266605E+00
        -11   -1    0    0    0    0  0.00000000000E+00  0.00000000000E+00  0.45593999997E+02  0.45594000000E+02  0.51100000000E-03 0.  1.
         11   -1    0    0    0    0 -0.00000000000E+00 -0.00000000000E+00 -0.45593999997E+02  0.45594000000E+02  0.51100000000E-03 0. -1.
    9900012    2    1    2    0    0  0.22653097016E+02 -0.47981183228E+01 -0.21921115796E+02  0.59301951929E+02  0.50000014409E+02 0.  0.
         12    1    1    2    0    0 -0.22653097016E+02  0.47981183228E+01  0.21921115796E+02  0.31886048071E+02  0.00000000000E+00 0. -1.
         11    1    3    3    0    0 -0.11874247377E+01 -0.64562974704E+00 -0.46978096256E+01  0.48883771149E+01  0.51100000000E-03 0. -1.
        -11    1    3    3    0    0  0.60780737227E+01 -0.11170869077E+02 -0.29214506815E+02  0.31862496839E+02  0.51100000000E-03 0.  1.
         12    1    3    3    0    0  0.17762448031E+02  0.70183805015E+01  0.11991200644E+02  0.22551077974E+02  0.00000000000E+00 0. -1.
</event>
<event>
 7    1  0.5662448E-012  0.5930195E+02  0.7816164E-02  0.1266605E+00
        -11   -1    0    0    0    0  0.00000000000E+00  0.00000000000E+00  0.45593999997E+02  0.45594000000E+02  0.51100000000E-03 0.  1.
         11   -1    0    0    0    0 -0.00000000000E+00 -0.00000000000E+00 -0.45593999997E+02  0.45594000000E+02  0.51100000000E-03 0. -1.
    9900012    2    1    2    0    0  0.10819601455E+02  0.18292852689E+02  0.23770319482E+02  0.59301947823E+02  0.50000006922E+02 0.  0.
         12    1    1    2    0    0 -0.10819601455E+02 -0.18292852689E+02 -0.23770319482E+02  0.31886052177E+02  0.00000000000E+00 0. -1.
         11    1    3    3    0    0  0.23472885202E+01  0.26332128221E+01  0.29566362102E+01  0.46027460395E+01  0.51100000000E-03 0. -1.
        -11    1    3    3    0    0  0.18503225854E+01  0.16097821962E+02 -0.12666848171E+02  0.20567270320E+02  0.51100000000E-03 0.  1.
         12    1    3    3    0    0  0.66219903497E+01 -0.43818209456E+00  0.33480531443E+02  0.34131931463E+02  0.00000000000E+00 0. -1.
</event>
<event>
 7    1  0.5662448E-012  0.5930194E+02  0.7816164E-02  0.1266605E+00
        -11   -1    0    0    0    0  0.00000000000E+00  0.00000000000E+00  0.45593999997E+02  0.45594000000E+02  0.51100000000E-03 0.  1.
         11   -1    0    0    0    0 -0.00000000000E+00 -0.00000000000E+00 -0.45593999997E+02  0.45594000000E+02  0.51100000000E-03 0. -1.
    9900012    2    1    2    0    0  0.98042402353E+01 -0.62418120980E+01  0.29692383090E+02  0.59301937866E+02  0.49999988762E+02 0.  0.
         12    1    1    2    0    0 -0.98042402353E+01  0.62418120980E+01 -0.29692383090E+02  0.31886062134E+02  0.00000000000E+00 0. -1.
         11    1    3    3    0    0  0.28798785280E+01 -0.50298150167E+01  0.25500683065E+02  0.26151053067E+02  0.51100000000E-03 0.  1.
        -11    1    3    3    0    0  0.52206446031E+01 -0.15821821431E+02 -0.27499678658E+01  0.16886310639E+02  0.51100000000E-03 0. -1.
        -12    1    3    3    0    0  0.17037171042E+01  0.14609824350E+02  0.69416678906E+01  0.16264574160E+02  0.00000000000E+00 0.  1.
</event>
<event>
 7    1  0.5662448E-012  0.5930195E+02  0.7816164E-02  0.1266605E+00
        -11   -1    0    0    0    0  0.00000000000E+00  0.00000000000E+00  0.45593999997E+02  0.45594000000E+02  0.51100000000E-03 0. -1.
         11   -1    0    0    0    0 -0.00000000000E+00 -0.00000000000E+00 -0.45593999997E+02  0.45594000000E+02  0.51100000000E-03 0.  1.
    9900012    2    1    2    0    0  0.16247116751E+02 -0.79117872409E+00 -0.27424906804E+02  0.59301948508E+02  0.50000008172E+02 0.  0.
         12    1    1    2    0    0 -0.16247116751E+02  0.79117872409E+00  0.27424906804E+02  0.31886051492E+02  0.00000000000E+00 0. -1.
         11    1    3    3    0    0  0.76885080319E+01  0.15277168591E+02 -0.12996982372E+02  0.21480842324E+02  0.51100000000E-03 0. -1.
        -11    1    3    3    0    0 -0.50966600639E+01  0.66090457701E+01 -0.20246757799E+01  0.85880581084E+01  0.51100000000E-03 0.  1.
        -12    1    3    3    0    0  0.13655268783E+02 -0.22677393085E+02 -0.12403248652E+02  0.29233048076E+02  0.00000000000E+00 0.  1.
</event>
<event>
 7    1  0.5662448E-012  0.5930194E+02  0.7816164E-02  0.1266605E+00
        -11   -1    0    0    0    0  0.00000000000E+00  0.00000000000E+00  0.45593999997E+02  0.45594000000E+02  0.51100000000E-03 0. -1.
         11   -1    0    0    0    0 -0.00000000000E+00 -0.00000000000E+00 -0.45593999997E+02  0.45594000000E+02  0.51100000000E-03 0.  1.
    9900012    2    1    2    0    0 -0.22599436349E+02  0.16278113803E+02  0.15524480480E+02  0.59301937113E+02  0.49999987388E+02 0.  0.
         12    1    1    2    0    0  0.22599436349E+02 -0.16278113803E+02 -0.15524480480E+02  0.31886062887E+02  0.00000000000E+00 0. -1.
         11    1    3    3    0    0 -0.72755650429E+01  0.36675557208E+01  0.48680110436E+01  0.94911718687E+01  0.51100000000E-03 0.  1.
        -11    1    3    3    0    0 -0.37000218140E+01 -0.13059961229E+02 -0.82424957666E+01  0.15880537946E+02  0.51100000000E-03 0. -1.
         12    1    3    3    0    0 -0.11623849492E+02  0.25670519312E+02  0.18898965203E+02  0.33930227298E+02  0.00000000000E+00 0. -1.
</event>
<event>
 7    1  0.5662448E-012  0.5930203E+02  0.7816164E-02  0.1266604E+00
        -11   -1    0    0    0    0  0.00000000000E+00  0.00000000000E+00  0.45593999997E+02  0.45594000000E+02  0.51100000000E-03 0.  1.
         11   -1    0    0    0    0 -0.00000000000E+00 -0.00000000000E+00 -0.45593999997E+02  0.45594000000E+02  0.51100000000E-03 0. -1.
    9900012    2    1    2    0    0  0.31621165870E+01  0.31714286223E+02 -0.95935676759E+00  0.59302026636E+02  0.50000150658E+02 0.  0.
         12    1    1    2    0    0 -0.31621165870E+01 -0.31714286223E+02  0.95935676759E+00  0.31885973364E+02  0.00000000000E+00 0. -1.
         11    1    3    3    0    0 -0.28170010768E+01  0.41923274630E+01 -0.13926153491E+02  0.14813806261E+02  0.51100000000E-03 0. -1.
        -11    1    3    3    0    0 -0.30945499012E+01 -0.36305453578E+01  0.10990379417E+02  0.11981049147E+02  0.51100000000E-03 0.  1.
        -12    1    3    3    0    0  0.90736675651E+01  0.31152504118E+02  0.19764173070E+01  0.32507171228E+02  0.00000000000E+00 0.  1.
</event>
<event>
 7    1  0.5662448E-012  0.5930194E+02  0.7816164E-02  0.1266605E+00
        -11   -1    0    0    0    0  0.00000000000E+00  0.00000000000E+00  0.45593999997E+02  0.45594000000E+02  0.51100000000E-03 0. -1.
         11   -1    0    0    0    0 -0.00000000000E+00 -0.00000000000E+00 -0.45593999997E+02  0.45594000000E+02  0.51100000000E-03 0.  1.
    9900012    2    1    2    0    0  0.40805038832E+01  0.27398843741E+02 -0.15791579604E+02  0.59301935071E+02  0.49999983665E+02 0.  0.
         12    1    1    2    0    0 -0.40805038832E+01 -0.27398843741E+02  0.15791579604E+02  0.31886064929E+02  0.00000000000E+00 0. -1.
         11    1    3    3    0    0 -0.13702518426E+02  0.23736647493E+02 -0.11406508345E+02  0.29686627938E+02  0.51100000000E-03 0. -1.
        -11    1    3    3    0    0  0.51102597695E+01  0.12663437886E+02 -0.32028128641E+01  0.14026240569E+02  0.51100000000E-03 0.  1.
        -12    1    3    3    0    0  0.12672762540E+02 -0.90012416379E+01 -0.11822583946E+01  0.15589066564E+02  0.00000000000E+00 0.  1.
</event>
<event>
 7    1  0.5662448E-012  0.5930199E+02  0.7816164E-02  0.1266605E+00
        -11   -1    0    0    0    0  0.00000000000E+00  0.00000000000E+00  0.45593999997E+02  0.45594000000E+02  0.51100000000E-03 0.  1.
         11   -1    0    0    0    0 -0.00000000000E+00 -0.00000000000E+00 -0.45593999997E+02  0.45594000000E+02  0.51100000000E-03 0. -1.
    9900012    2    1    2    0    0 -0.22932865851E+02  0.21567194432E+02 -0.50653323914E+01  0.59301987329E+02  0.50000078971E+02 0.  0.
         12    1    1    2    0    0  0.22932865851E+02 -0.21567194432E+02  0.50653323914E+01  0.31886012671E+02  0.00000000000E+00 0. -1.
         11    1    3    3    0    0 -0.99407218961E+01  0.56031923387E+01 -0.16233601587E+02  0.19842971978E+02  0.51100000000E-03 0. -1.
        -11    1    3    3    0    0 -0.12394416736E+02 -0.59915849666E+01 -0.19067715370E+01  0.13898073053E+02  0.51100000000E-03 0.  1.
        -12    1    3    3    0    0 -0.59772721890E+00  0.21955587060E+02  0.13075040732E+02  0.25560942297E+02  0.00000000000E+00 0.  1.
</event>
<event>
 7    1  0.5662448E-012  0.5930193E+02  0.7816164E-02  0.1266605E+00
        -11   -1    0    0    0    0  0.00000000000E+00  0.00000000000E+00  0.45593999997E+02  0.45594000000E+02  0.51100000000E-03 0. -1.
         11   -1    0    0    0    0 -0.00000000000E+00 -0.00000000000E+00 -0.45593999997E+02  0.45594000000E+02  0.51100000000E-03 0.  1.
    9900012    2    1    2    0    0  0.22242826382E+02  0.15364718267E+02  0.16908682948E+02  0.59301930128E+02  0.49999974650E+02 0.  0.
         12    1    1    2    0    0 -0.22242826382E+02 -0.15364718267E+02 -0.16908682948E+02  0.31886069872E+02  0.00000000000E+00 0. -1.
         11    1    3    3    0    0 -0.90641479084E+01 -0.39150502573E+01  0.37019769533E-01  0.98735893447E+01  0.51100000000E-03 0. -1.
        -11    1    3    3    0    0  0.25384611366E+02  0.19552276996E+01  0.14687596637E+01  0.25502130593E+02  0.51100000000E-03 0.  1.
         12    1    3    3    0    0  0.59223629244E+01  0.17324540825E+02  0.15402903514E+02  0.23926210190E+02  0.00000000000E+00 0. -1.
</event>
<event>
 7    1  0.5662448E-012  0.5930195E+02  0.7816164E-02  0.1266605E+00
        -11   -1    0    0    0    0  0.00000000000E+00  0.00000000000E+00  0.45593999997E+02  0.45594000000E+02  0.51100000000E-03 0.  1.
         11   -1    0    0    0    0 -0.00000000000E+00 -0.00000000000E+00 -0.45593999997E+02  0.45594000000E+02  0.51100000000E-03 0. -1.
    9900012    2    1    2    0    0 -0.68630314859E+01  0.23978660807E+02  0.19865624656E+02  0.59301946336E+02  0.50000004210E+02 0.  0.
         12    1    1    2    0    0  0.68630314859E+01 -0.23978660807E+02 -0.19865624656E+02  0.31886053664E+02  0.00000000000E+00 0. -1.
         11    1    3    3    0    0  0.69787020931E+01  0.80625021522E+01  0.11520001189E+02  0.15697663887E+02  0.51100000000E-03 0. -1.
        -11    1    3    3    0    0 -0.32058546052E+00  0.35097620290E+01  0.21012828302E+02  0.21306340795E+02  0.51100000000E-03 0.  1.
         12    1    3    3    0    0 -0.13521148118E+02  0.12406396626E+02 -0.12667204835E+02  0.22297941654E+02  0.00000000000E+00 0. -1.
</event>
<event>
 7    1  0.5662448E-012  0.5930195E+02  0.7816164E-02  0.1266605E+00
        -11   -1    0    0    0    0  0.00000000000E+00  0.00000000000E+00  0.45593999997E+02  0.45594000000E+02  0.51100000000E-03 0.  1.
         11   -1    0    0    0    0 -0.00000000000E+00 -0.00000000000E+00 -0.45593999997E+02  0.45594000000E+02  0.51100000000E-03 0. -1.
    9900012    2    1    2    0    0 -0.40313740983E+01 -0.22712927119E+02 -0.22013437975E+02  0.59301945260E+02  0.50000002247E+02 0.  0.
         12    1    1    2    0    0  0.40313740983E+01  0.22712927119E+02  0.22013437975E+02  0.31886054740E+02  0.00000000000E+00 0. -1.
         11    1    3    3    0    0  0.49257262659E+01  0.23147804413E+01  0.24566740925E+01  0.59712842502E+01  0.51100000000E-03 0. -1.
        -11    1    3    3    0    0  0.13847364399E+02 -0.17313255601E+02 -0.59419689161E+01  0.22952239873E+02  0.51100000000E-03 0.  1.
         12    1    3    3    0    0 -0.22804464763E+02 -0.77144519586E+01 -0.18528143151E+02  0.30378421137E+02  0.00000000000E+00 0. -1.
</event>
<event>
 7    1  0.5662448E-012  0.5930199E+02  0.7816164E-02  0.1266605E+00
        -11   -1    0    0    0    0  0.00000000000E+00  0.00000000000E+00  0.45593999997E+02  0.45594000000E+02  0.51100000000E-03 0. -1.
         11   -1    0    0    0    0 -0.00000000000E+00 -0.00000000000E+00 -0.45593999997E+02  0.45594000000E+02  0.51100000000E-03 0.  1.
    9900012    2    1    2    0    0 -0.31150896731E+02  0.50410676489E+01 -0.45746143704E+01  0.59301986972E+02  0.50000078321E+02 0.  0.
         12    1    1    2    0    0  0.31150896731E+02 -0.50410676489E+01  0.45746143704E+01  0.31886013028E+02  0.00000000000E+00 0. -1.
         11    1    3    3    0    0  0.36150676163E+01 -0.99646227972E+01  0.25745476924E+01  0.10908286641E+02  0.51100000000E-03 0. -1.
        -11    1    3    3    0    0 -0.24394553426E+02  0.17544857247E+02 -0.16429375539E+02  0.34246760921E+02  0.51100000000E-03 0.  1.
         12    1    3    3    0    0 -0.10371410920E+02 -0.25391668006E+01  0.92802134765E+01  0.14146939411E+02  0.00000000000E+00 0. -1.
</event>
<event>
 7    1  0.5662448E-012  0.5930192E+02  0.7816164E-02  0.1266605E+00
        -11   -1    0    0    0    0  0.00000000000E+00  0.00000000000E+00  0.45593999997E+02  0.45594000000E+02  0.51100000000E-03 0.  1.
         11   -1    0    0    0    0 -0.00000000000E+00 -0.00000000000E+00 -0.45593999997E+02  0.45594000000E+02  0.51100000000E-03 0. -1.
    9900012    2    1    2    0    0 -0.76365325124E+01 -0.28174832939E+02  0.12829033004E+02  0.59301922666E+02  0.49999961042E+02 0.  0.
         12    1    1    2    0    0  0.76365325124E+01  0.28174832939E+02 -0.12829033004E+02  0.31886077334E+02  0.00000000000E+00 0. -1.
         11    1    3    3    0    0 -0.10789659262E+02 -0.12457760847E+02  0.27976731250E+01  0.16716444822E+02  0.51100000000E-03 0. -1.
        -11    1    3    3    0    0 -0.13400358862E+00 -0.23360333500E+02  0.19175313589E+02  0.30222769392E+02  0.51100000000E-03 0.  1.
         12    1    3    3    0    0  0.32871303385E+01  0.76432614086E+01 -0.91439537104E+01  0.12362708452E+02  0.00000000000E+00 0. -1.
</event>
<event>
 7    1  0.5662448E-012  0.5930194E+02  0.7816164E-02  0.1266605E+00
        -11   -1    0    0    0    0  0.00000000000E+00  0.00000000000E+00  0.45593999997E+02  0.45594000000E+02  0.51100000000E-03 0.  1.
         11   -1    0    0    0    0 -0.00000000000E+00 -0.00000000000E+00 -0.45593999997E+02  0.45594000000E+02  0.51100000000E-03 0. -1.
    9900012    2    1    2    0    0 -0.32331568773E+01 -0.12882932039E+02  0.28987881773E+02  0.59301944569E+02  0.50000000986E+02 0.  0.
         12    1    1    2    0    0  0.32331568773E+01  0.12882932039E+02 -0.28987881773E+02  0.31886055431E+02  0.00000000000E+00 0. -1.
         11    1    3    3    0    0  0.13485616530E+02  0.12735654441E+00  0.19371874501E+02  0.23603974132E+02  0.51100000000E-03 0. -1.
        -11    1    3    3    0    0 -0.12782179345E+02 -0.81857223876E+01  0.19072681389E+02  0.24375342775E+02  0.51100000000E-03 0.  1.
         12    1    3    3    0    0 -0.39365940632E+01 -0.48245661958E+01 -0.94566741170E+01  0.11322627661E+02  0.00000000000E+00 0. -1.
</event>
<event>
 7    1  0.5662448E-012  0.5930198E+02  0.7816164E-02  0.1266605E+00
        -11   -1    0    0    0    0  0.00000000000E+00  0.00000000000E+00  0.45593999997E+02  0.45594000000E+02  0.51100000000E-03 0. -1.
         11   -1    0    0    0    0 -0.00000000000E+00 -0.00000000000E+00 -0.45593999997E+02  0.45594000000E+02  0.51100000000E-03 0.  1.
    9900012    2    1    2    0    0  0.10449919158E+02  0.20069751279E+02  0.22466032627E+02  0.59301978787E+02  0.50000063392E+02 0.  0.
         12    1    1    2    0    0 -0.10449919158E+02 -0.20069751279E+02 -0.22466032627E+02  0.31886021213E+02  0.00000000000E+00 0. -1.
         11    1    3    3    0    0 -0.35571494057E+01 -0.47648086293E+01  0.17733549241E+02  0.18703889492E+02  0.51100000000E-03 0. -1.
        -11    1    3    3    0    0  0.12109580898E+02  0.57488872813E+01  0.13925462987E+02  0.19328998271E+02  0.51100000000E-03 0.  1.
        -12    1    3    3    0    0  0.18974876653E+01  0.19085672627E+02 -0.91929796006E+01  0.21269091024E+02  0.00000000000E+00 0.  1.
</event>
<event>
 7    1  0.5662448E-012  0.5930195E+02  0.7816164E-02  0.1266605E+00
        -11   -1    0    0    0    0  0.00000000000E+00  0.00000000000E+00  0.45593999997E+02  0.45594000000E+02  0.51100000000E-03 0.  1.
         11   -1    0    0    0    0 -0.00000000000E+00 -0.00000000000E+00 -0.45593999997E+02  0.45594000000E+02  0.51100000000E-03 0. -1.
    9900012    2    1    2    0    0  0.27839848121E+02 -0.10971038138E+01  0.15506762274E+02  0.59301945738E+02  0.50000003119E+02 0.  0.
         12    1    1    2    0    0 -0.27839848121E+02  0.10971038138E+01 -0.15506762274E+02  0.31886054262E+02  0.00000000000E+00 0. -1.
         11    1    3    3    0    0 -0.90330271890E+01 -0.35973486217E+01  0.97825899690E+00  0.97720769660E+01  0.51100000000E-03 0. -1.
        -11    1    3    3    0    0  0.11263263321E+02  0.92997125942E+01 -0.62203762015E+01  0.15875731017E+02  0.51100000000E-03 0.  1.
         12    1    3    3    0    0  0.25609611989E+02 -0.67994677863E+01  0.20748879478E+02  0.33654137755E+02  0.00000000000E+00 0. -1.
</event>
<event>
 7    1  0.5662448E-012  0.5930193E+02  0.7816164E-02  0.1266605E+00
        -11   -1    0    0    0    0  0.00000000000E+00  0.00000000000E+00  0.45593999997E+02  0.45594000000E+02  0.51100000000E-03 0.  1.
         11   -1    0    0    0    0 -0.00000000000E+00 -0.00000000000E+00 -0.45593999997E+02  0.45594000000E+02  0.51100000000E-03 0. -1.
    9900012    2    1    2    0    0  0.24225468977E+02  0.25363485545E+01  0.20577054694E+02  0.59301927946E+02  0.49999970670E+02 0.  0.
         12    1    1    2    0    0 -0.24225468977E+02 -0.25363485545E+01 -0.20577054694E+02  0.31886072054E+02  0.00000000000E+00 0. -1.
         11    1    3    3    0    0  0.18736635005E+02  0.23505730787E+01  0.13600005254E+02  0.23271158723E+02  0.51100000000E-03 0. -1.
        -11    1    3    3    0    0  0.18887957238E+02 -0.69160347692E+01  0.50950297135E+01  0.20749597432E+02  0.51100000000E-03 0.  1.
         12    1    3    3    0    0 -0.13399123266E+02  0.71018102450E+01  0.18820197267E+01  0.15281171791E+02  0.00000000000E+00 0. -1.
</event>
<event>
 7    1  0.5662448E-012  0.5930196E+02  0.7816164E-02  0.1266605E+00
        -11   -1    0    0    0    0  0.00000000000E+00  0.00000000000E+00  0.45593999997E+02  0.45594000000E+02  0.51100000000E-03 0.  1.
         11   -1    0    0    0    0 -0.00000000000E+00 -0.00000000000E+00 -0.45593999997E+02  0.45594000000E+02  0.51100000000E-03 0. -1.
    9900012    2    1    2    0    0 -0.22869150888E+02 -0.19305098437E+02  0.11001583362E+02  0.59301957215E+02  0.50000024051E+02 0.  0.
         12    1    1    2    0    0  0.22869150888E+02  0.19305098437E+02 -0.11001583362E+02  0.31886042785E+02  0.00000000000E+00 0. -1.
         11    1    3    3    0    0 -0.13368301856E+02 -0.22896584376E+02  0.16200740788E+02  0.31071354540E+02  0.51100000000E-03 0.  1.
        -11    1    3    3    0    0 -0.51741440525E+00  0.10048074660E+02  0.66182306041E+01  0.12042943936E+02  0.51100000000E-03 0. -1.
         12    1    3    3    0    0 -0.89834346272E+01 -0.64565887217E+01 -0.11817388030E+02  0.16187658740E+02  0.00000000000E+00 0. -1.
</event>
<event>
 7    1  0.5662448E-012  0.5930194E+02  0.7816164E-02  0.1266605E+00
        -11   -1    0    0    0    0  0.00000000000E+00  0.00000000000E+00  0.45593999997E+02  0.45594000000E+02  0.51100000000E-03 0. -1.
         11   -1    0    0    0    0 -0.00000000000E+00 -0.00000000000E+00 -0.45593999997E+02  0.45594000000E+02  0.51100000000E-03 0.  1.
    9900012    2    1    2    0    0  0.12361973465E+02  0.10622867030E+02 -0.27405424786E+02  0.59301937220E+02  0.49999987585E+02 0.  0.
         12    1    1    2    0    0 -0.12361973465E+02 -0.10622867030E+02  0.27405424786E+02  0.31886062780E+02  0.00000000000E+00 0. -1.
         11    1    3    3    0    0  0.10330395987E+02  0.11653148478E+02 -0.38786890035E+01  0.16048588079E+02  0.51100000000E-03 0. -1.
        -11    1    3    3    0    0  0.23134814554E+01  0.16308692867E+02 -0.19358726469E+02  0.25418220832E+02  0.51100000000E-03 0.  1.
        -12    1    3    3    0    0 -0.28190397823E+00 -0.17338974315E+02 -0.41680093138E+01  0.17835128309E+02  0.00000000000E+00 0.  1.
</event>
<event>
 7    1  0.5662448E-012  0.5930194E+02  0.7816164E-02  0.1266605E+00
        -11   -1    0    0    0    0  0.00000000000E+00  0.00000000000E+00  0.45593999997E+02  0.45594000000E+02  0.51100000000E-03 0. -1.
         11   -1    0    0    0    0 -0.00000000000E+00 -0.00000000000E+00 -0.45593999997E+02  0.45594000000E+02  0.51100000000E-03 0.  1.
    9900012    2    1    2    0    0 -0.14961774949E+02 -0.10217543221E+02 -0.26238676694E+02  0.59301936371E+02  0.49999986036E+02 0.  0.
         12    1    1    2    0    0  0.14961774949E+02  0.10217543221E+02  0.26238676694E+02  0.31886063629E+02  0.00000000000E+00 0. -1.
         11    1    3    3    0    0 -0.11986532352E+01 -0.43049577863E+01  0.11038188482E+02  0.11908443910E+02  0.51100000000E-03 0. -1.
        -11    1    3    3    0    0 -0.55877067036E+01 -0.13885018201E+02 -0.10498698738E+02  0.18282200964E+02  0.51100000000E-03 0.  1.
        -12    1    3    3    0    0 -0.81754150098E+01  0.79724327668E+01 -0.26778166439E+02  0.29111291497E+02  0.00000000000E+00 0.  1.
</event>
<event>
 7    1  0.5662448E-012  0.5930195E+02  0.7816164E-02  0.1266605E+00
        -11   -1    0    0    0    0  0.00000000000E+00  0.00000000000E+00  0.45593999997E+02  0.45594000000E+02  0.51100000000E-03 0.  1.
         11   -1    0    0    0    0 -0.00000000000E+00 -0.00000000000E+00 -0.45593999997E+02  0.45594000000E+02  0.51100000000E-03 0. -1.
    9900012    2    1    2    0    0  0.72531870348E+01 -0.27337590948E+02  0.14723039056E+02  0.59301945367E+02  0.50000002443E+02 0.  0.
         12    1    1    2    0    0 -0.72531870348E+01  0.27337590948E+02 -0.14723039056E+02  0.31886054633E+02  0.00000000000E+00 0. -1.
         11    1    3    3    0    0  0.14148176876E+02  0.40504175580E+01  0.12708228508E-02  0.14716548277E+02  0.51100000000E-03 0. -1.
        -11    1    3    3    0    0  0.89886232232E+01 -0.14058593422E+02  0.12741215541E+02  0.20994712910E+02  0.51100000000E-03 0.  1.
        -12    1    3    3    0    0 -0.15883613064E+02 -0.17329415084E+02  0.19805526927E+01  0.23590684181E+02  0.00000000000E+00 0.  1.
</event>
<event>
 7    1  0.5662448E-012  0.5930195E+02  0.7816164E-02  0.1266605E+00
        -11   -1    0    0    0    0  0.00000000000E+00  0.00000000000E+00  0.45593999997E+02  0.45594000000E+02  0.51100000000E-03 0.  1.
         11   -1    0    0    0    0 -0.00000000000E+00 -0.00000000000E+00 -0.45593999997E+02  0.45594000000E+02  0.51100000000E-03 0. -1.
    9900012    2    1    2    0    0  0.16443595567E+02  0.86040159174E+01  0.25928731226E+02  0.59301952454E+02  0.50000015368E+02 0.  0.
         12    1    1    2    0    0 -0.16443595567E+02 -0.86040159174E+01 -0.25928731226E+02  0.31886047546E+02  0.00000000000E+00 0. -1.
         11    1    3    3    0    0  0.17344037801E+02 -0.81422691859E+01 -0.51781939841E+01  0.19847566298E+02  0.51100000000E-03 0. -1.
        -11    1    3    3    0    0 -0.16879345457E+01 -0.15034322348E+01 -0.10337273801E+01  0.24855631299E+01  0.51100000000E-03 0.  1.
        -12    1    3    3    0    0  0.78749231191E+00  0.18249717338E+02  0.32140652590E+02  0.36968823027E+02  0.00000000000E+00 0.  1.
</event>
<event>
 7    1  0.5662448E-012  0.5930194E+02  0.7816164E-02  0.1266605E+00
        -11   -1    0    0    0    0  0.00000000000E+00  0.00000000000E+00  0.45593999997E+02  0.45594000000E+02  0.51100000000E-03 0. -1.
         11   -1    0    0    0    0 -0.00000000000E+00 -0.00000000000E+00 -0.45593999997E+02  0.45594000000E+02  0.51100000000E-03 0.  1.
    9900012    2    1    2    0    0 -0.12301384901E+02 -0.26240357739E+02 -0.13298122705E+02  0.59301944863E+02  0.50000001523E+02 0.  0.
         12    1    1    2    0    0  0.12301384901E+02  0.26240357739E+02  0.13298122705E+02  0.31886055137E+02  0.00000000000E+00 0. -1.
         11    1    3    3    0    0 -0.19445177896E+02 -0.16106075093E+02  0.66173455675E+01  0.26101912974E+02  0.51100000000E-03 0. -1.
        -11    1    3    3    0    0  0.89302340927E+01 -0.37067204094E+00  0.19846364317E+01  0.91556136189E+01  0.51100000000E-03 0.  1.
        -12    1    3    3    0    0 -0.17864410980E+01 -0.97636106046E+01 -0.21900104705E+02  0.24044418269E+02  0.00000000000E+00 0.  1.
</event>
<event>
 7    1  0.5662448E-012  0.5930195E+02  0.7816164E-02  0.1266605E+00
        -11   -1    0    0    0    0  0.00000000000E+00  0.00000000000E+00  0.45593999997E+02  0.45594000000E+02  0.51100000000E-03 0.  1.
         11   -1    0    0    0    0 -0.00000000000E+00 -0.00000000000E+00 -0.45593999997E+02  0.45594000000E+02  0.51100000000E-03 0. -1.
    9900012    2    1    2    0    0  0.18228621868E+01  0.29251419907E+02  0.12559926090E+02  0.59301950754E+02  0.50000012268E+02 0.  0.
         12    1    1    2    0    0 -0.18228621868E+01 -0.29251419907E+02 -0.12559926090E+02  0.31886049246E+02  0.00000000000E+00 0. -1.
         11    1    3    3    0    0 -0.16630711052E+02  0.17584215722E+02 -0.79881621908E+01  0.25487171834E+02  0.51100000000E-03 0. -1.
        -11    1    3    3    0    0  0.23800348897E+01  0.75082239086E+01  0.65505434974E+00  0.79036123893E+01  0.51100000000E-03 0.  1.
        -12    1    3    3    0    0  0.16073538349E+02  0.41589802766E+01  0.19893033931E+02  0.25911166531E+02  0.00000000000E+00 0.  1.
</event>
<event>
 7    1  0.5662448E-012  0.5930193E+02  0.7816164E-02  0.1266605E+00
        -11   -1    0    0    0    0  0.00000000000E+00  0.00000000000E+00  0.45593999997E+02  0.45594000000E+02  0.51100000000E-03 0. -1.
         11   -1    0    0    0    0 -0.00000000000E+00 -0.00000000000E+00 -0.45593999997E+02  0.45594000000E+02  0.51100000000E-03 0.  1.
    9900012    2    1    2    0    0 -0.67621654148E+01 -0.27708877607E+02 -0.14255270199E+02  0.59301929251E+02  0.49999973051E+02 0.  0.
         12    1    1    2    0    0  0.67621654148E+01  0.27708877607E+02  0.14255270199E+02  0.31886070749E+02  0.00000000000E+00 0. -1.
         11    1    3    3    0    0 -0.11546320285E+02 -0.78068503865E+00 -0.56516082236E+01  0.12878961799E+02  0.51100000000E-03 0. -1.
        -11    1    3    3    0    0  0.88246088742E+01 -0.87887325348E+01 -0.20764846725E+02  0.24213516910E+02  0.51100000000E-03 0.  1.
         12    1    3    3    0    0 -0.40404540042E+01 -0.18139460034E+02  0.12161184749E+02  0.22209450542E+02  0.00000000000E+00 0. -1.
</event>
<event>
 7    1  0.5662448E-012  0.5930196E+02  0.7816164E-02  0.1266605E+00
        -11   -1    0    0    0    0  0.00000000000E+00  0.00000000000E+00  0.45593999997E+02  0.45594000000E+02  0.51100000000E-03 0. -1.
         11   -1    0    0    0    0 -0.00000000000E+00 -0.00000000000E+00 -0.45593999997E+02  0.45594000000E+02  0.51100000000E-03 0.  1.
    9900012    2    1    2    0    0 -0.74632811281E+01 -0.14281588910E+02 -0.27514641681E+02  0.59301955187E+02  0.50000020352E+02 0.  0.
         12    1    1    2    0    0  0.74632811281E+01  0.14281588910E+02  0.27514641681E+02  0.31886044813E+02  0.00000000000E+00 0. -1.
         11    1    3    3    0    0 -0.32987351430E+01 -0.10739436833E+02 -0.13125561766E+02  0.17277081032E+02  0.51100000000E-03 0. -1.
        -11    1    3    3    0    0 -0.13621706061E+02 -0.40667331466E+01 -0.24402618301E+02  0.28241405324E+02  0.51100000000E-03 0.  1.
         12    1    3    3    0    0  0.94571600755E+01  0.52458107022E+00  0.10013538387E+02  0.13783468831E+02  0.00000000000E+00 0. -1.
</event>
<event>
 7    1  0.5662448E-012  0.5930194E+02  0.7816164E-02  0.1266605E+00
        -11   -1    0    0    0    0  0.00000000000E+00  0.00000000000E+00  0.45593999997E+02  0.45594000000E+02  0.51100000000E-03 0. -1.
         11   -1    0    0    0    0 -0.00000000000E+00 -0.00000000000E+00 -0.45593999997E+02  0.45594000000E+02  0.51100000000E-03 0.  1.
    9900012    2    1    2    0    0 -0.15063590135E+02 -0.22775074659E+02 -0.16465274280E+02  0.59301936734E+02  0.49999986698E+02 0.  0.
         12    1    1    2    0    0  0.15063590135E+02  0.22775074659E+02  0.16465274280E+02  0.31886063266E+02  0.00000000000E+00 0. -1.
         11    1    3    3    0    0 -0.61592744269E+01 -0.81395254097E+01  0.10625523811E+01  0.10262434077E+02  0.51100000000E-03 0. -1.
        -11    1    3    3    0    0  0.12454209660E+02 -0.20191813030E+02 -0.86543120348E+01  0.25252995243E+02  0.51100000000E-03 0.  1.
         12    1    3    3    0    0 -0.21358525369E+02  0.55562637808E+01 -0.88735146258E+01  0.23786507414E+02  0.00000000000E+00 0. -1.
</event>
<event>
 7    1  0.5662448E-012  0.5930162E+02  0.7816164E-02  0.1266606E+00
        -11   -1    0    0    0    0  0.00000000000E+00  0.00000000000E+00  0.45593999997E+02  0.45594000000E+02  0.51100000000E-03 0.  1.
         11   -1    0    0    0    0 -0.00000000000E+00 -0.00000000000E+00 -0.45593999997E+02  0.45594000000E+02  0.51100000000E-03 0. -1.
    9900012    2    1    2    0    0 -0.15854025956E+02  0.16250463313E+02  0.22390025145E+02  0.59301624808E+02  0.49999417816E+02 0.  0.
         12    1    1    2    0    0  0.15854025956E+02 -0.16250463313E+02 -0.22390025145E+02  0.31886375192E+02  0.00000000000E+00 0. -1.
         11    1    3    3    0    0 -0.19069395492E+02 -0.95856259437E+00  0.62391296450E+01  0.20086996432E+02  0.51100000000E-03 0. -1.
        -11    1    3    3    0    0 -0.11362321880E+02  0.79864002964E+01 -0.21631248497E+01  0.14055748204E+02  0.51100000000E-03 0.  1.
         12    1    3    3    0    0  0.14577691415E+02  0.92226256115E+01  0.18314020349E+02  0.25158880172E+02  0.00000000000E+00 0. -1.
</event>
<event>
 7    1  0.5662448E-012  0.5930197E+02  0.7816164E-02  0.1266605E+00
        -11   -1    0    0    0    0  0.00000000000E+00  0.00000000000E+00  0.45593999997E+02  0.45594000000E+02  0.51100000000E-03 0.  1.
         11   -1    0    0    0    0 -0.00000000000E+00 -0.00000000000E+00 -0.45593999997E+02  0.45594000000E+02  0.51100000000E-03 0. -1.
    9900012    2    1    2    0    0 -0.15496403565E+02  0.11708884046E+02  0.25287994255E+02  0.59301966341E+02  0.50000040695E+02 0.  0.
         12    1    1    2    0    0  0.15496403565E+02 -0.11708884046E+02 -0.25287994255E+02  0.31886033659E+02  0.00000000000E+00 0. -1.
         11    1    3    3    0    0 -0.53539484167E+01  0.13538303460E+02  0.86792683240E+01  0.16949339902E+02  0.51100000000E-03 0. -1.
        -11    1    3    3    0    0 -0.11816543708E+02  0.10178243892E+02  0.23652327842E+02  0.28331254235E+02  0.51100000000E-03 0.  1.
         12    1    3    3    0    0  0.16740885596E+01 -0.12007663306E+02 -0.70436019114E+01  0.14021372204E+02  0.00000000000E+00 0. -1.
</event>
<event>
 7    1  0.5662448E-012  0.5930206E+02  0.7816164E-02  0.1266604E+00
        -11   -1    0    0    0    0  0.00000000000E+00  0.00000000000E+00  0.45593999997E+02  0.45594000000E+02  0.51100000000E-03 0.  1.
         11   -1    0    0    0    0 -0.00000000000E+00 -0.00000000000E+00 -0.45593999997E+02  0.45594000000E+02  0.51100000000E-03 0. -1.
    9900012    2    1    2    0    0  0.15777763337E+02 -0.19084876211E+02  0.20088381430E+02  0.59302056633E+02  0.50000205365E+02 0.  0.
         12    1    1    2    0    0 -0.15777763337E+02  0.19084876211E+02 -0.20088381430E+02  0.31885943367E+02  0.00000000000E+00 0. -1.
         11    1    3    3    0    0  0.71732644723E+01 -0.42978546914E+01  0.25768828073E+02  0.27091692060E+02  0.51100000000E-03 0. -1.
        -11    1    3    3    0    0  0.13873778579E+02 -0.10793587687E+01  0.41700811046E+01  0.14527089319E+02  0.51100000000E-03 0.  1.
         12    1    3    3    0    0 -0.52692797144E+01 -0.13707662751E+02 -0.98505277477E+01  0.17683275254E+02  0.00000000000E+00 0. -1.
</event>
<event>
 7    1  0.5662448E-012  0.5930195E+02  0.7816164E-02  0.1266605E+00
        -11   -1    0    0    0    0  0.00000000000E+00  0.00000000000E+00  0.45593999997E+02  0.45594000000E+02  0.51100000000E-03 0.  1.
         11   -1    0    0    0    0 -0.00000000000E+00 -0.00000000000E+00 -0.45593999997E+02  0.45594000000E+02  0.51100000000E-03 0. -1.
    9900012    2    1    2    0    0  0.61664384972E+01  0.19371273419E+02  0.24565196765E+02  0.59301951488E+02  0.50000013605E+02 0.  0.
         12    1    1    2    0    0 -0.61664384972E+01 -0.19371273419E+02 -0.24565196765E+02  0.31886048512E+02  0.00000000000E+00 0. -1.
         11    1    3    3    0    0 -0.49305574130E+01  0.23649163066E+01  0.10408064486E+02  0.11757169393E+02  0.51100000000E-03 0. -1.
        -11    1    3    3    0    0  0.11545727912E+02  0.60600925127E+01  0.27407891517E+02  0.30351623877E+02  0.51100000000E-03 0.  1.
         12    1    3    3    0    0 -0.44873200199E+00  0.10946264600E+02 -0.13250759238E+02  0.17193158217E+02  0.00000000000E+00 0. -1.
</event>
<event>
 7    1  0.5662448E-012  0.5930228E+02  0.7816164E-02  0.1266604E+00
        -11   -1    0    0    0    0  0.00000000000E+00  0.00000000000E+00  0.45593999997E+02  0.45594000000E+02  0.51100000000E-03 0.  1.
         11   -1    0    0    0    0 -0.00000000000E+00 -0.00000000000E+00 -0.45593999997E+02  0.45594000000E+02  0.51100000000E-03 0. -1.
    9900012    2    1    2    0    0 -0.22819024957E+02 -0.16744085589E+02 -0.14684238790E+02  0.59302279512E+02  0.50000611838E+02 0.  0.
         12    1    1    2    0    0  0.22819024957E+02  0.16744085589E+02  0.14684238790E+02  0.31885720488E+02  0.00000000000E+00 0. -1.
         11    1    3    3    0    0  0.29154891111E+01  0.91818791985E+00 -0.18120536548E+02  0.18376533701E+02  0.51100000000E-03 0. -1.
        -11    1    3    3    0    0  0.29739905975E+01  0.38090118011E+01 -0.51111439371E+00  0.48594679914E+01  0.51100000000E-03 0.  1.
        -12    1    3    3    0    0 -0.28708504666E+02 -0.21471285310E+02  0.39474121519E+01  0.36066277819E+02  0.00000000000E+00 0.  1.
</event>
<event>
 7    1  0.5662448E-012  0.5930192E+02  0.7816164E-02  0.1266605E+00
        -11   -1    0    0    0    0  0.00000000000E+00  0.00000000000E+00  0.45593999997E+02  0.45594000000E+02  0.51100000000E-03 0.  1.
         11   -1    0    0    0    0 -0.00000000000E+00 -0.00000000000E+00 -0.45593999997E+02  0.45594000000E+02  0.51100000000E-03 0. -1.
    9900012    2    1    2    0    0  0.12394895562E+02 -0.27724966248E+02  0.97167208869E+01  0.59301923819E+02  0.49999963144E+02 0.  0.
         12    1    1    2    0    0 -0.12394895562E+02  0.27724966248E+02 -0.97167208869E+01  0.31886076181E+02  0.00000000000E+00 0. -1.
         11    1    3    3    0    0 -0.84401409898E+00 -0.20683013131E+01  0.21908226636E+02  0.22021821558E+02  0.51100000000E-03 0. -1.
        -11    1    3    3    0    0  0.14877272721E+00 -0.91448387506E+01  0.46919258831E+01  0.10279317966E+02  0.51100000000E-03 0.  1.
         12    1    3    3    0    0  0.13090136934E+02 -0.16511826184E+02 -0.16883431632E+02  0.27000784295E+02  0.00000000000E+00 0. -1.
</event>
<event>
 7    1  0.5662448E-012  0.5930195E+02  0.7816164E-02  0.1266605E+00
        -11   -1    0    0    0    0  0.00000000000E+00  0.00000000000E+00  0.45593999997E+02  0.45594000000E+02  0.51100000000E-03 0.  1.
         11   -1    0    0    0    0 -0.00000000000E+00 -0.00000000000E+00 -0.45593999997E+02  0.45594000000E+02  0.51100000000E-03 0. -1.
    9900012    2    1    2    0    0 -0.33422134163E+01 -0.38358341190E+00  0.31708081629E+02  0.59301953407E+02  0.50000017106E+02 0.  0.
         12    1    1    2    0    0  0.33422134163E+01  0.38358341190E+00 -0.31708081629E+02  0.31886046593E+02  0.00000000000E+00 0. -1.
         11    1    3    3    0    0 -0.57892238965E+01  0.11861969266E+02  0.50733739501E+01  0.14140740847E+02  0.51100000000E-03 0. -1.
        -11    1    3    3    0    0  0.14035871764E+02  0.55852722655E+01  0.94383475713E+01  0.17812449792E+02  0.51100000000E-03 0.  1.
        -12    1    3    3    0    0 -0.11588861284E+02 -0.17830824944E+02  0.17196360107E+02  0.27348762768E+02  0.00000000000E+00 0.  1.
</event>
<event>
 7    1  0.5662448E-012  0.5930193E+02  0.7816164E-02  0.1266605E+00
        -11   -1    0    0    0    0  0.00000000000E+00  0.00000000000E+00  0.45593999997E+02  0.45594000000E+02  0.51100000000E-03 0.  1.
         11   -1    0    0    0    0 -0.00000000000E+00 -0.00000000000E+00 -0.45593999997E+02  0.45594000000E+02  0.51100000000E-03 0. -1.
    9900012    2    1    2    0    0  0.12807453558E+02 -0.24969403173E+02  0.15139992288E+02  0.59301932072E+02  0.49999978195E+02 0.  0.
         12    1    1    2    0    0 -0.12807453558E+02  0.24969403173E+02 -0.15139992288E+02  0.31886067928E+02  0.00000000000E+00 0. -1.
         11    1    3    3    0    0  0.91817787230E+01  0.10260981565E+01  0.11395821161E+02  0.14670469595E+02  0.51100000000E-03 0. -1.
        -11    1    3    3    0    0  0.97622609791E+01 -0.48436592340E+01 -0.13001143459E+02  0.16964448288E+02  0.51100000000E-03 0.  1.
        -12    1    3    3    0    0 -0.61365861437E+01 -0.21151842095E+02  0.16745314587E+02  0.27667014189E+02  0.00000000000E+00 0.  1.
</event>
<event>
 7    1  0.5662448E-012  0.5930193E+02  0.7816164E-02  0.1266605E+00
        -11   -1    0    0    0    0  0.00000000000E+00  0.00000000000E+00  0.45593999997E+02  0.45594000000E+02  0.51100000000E-03 0. -1.
         11   -1    0    0    0    0 -0.00000000000E+00 -0.00000000000E+00 -0.45593999997E+02  0.45594000000E+02  0.51100000000E-03 0.  1.
    9900012    2    1    2    0    0 -0.14225956207E+02  0.24219056254E+02 -0.15092418286E+02  0.59301927718E+02  0.49999970255E+02 0.  0.
         12    1    1    2    0    0  0.14225956207E+02 -0.24219056254E+02  0.15092418286E+02  0.31886072282E+02  0.00000000000E+00 0. -1.
         11    1    3    3    0    0  0.26655269683E+00 -0.34278675158E+01  0.21390529584E+01  0.40493053560E+01  0.51100000000E-03 0. -1.
        -11    1    3    3    0    0  0.62210056422E+01  0.90799783191E+01 -0.24191900124E+02  0.26578091530E+02  0.51100000000E-03 0.  1.
         12    1    3    3    0    0 -0.20713514546E+02  0.18566945451E+02  0.69604288800E+01  0.28674530832E+02  0.00000000000E+00 0. -1.
</event>
<event>
 7    1  0.5662448E-012  0.5930195E+02  0.7816164E-02  0.1266605E+00
        -11   -1    0    0    0    0  0.00000000000E+00  0.00000000000E+00  0.45593999997E+02  0.45594000000E+02  0.51100000000E-03 0. -1.
         11   -1    0    0    0    0 -0.00000000000E+00 -0.00000000000E+00 -0.45593999997E+02  0.45594000000E+02  0.51100000000E-03 0.  1.
    9900012    2    1    2    0    0 -0.29506080671E+02 -0.66478221747E+01 -0.10095440661E+02  0.59301948844E+02  0.50000008783E+02 0.  0.
         12    1    1    2    0    0  0.29506080671E+02  0.66478221747E+01  0.10095440661E+02  0.31886051156E+02  0.00000000000E+00 0. -1.
         11    1    3    3    0    0 -0.17501659463E+01 -0.40828747349E+01 -0.18287967118E+00  0.44459410900E+01  0.51100000000E-03 0. -1.
        -11    1    3    3    0    0  0.12187788599E+02 -0.60078227639E+01 -0.49345123112E+01  0.14456332083E+02  0.51100000000E-03 0.  1.
         12    1    3    3    0    0 -0.39943703323E+02  0.34428753241E+01 -0.49780486783E+01  0.40399675671E+02  0.00000000000E+00 0. -1.
</event>
<event>
 7    1  0.5662448E-012  0.5930200E+02  0.7816164E-02  0.1266605E+00
        -11   -1    0    0    0    0  0.00000000000E+00  0.00000000000E+00  0.45593999997E+02  0.45594000000E+02  0.51100000000E-03 0.  1.
         11   -1    0    0    0    0 -0.00000000000E+00 -0.00000000000E+00 -0.45593999997E+02  0.45594000000E+02  0.51100000000E-03 0. -1.
    9900012    2    1    2    0    0  0.83557802555E+00 -0.26299217998E+02  0.18010264970E+02  0.59302004607E+02  0.50000110482E+02 0.  0.
         12    1    1    2    0    0 -0.83557802555E+00  0.26299217998E+02 -0.18010264970E+02  0.31885995393E+02  0.00000000000E+00 0. -1.
         11    1    3    3    0    0 -0.20974787376E+02 -0.41950391648E+01 -0.95268210137E+00  0.21411390953E+02  0.51100000000E-03 0. -1.
        -11    1    3    3    0    0 -0.76949387282E+00 -0.32151908989E+01  0.26297355886E+01  0.42243440750E+01  0.51100000000E-03 0.  1.
        -12    1    3    3    0    0  0.22579859275E+02 -0.18888987934E+02  0.16333211483E+02  0.33666269579E+02  0.00000000000E+00 0.  1.
</event>
<event>
 7    1  0.5662448E-012  0.5930193E+02  0.7816164E-02  0.1266605E+00
        -11   -1    0    0    0    0  0.00000000000E+00  0.00000000000E+00  0.45593999997E+02  0.45594000000E+02  0.51100000000E-03 0.  1.
         11   -1    0    0    0    0 -0.00000000000E+00 -0.00000000000E+00 -0.45593999997E+02  0.45594000000E+02  0.51100000000E-03 0. -1.
    9900012    2    1    2    0    0  0.31863310930E+02 -0.11633564466E+01  0.31190494413E+00  0.59301933038E+02  0.49999979957E+02 0.  0.
         12    1    1    2    0    0 -0.31863310930E+02  0.11633564466E+01 -0.31190494413E+00  0.31886066962E+02  0.00000000000E+00 0. -1.
         11    1    3    3    0    0  0.12411935296E+02  0.16504536397E+02 -0.14618826807E+02  0.25301501080E+02  0.51100000000E-03 0. -1.
        -11    1    3    3    0    0  0.59418444574E+01  0.21900370336E+01  0.16012430328E+01  0.65319030363E+01  0.51100000000E-03 0.  1.
         12    1    3    3    0    0  0.13509531176E+02 -0.19857929877E+02  0.13329488718E+02  0.27468528921E+02  0.00000000000E+00 0. -1.
</event>
<event>
 7    1  0.5662448E-012  0.5930194E+02  0.7816164E-02  0.1266605E+00
        -11   -1    0    0    0    0  0.00000000000E+00  0.00000000000E+00  0.45593999997E+02  0.45594000000E+02  0.51100000000E-03 0.  1.
         11   -1    0    0    0    0 -0.00000000000E+00 -0.00000000000E+00 -0.45593999997E+02  0.45594000000E+02  0.51100000000E-03 0. -1.
    9900012    2    1    2    0    0 -0.17114657388E+02  0.23791701345E+02  0.12560435058E+02  0.59301935971E+02  0.49999985307E+02 0.  0.
         12    1    1    2    0    0  0.17114657388E+02 -0.23791701345E+02 -0.12560435058E+02  0.31886064029E+02  0.00000000000E+00 0. -1.
         11    1    3    3    0    0 -0.73326041094E+01 -0.85255703645E+01  0.94491774900E+00  0.11284737608E+02  0.51100000000E-03 0. -1.
        -11    1    3    3    0    0 -0.12369473476E+02  0.45275670070E+01  0.14931373943E+02  0.19911018688E+02  0.51100000000E-03 0.  1.
         12    1    3    3    0    0  0.25874201977E+01  0.27789704702E+02 -0.33158566343E+01  0.28106179675E+02  0.00000000000E+00 0. -1.
</event>
<event>
 7    1  0.5662448E-012  0.5930191E+02  0.7816164E-02  0.1266605E+00
        -11   -1    0    0    0    0  0.00000000000E+00  0.00000000000E+00  0.45593999997E+02  0.45594000000E+02  0.51100000000E-03 0.  1.
         11   -1    0    0    0    0 -0.00000000000E+00 -0.00000000000E+00 -0.45593999997E+02  0.45594000000E+02  0.51100000000E-03 0. -1.
    9900012    2    1    2    0    0 -0.28704135079E+02  0.17288503352E+01 -0.13777034634E+02  0.59301906206E+02  0.49999931022E+02 0.  0.
         12    1    1    2    0    0  0.28704135079E+02 -0.17288503352E+01  0.13777034634E+02  0.31886093794E+02  0.00000000000E+00 0. -1.
         11    1    3    3    0    0  0.12627375130E+01  0.17617223196E+01 -0.30418828446E+01  0.37351336066E+01  0.51100000000E-03 0. -1.
        -11    1    3    3    0    0 -0.96815985386E+01 -0.93136496000E+01 -0.25495297772E+02  0.28818182244E+02  0.51100000000E-03 0.  1.
        -12    1    3    3    0    0 -0.20285274054E+02  0.92807776155E+01  0.14760145982E+02  0.26748590355E+02  0.00000000000E+00 0.  1.
</event>
<event>
 7    1  0.5662448E-012  0.5930195E+02  0.7816164E-02  0.1266605E+00
        -11   -1    0    0    0    0  0.00000000000E+00  0.00000000000E+00  0.45593999997E+02  0.45594000000E+02  0.51100000000E-03 0.  1.
         11   -1    0    0    0    0 -0.00000000000E+00 -0.00000000000E+00 -0.45593999997E+02  0.45594000000E+02  0.51100000000E-03 0. -1.
    9900012    2    1    2    0    0  0.57145606751E+01  0.30395320604E+02 -0.77581103134E+01  0.59301952989E+02  0.50000016344E+02 0.  0.
         12    1    1    2    0    0 -0.57145606751E+01 -0.30395320604E+02  0.77581103134E+01  0.31886047011E+02  0.00000000000E+00 0. -1.
         11    1    3    3    0    0 -0.10432315705E+02  0.19117888347E+02  0.72286058746E+01  0.22947322479E+02  0.51100000000E-03 0. -1.
        -11    1    3    3    0    0  0.39611744450E+01 -0.19919260688E+01  0.67789811244E+01  0.81002010959E+01  0.51100000000E-03 0.  1.
         12    1    3    3    0    0  0.12185701935E+02  0.13269358326E+02 -0.21765697312E+02  0.28254429414E+02  0.00000000000E+00 0. -1.
</event>
<event>
 7    1  0.5662448E-012  0.5930187E+02  0.7816164E-02  0.1266605E+00
        -11   -1    0    0    0    0  0.00000000000E+00  0.00000000000E+00  0.45593999997E+02  0.45594000000E+02  0.51100000000E-03 0. -1.
         11   -1    0    0    0    0 -0.00000000000E+00 -0.00000000000E+00 -0.45593999997E+02  0.45594000000E+02  0.51100000000E-03 0.  1.
    9900012    2    1    2    0    0 -0.11296717684E+02  0.20170253945E+00 -0.29817252374E+02  0.59301873652E+02  0.49999871652E+02 0.  0.
         12    1    1    2    0    0  0.11296717684E+02 -0.20170253945E+00  0.29817252374E+02  0.31886126348E+02  0.00000000000E+00 0. -1.
         11    1    3    3    0    0 -0.63919807544E+01 -0.16584037194E+02 -0.32961482185E+01  0.18076291129E+02  0.51100000000E-03 0. -1.
        -11    1    3    3    0    0  0.20040018205E+01 -0.45672069542E+01 -0.15382169977E+02  0.16170545944E+02  0.51100000000E-03 0.  1.
         12    1    3    3    0    0 -0.69087387497E+01  0.21352946688E+02 -0.11138934178E+02  0.25055036580E+02  0.00000000000E+00 0. -1.
</event>
<event>
 7    1  0.5662448E-012  0.5930203E+02  0.7816164E-02  0.1266604E+00
        -11   -1    0    0    0    0  0.00000000000E+00  0.00000000000E+00  0.45593999997E+02  0.45594000000E+02  0.51100000000E-03 0.  1.
         11   -1    0    0    0    0 -0.00000000000E+00 -0.00000000000E+00 -0.45593999997E+02  0.45594000000E+02  0.51100000000E-03 0. -1.
    9900012    2    1    2    0    0 -0.20060883139E+02  0.80598138383E+01  0.23437483786E+02  0.59302026945E+02  0.50000151221E+02 0.  0.
         12    1    1    2    0    0  0.20060883139E+02 -0.80598138383E+01 -0.23437483786E+02  0.31885973055E+02  0.00000000000E+00 0. -1.
         11    1    3    3    0    0 -0.15253870715E+01 -0.20057040368E+01 -0.89562722993E+01  0.93040028031E+01  0.51100000000E-03 0. -1.
        -11    1    3    3    0    0 -0.21594539860E+02  0.99471268409E+01  0.75196050273E+01  0.24936197468E+02  0.51100000000E-03 0.  1.
        -12    1    3    3    0    0  0.30590437926E+01  0.11839103418E+00  0.24874151058E+02  0.25061826674E+02  0.00000000000E+00 0.  1.
</event>
<event>
 7    1  0.5662448E-012  0.5930194E+02  0.7816164E-02  0.1266605E+00
        -11   -1    0    0    0    0  0.00000000000E+00  0.00000000000E+00  0.45593999997E+02  0.45594000000E+02  0.51100000000E-03 0.  1.
         11   -1    0    0    0    0 -0.00000000000E+00 -0.00000000000E+00 -0.45593999997E+02  0.45594000000E+02  0.51100000000E-03 0. -1.
    9900012    2    1    2    0    0  0.87692507360E+01 -0.26998897274E+02  0.14521737636E+02  0.59301936015E+02  0.49999985386E+02 0.  0.
         12    1    1    2    0    0 -0.87692507360E+01  0.26998897274E+02 -0.14521737636E+02  0.31886063985E+02  0.00000000000E+00 0. -1.
         11    1    3    3    0    0  0.64163293300E+01 -0.16706192793E+02  0.13495491816E+02  0.22414157564E+02  0.51100000000E-03 0. -1.
        -11    1    3    3    0    0  0.10977330561E+02 -0.58212713860E+01  0.15245017778E+02  0.19667220295E+02  0.51100000000E-03 0.  1.
         12    1    3    3    0    0 -0.86244091550E+01 -0.44714330955E+01 -0.14218771958E+02  0.17220558156E+02  0.00000000000E+00 0. -1.
</event>
<event>
 7    1  0.5662448E-012  0.5930199E+02  0.7816164E-02  0.1266605E+00
        -11   -1    0    0    0    0  0.00000000000E+00  0.00000000000E+00  0.45593999997E+02  0.45594000000E+02  0.51100000000E-03 0.  1.
         11   -1    0    0    0    0 -0.00000000000E+00 -0.00000000000E+00 -0.45593999997E+02  0.45594000000E+02  0.51100000000E-03 0. -1.
    9900012    2    1    2    0    0 -0.22288040193E+02 -0.21506428011E+02  0.75785721871E+01  0.59301985231E+02  0.50000075144E+02 0.  0.
         12    1    1    2    0    0  0.22288040193E+02  0.21506428011E+02 -0.75785721871E+01  0.31886014769E+02  0.00000000000E+00 0. -1.
         11    1    3    3    0    0 -0.17371951926E+02 -0.51167091586E+00 -0.93386079224E+00  0.17404557365E+02  0.51100000000E-03 0. -1.
        -11    1    3    3    0    0 -0.17463173200E+02 -0.16280410997E+02  0.13698395586E+02  0.27525628827E+02  0.51100000000E-03 0.  1.
         12    1    3    3    0    0  0.12547084932E+02 -0.47143460988E+01 -0.51859626070E+01  0.14371799038E+02  0.00000000000E+00 0. -1.
</event>
<event>
 7    1  0.5662448E-012  0.5930193E+02  0.7816164E-02  0.1266605E+00
        -11   -1    0    0    0    0  0.00000000000E+00  0.00000000000E+00  0.45593999997E+02  0.45594000000E+02  0.51100000000E-03 0. -1.
         11   -1    0    0    0    0 -0.00000000000E+00 -0.00000000000E+00 -0.45593999997E+02  0.45594000000E+02  0.51100000000E-03 0.  1.
    9900012    2    1    2    0    0 -0.24500366828E+02 -0.19687907592E+02  0.53702906590E+01  0.59301926209E+02  0.49999967502E+02 0.  0.
         12    1    1    2    0    0  0.24500366828E+02  0.19687907592E+02 -0.53702906590E+01  0.31886073791E+02  0.00000000000E+00 0. -1.
         11    1    3    3    0    0 -0.18522266633E+02 -0.91919641828E+01 -0.10630242128E+02  0.23250131499E+02  0.51100000000E-03 0. -1.
        -11    1    3    3    0    0 -0.14730067843E+02  0.40941188217E+01  0.72760017791E+01  0.16931535953E+02  0.51100000000E-03 0.  1.
         12    1    3    3    0    0  0.87519676477E+01 -0.14590062231E+02  0.87245310082E+01  0.19120258756E+02  0.00000000000E+00 0. -1.
</event>
<event>
 7    1  0.5662448E-012  0.5930196E+02  0.7816164E-02  0.1266605E+00
        -11   -1    0    0    0    0  0.00000000000E+00  0.00000000000E+00  0.45593999997E+02  0.45594000000E+02  0.51100000000E-03 0. -1.
         11   -1    0    0    0    0 -0.00000000000E+00 -0.00000000000E+00 -0.45593999997E+02  0.45594000000E+02  0.51100000000E-03 0.  1.
    9900012    2    1    2    0    0  0.13750927516E+02 -0.17725918198E+02  0.22658843718E+02  0.59301962583E+02  0.50000033841E+02 0.  0.
         12    1    1    2    0    0 -0.13750927516E+02  0.17725918198E+02 -0.22658843718E+02  0.31886037417E+02  0.00000000000E+00 0. -1.
         11    1    3    3    0    0  0.12125999716E+01 -0.13540026802E+01  0.14794418498E+02  0.14905654662E+02  0.51100000000E-03 0. -1.
        -11    1    3    3    0    0 -0.11222318883E+02  0.53733264407E+00  0.10153532985E+02  0.15143427612E+02  0.51100000000E-03 0.  1.
        -12    1    3    3    0    0  0.23760646428E+02 -0.16909248162E+02 -0.22891077652E+01  0.29252880310E+02  0.00000000000E+00 0.  1.
</event>
<event>
 7    1  0.5662448E-012  0.5930194E+02  0.7816164E-02  0.1266605E+00
        -11   -1    0    0    0    0  0.00000000000E+00  0.00000000000E+00  0.45593999997E+02  0.45594000000E+02  0.51100000000E-03 0.  1.
         11   -1    0    0    0    0 -0.00000000000E+00 -0.00000000000E+00 -0.45593999997E+02  0.45594000000E+02  0.51100000000E-03 0. -1.
    9900012    2    1    2    0    0  0.76232822421E+01 -0.27139261410E+02 -0.14901898935E+02  0.59301944523E+02  0.50000000903E+02 0.  0.
         12    1    1    2    0    0 -0.76232822421E+01  0.27139261410E+02  0.14901898935E+02  0.31886055477E+02  0.00000000000E+00 0. -1.
         11    1    3    3    0    0  0.15034056756E+02 -0.22160345928E+02 -0.91230944107E+01  0.28290186392E+02  0.51100000000E-03 0. -1.
        -11    1    3    3    0    0  0.86216007856E+01 -0.83977867099E+01  0.30173727455E+01  0.12408036117E+02  0.51100000000E-03 0.  1.
         12    1    3    3    0    0 -0.16032375300E+02  0.34188712283E+01 -0.87961772698E+01  0.18603722014E+02  0.00000000000E+00 0. -1.
</event>
<event>
 7    1  0.5662448E-012  0.5930194E+02  0.7816164E-02  0.1266605E+00
        -11   -1    0    0    0    0  0.00000000000E+00  0.00000000000E+00  0.45593999997E+02  0.45594000000E+02  0.51100000000E-03 0.  1.
         11   -1    0    0    0    0 -0.00000000000E+00 -0.00000000000E+00 -0.45593999997E+02  0.45594000000E+02  0.51100000000E-03 0. -1.
    9900012    2    1    2    0    0  0.27444977491E+02 -0.12163072672E+02  0.10749581390E+02  0.59301943073E+02  0.49999998259E+02 0.  0.
         12    1    1    2    0    0 -0.27444977491E+02  0.12163072672E+02 -0.10749581390E+02  0.31886056927E+02  0.00000000000E+00 0. -1.
         11    1    3    3    0    0  0.58361661277E+00  0.15859083687E+01  0.19302285092E+01  0.25654426642E+01  0.51100000000E-03 0. -1.
        -11    1    3    3    0    0  0.22142642396E+02  0.42491964861E+01  0.23847865265E+02  0.32818789755E+02  0.51100000000E-03 0.  1.
         12    1    3    3    0    0  0.47187184825E+01 -0.17998177527E+02 -0.15028512384E+02  0.23917710653E+02  0.00000000000E+00 0. -1.
</event>
<event>
 7    1  0.5662448E-012  0.5930195E+02  0.7816164E-02  0.1266605E+00
        -11   -1    0    0    0    0  0.00000000000E+00  0.00000000000E+00  0.45593999997E+02  0.45594000000E+02  0.51100000000E-03 0. -1.
         11   -1    0    0    0    0 -0.00000000000E+00 -0.00000000000E+00 -0.45593999997E+02  0.45594000000E+02  0.51100000000E-03 0.  1.
    9900012    2    1    2    0    0 -0.17537823519E+02 -0.99096214855E+01 -0.24717290773E+02  0.59301947956E+02  0.50000007164E+02 0.  0.
         12    1    1    2    0    0  0.17537823519E+02  0.99096214855E+01  0.24717290773E+02  0.31886052044E+02  0.00000000000E+00 0. -1.
         11    1    3    3    0    0  0.85757130650E+01  0.14433152582E+01  0.53082410633E+00  0.87125075610E+01  0.51100000000E-03 0. -1.
        -11    1    3    3    0    0 -0.26544782661E+01 -0.18983366627E+02 -0.10816969380E+02  0.22009572694E+02  0.51100000000E-03 0.  1.
        -12    1    3    3    0    0 -0.23459058318E+02  0.76304298829E+01 -0.14431145499E+02  0.28579867701E+02  0.00000000000E+00 0.  1.
</event>
<event>
 7    1  0.5662448E-012  0.5930228E+02  0.7816164E-02  0.1266604E+00
        -11   -1    0    0    0    0  0.00000000000E+00  0.00000000000E+00  0.45593999997E+02  0.45594000000E+02  0.51100000000E-03 0.  1.
         11   -1    0    0    0    0 -0.00000000000E+00 -0.00000000000E+00 -0.45593999997E+02  0.45594000000E+02  0.51100000000E-03 0. -1.
    9900012    2    1    2    0    0  0.12588648154E+02 -0.11642785402E+02  0.26882527995E+02  0.59302284928E+02  0.50000621716E+02 0.  0.
         12    1    1    2    0    0 -0.12588648154E+02  0.11642785402E+02 -0.26882527995E+02  0.31885715072E+02  0.00000000000E+00 0. -1.
         11    1    3    3    0    0  0.10925534463E+02  0.10258829429E+02  0.95606502091E+01  0.17776864662E+02  0.51100000000E-03 0. -1.
        -11    1    3    3    0    0  0.13532471887E+02 -0.18647376099E+01  0.10586738264E+02  0.17282478673E+02  0.51100000000E-03 0.  1.
        -12    1    3    3    0    0 -0.11869358195E+02 -0.20036877220E+02  0.67351395215E+01  0.24242941593E+02  0.00000000000E+00 0.  1.
</event>
<event>
 7    1  0.5662448E-012  0.5930194E+02  0.7816164E-02  0.1266605E+00
        -11   -1    0    0    0    0  0.00000000000E+00  0.00000000000E+00  0.45593999997E+02  0.45594000000E+02  0.51100000000E-03 0.  1.
         11   -1    0    0    0    0 -0.00000000000E+00 -0.00000000000E+00 -0.45593999997E+02  0.45594000000E+02  0.51100000000E-03 0. -1.
    9900012    2    1    2    0    0 -0.32125018498E+01 -0.28997852951E+02  0.12865670815E+02  0.59301935184E+02  0.49999983871E+02 0.  0.
         12    1    1    2    0    0  0.32125018498E+01  0.28997852951E+02 -0.12865670815E+02  0.31886064816E+02  0.00000000000E+00 0. -1.
         11    1    3    3    0    0 -0.11303191248E+02 -0.20895267081E+02  0.67586331503E+01  0.24699259930E+02  0.51100000000E-03 0. -1.
        -11    1    3    3    0    0  0.47503856574E+01 -0.20238978445E+02  0.71196199133E+01  0.21974335038E+02  0.51100000000E-03 0.  1.
         12    1    3    3    0    0  0.33403037410E+01  0.12136392574E+02 -0.10125822487E+01  0.12628340216E+02  0.00000000000E+00 0. -1.
</event>
<event>
 7    1  0.5662448E-012  0.5930194E+02  0.7816164E-02  0.1266605E+00
        -11   -1    0    0    0    0  0.00000000000E+00  0.00000000000E+00  0.45593999997E+02  0.45594000000E+02  0.51100000000E-03 0. -1.
         11   -1    0    0    0    0 -0.00000000000E+00 -0.00000000000E+00 -0.45593999997E+02  0.45594000000E+02  0.51100000000E-03 0.  1.
    9900012    2    1    2    0    0 -0.99089348626E+01  0.29691239307E+02 -0.60798345703E+01  0.59301936115E+02  0.49999985569E+02 0.  0.
         12    1    1    2    0    0  0.99089348626E+01 -0.29691239307E+02  0.60798345703E+01  0.31886063885E+02  0.00000000000E+00 0. -1.
         11    1    3    3    0    0 -0.31456851813E+00 -0.58878912948E+01  0.30852908101E+01  0.66547153880E+01  0.51100000000E-03 0. -1.
        -11    1    3    3    0    0  0.48080491129E+00  0.18211825236E+01  0.11601031913E+02  0.11752949453E+02  0.51100000000E-03 0.  1.
        -12    1    3    3    0    0 -0.10075171256E+02  0.33757948078E+02 -0.20766157293E+02  0.40894271274E+02  0.00000000000E+00 0.  1.
</event>
<event>
 7    1  0.5662448E-012  0.5930199E+02  0.7816164E-02  0.1266605E+00
        -11   -1    0    0    0    0  0.00000000000E+00  0.00000000000E+00  0.45593999997E+02  0.45594000000E+02  0.51100000000E-03 0.  1.
         11   -1    0    0    0    0 -0.00000000000E+00 -0.00000000000E+00 -0.45593999997E+02  0.45594000000E+02  0.51100000000E-03 0. -1.
    9900012    2    1    2    0    0  0.68180941225E+01 -0.27999173889E+02  0.13648354754E+02  0.59301988437E+02  0.50000080992E+02 0.  0.
         12    1    1    2    0    0 -0.68180941225E+01  0.27999173889E+02 -0.13648354754E+02  0.31886011563E+02  0.00000000000E+00 0. -1.
         11    1    3    3    0    0  0.17271023994E+02 -0.19517338286E+01  0.47899920957E+01  0.18028908987E+02  0.51100000000E-03 0. -1.
        -11    1    3    3    0    0  0.21747455854E+01 -0.13384281321E+02  0.16897833374E+02  0.21665762804E+02  0.51100000000E-03 0.  1.
         12    1    3    3    0    0 -0.12627675456E+02 -0.12663158739E+02 -0.80394707165E+01  0.19607316647E+02  0.00000000000E+00 0. -1.
</event>
<event>
 7    1  0.5662448E-012  0.5930194E+02  0.7816164E-02  0.1266605E+00
        -11   -1    0    0    0    0  0.00000000000E+00  0.00000000000E+00  0.45593999997E+02  0.45594000000E+02  0.51100000000E-03 0.  1.
         11   -1    0    0    0    0 -0.00000000000E+00 -0.00000000000E+00 -0.45593999997E+02  0.45594000000E+02  0.51100000000E-03 0. -1.
    9900012    2    1    2    0    0  0.22845797455E+02 -0.22049839675E+02 -0.29317548513E+01  0.59301935998E+02  0.49999985355E+02 0.  0.
         12    1    1    2    0    0 -0.22845797455E+02  0.22049839675E+02  0.29317548513E+01  0.31886064002E+02  0.00000000000E+00 0. -1.
         11    1    3    3    0    0 -0.10077622537E+02  0.36388622377E-01  0.71658852996E+01  0.12365666683E+02  0.51100000000E-03 0. -1.
        -11    1    3    3    0    0  0.22340486190E+02 -0.22653661713E+01 -0.38671403191E+00  0.22458378283E+02  0.51100000000E-03 0.  1.
        -12    1    3    3    0    0  0.10582933802E+02 -0.19820862126E+02 -0.97109261190E+01  0.24477891032E+02  0.00000000000E+00 0.  1.
</event>
<event>
 7    1  0.5662448E-012  0.5930195E+02  0.7816164E-02  0.1266605E+00
        -11   -1    0    0    0    0  0.00000000000E+00  0.00000000000E+00  0.45593999997E+02  0.45594000000E+02  0.51100000000E-03 0. -1.
         11   -1    0    0    0    0 -0.00000000000E+00 -0.00000000000E+00 -0.45593999997E+02  0.45594000000E+02  0.51100000000E-03 0.  1.
    9900012    2    1    2    0    0  0.22709458883E+02  0.98627673107E+01 -0.20092946074E+02  0.59301950014E+02  0.50000010918E+02 0.  0.
         12    1    1    2    0    0 -0.22709458883E+02 -0.98627673107E+01  0.20092946074E+02  0.31886049986E+02  0.00000000000E+00 0. -1.
         11    1    3    3    0    0  0.92773168907E+01 -0.13102888587E+02 -0.89777567337E+01  0.18394412582E+02  0.51100000000E-03 0. -1.
        -11    1    3    3    0    0  0.12407766066E+02 -0.54608369043E+00 -0.12117995320E+02  0.17352137534E+02  0.51100000000E-03 0.  1.
        -12    1    3    3    0    0  0.10243759262E+01  0.23511739589E+02  0.10028059800E+01  0.23555399898E+02  0.00000000000E+00 0.  1.
</event>
<event>
 7    1  0.5662448E-012  0.5930194E+02  0.7816164E-02  0.1266605E+00
        -11   -1    0    0    0    0  0.00000000000E+00  0.00000000000E+00  0.45593999997E+02  0.45594000000E+02  0.51100000000E-03 0.  1.
         11   -1    0    0    0    0 -0.00000000000E+00 -0.00000000000E+00 -0.45593999997E+02  0.45594000000E+02  0.51100000000E-03 0. -1.
    9900012    2    1    2    0    0  0.68897743710E+01  0.26299176606E+02  0.16661482051E+02  0.59301942464E+02  0.49999997148E+02 0.  0.
         12    1    1    2    0    0 -0.68897743710E+01 -0.26299176606E+02 -0.16661482051E+02  0.31886057536E+02  0.00000000000E+00 0. -1.
         11    1    3    3    0    0 -0.97048267064E+01  0.49298340505E+01 -0.10060128306E+02  0.14822048002E+02  0.51100000000E-03 0. -1.
        -11    1    3    3    0    0  0.45888938669E+01 -0.12771257804E+01 -0.26869082275E+01  0.54688639831E+01  0.51100000000E-03 0.  1.
        -12    1    3    3    0    0  0.12005707211E+02  0.22646468336E+02  0.29408518584E+02  0.39011030479E+02  0.00000000000E+00 0.  1.
</event>
<event>
 7    1  0.5662448E-012  0.5930193E+02  0.7816164E-02  0.1266605E+00
        -11   -1    0    0    0    0  0.00000000000E+00  0.00000000000E+00  0.45593999997E+02  0.45594000000E+02  0.51100000000E-03 0.  1.
         11   -1    0    0    0    0 -0.00000000000E+00 -0.00000000000E+00 -0.45593999997E+02  0.45594000000E+02  0.51100000000E-03 0. -1.
    9900012    2    1    2    0    0  0.35965021953E+01  0.14608761986E+02  0.28113526961E+02  0.59301934815E+02  0.49999983199E+02 0.  0.
         12    1    1    2    0    0 -0.35965021953E+01 -0.14608761986E+02 -0.28113526961E+02  0.31886065185E+02  0.00000000000E+00 0. -1.
         11    1    3    3    0    0 -0.13630192438E+02 -0.71011052931E+01  0.20807094910E+02  0.25867799310E+02  0.51100000000E-03 0.  1.
        -11    1    3    3    0    0  0.75738645530E+01  0.69670744791E+01  0.11384795971E+02  0.15346567389E+02  0.51100000000E-03 0. -1.
        -12    1    3    3    0    0  0.96528300800E+01  0.14742792800E+02 -0.40783639209E+01  0.18087568116E+02  0.00000000000E+00 0.  1.
</event>
<event>
 7    1  0.5662448E-012  0.5930195E+02  0.7816164E-02  0.1266605E+00
        -11   -1    0    0    0    0  0.00000000000E+00  0.00000000000E+00  0.45593999997E+02  0.45594000000E+02  0.51100000000E-03 0. -1.
         11   -1    0    0    0    0 -0.00000000000E+00 -0.00000000000E+00 -0.45593999997E+02  0.45594000000E+02  0.51100000000E-03 0.  1.
    9900012    2    1    2    0    0  0.53399920471E+01  0.29794537377E+02 -0.10024484249E+02  0.59301948865E+02  0.50000008822E+02 0.  0.
         12    1    1    2    0    0 -0.53399920471E+01 -0.29794537377E+02  0.10024484249E+02  0.31886051135E+02  0.00000000000E+00 0. -1.
         11    1    3    3    0    0 -0.10839102894E+02 -0.58887705169E+00  0.83906911605E+01  0.13719935355E+02  0.51100000000E-03 0. -1.
        -11    1    3    3    0    0  0.33104673490E+01  0.12468603304E+02  0.46069104375E+01  0.13698499424E+02  0.51100000000E-03 0.  1.
        -12    1    3    3    0    0  0.12868627593E+02  0.17914811124E+02 -0.23022085847E+02  0.31883514086E+02  0.00000000000E+00 0.  1.
</event>
<event>
 7    1  0.5662448E-012  0.5930195E+02  0.7816164E-02  0.1266605E+00
        -11   -1    0    0    0    0  0.00000000000E+00  0.00000000000E+00  0.45593999997E+02  0.45594000000E+02  0.51100000000E-03 0. -1.
         11   -1    0    0    0    0 -0.00000000000E+00 -0.00000000000E+00 -0.45593999997E+02  0.45594000000E+02  0.51100000000E-03 0.  1.
    9900012    2    1    2    0    0  0.11518436195E+02 -0.27866020359E+02 -0.10369697157E+02  0.59301951607E+02  0.50000013823E+02 0.  0.
         12    1    1    2    0    0 -0.11518436195E+02  0.27866020359E+02  0.10369697157E+02  0.31886048393E+02  0.00000000000E+00 0. -1.
         11    1    3    3    0    0 -0.40661739185E+01 -0.52693733749E+01 -0.26237405896E+01  0.71543050705E+01  0.51100000000E-03 0. -1.
        -11    1    3    3    0    0  0.21475565219E+02 -0.31110024054E+02  0.20994796307E+01  0.37860815008E+02  0.51100000000E-03 0.  1.
         12    1    3    3    0    0 -0.58909551057E+01  0.85133770702E+01 -0.98454361978E+01  0.14286831528E+02  0.00000000000E+00 0. -1.
</event>
<event>
 7    1  0.5662448E-012  0.5930200E+02  0.7816164E-02  0.1266605E+00
        -11   -1    0    0    0    0  0.00000000000E+00  0.00000000000E+00  0.45593999997E+02  0.45594000000E+02  0.51100000000E-03 0. -1.
         11   -1    0    0    0    0 -0.00000000000E+00 -0.00000000000E+00 -0.45593999997E+02  0.45594000000E+02  0.51100000000E-03 0.  1.
    9900012    2    1    2    0    0  0.12532386598E+02  0.21604708031E+02 -0.19821517545E+02  0.59302004944E+02  0.50000111096E+02 0.  0.
         12    1    1    2    0    0 -0.12532386598E+02 -0.21604708031E+02  0.19821517545E+02  0.31885995056E+02  0.00000000000E+00 0. -1.
         11    1    3    3    0    0 -0.76196714910E+01 -0.19367669421E+00 -0.27439047258E+01  0.81009825144E+01  0.51100000000E-03 0. -1.
        -11    1    3    3    0    0  0.22679408261E+02 -0.33348333318E+01 -0.96500109271E+01  0.24871658239E+02  0.51100000000E-03 0.  1.
         12    1    3    3    0    0 -0.25273501713E+01  0.25133218057E+02 -0.74276018918E+01  0.26329364190E+02  0.00000000000E+00 0. -1.
</event>
<event>
 7    1  0.5662448E-012  0.5930196E+02  0.7816164E-02  0.1266605E+00
        -11   -1    0    0    0    0  0.00000000000E+00  0.00000000000E+00  0.45593999997E+02  0.45594000000E+02  0.51100000000E-03 0.  1.
         11   -1    0    0    0    0 -0.00000000000E+00 -0.00000000000E+00 -0.45593999997E+02  0.45594000000E+02  0.51100000000E-03 0. -1.
    9900012    2    1    2    0    0 -0.24153356763E+02 -0.74153685221E+01  0.19451151629E+02  0.59301958651E+02  0.50000026669E+02 0.  0.
         12    1    1    2    0    0  0.24153356763E+02  0.74153685221E+01 -0.19451151629E+02  0.31886041349E+02  0.00000000000E+00 0. -1.
         11    1    3    3    0    0  0.76250187975E+01 -0.78549523041E+00  0.11751810930E+02  0.14030786678E+02  0.51100000000E-03 0. -1.
        -11    1    3    3    0    0  0.45412791479E+01  0.31079695640E+01 -0.28770033413E+01  0.62096569629E+01  0.51100000000E-03 0.  1.
        -12    1    3    3    0    0 -0.36319654708E+02 -0.97378428556E+01  0.10576344040E+02  0.39061515010E+02  0.00000000000E+00 0.  1.
</event>
<event>
 7    1  0.5662448E-012  0.5930193E+02  0.7816164E-02  0.1266605E+00
        -11   -1    0    0    0    0  0.00000000000E+00  0.00000000000E+00  0.45593999997E+02  0.45594000000E+02  0.51100000000E-03 0.  1.
         11   -1    0    0    0    0 -0.00000000000E+00 -0.00000000000E+00 -0.45593999997E+02  0.45594000000E+02  0.51100000000E-03 0. -1.
    9900012    2    1    2    0    0  0.15466655666E+02 -0.24362738334E+02  0.13563218039E+02  0.59301931879E+02  0.49999977844E+02 0.  0.
         12    1    1    2    0    0 -0.15466655666E+02  0.24362738334E+02 -0.13563218039E+02  0.31886068121E+02  0.00000000000E+00 0. -1.
         11    1    3    3    0    0 -0.60832064721E+01  0.34387029785E+00  0.64604401513E+01  0.88803679526E+01  0.51100000000E-03 0.  1.
        -11    1    3    3    0    0  0.13222025652E+02  0.65350315731E+01  0.10213069614E+02  0.17939771214E+02  0.51100000000E-03 0. -1.
         12    1    3    3    0    0  0.83278364861E+01 -0.31241640205E+02 -0.31102917261E+01  0.32481792713E+02  0.00000000000E+00 0. -1.
</event>
<event>
 7    1  0.5662448E-012  0.5930194E+02  0.7816164E-02  0.1266605E+00
        -11   -1    0    0    0    0  0.00000000000E+00  0.00000000000E+00  0.45593999997E+02  0.45594000000E+02  0.51100000000E-03 0.  1.
         11   -1    0    0    0    0 -0.00000000000E+00 -0.00000000000E+00 -0.45593999997E+02  0.45594000000E+02  0.51100000000E-03 0. -1.
    9900012    2    1    2    0    0 -0.37534828327E+01 -0.50590942474E+01  0.31257600776E+02  0.59301942322E+02  0.49999996890E+02 0.  0.
         12    1    1    2    0    0  0.37534828327E+01  0.50590942474E+01 -0.31257600776E+02  0.31886057678E+02  0.00000000000E+00 0. -1.
         11    1    3    3    0    0 -0.10746324652E+02 -0.21840824849E+01  0.96534123814E+01  0.14609657104E+02  0.51100000000E-03 0.  1.
        -11    1    3    3    0    0 -0.46854174295E+01  0.14974622655E+02  0.16480134490E+02  0.22754939974E+02  0.51100000000E-03 0. -1.
        -12    1    3    3    0    0  0.11678259249E+02 -0.17849634418E+02  0.51240539038E+01  0.21937345244E+02  0.00000000000E+00 0.  1.
</event>
<event>
 7    1  0.5662448E-012  0.5930195E+02  0.7816164E-02  0.1266605E+00
        -11   -1    0    0    0    0  0.00000000000E+00  0.00000000000E+00  0.45593999997E+02  0.45594000000E+02  0.51100000000E-03 0. -1.
         11   -1    0    0    0    0 -0.00000000000E+00 -0.00000000000E+00 -0.45593999997E+02  0.45594000000E+02  0.51100000000E-03 0.  1.
    9900012    2    1    2    0    0 -0.17239617203E+02  0.25304891492E+02  0.88982334365E+01  0.59301945164E+02  0.50000002072E+02 0.  0.
         12    1    1    2    0    0  0.17239617203E+02 -0.25304891492E+02 -0.88982334365E+01  0.31886054836E+02  0.00000000000E+00 0. -1.
         11    1    3    3    0    0 -0.12121790267E+02  0.44240383138E+00  0.35784968892E+01  0.12646705527E+02  0.51100000000E-03 0. -1.
        -11    1    3    3    0    0 -0.14330889895E+02  0.12863181085E+02  0.18416223024E+02  0.26645695779E+02  0.51100000000E-03 0.  1.
         12    1    3    3    0    0  0.92130629592E+01  0.11999306575E+02 -0.13096486477E+02  0.20009543858E+02  0.00000000000E+00 0. -1.
</event>
<event>
 7    1  0.5662448E-012  0.5930198E+02  0.7816164E-02  0.1266605E+00
        -11   -1    0    0    0    0  0.00000000000E+00  0.00000000000E+00  0.45593999997E+02  0.45594000000E+02  0.51100000000E-03 0.  1.
         11   -1    0    0    0    0 -0.00000000000E+00 -0.00000000000E+00 -0.45593999997E+02  0.45594000000E+02  0.51100000000E-03 0. -1.
    9900012    2    1    2    0    0  0.50232723305E+01 -0.39823003565E+01  0.31235020768E+02  0.59301976363E+02  0.50000058972E+02 0.  0.
         12    1    1    2    0    0 -0.50232723305E+01  0.39823003565E+01 -0.31235020768E+02  0.31886023637E+02  0.00000000000E+00 0. -1.
         11    1    3    3    0    0 -0.24551083264E+01 -0.28202212984E+01 -0.20911091347E+01  0.42841501772E+01  0.51100000000E-03 0. -1.
        -11    1    3    3    0    0 -0.14566922127E+02 -0.10200369913E+02  0.22941832956E+02  0.29027064376E+02  0.51100000000E-03 0.  1.
         12    1    3    3    0    0  0.22045302784E+02  0.90382908550E+01  0.10384296946E+02  0.25990761810E+02  0.00000000000E+00 0. -1.
</event>
<event>
 7    1  0.5662448E-012  0.5930164E+02  0.7816164E-02  0.1266606E+00
        -11   -1    0    0    0    0  0.00000000000E+00  0.00000000000E+00  0.45593999997E+02  0.45594000000E+02  0.51100000000E-03 0.  1.
         11   -1    0    0    0    0 -0.00000000000E+00 -0.00000000000E+00 -0.45593999997E+02  0.45594000000E+02  0.51100000000E-03 0. -1.
    9900012    2    1    2    0    0  0.92243790965E+01 -0.24692881752E+02  0.17941918514E+02  0.59301638983E+02  0.49999443668E+02 0.  0.
         12    1    1    2    0    0 -0.92243790965E+01  0.24692881752E+02 -0.17941918514E+02  0.31886361017E+02  0.00000000000E+00 0. -1.
         11    1    3    3    0    0  0.16485332094E+02  0.28860952115E+01 -0.58284049669E+01  0.17721908039E+02  0.51100000000E-03 0. -1.
        -11    1    3    3    0    0 -0.33774182217E+01 -0.21905421444E+02  0.66655266743E+01  0.23144841511E+02  0.51100000000E-03 0.  1.
        -12    1    3    3    0    0 -0.38835347760E+01 -0.56735555199E+01  0.17104796807E+02  0.18434889433E+02  0.00000000000E+00 0.  1.
</event>
<event>
 7    1  0.5662448E-012  0.5930194E+02  0.7816164E-02  0.1266605E+00
        -11   -1    0    0    0    0  0.00000000000E+00  0.00000000000E+00  0.45593999997E+02  0.45594000000E+02  0.51100000000E-03 0.  1.
         11   -1    0    0    0    0 -0.00000000000E+00 -0.00000000000E+00 -0.45593999997E+02  0.45594000000E+02  0.51100000000E-03 0. -1.
    9900012    2    1    2    0    0 -0.12823562841E+02 -0.25885087671E+02 -0.13499610567E+02  0.59301937008E+02  0.49999987198E+02 0.  0.
         12    1    1    2    0    0  0.12823562841E+02  0.25885087671E+02  0.13499610567E+02  0.31886062992E+02  0.00000000000E+00 0. -1.
         11    1    3    3    0    0  0.10178443876E+02 -0.79298934156E+01 -0.58727296673E+01  0.14176490515E+02  0.51100000000E-03 0. -1.
        -11    1    3    3    0    0  0.64694173102E+01  0.30813796797E+01 -0.51640339210E+01  0.88326387712E+01  0.51100000000E-03 0.  1.
        -12    1    3    3    0    0 -0.29471424027E+02 -0.21036573935E+02 -0.24628469789E+01  0.36292807722E+02  0.00000000000E+00 0.  1.
</event>
<event>
 7    1  0.5662448E-012  0.5930213E+02  0.7816164E-02  0.1266604E+00
        -11   -1    0    0    0    0  0.00000000000E+00  0.00000000000E+00  0.45593999997E+02  0.45594000000E+02  0.51100000000E-03 0. -1.
         11   -1    0    0    0    0 -0.00000000000E+00 -0.00000000000E+00 -0.45593999997E+02  0.45594000000E+02  0.51100000000E-03 0.  1.
    9900012    2    1    2    0    0 -0.25369795644E+02 -0.16998493026E+02  0.91724337449E+01  0.59302127941E+02  0.50000335412E+02 0.  0.
         12    1    1    2    0    0  0.25369795644E+02  0.16998493026E+02 -0.91724337449E+01  0.31885872059E+02  0.00000000000E+00 0. -1.
         11    1    3    3    0    0 -0.29666553019E+02 -0.18288176025E+02  0.18878230416E+02  0.39635203219E+02  0.51100000000E-03 0. -1.
        -11    1    3    3    0    0  0.15440347667E+01 -0.59214010595E+01 -0.10240735740E+02  0.11929782170E+02  0.51100000000E-03 0.  1.
        -12    1    3    3    0    0  0.27527226077E+01  0.72110840582E+01  0.53493906857E+00  0.77371425511E+01  0.00000000000E+00 0.  1.
</event>
<event>
 7    1  0.5662448E-012  0.5930194E+02  0.7816164E-02  0.1266605E+00
        -11   -1    0    0    0    0  0.00000000000E+00  0.00000000000E+00  0.45593999997E+02  0.45594000000E+02  0.51100000000E-03 0.  1.
         11   -1    0    0    0    0 -0.00000000000E+00 -0.00000000000E+00 -0.45593999997E+02  0.45594000000E+02  0.51100000000E-03 0. -1.
    9900012    2    1    2    0    0 -0.14404380536E+02 -0.20156953643E+02  0.20073163555E+02  0.59301939505E+02  0.49999991751E+02 0.  0.
         12    1    1    2    0    0  0.14404380536E+02  0.20156953643E+02 -0.20073163555E+02  0.31886060495E+02  0.00000000000E+00 0. -1.
         11    1    3    3    0    0 -0.16387170619E+02 -0.91122350284E+01  0.51378477788E+01  0.19441442029E+02  0.51100000000E-03 0. -1.
        -11    1    3    3    0    0 -0.15612714604E+02 -0.51597803718E+00  0.23386362716E+01  0.15795325591E+02  0.51100000000E-03 0.  1.
         12    1    3    3    0    0  0.17595504686E+02 -0.10528740578E+02  0.12596679505E+02  0.24065171885E+02  0.00000000000E+00 0. -1.
</event>
<event>
 7    1  0.5662448E-012  0.5930201E+02  0.7816164E-02  0.1266605E+00
        -11   -1    0    0    0    0  0.00000000000E+00  0.00000000000E+00  0.45593999997E+02  0.45594000000E+02  0.51100000000E-03 0.  1.
         11   -1    0    0    0    0 -0.00000000000E+00 -0.00000000000E+00 -0.45593999997E+02  0.45594000000E+02  0.51100000000E-03 0. -1.
    9900012    2    1    2    0    0  0.14583342057E+02 -0.11761635134E+02  0.25801282021E+02  0.59302014356E+02  0.50000128262E+02 0.  0.
         12    1    1    2    0    0 -0.14583342057E+02  0.11761635134E+02 -0.25801282021E+02  0.31885985644E+02  0.00000000000E+00 0. -1.
         11    1    3    3    0    0  0.11565514377E+02  0.13154150662E+02  0.35436326905E+01  0.17870370319E+02  0.51100000000E-03 0. -1.
        -11    1    3    3    0    0  0.11989143778E+02 -0.56701295180E+01  0.11845935604E+02  0.17782466867E+02  0.51100000000E-03 0.  1.
        -12    1    3    3    0    0 -0.89713160973E+01 -0.19245656278E+02  0.10411713726E+02  0.23649177170E+02  0.00000000000E+00 0.  1.
</event>
<event>
 7    1  0.5662448E-012  0.5930190E+02  0.7816164E-02  0.1266605E+00
        -11   -1    0    0    0    0  0.00000000000E+00  0.00000000000E+00  0.45593999997E+02  0.45594000000E+02  0.51100000000E-03 0.  1.
         11   -1    0    0    0    0 -0.00000000000E+00 -0.00000000000E+00 -0.45593999997E+02  0.45594000000E+02  0.51100000000E-03 0. -1.
    9900012    2    1    2    0    0  0.19852944235E+02  0.19457581253E+02 -0.15620069597E+02  0.59301898996E+02  0.49999917873E+02 0.  0.
         12    1    1    2    0    0 -0.19852944235E+02 -0.19457581253E+02  0.15620069597E+02  0.31886101004E+02  0.00000000000E+00 0. -1.
         11    1    3    3    0    0 -0.36927508135E+01  0.11999072449E+02  0.12623873105E+02  0.17803828820E+02  0.51100000000E-03 0.  1.
        -11    1    3    3    0    0  0.24370425300E+01  0.31014083725E+01 -0.16475097552E+02  0.16940683274E+02  0.51100000000E-03 0. -1.
        -12    1    3    3    0    0  0.21108652519E+02  0.43571004317E+01 -0.11768845150E+02  0.24557386903E+02  0.00000000000E+00 0.  1.
</event>
<event>
 7    1  0.5662448E-012  0.5930195E+02  0.7816164E-02  0.1266605E+00
        -11   -1    0    0    0    0  0.00000000000E+00  0.00000000000E+00  0.45593999997E+02  0.45594000000E+02  0.51100000000E-03 0.  1.
         11   -1    0    0    0    0 -0.00000000000E+00 -0.00000000000E+00 -0.45593999997E+02  0.45594000000E+02  0.51100000000E-03 0. -1.
    9900012    2    1    2    0    0 -0.28302381155E+02 -0.12983990471E+02 -0.68637588580E+01  0.59301953314E+02  0.50000016937E+02 0.  0.
         12    1    1    2    0    0  0.28302381155E+02  0.12983990471E+02  0.68637588580E+01  0.31886046686E+02  0.00000000000E+00 0. -1.
         11    1    3    3    0    0 -0.19647613967E+01 -0.12451107545E+01 -0.99586112099E+01  0.10226657598E+02  0.51100000000E-03 0. -1.
        -11    1    3    3    0    0 -0.16398708029E+02 -0.13179243961E+02 -0.16711797230E+02  0.26868090057E+02  0.51100000000E-03 0.  1.
        -12    1    3    3    0    0 -0.99389117291E+01  0.14403642447E+01  0.19806649582E+02  0.22207205659E+02  0.00000000000E+00 0.  1.
</event>
<event>
 7    1  0.5662448E-012  0.5930194E+02  0.7816164E-02  0.1266605E+00
        -11   -1    0    0    0    0  0.00000000000E+00  0.00000000000E+00  0.45593999997E+02  0.45594000000E+02  0.51100000000E-03 0. -1.
         11   -1    0    0    0    0 -0.00000000000E+00 -0.00000000000E+00 -0.45593999997E+02  0.45594000000E+02  0.51100000000E-03 0.  1.
    9900012    2    1    2    0    0  0.13045039052E+01 -0.31246125183E+02  0.62208367061E+01  0.59301939116E+02  0.49999991041E+02 0.  0.
         12    1    1    2    0    0 -0.13045039052E+01  0.31246125183E+02 -0.62208367061E+01  0.31886060884E+02  0.00000000000E+00 0. -1.
         11    1    3    3    0    0 -0.11973278666E+02 -0.12286127922E+02 -0.44632780469E+01  0.17726511008E+02  0.51100000000E-03 0. -1.
        -11    1    3    3    0    0 -0.10348426369E+02 -0.86405512668E+00  0.20116921015E+01  0.10577496157E+02  0.51100000000E-03 0.  1.
        -12    1    3    3    0    0  0.23626208940E+02 -0.18095942134E+02  0.86724226516E+01  0.30997931951E+02  0.00000000000E+00 0.  1.
</event>
<event>
 7    1  0.5662448E-012  0.5930194E+02  0.7816164E-02  0.1266605E+00
        -11   -1    0    0    0    0  0.00000000000E+00  0.00000000000E+00  0.45593999997E+02  0.45594000000E+02  0.51100000000E-03 0.  1.
         11   -1    0    0    0    0 -0.00000000000E+00 -0.00000000000E+00 -0.45593999997E+02  0.45594000000E+02  0.51100000000E-03 0. -1.
    9900012    2    1    2    0    0  0.23718480902E+02 -0.21264723114E+02  0.14022180538E+01  0.59301937201E+02  0.49999987549E+02 0.  0.
         12    1    1    2    0    0 -0.23718480902E+02  0.21264723114E+02 -0.14022180538E+01  0.31886062799E+02  0.00000000000E+00 0. -1.
         11    1    3    3    0    0  0.64132168125E+01  0.11406576654E+02  0.35030802031E+01  0.13546619948E+02  0.51100000000E-03 0. -1.
        -11    1    3    3    0    0  0.16803324576E+02 -0.16448226731E+02  0.99577009352E+01  0.25535302771E+02  0.51100000000E-03 0.  1.
        -12    1    3    3    0    0  0.50193951299E+00 -0.16223073036E+02 -0.12058563085E+02  0.20220014482E+02  0.00000000000E+00 0.  1.
</event>
<event>
 7    1  0.5662448E-012  0.5930194E+02  0.7816164E-02  0.1266605E+00
        -11   -1    0    0    0    0  0.00000000000E+00  0.00000000000E+00  0.45593999997E+02  0.45594000000E+02  0.51100000000E-03 0.  1.
         11   -1    0    0    0    0 -0.00000000000E+00 -0.00000000000E+00 -0.45593999997E+02  0.45594000000E+02  0.51100000000E-03 0. -1.
    9900012    2    1    2    0    0 -0.12514772104E+02 -0.46420129987E+01  0.28957780890E+02  0.59301939102E+02  0.49999991018E+02 0.  0.
         12    1    1    2    0    0  0.12514772104E+02  0.46420129987E+01 -0.28957780890E+02  0.31886060898E+02  0.00000000000E+00 0. -1.
         11    1    3    3    0    0 -0.12879493494E+01  0.10870688705E+02  0.93132964060E+01  0.14372479837E+02  0.51100000000E-03 0. -1.
        -11    1    3    3    0    0 -0.13658954596E+02  0.79075695006E+01  0.13044529127E+02  0.20475752403E+02  0.51100000000E-03 0.  1.
         12    1    3    3    0    0  0.24321318416E+01 -0.23420271205E+02  0.65999553565E+01  0.24453706862E+02  0.00000000000E+00 0. -1.
</event>
<event>
 7    1  0.5662448E-012  0.5930193E+02  0.7816164E-02  0.1266605E+00
        -11   -1    0    0    0    0  0.00000000000E+00  0.00000000000E+00  0.45593999997E+02  0.45594000000E+02  0.51100000000E-03 0. -1.
         11   -1    0    0    0    0 -0.00000000000E+00 -0.00000000000E+00 -0.45593999997E+02  0.45594000000E+02  0.51100000000E-03 0.  1.
    9900012    2    1    2    0    0  0.15827797357E+02  0.26708479886E+02 -0.72704442732E+01  0.59301930520E+02  0.49999975364E+02 0.  0.
         12    1    1    2    0    0 -0.15827797357E+02 -0.26708479886E+02  0.72704442732E+01  0.31886069480E+02  0.00000000000E+00 0. -1.
         11    1    3    3    0    0  0.16590897195E+02  0.18629076714E+02 -0.16197611528E+02  0.29743284762E+02  0.51100000000E-03 0. -1.
        -11    1    3    3    0    0  0.45491684444E+01  0.43217213264E+00 -0.85847176578E+01  0.97251778294E+01  0.51100000000E-03 0.  1.
         12    1    3    3    0    0 -0.53122682829E+01  0.76472310391E+01  0.17511884912E+02  0.19833467928E+02  0.00000000000E+00 0. -1.
</event>
<event>
 7    1  0.5662448E-012  0.5930192E+02  0.7816164E-02  0.1266605E+00
        -11   -1    0    0    0    0  0.00000000000E+00  0.00000000000E+00  0.45593999997E+02  0.45594000000E+02  0.51100000000E-03 0.  1.
         11   -1    0    0    0    0 -0.00000000000E+00 -0.00000000000E+00 -0.45593999997E+02  0.45594000000E+02  0.51100000000E-03 0. -1.
    9900012    2    1    2    0    0 -0.22247280024E+02 -0.17550663200E+02  0.14620346818E+02  0.59301924852E+02  0.49999965029E+02 0.  0.
         12    1    1    2    0    0  0.22247280024E+02  0.17550663200E+02 -0.14620346818E+02  0.31886075148E+02  0.00000000000E+00 0. -1.
         11    1    3    3    0    0  0.13791698076E+02 -0.98541278208E+00  0.40754946975E+01  0.14414979413E+02  0.51100000000E-03 0. -1.
        -11    1    3    3    0    0 -0.54788967441E+01 -0.10841362727E+02  0.57081293062E+01  0.13421482621E+02  0.51100000000E-03 0.  1.
        -12    1    3    3    0    0 -0.30560081356E+02 -0.57238876912E+01  0.48367228146E+01  0.31465462819E+02  0.00000000000E+00 0.  1.
</event>
<event>
 7    1  0.5662448E-012  0.5930195E+02  0.7816164E-02  0.1266605E+00
        -11   -1    0    0    0    0  0.00000000000E+00  0.00000000000E+00  0.45593999997E+02  0.45594000000E+02  0.51100000000E-03 0. -1.
         11   -1    0    0    0    0 -0.00000000000E+00 -0.00000000000E+00 -0.45593999997E+02  0.45594000000E+02  0.51100000000E-03 0.  1.
    9900012    2    1    2    0    0  0.12168334712E+01 -0.12687238111E+02 -0.29227958480E+02  0.59301948951E+02  0.50000008979E+02 0.  0.
         12    1    1    2    0    0 -0.12168334712E+01  0.12687238111E+02  0.29227958480E+02  0.31886051049E+02  0.00000000000E+00 0. -1.
         11    1    3    3    0    0  0.86635694130E+01 -0.10009682841E+02 -0.54137411852E+01  0.14302439632E+02  0.51100000000E-03 0.  1.
        -11    1    3    3    0    0  0.35106963310E+01  0.16006918132E+02 -0.84043314005E+01  0.18416818492E+02  0.51100000000E-03 0. -1.
         12    1    3    3    0    0 -0.10957432273E+02 -0.18684473402E+02 -0.15409885894E+02  0.26582690827E+02  0.00000000000E+00 0. -1.
</event>
<event>
 7    1  0.5662448E-012  0.5930163E+02  0.7816164E-02  0.1266606E+00
        -11   -1    0    0    0    0  0.00000000000E+00  0.00000000000E+00  0.45593999997E+02  0.45594000000E+02  0.51100000000E-03 0.  1.
         11   -1    0    0    0    0 -0.00000000000E+00 -0.00000000000E+00 -0.45593999997E+02  0.45594000000E+02  0.51100000000E-03 0. -1.
    9900012    2    1    2    0    0  0.41978543737E+01 -0.11824347112E+02  0.29313878711E+02  0.59301629071E+02  0.49999425591E+02 0.  0.
         12    1    1    2    0    0 -0.41978543737E+01  0.11824347112E+02 -0.29313878711E+02  0.31886370929E+02  0.00000000000E+00 0. -1.
         11    1    3    3    0    0 -0.13724703203E+01 -0.68678626354E+00  0.41309187200E+01  0.44067947404E+01  0.51100000000E-03 0. -1.
        -11    1    3    3    0    0 -0.95798115802E+01 -0.40277985795E+01  0.34298197494E+02  0.35838000822E+02  0.51100000000E-03 0.  1.
         12    1    3    3    0    0  0.15150136274E+02 -0.71097622687E+01 -0.91152375029E+01  0.19056833509E+02  0.00000000000E+00 0. -1.
</event>
<event>
 7    1  0.5662448E-012  0.5930194E+02  0.7816164E-02  0.1266605E+00
        -11   -1    0    0    0    0  0.00000000000E+00  0.00000000000E+00  0.45593999997E+02  0.45594000000E+02  0.51100000000E-03 0.  1.
         11   -1    0    0    0    0 -0.00000000000E+00 -0.00000000000E+00 -0.45593999997E+02  0.45594000000E+02  0.51100000000E-03 0. -1.
    9900012    2    1    2    0    0  0.13153728214E+01  0.29345732313E+02  0.12402363485E+02  0.59301939869E+02  0.49999992415E+02 0.  0.
         12    1    1    2    0    0 -0.13153728214E+01 -0.29345732313E+02 -0.12402363485E+02  0.31886060131E+02  0.00000000000E+00 0. -1.
         11    1    3    3    0    0  0.77366554490E+01  0.35385596380E+01  0.13077215979E+02  0.15600987785E+02  0.51100000000E-03 0. -1.
        -11    1    3    3    0    0 -0.14906141146E+02  0.41661263214E+01  0.96786580888E+01  0.18254480958E+02  0.51100000000E-03 0.  1.
        -12    1    3    3    0    0  0.84848585181E+01  0.21641046354E+02 -0.10353510583E+02  0.25446471126E+02  0.00000000000E+00 0.  1.
</event>
<event>
 7    1  0.5662448E-012  0.5930193E+02  0.7816164E-02  0.1266605E+00
        -11   -1    0    0    0    0  0.00000000000E+00  0.00000000000E+00  0.45593999997E+02  0.45594000000E+02  0.51100000000E-03 0. -1.
         11   -1    0    0    0    0 -0.00000000000E+00 -0.00000000000E+00 -0.45593999997E+02  0.45594000000E+02  0.51100000000E-03 0.  1.
    9900012    2    1    2    0    0  0.22281355050E+02  0.19808925274E+02 -0.11307917643E+02  0.59301932435E+02  0.49999978857E+02 0.  0.
         12    1    1    2    0    0 -0.22281355050E+02 -0.19808925274E+02  0.11307917643E+02  0.31886067565E+02  0.00000000000E+00 0. -1.
         11    1    3    3    0    0  0.15704151863E+02  0.28112055797E+02  0.42426918003E+01  0.32479354995E+02  0.51100000000E-03 0. -1.
        -11    1    3    3    0    0  0.82295299101E+01  0.32801625079E+01 -0.23149134840E+01  0.91566070855E+01  0.51100000000E-03 0.  1.
         12    1    3    3    0    0 -0.16523267239E+01 -0.11583293031E+02 -0.13235695959E+02  0.17665970354E+02  0.00000000000E+00 0. -1.
</event>
<event>
 7    1  0.5662448E-012  0.5930200E+02  0.7816164E-02  0.1266605E+00
        -11   -1    0    0    0    0  0.00000000000E+00  0.00000000000E+00  0.45593999997E+02  0.45594000000E+02  0.51100000000E-03 0. -1.
         11   -1    0    0    0    0 -0.00000000000E+00 -0.00000000000E+00 -0.45593999997E+02  0.45594000000E+02  0.51100000000E-03 0.  1.
    9900012    2    1    2    0    0 -0.31060727815E+02  0.63283540468E+01 -0.34496928162E+01  0.59301995894E+02  0.50000094592E+02 0.  0.
         12    1    1    2    0    0  0.31060727815E+02 -0.63283540468E+01  0.34496928162E+01  0.31886004106E+02  0.00000000000E+00 0. -1.
         11    1    3    3    0    0 -0.30892975669E+02  0.28577707814E+01  0.70774892596E+01  0.31821905255E+02  0.51100000000E-03 0. -1.
        -11    1    3    3    0    0 -0.53832664311E+01  0.57318413341E+01  0.60717272017E+01  0.99347588808E+01  0.51100000000E-03 0.  1.
         12    1    3    3    0    0  0.52155142858E+01 -0.22612580686E+01 -0.16598909277E+02  0.17545331759E+02  0.00000000000E+00 0. -1.
</event>
<event>
 7    1  0.5662448E-012  0.5930197E+02  0.7816164E-02  0.1266605E+00
        -11   -1    0    0    0    0  0.00000000000E+00  0.00000000000E+00  0.45593999997E+02  0.45594000000E+02  0.51100000000E-03 0.  1.
         11   -1    0    0    0    0 -0.00000000000E+00 -0.00000000000E+00 -0.45593999997E+02  0.45594000000E+02  0.51100000000E-03 0. -1.
    9900012    2    1    2    0    0  0.16629638990E+02  0.20225177591E+02  0.18196601147E+02  0.59301968657E+02  0.50000044918E+02 0.  0.
         12    1    1    2    0    0 -0.16629638990E+02 -0.20225177591E+02 -0.18196601147E+02  0.31886031343E+02  0.00000000000E+00 0. -1.
         11    1    3    3    0    0  0.12090208456E+02  0.17978501215E+02  0.56981313134E+01  0.22402418333E+02  0.51100000000E-03 0.  1.
        -11    1    3    3    0    0  0.18492685066E+02 -0.38514596334E+01  0.10296599981E+02  0.21513556509E+02  0.51100000000E-03 0. -1.
         12    1    3    3    0    0 -0.13953254532E+02  0.60981360091E+01  0.22018698524E+01  0.15385993815E+02  0.00000000000E+00 0. -1.
</event>
<event>
 7    1  0.5662448E-012  0.5930192E+02  0.7816164E-02  0.1266605E+00
        -11   -1    0    0    0    0  0.00000000000E+00  0.00000000000E+00  0.45593999997E+02  0.45594000000E+02  0.51100000000E-03 0.  1.
         11   -1    0    0    0    0 -0.00000000000E+00 -0.00000000000E+00 -0.45593999997E+02  0.45594000000E+02  0.51100000000E-03 0. -1.
    9900012    2    1    2    0    0  0.10491398324E+02  0.29898525838E+02 -0.35680035544E+01  0.59301922545E+02  0.49999960821E+02 0.  0.
         12    1    1    2    0    0 -0.10491398324E+02 -0.29898525838E+02  0.35680035544E+01  0.31886077455E+02  0.00000000000E+00 0. -1.
         11    1    3    3    0    0  0.74613122875E+01 -0.58480231119E+01 -0.70524524796E+01  0.11815567765E+02  0.51100000000E-03 0. -1.
        -11    1    3    3    0    0  0.14234529053E+02  0.76779521739E+01 -0.33130930987E+01  0.16509068814E+02  0.51100000000E-03 0.  1.
        -12    1    3    3    0    0 -0.11204443017E+02  0.28068596776E+02  0.67975420239E+01  0.30977285966E+02  0.00000000000E+00 0.  1.
</event>
<event>
 7    1  0.5662448E-012  0.5930193E+02  0.7816164E-02  0.1266605E+00
        -11   -1    0    0    0    0  0.00000000000E+00  0.00000000000E+00  0.45593999997E+02  0.45594000000E+02  0.51100000000E-03 0. -1.
         11   -1    0    0    0    0 -0.00000000000E+00 -0.00000000000E+00 -0.45593999997E+02  0.45594000000E+02  0.51100000000E-03 0.  1.
    9900012    2    1    2    0    0  0.13982319673E+02 -0.28391928280E+02  0.38877149195E+01  0.59301934357E+02  0.49999982364E+02 0.  0.
         12    1    1    2    0    0 -0.13982319673E+02  0.28391928280E+02 -0.38877149195E+01  0.31886065643E+02  0.00000000000E+00 0. -1.
         11    1    3    3    0    0  0.66680004484E+01 -0.10794045872E+02  0.88450976256E+01  0.15466396107E+02  0.51100000000E-03 0. -1.
        -11    1    3    3    0    0  0.17752438184E+01 -0.27912651945E+02  0.50647090878E+01  0.28423914361E+02  0.51100000000E-03 0.  1.
        -12    1    3    3    0    0  0.55390754057E+01  0.10314769538E+02 -0.10022091794E+02  0.15411623889E+02  0.00000000000E+00 0.  1.
</event>
<event>
 7    1  0.5662448E-012  0.5930195E+02  0.7816164E-02  0.1266605E+00
        -11   -1    0    0    0    0  0.00000000000E+00  0.00000000000E+00  0.45593999997E+02  0.45594000000E+02  0.51100000000E-03 0. -1.
         11   -1    0    0    0    0 -0.00000000000E+00 -0.00000000000E+00 -0.45593999997E+02  0.45594000000E+02  0.51100000000E-03 0.  1.
    9900012    2    1    2    0    0 -0.49530861471E+01  0.22255183398E+02 -0.22291112509E+02  0.59301953720E+02  0.50000017676E+02 0.  0.
         12    1    1    2    0    0  0.49530861471E+01 -0.22255183398E+02  0.22291112509E+02  0.31886046280E+02  0.00000000000E+00 0. -1.
         11    1    3    3    0    0 -0.14569925532E+02 -0.49406552082E+01 -0.13657977806E+02  0.20572631380E+02  0.51100000000E-03 0. -1.
        -11    1    3    3    0    0  0.10037927774E+01  0.15220784642E+01 -0.11366423229E+02  0.11511728804E+02  0.51100000000E-03 0.  1.
         12    1    3    3    0    0  0.86130466073E+01  0.25673760142E+02  0.27332885256E+01  0.27217593536E+02  0.00000000000E+00 0. -1.
</event>
<event>
 7    1  0.5662448E-012  0.5930192E+02  0.7816164E-02  0.1266605E+00
        -11   -1    0    0    0    0  0.00000000000E+00  0.00000000000E+00  0.45593999997E+02  0.45594000000E+02  0.51100000000E-03 0.  1.
         11   -1    0    0    0    0 -0.00000000000E+00 -0.00000000000E+00 -0.45593999997E+02  0.45594000000E+02  0.51100000000E-03 0. -1.
    9900012    2    1    2    0    0  0.88132530459E+01 -0.26865979740E+02  0.14740009938E+02  0.59301918560E+02  0.49999953553E+02 0.  0.
         12    1    1    2    0    0 -0.88132530459E+01  0.26865979740E+02 -0.14740009938E+02  0.31886081440E+02  0.00000000000E+00 0. -1.
         11    1    3    3    0    0 -0.31545022236E+01 -0.15743869049E+01  0.10180434918E+02  0.10773617489E+02  0.51100000000E-03 0.  1.
        -11    1    3    3    0    0  0.11447525627E+02 -0.35864974084E+02  0.23994753654E+01  0.37723993576E+02  0.51100000000E-03 0. -1.
         12    1    3    3    0    0  0.52022964306E+00  0.10573381249E+02  0.21600996541E+01  0.10804307495E+02  0.00000000000E+00 0. -1.
</event>
<event>
 7    1  0.5662448E-012  0.5930193E+02  0.7816164E-02  0.1266605E+00
        -11   -1    0    0    0    0  0.00000000000E+00  0.00000000000E+00  0.45593999997E+02  0.45594000000E+02  0.51100000000E-03 0.  1.
         11   -1    0    0    0    0 -0.00000000000E+00 -0.00000000000E+00 -0.45593999997E+02  0.45594000000E+02  0.51100000000E-03 0. -1.
    9900012    2    1    2    0    0  0.13448334441E+02 -0.55560674856E+01  0.28372409698E+02  0.59301933808E+02  0.49999981362E+02 0.  0.
         12    1    1    2    0    0 -0.13448334441E+02  0.55560674856E+01 -0.28372409698E+02  0.31886066192E+02  0.00000000000E+00 0. -1.
         11    1    3    3    0    0  0.67259170534E+01  0.11613240356E+02  0.35395271670E+01  0.13879249425E+02  0.51100000000E-03 0. -1.
        -11    1    3    3    0    0  0.37993221368E+01 -0.17179543397E+02 -0.26427355545E+01  0.17792009766E+02  0.51100000000E-03 0.  1.
         12    1    3    3    0    0  0.29230952511E+01  0.10235555083E-01  0.27475618085E+02  0.27630674617E+02  0.00000000000E+00 0. -1.
</event>
<event>
 7    1  0.5662448E-012  0.5930221E+02  0.7816164E-02  0.1266604E+00
        -11   -1    0    0    0    0  0.00000000000E+00  0.00000000000E+00  0.45593999997E+02  0.45594000000E+02  0.51100000000E-03 0. -1.
         11   -1    0    0    0    0 -0.00000000000E+00 -0.00000000000E+00 -0.45593999997E+02  0.45594000000E+02  0.51100000000E-03 0.  1.
    9900012    2    1    2    0    0  0.30753177985E+02  0.37818807898E+01  0.75261710482E+01  0.59302206468E+02  0.50000478626E+02 0.  0.
         12    1    1    2    0    0 -0.30753177985E+02 -0.37818807898E+01 -0.75261710482E+01  0.31885793532E+02  0.00000000000E+00 0. -1.
         11    1    3    3    0    0  0.14706639653E+02  0.87825512783E+01  0.98823364856E+01  0.19775718230E+02  0.51100000000E-03 0. -1.
        -11    1    3    3    0    0  0.21521513004E+02  0.79068321016E+01 -0.81812428197E+01  0.24343916082E+02  0.51100000000E-03 0.  1.
         12    1    3    3    0    0 -0.54749746716E+01 -0.12907502590E+02  0.58250773823E+01  0.15182572156E+02  0.00000000000E+00 0. -1.
</event>
<event>
 7    1  0.5662448E-012  0.5930194E+02  0.7816164E-02  0.1266605E+00
        -11   -1    0    0    0    0  0.00000000000E+00  0.00000000000E+00  0.45593999997E+02  0.45594000000E+02  0.51100000000E-03 0.  1.
         11   -1    0    0    0    0 -0.00000000000E+00 -0.00000000000E+00 -0.45593999997E+02  0.45594000000E+02  0.51100000000E-03 0. -1.
    9900012    2    1    2    0    0 -0.12537941041E+02 -0.25669721481E+02 -0.14162849856E+02  0.59301939056E+02  0.49999990933E+02 0.  0.
         12    1    1    2    0    0  0.12537941041E+02  0.25669721481E+02  0.14162849856E+02  0.31886060944E+02  0.00000000000E+00 0. -1.
         11    1    3    3    0    0 -0.60445500266E+01 -0.23134913906E+01 -0.20849060491E+02  0.21830532542E+02  0.51100000000E-03 0. -1.
        -11    1    3    3    0    0  0.99813826985E+01 -0.27302671720E+01  0.50993610777E+00  0.10360617477E+02  0.51100000000E-03 0.  1.
        -12    1    3    3    0    0 -0.16474773713E+02 -0.20625962918E+02  0.61762745273E+01  0.27110789037E+02  0.00000000000E+00 0.  1.
</event>
<event>
 7    1  0.5662448E-012  0.5930202E+02  0.7816164E-02  0.1266604E+00
        -11   -1    0    0    0    0  0.00000000000E+00  0.00000000000E+00  0.45593999997E+02  0.45594000000E+02  0.51100000000E-03 0.  1.
         11   -1    0    0    0    0 -0.00000000000E+00 -0.00000000000E+00 -0.45593999997E+02  0.45594000000E+02  0.51100000000E-03 0. -1.
    9900012    2    1    2    0    0 -0.12643435359E+02  0.19999215055E+02 -0.21374995912E+02  0.59302023290E+02  0.50000144555E+02 0.  0.
         12    1    1    2    0    0  0.12643435359E+02 -0.19999215055E+02  0.21374995912E+02  0.31885976710E+02  0.00000000000E+00 0. -1.
         11    1    3    3    0    0 -0.15252426612E+02 -0.63236242393E+01 -0.11890014498E+02  0.20346920802E+02  0.51100000000E-03 0. -1.
        -11    1    3    3    0    0 -0.11228870401E+02  0.14378616830E+02  0.24855312853E+00  0.18245381096E+02  0.51100000000E-03 0.  1.
        -12    1    3    3    0    0  0.13837861654E+02  0.11944222464E+02 -0.97335345424E+01  0.20709721392E+02  0.00000000000E+00 0.  1.
</event>
<event>
 7    1  0.5662448E-012  0.5930196E+02  0.7816164E-02  0.1266605E+00
        -11   -1    0    0    0    0  0.00000000000E+00  0.00000000000E+00  0.45593999997E+02  0.45594000000E+02  0.51100000000E-03 0.  1.
         11   -1    0    0    0    0 -0.00000000000E+00 -0.00000000000E+00 -0.45593999997E+02  0.45594000000E+02  0.51100000000E-03 0. -1.
    9900012    2    1    2    0    0  0.30734946897E+02  0.69664746565E+01 -0.48529373584E+01  0.59301957114E+02  0.50000023867E+02 0.  0.
         12    1    1    2    0    0 -0.30734946897E+02 -0.69664746565E+01  0.48529373584E+01  0.31886042886E+02  0.00000000000E+00 0. -1.
         11    1    3    3    0    0 -0.22255115055E+00 -0.59320201978E+01  0.63582698352E+01  0.86986199021E+01  0.51100000000E-03 0. -1.
        -11    1    3    3    0    0  0.33952282539E+02 -0.17907096009E+01 -0.10544820881E+02  0.35597154073E+02  0.51100000000E-03 0.  1.
         12    1    3    3    0    0 -0.29947844910E+01  0.14689204455E+02 -0.66638631279E+00  0.15006183139E+02  0.00000000000E+00 0. -1.
</event>
<event>
 7    1  0.5662448E-012  0.5930197E+02  0.7816164E-02  0.1266605E+00
        -11   -1    0    0    0    0  0.00000000000E+00  0.00000000000E+00  0.45593999997E+02  0.45594000000E+02  0.51100000000E-03 0.  1.
         11   -1    0    0    0    0 -0.00000000000E+00 -0.00000000000E+00 -0.45593999997E+02  0.45594000000E+02  0.51100000000E-03 0. -1.
    9900012    2    1    2    0    0  0.21415267172E+02 -0.16903179479E+02  0.16504180063E+02  0.59301966943E+02  0.50000041792E+02 0.  0.
         12    1    1    2    0    0 -0.21415267172E+02  0.16903179479E+02 -0.16504180063E+02  0.31886033057E+02  0.00000000000E+00 0. -1.
         11    1    3    3    0    0 -0.35505952658E+01 -0.29292204253E+00  0.52698240570E+01  0.63610986408E+01  0.51100000000E-03 0. -1.
        -11    1    3    3    0    0  0.78974452048E+01 -0.25237388697E+02  0.18723893737E+02  0.32401846027E+02  0.51100000000E-03 0.  1.
         12    1    3    3    0    0  0.17068417233E+02  0.86271312602E+01 -0.74895377304E+01  0.20539022275E+02  0.00000000000E+00 0. -1.
</event>
<event>
 7    1  0.5662448E-012  0.5930194E+02  0.7816164E-02  0.1266605E+00
        -11   -1    0    0    0    0  0.00000000000E+00  0.00000000000E+00  0.45593999997E+02  0.45594000000E+02  0.51100000000E-03 0.  1.
         11   -1    0    0    0    0 -0.00000000000E+00 -0.00000000000E+00 -0.45593999997E+02  0.45594000000E+02  0.51100000000E-03 0. -1.
    9900012    2    1    2    0    0  0.16515362458E+02 -0.27254806453E+02  0.10672143662E+01  0.59301943198E+02  0.49999998486E+02 0.  0.
         12    1    1    2    0    0 -0.16515362458E+02  0.27254806453E+02 -0.10672143662E+01  0.31886056802E+02  0.00000000000E+00 0. -1.
         11    1    3    3    0    0  0.33758764862E+00 -0.92393548974E-01  0.98736221905E+01  0.98798237540E+01  0.51100000000E-03 0. -1.
        -11    1    3    3    0    0  0.17856953667E+02 -0.17330248911E+02  0.11030142421E+02  0.27218970657E+02  0.51100000000E-03 0.  1.
         12    1    3    3    0    0 -0.16791788574E+01 -0.98321639928E+01 -0.19836550245E+02  0.22203148786E+02  0.00000000000E+00 0. -1.
</event>
<event>
 7    1  0.5662448E-012  0.5930195E+02  0.7816164E-02  0.1266605E+00
        -11   -1    0    0    0    0  0.00000000000E+00  0.00000000000E+00  0.45593999997E+02  0.45594000000E+02  0.51100000000E-03 0.  1.
         11   -1    0    0    0    0 -0.00000000000E+00 -0.00000000000E+00 -0.45593999997E+02  0.45594000000E+02  0.51100000000E-03 0. -1.
    9900012    2    1    2    0    0  0.10670157787E+02  0.23638529236E+02  0.18549598822E+02  0.59301953708E+02  0.50000017654E+02 0.  0.
         12    1    1    2    0    0 -0.10670157787E+02 -0.23638529236E+02 -0.18549598822E+02  0.31886046292E+02  0.00000000000E+00 0. -1.
         11    1    3    3    0    0  0.78317017252E+01  0.18560557796E+02 -0.12634376334E+01  0.20184799541E+02  0.51100000000E-03 0. -1.
        -11    1    3    3    0    0  0.27562526865E+01 -0.14137614488E+02  0.69447198035E+01  0.15990566147E+02  0.51100000000E-03 0.  1.
         12    1    3    3    0    0  0.82203375683E-01  0.19215585929E+02  0.12868316652E+02  0.23126588020E+02  0.00000000000E+00 0. -1.
</event>
<event>
 7    1  0.5662448E-012  0.5930194E+02  0.7816164E-02  0.1266605E+00
        -11   -1    0    0    0    0  0.00000000000E+00  0.00000000000E+00  0.45593999997E+02  0.45594000000E+02  0.51100000000E-03 0.  1.
         11   -1    0    0    0    0 -0.00000000000E+00 -0.00000000000E+00 -0.45593999997E+02  0.45594000000E+02  0.51100000000E-03 0. -1.
    9900012    2    1    2    0    0  0.26876287087E+02  0.75294230951E+01  0.15417323791E+02  0.59301938898E+02  0.49999990644E+02 0.  0.
         12    1    1    2    0    0 -0.26876287087E+02 -0.75294230951E+01 -0.15417323791E+02  0.31886061102E+02  0.00000000000E+00 0. -1.
         11    1    3    3    0    0  0.41710943776E+01  0.52742334146E+01 -0.14376517315E+01  0.68762205593E+01  0.51100000000E-03 0. -1.
        -11    1    3    3    0    0  0.32978298795E+02  0.64818391253E+01  0.22014508339E+02  0.40177369345E+02  0.51100000000E-03 0.  1.
         12    1    3    3    0    0 -0.10273106085E+02 -0.42266494448E+01 -0.51595328165E+01  0.12248348993E+02  0.00000000000E+00 0. -1.
</event>
<event>
 7    1  0.5662448E-012  0.5930193E+02  0.7816164E-02  0.1266605E+00
        -11   -1    0    0    0    0  0.00000000000E+00  0.00000000000E+00  0.45593999997E+02  0.45594000000E+02  0.51100000000E-03 0.  1.
         11   -1    0    0    0    0 -0.00000000000E+00 -0.00000000000E+00 -0.45593999997E+02  0.45594000000E+02  0.51100000000E-03 0. -1.
    9900012    2    1    2    0    0 -0.22766666117E+01 -0.17106792887E+02  0.26812229144E+02  0.59301933993E+02  0.49999981698E+02 0.  0.
         12    1    1    2    0    0  0.22766666117E+01  0.17106792887E+02 -0.26812229144E+02  0.31886066007E+02  0.00000000000E+00 0. -1.
         11    1    3    3    0    0  0.39973122675E+01  0.94990304753E+01 -0.67256255734E+01  0.12306263647E+02  0.51100000000E-03 0. -1.
        -11    1    3    3    0    0  0.26497136377E+01  0.16676963590E+01  0.46121177983E+01  0.55743900432E+01  0.51100000000E-03 0.  1.
         12    1    3    3    0    0 -0.89236925169E+01 -0.28273519722E+02  0.28925736919E+02  0.41421280303E+02  0.00000000000E+00 0. -1.
</event>
<event>
 7    1  0.5662448E-012  0.5930196E+02  0.7816164E-02  0.1266605E+00
        -11   -1    0    0    0    0  0.00000000000E+00  0.00000000000E+00  0.45593999997E+02  0.45594000000E+02  0.51100000000E-03 0. -1.
         11   -1    0    0    0    0 -0.00000000000E+00 -0.00000000000E+00 -0.45593999997E+02  0.45594000000E+02  0.51100000000E-03 0.  1.
    9900012    2    1    2    0    0  0.21831691153E+01 -0.31429443580E+02  0.49135612708E+01  0.59301964883E+02  0.50000038034E+02 0.  0.
         12    1    1    2    0    0 -0.21831691153E+01  0.31429443580E+02 -0.49135612708E+01  0.31886035117E+02  0.00000000000E+00 0. -1.
         11    1    3    3    0    0 -0.38332705966E+01 -0.26729241512E+02 -0.94970084791E+01  0.28624106721E+02  0.51100000000E-03 0.  1.
        -11    1    3    3    0    0  0.10139894646E+02 -0.13533587960E+02  0.11686428703E+02  0.20555974377E+02  0.51100000000E-03 0. -1.
        -12    1    3    3    0    0 -0.41234549345E+01  0.88333858915E+01  0.27241410470E+01  0.10121883785E+02  0.00000000000E+00 0.  1.
</event>
<event>
 7    1  0.5662448E-012  0.5930176E+02  0.7816164E-02  0.1266605E+00
        -11   -1    0    0    0    0  0.00000000000E+00  0.00000000000E+00  0.45593999997E+02  0.45594000000E+02  0.51100000000E-03 0.  1.
         11   -1    0    0    0    0 -0.00000000000E+00 -0.00000000000E+00 -0.45593999997E+02  0.45594000000E+02  0.51100000000E-03 0. -1.
    9900012    2    1    2    0    0 -0.10506737057E+02  0.88532400776E+01  0.28774309905E+02  0.59301760116E+02  0.49999664587E+02 0.  0.
         12    1    1    2    0    0  0.10506737057E+02 -0.88532400776E+01 -0.28774309905E+02  0.31886239884E+02  0.00000000000E+00 0. -1.
         11    1    3    3    0    0 -0.72684806865E+01 -0.87994936860E+01 -0.58156612735E+00  0.11428040954E+02  0.51100000000E-03 0. -1.
        -11    1    3    3    0    0 -0.55278892286E+01 -0.30154592841E+01  0.26071711010E+02  0.26821347268E+02  0.51100000000E-03 0.  1.
        -12    1    3    3    0    0  0.22896328579E+01  0.20668193048E+02  0.32841650224E+01  0.21052371894E+02  0.00000000000E+00 0.  1.
</event>
<event>
 7    1  0.5662448E-012  0.5930193E+02  0.7816164E-02  0.1266605E+00
        -11   -1    0    0    0    0  0.00000000000E+00  0.00000000000E+00  0.45593999997E+02  0.45594000000E+02  0.51100000000E-03 0.  1.
         11   -1    0    0    0    0 -0.00000000000E+00 -0.00000000000E+00 -0.45593999997E+02  0.45594000000E+02  0.51100000000E-03 0. -1.
    9900012    2    1    2    0    0 -0.15493315750E+02  0.26155611535E+02  0.96209303716E+01  0.59301934879E+02  0.49999983315E+02 0.  0.
         12    1    1    2    0    0  0.15493315750E+02 -0.26155611535E+02 -0.96209303716E+01  0.31886065121E+02  0.00000000000E+00 0. -1.
         11    1    3    3    0    0 -0.16908719743E+02 -0.77108952924E+00 -0.50033726028E+01  0.17650300849E+02  0.51100000000E-03 0.  1.
        -11    1    3    3    0    0  0.97582601554E+01  0.71127732568E+01 -0.44912818373E+01  0.12883586359E+02  0.51100000000E-03 0. -1.
        -12    1    3    3    0    0 -0.83428561625E+01  0.19813927808E+02  0.19115584812E+02  0.28768047671E+02  0.00000000000E+00 0.  1.
</event>
<event>
 7    1  0.5662448E-012  0.5930191E+02  0.7816164E-02  0.1266605E+00
        -11   -1    0    0    0    0  0.00000000000E+00  0.00000000000E+00  0.45593999997E+02  0.45594000000E+02  0.51100000000E-03 0. -1.
         11   -1    0    0    0    0 -0.00000000000E+00 -0.00000000000E+00 -0.45593999997E+02  0.45594000000E+02  0.51100000000E-03 0.  1.
    9900012    2    1    2    0    0  0.74186130671E+01  0.15634624467E+02 -0.26781436900E+02  0.59301911113E+02  0.49999939972E+02 0.  0.
         12    1    1    2    0    0 -0.74186130671E+01 -0.15634624467E+02  0.26781436900E+02  0.31886088887E+02  0.00000000000E+00 0. -1.
         11    1    3    3    0    0  0.10414278668E+02  0.43882438042E+01 -0.10884375766E+02  0.15690236452E+02  0.51100000000E-03 0.  1.
        -11    1    3    3    0    0  0.76596265783E+01  0.44781066492E+01  0.10861668591E+02  0.14024947890E+02  0.51100000000E-03 0. -1.
        -12    1    3    3    0    0 -0.10655292179E+02  0.67682740142E+01 -0.26758729725E+02  0.29586726771E+02  0.00000000000E+00 0.  1.
</event>
<event>
 7    1  0.5662448E-012  0.5930194E+02  0.7816164E-02  0.1266605E+00
        -11   -1    0    0    0    0  0.00000000000E+00  0.00000000000E+00  0.45593999997E+02  0.45594000000E+02  0.51100000000E-03 0.  1.
         11   -1    0    0    0    0 -0.00000000000E+00 -0.00000000000E+00 -0.45593999997E+02  0.45594000000E+02  0.51100000000E-03 0. -1.
    9900012    2    1    2    0    0 -0.39927674155E+01 -0.96148792084E+01  0.30138560961E+02  0.59301937988E+02  0.49999988984E+02 0.  0.
         12    1    1    2    0    0  0.39927674155E+01  0.96148792084E+01 -0.30138560961E+02  0.31886062012E+02  0.00000000000E+00 0. -1.
         11    1    3    3    0    0 -0.16844875632E+01  0.31341791973E+01 -0.14625220517E+01  0.38470181445E+01  0.51100000000E-03 0. -1.
        -11    1    3    3    0    0  0.17757670075E+02 -0.37926312386E+01  0.15462976585E+01  0.18223883640E+02  0.51100000000E-03 0.  1.
         12    1    3    3    0    0 -0.20065949927E+02 -0.89564271672E+01  0.30054785355E+02  0.37231036204E+02  0.00000000000E+00 0. -1.
</event>
<event>
 7    1  0.5662448E-012  0.5930199E+02  0.7816164E-02  0.1266605E+00
        -11   -1    0    0    0    0  0.00000000000E+00  0.00000000000E+00  0.45593999997E+02  0.45594000000E+02  0.51100000000E-03 0.  1.
         11   -1    0    0    0    0 -0.00000000000E+00 -0.00000000000E+00 -0.45593999997E+02  0.45594000000E+02  0.51100000000E-03 0. -1.
    9900012    2    1    2    0    0  0.34708948687E+01 -0.23747503183E+02  0.20993486664E+02  0.59301992082E+02  0.50000087640E+02 0.  0.
         12    1    1    2    0    0 -0.34708948687E+01  0.23747503183E+02 -0.20993486664E+02  0.31886007918E+02  0.00000000000E+00 0. -1.
         11    1    3    3    0    0 -0.19221166999E+02 -0.10255222871E+02  0.64906797221E+01  0.22732175005E+02  0.51100000000E-03 0. -1.
        -11    1    3    3    0    0 -0.26250851036E+01 -0.19107850580E+01  0.70305344908E+01  0.77440678475E+01  0.51100000000E-03 0.  1.
        -12    1    3    3    0    0  0.25317146971E+02 -0.11581495254E+02  0.74722724509E+01  0.28825749230E+02  0.00000000000E+00 0.  1.
</event>
<event>
 7    1  0.5662448E-012  0.5930197E+02  0.7816164E-02  0.1266605E+00
        -11   -1    0    0    0    0  0.00000000000E+00  0.00000000000E+00  0.45593999997E+02  0.45594000000E+02  0.51100000000E-03 0.  1.
         11   -1    0    0    0    0 -0.00000000000E+00 -0.00000000000E+00 -0.45593999997E+02  0.45594000000E+02  0.51100000000E-03 0. -1.
    9900012    2    1    2    0    0  0.53857492140E+01  0.13516084386E+02  0.28373020707E+02  0.59301966447E+02  0.50000040888E+02 0.  0.
         12    1    1    2    0    0 -0.53857492140E+01 -0.13516084386E+02 -0.28373020707E+02  0.31886033553E+02  0.00000000000E+00 0. -1.
         11    1    3    3    0    0 -0.43034369720E+01 -0.96243529563E+01  0.23238479507E+02  0.25518124337E+02  0.51100000000E-03 0.  1.
        -11    1    3    3    0    0  0.26840945228E+01 -0.42908587474E+01  0.11848998108E+01  0.51980592551E+01  0.51100000000E-03 0. -1.
        -12    1    3    3    0    0  0.70050916632E+01  0.27431296089E+02  0.39496413884E+01  0.28585782855E+02  0.00000000000E+00 0.  1.
</event>
<event>
 7    1  0.5662448E-012  0.5930189E+02  0.7816164E-02  0.1266605E+00
        -11   -1    0    0    0    0  0.00000000000E+00  0.00000000000E+00  0.45593999997E+02  0.45594000000E+02  0.51100000000E-03 0.  1.
         11   -1    0    0    0    0 -0.00000000000E+00 -0.00000000000E+00 -0.45593999997E+02  0.45594000000E+02  0.51100000000E-03 0. -1.
    9900012    2    1    2    0    0 -0.61656616853E+01  0.28522430873E+02  0.12852217100E+02  0.59301891249E+02  0.49999903744E+02 0.  0.
         12    1    1    2    0    0  0.61656616853E+01 -0.28522430873E+02 -0.12852217100E+02  0.31886108751E+02  0.00000000000E+00 0. -1.
         11    1    3    3    0    0  0.54227321743E+01  0.24474585641E+01 -0.12653298581E+02  0.13982204508E+02  0.51100000000E-03 0. -1.
        -11    1    3    3    0    0  0.60583038979E+01  0.18872820900E+01  0.93456629185E+01  0.11296295652E+02  0.51100000000E-03 0.  1.
        -12    1    3    3    0    0 -0.17646697758E+02  0.24187690219E+02  0.16159852763E+02  0.34023391089E+02  0.00000000000E+00 0.  1.
</event>
<event>
 7    1  0.5662448E-012  0.5930195E+02  0.7816164E-02  0.1266605E+00
        -11   -1    0    0    0    0  0.00000000000E+00  0.00000000000E+00  0.45593999997E+02  0.45594000000E+02  0.51100000000E-03 0.  1.
         11   -1    0    0    0    0 -0.00000000000E+00 -0.00000000000E+00 -0.45593999997E+02  0.45594000000E+02  0.51100000000E-03 0. -1.
    9900012    2    1    2    0    0  0.17780622540E+02  0.16874345464E+02  0.20391822025E+02  0.59301945396E+02  0.50000002495E+02 0.  0.
         12    1    1    2    0    0 -0.17780622540E+02 -0.16874345464E+02 -0.20391822025E+02  0.31886054604E+02  0.00000000000E+00 0. -1.
         11    1    3    3    0    0 -0.39358365134E+01 -0.28577336404E+01  0.27890203793E+02  0.28311144776E+02  0.51100000000E-03 0.  1.
        -11    1    3    3    0    0  0.99575808003E+00  0.21077044837E+01 -0.23414356415E+01  0.33039784305E+01  0.51100000000E-03 0. -1.
        -12    1    3    3    0    0  0.20720700973E+02  0.17624374621E+02 -0.51569461270E+01  0.27686822190E+02  0.00000000000E+00 0.  1.
</event>
<event>
 7    1  0.5662448E-012  0.5930194E+02  0.7816164E-02  0.1266605E+00
        -11   -1    0    0    0    0  0.00000000000E+00  0.00000000000E+00  0.45593999997E+02  0.45594000000E+02  0.51100000000E-03 0.  1.
         11   -1    0    0    0    0 -0.00000000000E+00 -0.00000000000E+00 -0.45593999997E+02  0.45594000000E+02  0.51100000000E-03 0. -1.
    9900012    2    1    2    0    0 -0.16139793369E+02  0.16265418408E+02  0.22173492157E+02  0.59301944734E+02  0.50000001288E+02 0.  0.
         12    1    1    2    0    0  0.16139793369E+02 -0.16265418408E+02 -0.22173492157E+02  0.31886055266E+02  0.00000000000E+00 0. -1.
         11    1    3    3    0    0  0.40735102075E+01  0.17878834941E+02  0.55891356982E+01  0.19169889472E+02  0.51100000000E-03 0. -1.
        -11    1    3    3    0    0 -0.20806449405E+02  0.10700112403E+02  0.14777228832E+02  0.27672499607E+02  0.51100000000E-03 0.  1.
        -12    1    3    3    0    0  0.59314582852E+00 -0.12313528937E+02  0.18071276277E+01  0.12459555655E+02  0.00000000000E+00 0.  1.
</event>
<event>
 7    1  0.5662448E-012  0.5930174E+02  0.7816164E-02  0.1266605E+00
        -11   -1    0    0    0    0  0.00000000000E+00  0.00000000000E+00  0.45593999997E+02  0.45594000000E+02  0.51100000000E-03 0.  1.
         11   -1    0    0    0    0 -0.00000000000E+00 -0.00000000000E+00 -0.45593999997E+02  0.45594000000E+02  0.51100000000E-03 0. -1.
    9900012    2    1    2    0    0  0.31336734112E+02 -0.49313858697E+01  0.32286324517E+01  0.59301740594E+02  0.49999628985E+02 0.  0.
         12    1    1    2    0    0 -0.31336734112E+02  0.49313858697E+01 -0.32286324517E+01  0.31886259406E+02  0.00000000000E+00 0. -1.
         11    1    3    3    0    0 -0.29472119350E+00  0.12372739336E+01 -0.10373260294E+02  0.10450944300E+02  0.51100000000E-03 0. -1.
        -11    1    3    3    0    0  0.48986346432E+01 -0.87898959206E+01 -0.91865571671E+01  0.13625407315E+02  0.51100000000E-03 0.  1.
        -12    1    3    3    0    0  0.26732820662E+02  0.26212361174E+01  0.22788449913E+02  0.35225388979E+02  0.00000000000E+00 0.  1.
</event>
<event>
 7    1  0.5662448E-012  0.5930195E+02  0.7816164E-02  0.1266605E+00
        -11   -1    0    0    0    0  0.00000000000E+00  0.00000000000E+00  0.45593999997E+02  0.45594000000E+02  0.51100000000E-03 0.  1.
         11   -1    0    0    0    0 -0.00000000000E+00 -0.00000000000E+00 -0.45593999997E+02  0.45594000000E+02  0.51100000000E-03 0. -1.
    9900012    2    1    2    0    0  0.41857811684E+01 -0.53810673336E+01  0.31148735499E+02  0.59301947048E+02  0.50000005509E+02 0.  0.
         12    1    1    2    0    0 -0.41857811684E+01  0.53810673336E+01 -0.31148735499E+02  0.31886052952E+02  0.00000000000E+00 0. -1.
         11    1    3    3    0    0 -0.56008852971E+01  0.56085223509E+01  0.49841382306E+01  0.93630696481E+01  0.51100000000E-03 0. -1.
        -11    1    3    3    0    0 -0.14952850113E+02 -0.47250734011E+01  0.41153132191E+01  0.16212644704E+02  0.51100000000E-03 0.  1.
        -12    1    3    3    0    0  0.24739516578E+02 -0.62645162834E+01  0.22049284049E+02  0.33726232696E+02  0.00000000000E+00 0.  1.
</event>
<event>
 7    1  0.5662448E-012  0.5930195E+02  0.7816164E-02  0.1266605E+00
        -11   -1    0    0    0    0  0.00000000000E+00  0.00000000000E+00  0.45593999997E+02  0.45594000000E+02  0.51100000000E-03 0.  1.
         11   -1    0    0    0    0 -0.00000000000E+00 -0.00000000000E+00 -0.45593999997E+02  0.45594000000E+02  0.51100000000E-03 0. -1.
    9900012    2    1    2    0    0 -0.13349037314E+02 -0.22771252061E+02  0.17888366969E+02  0.59301946772E+02  0.50000005005E+02 0.  0.
         12    1    1    2    0    0  0.13349037314E+02  0.22771252061E+02 -0.17888366969E+02  0.31886053228E+02  0.00000000000E+00 0. -1.
         11    1    3    3    0    0 -0.69716120587E+01 -0.18466413756E+02  0.12087703527E+02  0.23145720739E+02  0.51100000000E-03 0. -1.
        -11    1    3    3    0    0 -0.73179072905E+01  0.12677231551E+02  0.11068025202E+02  0.18351162063E+02  0.51100000000E-03 0.  1.
         12    1    3    3    0    0  0.94048203493E+00 -0.16982069856E+02 -0.52673617605E+01  0.17805063970E+02  0.00000000000E+00 0. -1.
</event>
<event>
 7    1  0.5662448E-012  0.5930194E+02  0.7816164E-02  0.1266605E+00
        -11   -1    0    0    0    0  0.00000000000E+00  0.00000000000E+00  0.45593999997E+02  0.45594000000E+02  0.51100000000E-03 0. -1.
         11   -1    0    0    0    0 -0.00000000000E+00 -0.00000000000E+00 -0.45593999997E+02  0.45594000000E+02  0.51100000000E-03 0.  1.
    9900012    2    1    2    0    0  0.23392036701E+02  0.11217945342E+02 -0.18538903762E+02  0.59301942994E+02  0.49999998114E+02 0.  0.
         12    1    1    2    0    0 -0.23392036701E+02 -0.11217945342E+02  0.18538903762E+02  0.31886057006E+02  0.00000000000E+00 0. -1.
         11    1    3    3    0    0 -0.57386773920E+00 -0.88359907050E+01 -0.30216468551E+01  0.93559823588E+01  0.51100000000E-03 0. -1.
        -11    1    3    3    0    0  0.11485587872E+02 -0.94618968067E+01 -0.85111181437E+01  0.17143084677E+02  0.51100000000E-03 0.  1.
         12    1    3    3    0    0  0.12480316569E+02  0.29515832854E+02 -0.70061387629E+01  0.32802875957E+02  0.00000000000E+00 0. -1.
</event>
<event>
 7    1  0.5662448E-012  0.5930195E+02  0.7816164E-02  0.1266605E+00
        -11   -1    0    0    0    0  0.00000000000E+00  0.00000000000E+00  0.45593999997E+02  0.45594000000E+02  0.51100000000E-03 0. -1.
         11   -1    0    0    0    0 -0.00000000000E+00 -0.00000000000E+00 -0.45593999997E+02  0.45594000000E+02  0.51100000000E-03 0.  1.
    9900012    2    1    2    0    0 -0.18369818298E+02  0.16477125868E+02 -0.20193418332E+02  0.59301952188E+02  0.50000014882E+02 0.  0.
         12    1    1    2    0    0  0.18369818298E+02 -0.16477125868E+02  0.20193418332E+02  0.31886047812E+02  0.00000000000E+00 0. -1.
         11    1    3    3    0    0 -0.13124066825E+02  0.11009997500E+02 -0.18303351848E+01  0.17228212389E+02  0.51100000000E-03 0.  1.
        -11    1    3    3    0    0 -0.20082336919E+02  0.18817151629E+01 -0.29555523746E+01  0.20385691015E+02  0.51100000000E-03 0. -1.
        -12    1    3    3    0    0  0.14836585445E+02  0.35854132044E+01 -0.15407530772E+02  0.21688048783E+02  0.00000000000E+00 0.  1.
</event>
<event>
 7    1  0.5662448E-012  0.5930193E+02  0.7816164E-02  0.1266605E+00
        -11   -1    0    0    0    0  0.00000000000E+00  0.00000000000E+00  0.45593999997E+02  0.45594000000E+02  0.51100000000E-03 0. -1.
         11   -1    0    0    0    0 -0.00000000000E+00 -0.00000000000E+00 -0.45593999997E+02  0.45594000000E+02  0.51100000000E-03 0.  1.
    9900012    2    1    2    0    0 -0.19524945797E+02  0.31178181532E+01 -0.25015534695E+02  0.59301932909E+02  0.49999979723E+02 0.  0.
         12    1    1    2    0    0  0.19524945797E+02 -0.31178181532E+01  0.25015534695E+02  0.31886067091E+02  0.00000000000E+00 0. -1.
         11    1    3    3    0    0  0.91927119566E+00 -0.56566487608E+01  0.52891908471E+01  0.77986072355E+01  0.51100000000E-03 0. -1.
        -11    1    3    3    0    0  0.18039232507E+01 -0.60043879995E+01  0.44373091157E+01  0.76809196580E+01  0.51100000000E-03 0.  1.
        -12    1    3    3    0    0 -0.22248140243E+02  0.14778854914E+02 -0.34742034658E+02  0.43822406016E+02  0.00000000000E+00 0.  1.
</event>
<event>
 7    1  0.5662448E-012  0.5930193E+02  0.7816164E-02  0.1266605E+00
        -11   -1    0    0    0    0  0.00000000000E+00  0.00000000000E+00  0.45593999997E+02  0.45594000000E+02  0.51100000000E-03 0.  1.
         11   -1    0    0    0    0 -0.00000000000E+00 -0.00000000000E+00 -0.45593999997E+02  0.45594000000E+02  0.51100000000E-03 0. -1.
    9900012    2    1    2    0    0  0.18609974057E+02  0.25392824684E+02  0.50591561801E+01  0.59301925593E+02  0.49999966379E+02 0.  0.
         12    1    1    2    0    0 -0.18609974057E+02 -0.25392824684E+02 -0.50591561801E+01  0.31886074407E+02  0.00000000000E+00 0. -1.
         11    1    3    3    0    0  0.16668766746E+02  0.16194633740E+02  0.18086658284E+02  0.29448958470E+02  0.51100000000E-03 0. -1.
        -11    1    3    3    0    0  0.33496978187E+01  0.12791137045E+02  0.28390569850E+01  0.13523827387E+02  0.51100000000E-03 0.  1.
         12    1    3    3    0    0 -0.14084905079E+01 -0.35929461000E+01 -0.15866559089E+02  0.16329139736E+02  0.00000000000E+00 0. -1.
</event>
<event>
 7    1  0.5662448E-012  0.5930192E+02  0.7816164E-02  0.1266605E+00
        -11   -1    0    0    0    0  0.00000000000E+00  0.00000000000E+00  0.45593999997E+02  0.45594000000E+02  0.51100000000E-03 0. -1.
         11   -1    0    0    0    0 -0.00000000000E+00 -0.00000000000E+00 -0.45593999997E+02  0.45594000000E+02  0.51100000000E-03 0.  1.
    9900012    2    1    2    0    0 -0.15194718158E+02 -0.27106677841E+02 -0.71463620251E+01  0.59301922573E+02  0.49999960872E+02 0.  0.
         12    1    1    2    0    0  0.15194718158E+02  0.27106677841E+02  0.71463620251E+01  0.31886077427E+02  0.00000000000E+00 0. -1.
         11    1    3    3    0    0 -0.11847355634E+02  0.62137052783E+01  0.87487397225E+00  0.13406542191E+02  0.51100000000E-03 0. -1.
        -11    1    3    3    0    0 -0.98650927856E+01 -0.13680832441E+02 -0.16442068853E+02  0.23554763009E+02  0.51100000000E-03 0.  1.
        -12    1    3    3    0    0  0.65177302616E+01 -0.19639550679E+02  0.84208328561E+01  0.22340617373E+02  0.00000000000E+00 0.  1.
</event>
<event>
 7    1  0.5662448E-012  0.5930194E+02  0.7816164E-02  0.1266605E+00
        -11   -1    0    0    0    0  0.00000000000E+00  0.00000000000E+00  0.45593999997E+02  0.45594000000E+02  0.51100000000E-03 0. -1.
         11   -1    0    0    0    0 -0.00000000000E+00 -0.00000000000E+00 -0.45593999997E+02  0.45594000000E+02  0.51100000000E-03 0.  1.
    9900012    2    1    2    0    0 -0.23631915705E+02  0.21210668709E+02  0.28915273368E+01  0.59301939765E+02  0.49999992226E+02 0.  0.
         12    1    1    2    0    0  0.23631915705E+02 -0.21210668709E+02 -0.28915273368E+01  0.31886060235E+02  0.00000000000E+00 0. -1.
         11    1    3    3    0    0 -0.33840004359E+01  0.10169012319E+02  0.24638353213E+01  0.10996852061E+02  0.51100000000E-03 0. -1.
        -11    1    3    3    0    0 -0.27210555961E+02  0.22104094853E+02 -0.15172683299E+01  0.35089991000E+02  0.51100000000E-03 0.  1.
         12    1    3    3    0    0  0.69626406917E+01 -0.11062438463E+02  0.19449603454E+01  0.13215096704E+02  0.00000000000E+00 0. -1.
</event>
<event>
 7    1  0.5662448E-012  0.5930194E+02  0.7816164E-02  0.1266605E+00
        -11   -1    0    0    0    0  0.00000000000E+00  0.00000000000E+00  0.45593999997E+02  0.45594000000E+02  0.51100000000E-03 0. -1.
         11   -1    0    0    0    0 -0.00000000000E+00 -0.00000000000E+00 -0.45593999997E+02  0.45594000000E+02  0.51100000000E-03 0.  1.
    9900012    2    1    2    0    0 -0.18478058765E+02  0.47854438077E+01 -0.25541767770E+02  0.59301936760E+02  0.49999986745E+02 0.  0.
         12    1    1    2    0    0  0.18478058765E+02 -0.47854438077E+01  0.25541767770E+02  0.31886063240E+02  0.00000000000E+00 0. -1.
         11    1    3    3    0    0  0.33526394556E+01  0.75422575953E+01 -0.28682356726E+01  0.87379984601E+01  0.51100000000E-03 0. -1.
        -11    1    3    3    0    0  0.52002525430E+01 -0.89996462755E+01 -0.20192618226E+02  0.22710748351E+02  0.51100000000E-03 0.  1.
         12    1    3    3    0    0 -0.27030950764E+02  0.62428324879E+01 -0.24809138715E+01  0.27853189948E+02  0.00000000000E+00 0. -1.
</event>
<event>
 7    1  0.5662448E-012  0.5930195E+02  0.7816164E-02  0.1266605E+00
        -11   -1    0    0    0    0  0.00000000000E+00  0.00000000000E+00  0.45593999997E+02  0.45594000000E+02  0.51100000000E-03 0.  1.
         11   -1    0    0    0    0 -0.00000000000E+00 -0.00000000000E+00 -0.45593999997E+02  0.45594000000E+02  0.51100000000E-03 0. -1.
    9900012    2    1    2    0    0  0.42632356162E+01  0.61011958325E+01  0.31005164485E+02  0.59301953001E+02  0.50000016365E+02 0.  0.
         12    1    1    2    0    0 -0.42632356162E+01 -0.61011958325E+01 -0.31005164485E+02  0.31886046999E+02  0.00000000000E+00 0. -1.
         11    1    3    3    0    0  0.12507502092E+02 -0.69968035413E+01  0.30467823831E+02  0.33670182026E+02  0.51100000000E-03 0. -1.
        -11    1    3    3    0    0  0.23276318731E+01 -0.43287247841E+01  0.17395568027E+01  0.52136154944E+01  0.51100000000E-03 0.  1.
        -12    1    3    3    0    0 -0.10571898349E+02  0.17426724158E+02 -0.12022161496E+01  0.20418155481E+02  0.00000000000E+00 0.  1.
</event>
<event>
 7    1  0.5662448E-012  0.5930194E+02  0.7816164E-02  0.1266605E+00
        -11   -1    0    0    0    0  0.00000000000E+00  0.00000000000E+00  0.45593999997E+02  0.45594000000E+02  0.51100000000E-03 0.  1.
         11   -1    0    0    0    0 -0.00000000000E+00 -0.00000000000E+00 -0.45593999997E+02  0.45594000000E+02  0.51100000000E-03 0. -1.
    9900012    2    1    2    0    0  0.19469443181E+01 -0.28587411484E+02  0.13988919698E+02  0.59301944085E+02  0.50000000104E+02 0.  0.
         12    1    1    2    0    0 -0.19469443181E+01  0.28587411484E+02 -0.13988919698E+02  0.31886055915E+02  0.00000000000E+00 0. -1.
         11    1    3    3    0    0 -0.97484881623E+01  0.93264056982E+00  0.16066087433E+01  0.99239121217E+01  0.51100000000E-03 0.  1.
        -11    1    3    3    0    0 -0.72236574614E+01 -0.15846734639E+02 -0.72622263594E+01  0.18869026413E+02  0.51100000000E-03 0. -1.
        -12    1    3    3    0    0  0.18919089942E+02 -0.13673317415E+02  0.19644537314E+02  0.30509005550E+02  0.00000000000E+00 0.  1.
</event>
<event>
 7    1  0.5662448E-012  0.5930195E+02  0.7816164E-02  0.1266605E+00
        -11   -1    0    0    0    0  0.00000000000E+00  0.00000000000E+00  0.45593999997E+02  0.45594000000E+02  0.51100000000E-03 0.  1.
         11   -1    0    0    0    0 -0.00000000000E+00 -0.00000000000E+00 -0.45593999997E+02  0.45594000000E+02  0.51100000000E-03 0. -1.
    9900012    2    1    2    0    0  0.11847082293E+02  0.10154367844E+02  0.27807476433E+02  0.59301948335E+02  0.50000007856E+02 0.  0.
         12    1    1    2    0    0 -0.11847082293E+02 -0.10154367844E+02 -0.27807476433E+02  0.31886051665E+02  0.00000000000E+00 0. -1.
         11    1    3    3    0    0 -0.93304740362E+01 -0.93960903502E+01  0.10443343595E+02  0.16864391045E+02  0.51100000000E-03 0. -1.
        -11    1    3    3    0    0  0.26201428247E+01 -0.30000189758E+01  0.12130665569E+02  0.12767862377E+02  0.51100000000E-03 0.  1.
        -12    1    3    3    0    0  0.18557413505E+02  0.22550477170E+02  0.52334672688E+01  0.29669694913E+02  0.00000000000E+00 0.  1.
</event>
<event>
 7    1  0.5662448E-012  0.5930193E+02  0.7816164E-02  0.1266605E+00
        -11   -1    0    0    0    0  0.00000000000E+00  0.00000000000E+00  0.45593999997E+02  0.45594000000E+02  0.51100000000E-03 0. -1.
         11   -1    0    0    0    0 -0.00000000000E+00 -0.00000000000E+00 -0.45593999997E+02  0.45594000000E+02  0.51100000000E-03 0.  1.
    9900012    2    1    2    0    0 -0.26274169284E+02 -0.69156144615E+01 -0.16690223804E+02  0.59301933049E+02  0.49999979978E+02 0.  0.
         12    1    1    2    0    0  0.26274169284E+02  0.69156144615E+01  0.16690223804E+02  0.31886066951E+02  0.00000000000E+00 0. -1.
         11    1    3    3    0    0  0.44618592207E+01 -0.15012745631E+02 -0.50712199314E+01  0.16462320339E+02  0.51100000000E-03 0. -1.
        -11    1    3    3    0    0 -0.18171959381E+02 -0.11599040356E+01  0.61228292313E+01  0.19210791841E+02  0.51100000000E-03 0.  1.
        -12    1    3    3    0    0 -0.12564069124E+02  0.92570352055E+01 -0.17741833104E+02  0.23628820868E+02  0.00000000000E+00 0.  1.
</event>
<event>
 7    1  0.5662448E-012  0.5930197E+02  0.7816164E-02  0.1266605E+00
        -11   -1    0    0    0    0  0.00000000000E+00  0.00000000000E+00  0.45593999997E+02  0.45594000000E+02  0.51100000000E-03 0. -1.
         11   -1    0    0    0    0 -0.00000000000E+00 -0.00000000000E+00 -0.45593999997E+02  0.45594000000E+02  0.51100000000E-03 0.  1.
    9900012    2    1    2    0    0  0.40223478795E+01  0.31565671010E+02 -0.20366979352E+01  0.59301968462E+02  0.50000044562E+02 0.  0.
         12    1    1    2    0    0 -0.40223478795E+01 -0.31565671010E+02  0.20366979352E+01  0.31886031538E+02  0.00000000000E+00 0. -1.
         11    1    3    3    0    0 -0.95641784229E+01 -0.88597049772E+01 -0.58654711080E+00  0.13050360875E+02  0.51100000000E-03 0. -1.
        -11    1    3    3    0    0  0.60603930931E+01  0.11593643427E+02  0.75750679848E+01  0.15116963571E+02  0.51100000000E-03 0.  1.
        -12    1    3    3    0    0  0.75261332092E+01  0.28831732560E+02 -0.90252188092E+01  0.31134644016E+02  0.00000000000E+00 0.  1.
</event>
<event>
 7    1  0.5662448E-012  0.5930185E+02  0.7816164E-02  0.1266605E+00
        -11   -1    0    0    0    0  0.00000000000E+00  0.00000000000E+00  0.45593999997E+02  0.45594000000E+02  0.51100000000E-03 0.  1.
         11   -1    0    0    0    0 -0.00000000000E+00 -0.00000000000E+00 -0.45593999997E+02  0.45594000000E+02  0.51100000000E-03 0. -1.
    9900012    2    1    2    0    0  0.31858795559E+02 -0.46004250841E+00  0.12377763598E+01  0.59301849654E+02  0.49999827885E+02 0.  0.
         12    1    1    2    0    0 -0.31858795559E+02  0.46004250841E+00 -0.12377763598E+01  0.31886150346E+02  0.00000000000E+00 0. -1.
         11    1    3    3    0    0  0.13007394452E+02 -0.16111696522E+02 -0.87430910443E+01  0.22477115396E+02  0.51100000000E-03 0. -1.
        -11    1    3    3    0    0  0.42246829344E+01  0.32633080061E+01 -0.86044762080E+01  0.10125914088E+02  0.51100000000E-03 0.  1.
        -12    1    3    3    0    0  0.14626718173E+02  0.12388346008E+02  0.18585343612E+02  0.26698820170E+02  0.00000000000E+00 0.  1.
</event>
<event>
 7    1  0.5662448E-012  0.5930193E+02  0.7816164E-02  0.1266605E+00
        -11   -1    0    0    0    0  0.00000000000E+00  0.00000000000E+00  0.45593999997E+02  0.45594000000E+02  0.51100000000E-03 0. -1.
         11   -1    0    0    0    0 -0.00000000000E+00 -0.00000000000E+00 -0.45593999997E+02  0.45594000000E+02  0.51100000000E-03 0.  1.
    9900012    2    1    2    0    0  0.10136600723E+02 -0.62224305668E+01 -0.29584656669E+02  0.59301933661E+02  0.49999981094E+02 0.  0.
         12    1    1    2    0    0 -0.10136600723E+02  0.62224305668E+01  0.29584656669E+02  0.31886066339E+02  0.00000000000E+00 0. -1.
         11    1    3    3    0    0  0.67297039533E+01  0.16665823092E+02 -0.21940494369E+01  0.18106695663E+02  0.51100000000E-03 0. -1.
        -11    1    3    3    0    0 -0.83279932409E+01 -0.96601755274E+01 -0.14507248295E+02  0.19316695266E+02  0.51100000000E-03 0.  1.
         12    1    3    3    0    0  0.11734890011E+02 -0.13228078131E+02 -0.12883358936E+02  0.21878542732E+02  0.00000000000E+00 0. -1.
</event>
<event>
 7    1  0.5662448E-012  0.5930192E+02  0.7816164E-02  0.1266605E+00
        -11   -1    0    0    0    0  0.00000000000E+00  0.00000000000E+00  0.45593999997E+02  0.45594000000E+02  0.51100000000E-03 0. -1.
         11   -1    0    0    0    0 -0.00000000000E+00 -0.00000000000E+00 -0.45593999997E+02  0.45594000000E+02  0.51100000000E-03 0.  1.
    9900012    2    1    2    0    0 -0.22628692961E+02 -0.15549049410E+02 -0.16213917153E+02  0.59301924793E+02  0.49999964920E+02 0.  0.
         12    1    1    2    0    0  0.22628692961E+02  0.15549049410E+02  0.16213917153E+02  0.31886075207E+02  0.00000000000E+00 0. -1.
         11    1    3    3    0    0 -0.67599265799E+01 -0.17374024918E+01 -0.24486385195E+01  0.73966888297E+01  0.51100000000E-03 0. -1.
        -11    1    3    3    0    0 -0.15394841880E+02  0.66067405631E+01 -0.23835351766E+02  0.29133729103E+02  0.51100000000E-03 0.  1.
         12    1    3    3    0    0 -0.47392450155E+00 -0.20418387482E+02  0.10070073132E+02  0.22771506860E+02  0.00000000000E+00 0. -1.
</event>
<event>
 7    1  0.5662448E-012  0.5930194E+02  0.7816164E-02  0.1266605E+00
        -11   -1    0    0    0    0  0.00000000000E+00  0.00000000000E+00  0.45593999997E+02  0.45594000000E+02  0.51100000000E-03 0.  1.
         11   -1    0    0    0    0 -0.00000000000E+00 -0.00000000000E+00 -0.45593999997E+02  0.45594000000E+02  0.51100000000E-03 0. -1.
    9900012    2    1    2    0    0  0.58960006374E+01  0.17728382717E+02  0.25839168800E+02  0.59301936876E+02  0.49999986957E+02 0.  0.
         12    1    1    2    0    0 -0.58960006374E+01 -0.17728382717E+02 -0.25839168800E+02  0.31886063124E+02  0.00000000000E+00 0. -1.
         11    1    3    3    0    0  0.25902417646E+01 -0.17724847970E+01  0.20572486209E+02  0.20810532042E+02  0.51100000000E-03 0. -1.
        -11    1    3    3    0    0  0.14326611230E+01  0.17132774238E+02  0.18302157468E+02  0.25110823149E+02  0.51100000000E-03 0.  1.
         12    1    3    3    0    0  0.18730977498E+01  0.23680932757E+01 -0.13035474878E+02  0.13380581685E+02  0.00000000000E+00 0. -1.
</event>
<event>
 7    1  0.5662448E-012  0.5930195E+02  0.7816164E-02  0.1266605E+00
        -11   -1    0    0    0    0  0.00000000000E+00  0.00000000000E+00  0.45593999997E+02  0.45594000000E+02  0.51100000000E-03 0.  1.
         11   -1    0    0    0    0 -0.00000000000E+00 -0.00000000000E+00 -0.45593999997E+02  0.45594000000E+02  0.51100000000E-03 0. -1.
    9900012    2    1    2    0    0 -0.22811713044E+02 -0.21659497931E+02 -0.52165498035E+01  0.59301945141E+02  0.50000002031E+02 0.  0.
         12    1    1    2    0    0  0.22811713044E+02  0.21659497931E+02  0.52165498035E+01  0.31886054859E+02  0.00000000000E+00 0. -1.
         11    1    3    3    0    0  0.10003754463E+02  0.16724532916E+01 -0.40088393155E+01  0.10906099040E+02  0.51100000000E-03 0. -1.
        -11    1    3    3    0    0 -0.66546558004E+01 -0.17023911821E+02  0.80016643353E+01  0.19953061167E+02  0.51100000000E-03 0.  1.
         12    1    3    3    0    0 -0.26160811706E+02 -0.63080394008E+01 -0.92093748233E+01  0.28442784934E+02  0.00000000000E+00 0. -1.
</event>
<event>
 7    1  0.5662448E-012  0.5930193E+02  0.7816164E-02  0.1266605E+00
        -11   -1    0    0    0    0  0.00000000000E+00  0.00000000000E+00  0.45593999997E+02  0.45594000000E+02  0.51100000000E-03 0.  1.
         11   -1    0    0    0    0 -0.00000000000E+00 -0.00000000000E+00 -0.45593999997E+02  0.45594000000E+02  0.51100000000E-03 0. -1.
    9900012    2    1    2    0    0 -0.23916488817E+02  0.13327905838E+02  0.16342892078E+02  0.59301927291E+02  0.49999969476E+02 0.  0.
         12    1    1    2    0    0  0.23916488817E+02 -0.13327905838E+02 -0.16342892078E+02  0.31886072709E+02  0.00000000000E+00 0. -1.
         11    1    3    3    0    0  0.79787127397E+01 -0.77239796302E+01 -0.13517785841E+01  0.11186913064E+02  0.51100000000E-03 0. -1.
        -11    1    3    3    0    0 -0.60935146239E+01  0.56474685795E+00 -0.51707763128E+01  0.80116657084E+01  0.51100000000E-03 0.  1.
        -12    1    3    3    0    0 -0.25801686932E+02  0.20487138610E+02  0.22865446975E+02  0.40103348518E+02  0.00000000000E+00 0.  1.
</event>
<event>
 7    1  0.5662448E-012  0.5930194E+02  0.7816164E-02  0.1266605E+00
        -11   -1    0    0    0    0  0.00000000000E+00  0.00000000000E+00  0.45593999997E+02  0.45594000000E+02  0.51100000000E-03 0. -1.
         11   -1    0    0    0    0 -0.00000000000E+00 -0.00000000000E+00 -0.45593999997E+02  0.45594000000E+02  0.51100000000E-03 0.  1.
    9900012    2    1    2    0    0 -0.25969274723E+02  0.13714279569E+02  0.12419192579E+02  0.59301936617E+02  0.49999986484E+02 0.  0.
         12    1    1    2    0    0  0.25969274723E+02 -0.13714279569E+02 -0.12419192579E+02  0.31886063383E+02  0.00000000000E+00 0. -1.
         11    1    3    3    0    0  0.30635137529E+01  0.10489858325E+02  0.16976100953E+02  0.20189359773E+02  0.51100000000E-03 0. -1.
        -11    1    3    3    0    0 -0.24073501011E+02 -0.47738232876E+01  0.56968149308E+01  0.25194772083E+02  0.51100000000E-03 0.  1.
        -12    1    3    3    0    0 -0.49592874653E+01  0.79982445312E+01 -0.10253723305E+02  0.13917804761E+02  0.00000000000E+00 0.  1.
</event>
<event>
 7    1  0.5662448E-012  0.5930202E+02  0.7816164E-02  0.1266604E+00
        -11   -1    0    0    0    0  0.00000000000E+00  0.00000000000E+00  0.45593999997E+02  0.45594000000E+02  0.51100000000E-03 0.  1.
         11   -1    0    0    0    0 -0.00000000000E+00 -0.00000000000E+00 -0.45593999997E+02  0.45594000000E+02  0.51100000000E-03 0. -1.
    9900012    2    1    2    0    0  0.17209565072E+02 -0.26458053373E+02 -0.45296606613E+01  0.59302022770E+02  0.50000143606E+02 0.  0.
         12    1    1    2    0    0 -0.17209565072E+02  0.26458053373E+02  0.45296606613E+01  0.31885977230E+02  0.00000000000E+00 0. -1.
         11    1    3    3    0    0  0.20421619409E+02 -0.35951842038E+02  0.83549582535E+01  0.42182731217E+02  0.51100000000E-03 0. -1.
        -11    1    3    3    0    0 -0.36413596958E+00  0.58984211180E+00  0.45570693368E+00  0.82956482068E+00  0.51100000000E-03 0.  1.
         12    1    3    3    0    0 -0.28479183673E+01  0.89039465540E+01 -0.13340325848E+02  0.16289726732E+02  0.00000000000E+00 0. -1.
</event>
<event>
 7    1  0.5662448E-012  0.5930189E+02  0.7816164E-02  0.1266605E+00
        -11   -1    0    0    0    0  0.00000000000E+00  0.00000000000E+00  0.45593999997E+02  0.45594000000E+02  0.51100000000E-03 0.  1.
         11   -1    0    0    0    0 -0.00000000000E+00 -0.00000000000E+00 -0.45593999997E+02  0.45594000000E+02  0.51100000000E-03 0. -1.
    9900012    2    1    2    0    0 -0.14838621435E+02 -0.26352532790E+02 -0.10103618544E+02  0.59301893649E+02  0.49999908121E+02 0.  0.
         12    1    1    2    0    0  0.14838621435E+02  0.26352532790E+02  0.10103618544E+02  0.31886106351E+02  0.00000000000E+00 0. -1.
         11    1    3    3    0    0 -0.79346317988E+01 -0.21643418497E+02 -0.13803171344E+02  0.26868633859E+02  0.51100000000E-03 0. -1.
        -11    1    3    3    0    0  0.20617329284E+01 -0.46283861908E+01 -0.12738355884E+02  0.13709063144E+02  0.51100000000E-03 0.  1.
        -12    1    3    3    0    0 -0.89657225649E+01 -0.80728102191E-01  0.16437908684E+02  0.18724196646E+02  0.00000000000E+00 0.  1.
</event>
<event>
 7    1  0.5662448E-012  0.5930194E+02  0.7816164E-02  0.1266605E+00
        -11   -1    0    0    0    0  0.00000000000E+00  0.00000000000E+00  0.45593999997E+02  0.45594000000E+02  0.51100000000E-03 0.  1.
         11   -1    0    0    0    0 -0.00000000000E+00 -0.00000000000E+00 -0.45593999997E+02  0.45594000000E+02  0.51100000000E-03 0. -1.
    9900012    2    1    2    0    0  0.11531527647E+02 -0.21488089403E+02  0.20542801781E+02  0.59301940019E+02  0.49999992690E+02 0.  0.
         12    1    1    2    0    0 -0.11531527647E+02  0.21488089403E+02 -0.20542801781E+02  0.31886059981E+02  0.00000000000E+00 0. -1.
         11    1    3    3    0    0 -0.11620877451E+01 -0.46619244948E+01  0.58877455449E+01  0.75993115337E+01  0.51100000000E-03 0.  1.
        -11    1    3    3    0    0  0.13141072963E+02  0.90442570925E+01 -0.75105571362E+01  0.17632210687E+02  0.51100000000E-03 0. -1.
         12    1    3    3    0    0 -0.44745757048E+00 -0.25870422001E+02  0.22165613372E+02  0.34070417798E+02  0.00000000000E+00 0. -1.
</event>
<event>
 7    1  0.5662448E-012  0.5930193E+02  0.7816164E-02  0.1266605E+00
        -11   -1    0    0    0    0  0.00000000000E+00  0.00000000000E+00  0.45593999997E+02  0.45594000000E+02  0.51100000000E-03 0.  1.
         11   -1    0    0    0    0 -0.00000000000E+00 -0.00000000000E+00 -0.45593999997E+02  0.45594000000E+02  0.51100000000E-03 0. -1.
    9900012    2    1    2    0    0 -0.12838552817E+01  0.16284933033E+02  0.27383826561E+02  0.59301932738E+02  0.49999979411E+02 0.  0.
         12    1    1    2    0    0  0.12838552817E+01 -0.16284933033E+02 -0.27383826561E+02  0.31886067262E+02  0.00000000000E+00 0. -1.
         11    1    3    3    0    0  0.16099803088E+02  0.10786166768E+02  0.55036887180E+01  0.20145362811E+02  0.51100000000E-03 0. -1.
        -11    1    3    3    0    0  0.61025629340E-01  0.12742831403E+02  0.13270124657E+02  0.18397817397E+02  0.51100000000E-03 0.  1.
         12    1    3    3    0    0 -0.17444683999E+02 -0.72440651384E+01  0.86100131867E+01  0.20758752531E+02  0.00000000000E+00 0. -1.
</event>
<event>
 7    1  0.5662448E-012  0.5930195E+02  0.7816164E-02  0.1266605E+00
        -11   -1    0    0    0    0  0.00000000000E+00  0.00000000000E+00  0.45593999997E+02  0.45594000000E+02  0.51100000000E-03 0.  1.
         11   -1    0    0    0    0 -0.00000000000E+00 -0.00000000000E+00 -0.45593999997E+02  0.45594000000E+02  0.51100000000E-03 0. -1.
    9900012    2    1    2    0    0 -0.31633982504E+02 -0.33240769847E+01  0.22275559362E+01  0.59301947527E+02  0.50000006382E+02 0.  0.
         12    1    1    2    0    0  0.31633982504E+02  0.33240769847E+01 -0.22275559362E+01  0.31886052473E+02  0.00000000000E+00 0. -1.
         11    1    3    3    0    0  0.12397712150E+01 -0.13141630188E+02  0.28903198964E+01  0.13512713496E+02  0.51100000000E-03 0. -1.
        -11    1    3    3    0    0 -0.21297710589E+02 -0.26726471027E+01 -0.12694863328E+02  0.24937824164E+02  0.51100000000E-03 0.  1.
        -12    1    3    3    0    0 -0.11576043129E+02  0.12490200306E+02  0.12032099368E+02  0.20851409867E+02  0.00000000000E+00 0.  1.
</event>
<event>
 7    1  0.5662448E-012  0.5930195E+02  0.7816164E-02  0.1266605E+00
        -11   -1    0    0    0    0  0.00000000000E+00  0.00000000000E+00  0.45593999997E+02  0.45594000000E+02  0.51100000000E-03 0. -1.
         11   -1    0    0    0    0 -0.00000000000E+00 -0.00000000000E+00 -0.45593999997E+02  0.45594000000E+02  0.51100000000E-03 0.  1.
    9900012    2    1    2    0    0 -0.30857195777E+02 -0.58392427731E+01 -0.55187944309E+01  0.59301946946E+02  0.50000005323E+02 0.  0.
         12    1    1    2    0    0  0.30857195777E+02  0.58392427731E+01  0.55187944309E+01  0.31886053054E+02  0.00000000000E+00 0. -1.
         11    1    3    3    0    0 -0.72911938711E+01  0.10482339648E+02 -0.60188250467E+01  0.14116203731E+02  0.51100000000E-03 0. -1.
        -11    1    3    3    0    0 -0.28624378773E+02 -0.28746085287E+01  0.66997960211E+01  0.29538207483E+02  0.51100000000E-03 0.  1.
         12    1    3    3    0    0  0.50583768675E+01 -0.13446973893E+02 -0.61997654052E+01  0.15647535732E+02  0.00000000000E+00 0. -1.
</event>
<event>
 7    1  0.5662448E-012  0.5930189E+02  0.7816164E-02  0.1266605E+00
        -11   -1    0    0    0    0  0.00000000000E+00  0.00000000000E+00  0.45593999997E+02  0.45594000000E+02  0.51100000000E-03 0.  1.
         11   -1    0    0    0    0 -0.00000000000E+00 -0.00000000000E+00 -0.45593999997E+02  0.45594000000E+02  0.51100000000E-03 0. -1.
    9900012    2    1    2    0    0 -0.22675442694E+02  0.10257558510E+02  0.19933155130E+02  0.59301892032E+02  0.49999905171E+02 0.  0.
         12    1    1    2    0    0  0.22675442694E+02 -0.10257558510E+02 -0.19933155130E+02  0.31886107968E+02  0.00000000000E+00 0. -1.
         11    1    3    3    0    0 -0.27756257513E+01  0.41371247467E+01 -0.81570637053E+01  0.95581163434E+01  0.51100000000E-03 0.  1.
        -11    1    3    3    0    0 -0.11207561376E+02  0.20727199564E+02  0.20056903955E+02  0.30943587871E+02  0.51100000000E-03 0. -1.
        -12    1    3    3    0    0 -0.86922555664E+01 -0.14606765801E+02  0.80333148803E+01  0.18800187817E+02  0.00000000000E+00 0.  1.
</event>
<event>
 7    1  0.5662448E-012  0.5930195E+02  0.7816164E-02  0.1266605E+00
        -11   -1    0    0    0    0  0.00000000000E+00  0.00000000000E+00  0.45593999997E+02  0.45594000000E+02  0.51100000000E-03 0. -1.
         11   -1    0    0    0    0 -0.00000000000E+00 -0.00000000000E+00 -0.45593999997E+02  0.45594000000E+02  0.51100000000E-03 0.  1.
    9900012    2    1    2    0    0  0.23140252055E+02 -0.17479091773E+02 -0.13256325402E+02  0.59301951679E+02  0.50000013954E+02 0.  0.
         12    1    1    2    0    0 -0.23140252055E+02  0.17479091773E+02  0.13256325402E+02  0.31886048321E+02  0.00000000000E+00 0. -1.
         11    1    3    3    0    0 -0.14843775464E+01 -0.15545026039E+02 -0.52847745921E+01  0.16485753062E+02  0.51100000000E-03 0. -1.
        -11    1    3    3    0    0  0.15642048724E+02 -0.15390421625E+02  0.44847541797E+01  0.22397584387E+02  0.51100000000E-03 0.  1.
         12    1    3    3    0    0  0.89825808774E+01  0.13456355891E+02 -0.12456304990E+02  0.20418614230E+02  0.00000000000E+00 0. -1.
</event>
<event>
 7    1  0.5662448E-012  0.5930194E+02  0.7816164E-02  0.1266605E+00
        -11   -1    0    0    0    0  0.00000000000E+00  0.00000000000E+00  0.45593999997E+02  0.45594000000E+02  0.51100000000E-03 0. -1.
         11   -1    0    0    0    0 -0.00000000000E+00 -0.00000000000E+00 -0.45593999997E+02  0.45594000000E+02  0.51100000000E-03 0.  1.
    9900012    2    1    2    0    0 -0.24295783088E+02  0.55642463474E+01  0.19886547933E+02  0.59301941888E+02  0.49999996097E+02 0.  0.
         12    1    1    2    0    0  0.24295783088E+02 -0.55642463474E+01 -0.19886547933E+02  0.31886058112E+02  0.00000000000E+00 0. -1.
         11    1    3    3    0    0  0.37659982673E+01 -0.11218347256E+02  0.18870929271E+02  0.22274335679E+02  0.51100000000E-03 0. -1.
        -11    1    3    3    0    0 -0.11660765944E+02  0.52541413853E+01  0.87968828032E+01  0.15523034865E+02  0.51100000000E-03 0.  1.
        -12    1    3    3    0    0 -0.16401015411E+02  0.11528452218E+02 -0.77812641414E+01  0.21504571344E+02  0.00000000000E+00 0.  1.
</event>
<event>
 7    1  0.5662448E-012  0.5930192E+02  0.7816164E-02  0.1266605E+00
        -11   -1    0    0    0    0  0.00000000000E+00  0.00000000000E+00  0.45593999997E+02  0.45594000000E+02  0.51100000000E-03 0.  1.
         11   -1    0    0    0    0 -0.00000000000E+00 -0.00000000000E+00 -0.45593999997E+02  0.45594000000E+02  0.51100000000E-03 0. -1.
    9900012    2    1    2    0    0 -0.16963544889E+02 -0.56904145201E+01  0.26392796137E+02  0.59301915880E+02  0.49999948665E+02 0.  0.
         12    1    1    2    0    0  0.16963544889E+02  0.56904145201E+01 -0.26392796137E+02  0.31886084120E+02  0.00000000000E+00 0. -1.
         11    1    3    3    0    0  0.60248332943E+01  0.92144370941E+01  0.32821631837E+01  0.11488127028E+02  0.51100000000E-03 0. -1.
        -11    1    3    3    0    0 -0.52469530694E+01  0.87110606458E+01 -0.22302861729E+00  0.10171668305E+02  0.51100000000E-03 0.  1.
         12    1    3    3    0    0 -0.17741425114E+02 -0.23615912260E+02  0.23333661570E+02  0.37642120546E+02  0.00000000000E+00 0. -1.
</event>
<event>
 7    1  0.5662448E-012  0.5930195E+02  0.7816164E-02  0.1266605E+00
        -11   -1    0    0    0    0  0.00000000000E+00  0.00000000000E+00  0.45593999997E+02  0.45594000000E+02  0.51100000000E-03 0. -1.
         11   -1    0    0    0    0 -0.00000000000E+00 -0.00000000000E+00 -0.45593999997E+02  0.45594000000E+02  0.51100000000E-03 0.  1.
    9900012    2    1    2    0    0  0.28785222603E+02  0.13604477196E+02 -0.17462446662E+01  0.59301949593E+02  0.50000010150E+02 0.  0.
         12    1    1    2    0    0 -0.28785222603E+02 -0.13604477196E+02  0.17462446662E+01  0.31886050407E+02  0.00000000000E+00 0. -1.
         11    1    3    3    0    0 -0.17335759672E+01 -0.61602322664E+01 -0.62764736549E+01  0.89636972847E+01  0.51100000000E-03 0.  1.
        -11    1    3    3    0    0  0.34658070585E+01  0.13547156989E+02 -0.11656940363E+02  0.18204986677E+02  0.51100000000E-03 0. -1.
         12    1    3    3    0    0  0.27052991512E+02  0.62175524740E+01  0.16187169352E+02  0.32133265631E+02  0.00000000000E+00 0. -1.
</event>
<event>
 7    1  0.5662448E-012  0.5930194E+02  0.7816164E-02  0.1266605E+00
        -11   -1    0    0    0    0  0.00000000000E+00  0.00000000000E+00  0.45593999997E+02  0.45594000000E+02  0.51100000000E-03 0. -1.
         11   -1    0    0    0    0 -0.00000000000E+00 -0.00000000000E+00 -0.45593999997E+02  0.45594000000E+02  0.51100000000E-03 0.  1.
    9900012    2    1    2    0    0 -0.12692247312E+02 -0.26539050030E+02  0.12300661062E+02  0.59301943785E+02  0.49999999558E+02 0.  0.
         12    1    1    2    0    0  0.12692247312E+02  0.26539050030E+02 -0.12300661062E+02  0.31886056215E+02  0.00000000000E+00 0. -1.
         11    1    3    3    0    0 -0.48153437650E+01  0.58010794009E+01  0.36192919550E+01  0.83629738914E+01  0.51100000000E-03 0. -1.
        -11    1    3    3    0    0 -0.13420937586E+02 -0.89861694929E+01 -0.11296369970E+02  0.19709915844E+02  0.51100000000E-03 0.  1.
         12    1    3    3    0    0  0.55440340384E+01 -0.23353959939E+02  0.19977739077E+02  0.31229054050E+02  0.00000000000E+00 0. -1.
</event>
<event>
 7    1  0.5662448E-012  0.5930193E+02  0.7816164E-02  0.1266605E+00
        -11   -1    0    0    0    0  0.00000000000E+00  0.00000000000E+00  0.45593999997E+02  0.45594000000E+02  0.51100000000E-03 0.  1.
         11   -1    0    0    0    0 -0.00000000000E+00 -0.00000000000E+00 -0.45593999997E+02  0.45594000000E+02  0.51100000000E-03 0. -1.
    9900012    2    1    2    0    0 -0.45429923404E+01 -0.31225108668E+02  0.45907906076E+01  0.59301928603E+02  0.49999971869E+02 0.  0.
         12    1    1    2    0    0  0.45429923404E+01  0.31225108668E+02 -0.45907906076E+01  0.31886071397E+02  0.00000000000E+00 0. -1.
         11    1    3    3    0    0  0.43397450466E+01 -0.17783055431E+01  0.68098942947E+01  0.82686406525E+01  0.51100000000E-03 0. -1.
        -11    1    3    3    0    0 -0.64595231218E+01 -0.28780145335E+02  0.15373487050E+02  0.33262085154E+02  0.51100000000E-03 0.  1.
         12    1    3    3    0    0 -0.24232142653E+01 -0.66665778966E+00 -0.17592590737E+02  0.17771202796E+02  0.00000000000E+00 0. -1.
</event>
<event>
 7    1  0.5662448E-012  0.5930193E+02  0.7816164E-02  0.1266605E+00
        -11   -1    0    0    0    0  0.00000000000E+00  0.00000000000E+00  0.45593999997E+02  0.45594000000E+02  0.51100000000E-03 0.  1.
         11   -1    0    0    0    0 -0.00000000000E+00 -0.00000000000E+00 -0.45593999997E+02  0.45594000000E+02  0.51100000000E-03 0. -1.
    9900012    2    1    2    0    0 -0.23046233053E+02 -0.21864131411E+02  0.27481700956E+01  0.59301928759E+02  0.49999972153E+02 0.  0.
         12    1    1    2    0    0  0.23046233053E+02  0.21864131411E+02 -0.27481700956E+01  0.31886071241E+02  0.00000000000E+00 0. -1.
         11    1    3    3    0    0 -0.84466847774E+01  0.51356991660E+00 -0.91465917751E+01  0.12460753555E+02  0.51100000000E-03 0. -1.
        -11    1    3    3    0    0 -0.61725702420E+01 -0.11819107018E+02 -0.12933279115E+02  0.18575834383E+02  0.51100000000E-03 0.  1.
        -12    1    3    3    0    0 -0.84269780341E+01 -0.10558594309E+02  0.24828040985E+02  0.28265340821E+02  0.00000000000E+00 0.  1.
</event>
<event>
 7    1  0.5662448E-012  0.5930195E+02  0.7816164E-02  0.1266605E+00
        -11   -1    0    0    0    0  0.00000000000E+00  0.00000000000E+00  0.45593999997E+02  0.45594000000E+02  0.51100000000E-03 0. -1.
         11   -1    0    0    0    0 -0.00000000000E+00 -0.00000000000E+00 -0.45593999997E+02  0.45594000000E+02  0.51100000000E-03 0.  1.
    9900012    2    1    2    0    0 -0.94698431430E+01 -0.19185747249E+02 -0.23642105409E+02  0.59301953289E+02  0.50000016891E+02 0.  0.
         12    1    1    2    0    0  0.94698431430E+01  0.19185747249E+02  0.23642105409E+02  0.31886046711E+02  0.00000000000E+00 0. -1.
         11    1    3    3    0    0 -0.23202952017E+01  0.29726086533E+01 -0.81307704496E+01  0.89626781931E+01  0.51100000000E-03 0. -1.
        -11    1    3    3    0    0 -0.11061964524E+02  0.91055008885E+01  0.17152273982E+01  0.14429802869E+02  0.51100000000E-03 0.  1.
         12    1    3    3    0    0  0.39124165825E+01 -0.31263856791E+02 -0.17226562358E+02  0.35909472227E+02  0.00000000000E+00 0. -1.
</event>
<event>
 7    1  0.5662448E-012  0.5930192E+02  0.7816164E-02  0.1266605E+00
        -11   -1    0    0    0    0  0.00000000000E+00  0.00000000000E+00  0.45593999997E+02  0.45594000000E+02  0.51100000000E-03 0.  1.
         11   -1    0    0    0    0 -0.00000000000E+00 -0.00000000000E+00 -0.45593999997E+02  0.45594000000E+02  0.51100000000E-03 0. -1.
    9900012    2    1    2    0    0  0.64299533263E+01 -0.59200140913E+01  0.30664816204E+02  0.59301924364E+02  0.49999964138E+02 0.  0.
         12    1    1    2    0    0 -0.64299533263E+01  0.59200140913E+01 -0.30664816204E+02  0.31886075636E+02  0.00000000000E+00 0. -1.
         11    1    3    3    0    0 -0.14188907572E+02  0.26217958897E+01 -0.25416779997E+01  0.14651247015E+02  0.51100000000E-03 0. -1.
        -11    1    3    3    0    0  0.60270046904E+01 -0.95314437334E+01  0.39618435999E+01  0.11952799260E+02  0.51100000000E-03 0.  1.
        -12    1    3    3    0    0  0.14591856208E+02  0.98963375245E+00  0.29244650604E+02  0.32697878089E+02  0.00000000000E+00 0.  1.
</event>
<event>
 7    1  0.5662448E-012  0.5930195E+02  0.7816164E-02  0.1266605E+00
        -11   -1    0    0    0    0  0.00000000000E+00  0.00000000000E+00  0.45593999997E+02  0.45594000000E+02  0.51100000000E-03 0.  1.
         11   -1    0    0    0    0 -0.00000000000E+00 -0.00000000000E+00 -0.45593999997E+02  0.45594000000E+02  0.51100000000E-03 0. -1.
    9900012    2    1    2    0    0 -0.19111426034E+02 -0.68010381972E+01  0.24601214786E+02  0.59301945139E+02  0.50000002027E+02 0.  0.
         12    1    1    2    0    0  0.19111426034E+02  0.68010381972E+01 -0.24601214786E+02  0.31886054861E+02  0.00000000000E+00 0. -1.
         11    1    3    3    0    0 -0.17117002833E+01  0.69064592909E+01  0.15040554746E+02  0.16638731476E+02  0.51100000000E-03 0. -1.
        -11    1    3    3    0    0 -0.22465449722E+02 -0.17611774610E+02  0.16704803930E+02  0.33074484285E+02  0.51100000000E-03 0.  1.
         12    1    3    3    0    0  0.50657239706E+01  0.39042771219E+01 -0.71441438893E+01  0.95887293789E+01  0.00000000000E+00 0. -1.
</event>
<event>
 7    1  0.6308658E-012  0.5930204E+02  0.7816164E-02  0.1266604E+00
        -11   -1    0    0    0    0  0.00000000000E+00  0.00000000000E+00  0.45593999997E+02  0.45594000000E+02  0.51100000000E-03 0. -1.
         11   -1    0    0    0    0 -0.00000000000E+00 -0.00000000000E+00 -0.45593999997E+02  0.45594000000E+02  0.51100000000E-03 0.  1.
    9900012    2    1    2    0    0 -0.31105312481E+00 -0.18786501287E+02 -0.25762082031E+02  0.59302042978E+02  0.50000180460E+02 0.  0.
         12    1    1    2    0    0  0.31105312481E+00  0.18786501287E+02  0.25762082031E+02  0.31885957022E+02  0.00000000000E+00 0. -1.
         11    1    3    3    0    0 -0.45892783524E+00 -0.39444665137E+01  0.99934762068E+01  0.10753557448E+02  0.51100000000E-03 0. -1.
        -11    1    3    3    0    0  0.10438296140E+02 -0.27510270551E+00 -0.23848888415E+01  0.10710807759E+02  0.51100000000E-03 0.  1.
        -12    1    3    3    0    0 -0.10290421430E+02 -0.14566932068E+02 -0.33370669396E+02  0.37837677770E+02  0.00000000000E+00 0.  1.
</event>
<event>
 7    1  0.5662448E-012  0.5930196E+02  0.7816164E-02  0.1266605E+00
        -11   -1    0    0    0    0  0.00000000000E+00  0.00000000000E+00  0.45593999997E+02  0.45594000000E+02  0.51100000000E-03 0.  1.
         11   -1    0    0    0    0 -0.00000000000E+00 -0.00000000000E+00 -0.45593999997E+02  0.45594000000E+02  0.51100000000E-03 0. -1.
    9900012    2    1    2    0    0 -0.21109806314E+02 -0.23864033707E+02 -0.12662841005E+01  0.59301960691E+02  0.50000030390E+02 0.  0.
         12    1    1    2    0    0  0.21109806314E+02  0.23864033707E+02  0.12662841005E+01  0.31886039309E+02  0.00000000000E+00 0. -1.
         11    1    3    3    0    0  0.13095790300E+02 -0.79744531507E+01 -0.55177621845E+00  0.15342623110E+02  0.51100000000E-03 0. -1.
        -11    1    3    3    0    0 -0.11913385330E+02 -0.88583841623E+01  0.10350522590E+02  0.18097873857E+02  0.51100000000E-03 0.  1.
        -12    1    3    3    0    0 -0.22292211284E+02 -0.70311963941E+01 -0.11065030472E+02  0.25861463725E+02  0.00000000000E+00 0.  1.
</event>
<event>
 7    1  0.5662448E-012  0.5930187E+02  0.7816164E-02  0.1266605E+00
        -11   -1    0    0    0    0  0.00000000000E+00  0.00000000000E+00  0.45593999997E+02  0.45594000000E+02  0.51100000000E-03 0. -1.
         11   -1    0    0    0    0 -0.00000000000E+00 -0.00000000000E+00 -0.45593999997E+02  0.45594000000E+02  0.51100000000E-03 0.  1.
    9900012    2    1    2    0    0 -0.50486187200E+01 -0.21928329187E+02 -0.22591699221E+02  0.59301873776E+02  0.49999871877E+02 0.  0.
         12    1    1    2    0    0  0.50486187200E+01  0.21928329187E+02  0.22591699221E+02  0.31886126224E+02  0.00000000000E+00 0. -1.
         11    1    3    3    0    0  0.90183381076E+01 -0.12661459900E+02 -0.24361382637E+02  0.28898442056E+02  0.51100000000E-03 0. -1.
        -11    1    3    3    0    0 -0.76701727314E+01 -0.10380476339E+02 -0.10422836471E+02  0.16589796838E+02  0.51100000000E-03 0.  1.
         12    1    3    3    0    0 -0.63967840962E+01  0.11136070525E+01  0.12192519888E+02  0.13813634882E+02  0.00000000000E+00 0. -1.
</event>
<event>
 7    1  0.5662448E-012  0.5930195E+02  0.7816164E-02  0.1266605E+00
        -11   -1    0    0    0    0  0.00000000000E+00  0.00000000000E+00  0.45593999997E+02  0.45594000000E+02  0.51100000000E-03 0.  1.
         11   -1    0    0    0    0 -0.00000000000E+00 -0.00000000000E+00 -0.45593999997E+02  0.45594000000E+02  0.51100000000E-03 0. -1.
    9900012    2    1    2    0    0 -0.17406456847E+02 -0.60910742820E+01  0.26012191486E+02  0.59301952396E+02  0.50000015263E+02 0.  0.
         12    1    1    2    0    0  0.17406456847E+02  0.60910742820E+01 -0.26012191486E+02  0.31886047604E+02  0.00000000000E+00 0. -1.
         11    1    3    3    0    0 -0.61646368509E+01 -0.16697506055E+02  0.13863916063E+01  0.17853054022E+02  0.51100000000E-03 0. -1.
        -11    1    3    3    0    0 -0.13092793476E+02 -0.68332480283E+01  0.16425745118E+02  0.22088902701E+02  0.51100000000E-03 0.  1.
         12    1    3    3    0    0  0.18509734790E+01  0.17439679801E+02  0.82000547615E+01  0.19359995673E+02  0.00000000000E+00 0. -1.
</event>
<event>
 7    1  0.5662448E-012  0.5930191E+02  0.7816164E-02  0.1266605E+00
        -11   -1    0    0    0    0  0.00000000000E+00  0.00000000000E+00  0.45593999997E+02  0.45594000000E+02  0.51100000000E-03 0. -1.
         11   -1    0    0    0    0 -0.00000000000E+00 -0.00000000000E+00 -0.45593999997E+02  0.45594000000E+02  0.51100000000E-03 0.  1.
    9900012    2    1    2    0    0 -0.16877348542E+02 -0.48194209655E+01 -0.26620497768E+02  0.59301911910E+02  0.49999941424E+02 0.  0.
         12    1    1    2    0    0  0.16877348542E+02  0.48194209655E+01  0.26620497768E+02  0.31886088090E+02  0.00000000000E+00 0. -1.
         11    1    3    3    0    0 -0.14537047057E+02 -0.16263731395E+01 -0.27122175609E+02  0.30815308480E+02  0.51100000000E-03 0.  1.
        -11    1    3    3    0    0 -0.13258641945E+02 -0.23567806502E+01  0.75746763520E+01  0.15450622103E+02  0.51100000000E-03 0. -1.
         12    1    3    3    0    0  0.10918340460E+02 -0.83626717587E+00 -0.70729985119E+01  0.13035981326E+02  0.00000000000E+00 0. -1.
</event>
<event>
 7    1  0.5662448E-012  0.5930195E+02  0.7816164E-02  0.1266605E+00
        -11   -1    0    0    0    0  0.00000000000E+00  0.00000000000E+00  0.45593999997E+02  0.45594000000E+02  0.51100000000E-03 0.  1.
         11   -1    0    0    0    0 -0.00000000000E+00 -0.00000000000E+00 -0.45593999997E+02  0.45594000000E+02  0.51100000000E-03 0. -1.
    9900012    2    1    2    0    0 -0.15149282551E+02  0.23747329051E+02 -0.14942680537E+02  0.59301951319E+02  0.50000013298E+02 0.  0.
         12    1    1    2    0    0  0.15149282551E+02 -0.23747329051E+02  0.14942680537E+02  0.31886048681E+02  0.00000000000E+00 0. -1.
         11    1    3    3    0    0  0.79658686952E+01  0.10408923919E+02 -0.13463431515E+02  0.18790017287E+02  0.51100000000E-03 0. -1.
        -11    1    3    3    0    0 -0.71637307625E+01  0.18791127410E+02 -0.90249342892E+01  0.22042571242E+02  0.51100000000E-03 0.  1.
         12    1    3    3    0    0 -0.15951420484E+02 -0.54527222790E+01  0.75456852674E+01  0.18469362790E+02  0.00000000000E+00 0. -1.
</event>
<event>
 7    1  0.5662448E-012  0.5930194E+02  0.7816164E-02  0.1266605E+00
        -11   -1    0    0    0    0  0.00000000000E+00  0.00000000000E+00  0.45593999997E+02  0.45594000000E+02  0.51100000000E-03 0.  1.
         11   -1    0    0    0    0 -0.00000000000E+00 -0.00000000000E+00 -0.45593999997E+02  0.45594000000E+02  0.51100000000E-03 0. -1.
    9900012    2    1    2    0    0 -0.14334005627E+02  0.11134192405E+02  0.26216157878E+02  0.59301938912E+02  0.49999990670E+02 0.  0.
         12    1    1    2    0    0  0.14334005627E+02 -0.11134192405E+02 -0.26216157878E+02  0.31886061088E+02  0.00000000000E+00 0. -1.
         11    1    3    3    0    0  0.10544303279E+00  0.25415446219E+02  0.25270148491E+02  0.35840430100E+02  0.51100000000E-03 0. -1.
        -11    1    3    3    0    0 -0.76608651240E+01 -0.32608820912E-01  0.47354352597E+00  0.76755561046E+01  0.51100000000E-03 0.  1.
        -12    1    3    3    0    0 -0.67785835361E+01 -0.14248644993E+02  0.47246586132E+00  0.15785952708E+02  0.00000000000E+00 0.  1.
</event>
<event>
 7    1  0.5662448E-012  0.5930202E+02  0.7816164E-02  0.1266605E+00
        -11   -1    0    0    0    0  0.00000000000E+00  0.00000000000E+00  0.45593999997E+02  0.45594000000E+02  0.51100000000E-03 0.  1.
         11   -1    0    0    0    0 -0.00000000000E+00 -0.00000000000E+00 -0.45593999997E+02  0.45594000000E+02  0.51100000000E-03 0. -1.
    9900012    2    1    2    0    0  0.27025611877E+02  0.13340650085E+02  0.10409570908E+02  0.59302018621E+02  0.50000136041E+02 0.  0.
         12    1    1    2    0    0 -0.27025611877E+02 -0.13340650085E+02 -0.10409570908E+02  0.31885981379E+02  0.00000000000E+00 0. -1.
         11    1    3    3    0    0  0.11254077179E+02 -0.30603927780E+01  0.46412084867E-01  0.11662864633E+02  0.51100000000E-03 0. -1.
        -11    1    3    3    0    0  0.22813823793E+02  0.11852194844E+02  0.21628431863E+02  0.33596638876E+02  0.51100000000E-03 0.  1.
        -12    1    3    3    0    0 -0.70422890952E+01  0.45488480191E+01 -0.11265273040E+02  0.14042515112E+02  0.00000000000E+00 0.  1.
</event>
<event>
 7    1  0.5662448E-012  0.5930195E+02  0.7816164E-02  0.1266605E+00
        -11   -1    0    0    0    0  0.00000000000E+00  0.00000000000E+00  0.45593999997E+02  0.45594000000E+02  0.51100000000E-03 0. -1.
         11   -1    0    0    0    0 -0.00000000000E+00 -0.00000000000E+00 -0.45593999997E+02  0.45594000000E+02  0.51100000000E-03 0.  1.
    9900012    2    1    2    0    0 -0.11751329857E+02 -0.28069245113E+02 -0.95259764306E+01  0.59301945030E+02  0.50000001827E+02 0.  0.
         12    1    1    2    0    0  0.11751329857E+02  0.28069245113E+02  0.95259764306E+01  0.31886054970E+02  0.00000000000E+00 0. -1.
         11    1    3    3    0    0 -0.11543301794E+02 -0.16595968098E+02  0.74241410100E+01  0.21535826973E+02  0.51100000000E-03 0. -1.
        -11    1    3    3    0    0 -0.28387114110E+01 -0.22364523037E+02 -0.11252241275E+02  0.25196093093E+02  0.51100000000E-03 0.  1.
        -12    1    3    3    0    0  0.26306833479E+01  0.10891246022E+02 -0.56978761660E+01  0.12570024964E+02  0.00000000000E+00 0.  1.
</event>
<event>
 7    1  0.5662448E-012  0.5930188E+02  0.7816164E-02  0.1266605E+00
        -11   -1    0    0    0    0  0.00000000000E+00  0.00000000000E+00  0.45593999997E+02  0.45594000000E+02  0.51100000000E-03 0.  1.
         11   -1    0    0    0    0 -0.00000000000E+00 -0.00000000000E+00 -0.45593999997E+02  0.45594000000E+02  0.51100000000E-03 0. -1.
    9900012    2    1    2    0    0 -0.55913976309E+01 -0.15850438168E+02  0.27096582817E+02  0.59301875777E+02  0.49999875528E+02 0.  0.
         12    1    1    2    0    0  0.55913976309E+01  0.15850438168E+02 -0.27096582817E+02  0.31886124223E+02  0.00000000000E+00 0. -1.
         11    1    3    3    0    0  0.48260030632E+01  0.10865279835E+01 -0.82070381504E+01  0.95826052871E+01  0.51100000000E-03 0. -1.
        -11    1    3    3    0    0 -0.82217776882E+01  0.50335539231E+01  0.21802475108E+02  0.23838670570E+02  0.51100000000E-03 0.  1.
         12    1    3    3    0    0 -0.21956230059E+01 -0.21970520074E+02  0.13501145860E+02  0.25880599921E+02  0.00000000000E+00 0. -1.
</event>
<event>
 7    1  0.5662448E-012  0.5930194E+02  0.7816164E-02  0.1266605E+00
        -11   -1    0    0    0    0  0.00000000000E+00  0.00000000000E+00  0.45593999997E+02  0.45594000000E+02  0.51100000000E-03 0. -1.
         11   -1    0    0    0    0 -0.00000000000E+00 -0.00000000000E+00 -0.45593999997E+02  0.45594000000E+02  0.51100000000E-03 0.  1.
    9900012    2    1    2    0    0  0.19729642465E+02  0.11519398587E+02 -0.22243329024E+02  0.59301936874E+02  0.49999986954E+02 0.  0.
         12    1    1    2    0    0 -0.19729642465E+02 -0.11519398587E+02  0.22243329024E+02  0.31886063126E+02  0.00000000000E+00 0. -1.
         11    1    3    3    0    0  0.60234207792E+01 -0.72535733433E+01  0.53817344509E+01  0.10856288044E+02  0.51100000000E-03 0. -1.
        -11    1    3    3    0    0  0.15557634897E+02 -0.36290856938E+01 -0.17789004876E+02  0.23909390651E+02  0.51100000000E-03 0.  1.
         12    1    3    3    0    0 -0.18514132116E+01  0.22402057624E+02 -0.98360585994E+01  0.24536258180E+02  0.00000000000E+00 0. -1.
</event>
<event>
 7    1  0.5662448E-012  0.5930194E+02  0.7816164E-02  0.1266605E+00
        -11   -1    0    0    0    0  0.00000000000E+00  0.00000000000E+00  0.45593999997E+02  0.45594000000E+02  0.51100000000E-03 0. -1.
         11   -1    0    0    0    0 -0.00000000000E+00 -0.00000000000E+00 -0.45593999997E+02  0.45594000000E+02  0.51100000000E-03 0.  1.
    9900012    2    1    2    0    0  0.20676575290E+02 -0.12842081148E+02 -0.20598078691E+02  0.59301942550E+02  0.49999997305E+02 0.  0.
         12    1    1    2    0    0 -0.20676575290E+02  0.12842081148E+02  0.20598078691E+02  0.31886057450E+02  0.00000000000E+00 0. -1.
         11    1    3    3    0    0 -0.75568364101E+01 -0.16655915558E+01  0.32451967875E-01  0.77382830881E+01  0.51100000000E-03 0. -1.
        -11    1    3    3    0    0  0.10034357421E+02 -0.13004415300E+02  0.74622227344E+01  0.18041283617E+02  0.51100000000E-03 0.  1.
        -12    1    3    3    0    0  0.18199054280E+02  0.18279257077E+01 -0.28092753394E+02  0.33522375845E+02  0.00000000000E+00 0.  1.
</event>
<event>
 7    1  0.5662448E-012  0.5930196E+02  0.7816164E-02  0.1266605E+00
        -11   -1    0    0    0    0  0.00000000000E+00  0.00000000000E+00  0.45593999997E+02  0.45594000000E+02  0.51100000000E-03 0. -1.
         11   -1    0    0    0    0 -0.00000000000E+00 -0.00000000000E+00 -0.45593999997E+02  0.45594000000E+02  0.51100000000E-03 0.  1.
    9900012    2    1    2    0    0  0.20550995775E+02 -0.32544341840E+01 -0.24161635487E+02  0.59301962325E+02  0.50000033370E+02 0.  0.
         12    1    1    2    0    0 -0.20550995775E+02  0.32544341840E+01  0.24161635487E+02  0.31886037675E+02  0.00000000000E+00 0. -1.
         11    1    3    3    0    0 -0.21200207973E+01 -0.66215857883E+01 -0.36637867874E+01  0.78589579728E+01  0.51100000000E-03 0. -1.
        -11    1    3    3    0    0  0.10382794656E+02 -0.56922611162E+01 -0.30818600012E+02  0.33015002172E+02  0.51100000000E-03 0.  1.
         12    1    3    3    0    0  0.12288221916E+02  0.90594127205E+01  0.10320751312E+02  0.18428002180E+02  0.00000000000E+00 0. -1.
</event>
<event>
 7    1  0.5662448E-012  0.5930183E+02  0.7816164E-02  0.1266605E+00
        -11   -1    0    0    0    0  0.00000000000E+00  0.00000000000E+00  0.45593999997E+02  0.45594000000E+02  0.51100000000E-03 0.  1.
         11   -1    0    0    0    0 -0.00000000000E+00 -0.00000000000E+00 -0.45593999997E+02  0.45594000000E+02  0.51100000000E-03 0. -1.
    9900012    2    1    2    0    0  0.44680670265E+01  0.18039672193E+02  0.25910124498E+02  0.59301828275E+02  0.49999788894E+02 0.  0.
         12    1    1    2    0    0 -0.44680670265E+01 -0.18039672193E+02 -0.25910124498E+02  0.31886171725E+02  0.00000000000E+00 0. -1.
         11    1    3    3    0    0  0.12931513806E+01 -0.13233993711E+01  0.11474862002E+02  0.11623084126E+02  0.51100000000E-03 0. -1.
        -11    1    3    3    0    0  0.34835001130E+01  0.16307274395E+02  0.28642700788E+02  0.33143118138E+02  0.51100000000E-03 0.  1.
         12    1    3    3    0    0 -0.30858446709E+00  0.30557971690E+01 -0.14207438292E+02  0.14535626011E+02  0.00000000000E+00 0. -1.
</event>
<event>
 7    1  0.5662448E-012  0.5930196E+02  0.7816164E-02  0.1266605E+00
        -11   -1    0    0    0    0  0.00000000000E+00  0.00000000000E+00  0.45593999997E+02  0.45594000000E+02  0.51100000000E-03 0. -1.
         11   -1    0    0    0    0 -0.00000000000E+00 -0.00000000000E+00 -0.45593999997E+02  0.45594000000E+02  0.51100000000E-03 0.  1.
    9900012    2    1    2    0    0 -0.29568039943E+02  0.68735117504E+01 -0.97573402037E+01  0.59301955440E+02  0.50000020813E+02 0.  0.
         12    1    1    2    0    0  0.29568039943E+02 -0.68735117504E+01  0.97573402037E+01  0.31886044560E+02  0.00000000000E+00 0. -1.
         11    1    3    3    0    0 -0.26056940011E+02 -0.10003307146E+01 -0.12200415653E+00  0.26076419800E+02  0.51100000000E-03 0.  1.
        -11    1    3    3    0    0 -0.68122468598E+01  0.44753120270E+01 -0.20126412197E+02  0.21714225595E+02  0.51100000000E-03 0. -1.
         12    1    3    3    0    0  0.33011469283E+01  0.33985304380E+01  0.10491076149E+02  0.11511310045E+02  0.00000000000E+00 0. -1.
</event>
<event>
 7    1  0.5662448E-012  0.5930195E+02  0.7816164E-02  0.1266605E+00
        -11   -1    0    0    0    0  0.00000000000E+00  0.00000000000E+00  0.45593999997E+02  0.45594000000E+02  0.51100000000E-03 0. -1.
         11   -1    0    0    0    0 -0.00000000000E+00 -0.00000000000E+00 -0.45593999997E+02  0.45594000000E+02  0.51100000000E-03 0.  1.
    9900012    2    1    2    0    0 -0.26609280792E+02  0.16124974132E+02 -0.69750593635E+01  0.59301951826E+02  0.50000014223E+02 0.  0.
         12    1    1    2    0    0  0.26609280792E+02 -0.16124974132E+02  0.69750593635E+01  0.31886048174E+02  0.00000000000E+00 0. -1.
         11    1    3    3    0    0 -0.18764289767E+02  0.16821534840E+01  0.13965212660E+02  0.23451127386E+02  0.51100000000E-03 0. -1.
        -11    1    3    3    0    0 -0.11149229874E+02 -0.88717670294E+00 -0.21723601728E+01  0.11393487537E+02  0.51100000000E-03 0.  1.
        -12    1    3    3    0    0  0.33042388490E+01  0.15329997351E+02 -0.18767911850E+02  0.24457336903E+02  0.00000000000E+00 0.  1.
</event>
<event>
 7    1  0.5662448E-012  0.5930194E+02  0.7816164E-02  0.1266605E+00
        -11   -1    0    0    0    0  0.00000000000E+00  0.00000000000E+00  0.45593999997E+02  0.45594000000E+02  0.51100000000E-03 0.  1.
         11   -1    0    0    0    0 -0.00000000000E+00 -0.00000000000E+00 -0.45593999997E+02  0.45594000000E+02  0.51100000000E-03 0. -1.
    9900012    2    1    2    0    0 -0.49074643380E+01 -0.26868913047E+02  0.16452938471E+02  0.59301939113E+02  0.49999991037E+02 0.  0.
         12    1    1    2    0    0  0.49074643380E+01  0.26868913047E+02 -0.16452938471E+02  0.31886060887E+02  0.00000000000E+00 0. -1.
         11    1    3    3    0    0  0.10109858599E+02 -0.27443334967E+01  0.56571693170E+00  0.10490979131E+02  0.51100000000E-03 0. -1.
        -11    1    3    3    0    0 -0.73621278007E+01 -0.33297688095E+02  0.10315118893E+02  0.35627778997E+02  0.51100000000E-03 0.  1.
         12    1    3    3    0    0 -0.76551951359E+01  0.91731085455E+01  0.55721026469E+01  0.13183180984E+02  0.00000000000E+00 0. -1.
</event>
<event>
 7    1  0.5662448E-012  0.5930195E+02  0.7816164E-02  0.1266605E+00
        -11   -1    0    0    0    0  0.00000000000E+00  0.00000000000E+00  0.45593999997E+02  0.45594000000E+02  0.51100000000E-03 0.  1.
         11   -1    0    0    0    0 -0.00000000000E+00 -0.00000000000E+00 -0.45593999997E+02  0.45594000000E+02  0.51100000000E-03 0. -1.
    9900012    2    1    2    0    0  0.15527643019E+02 -0.27670772102E+02 -0.31529156347E+01  0.59301949705E+02  0.50000010353E+02 0.  0.
         12    1    1    2    0    0 -0.15527643019E+02  0.27670772102E+02  0.31529156347E+01  0.31886050295E+02  0.00000000000E+00 0. -1.
         11    1    3    3    0    0  0.61681371564E+01  0.85431239348E+00  0.16318948165E+02  0.17466649225E+02  0.51100000000E-03 0. -1.
        -11    1    3    3    0    0  0.73789599506E+01 -0.52594619917E+01  0.28835065815E+01  0.95092376593E+01  0.51100000000E-03 0.  1.
         12    1    3    3    0    0  0.19805459122E+01 -0.23265622504E+02 -0.22355370382E+02  0.32326062821E+02  0.00000000000E+00 0. -1.
</event>
<event>
 7    1  0.5662448E-012  0.5930196E+02  0.7816164E-02  0.1266605E+00
        -11   -1    0    0    0    0  0.00000000000E+00  0.00000000000E+00  0.45593999997E+02  0.45594000000E+02  0.51100000000E-03 0. -1.
         11   -1    0    0    0    0 -0.00000000000E+00 -0.00000000000E+00 -0.45593999997E+02  0.45594000000E+02  0.51100000000E-03 0.  1.
    9900012    2    1    2    0    0  0.15741211887E+02  0.21240381533E+02 -0.17826389104E+02  0.59301957476E+02  0.50000024527E+02 0.  0.
         12    1    1    2    0    0 -0.15741211887E+02 -0.21240381533E+02  0.17826389104E+02  0.31886042524E+02  0.00000000000E+00 0. -1.
         11    1    3    3    0    0 -0.23823007189E+01  0.30641645148E+02 -0.82917180998E+01  0.31832976038E+02  0.51100000000E-03 0. -1.
        -11    1    3    3    0    0  0.13885112495E+02 -0.69084493017E+00 -0.10927001751E+02  0.17682561558E+02  0.51100000000E-03 0.  1.
        -12    1    3    3    0    0  0.42384001107E+01 -0.87104186849E+01  0.13923307473E+01  0.97864198803E+01  0.00000000000E+00 0.  1.
</event>
<event>
 7    1  0.5662448E-012  0.5930190E+02  0.7816164E-02  0.1266605E+00
        -11   -1    0    0    0    0  0.00000000000E+00  0.00000000000E+00  0.45593999997E+02  0.45594000000E+02  0.51100000000E-03 0.  1.
         11   -1    0    0    0    0 -0.00000000000E+00 -0.00000000000E+00 -0.45593999997E+02  0.45594000000E+02  0.51100000000E-03 0. -1.
    9900012    2    1    2    0    0  0.11845245283E+02 -0.26647341336E+01  0.29484114357E+02  0.59301895766E+02  0.49999911982E+02 0.  0.
         12    1    1    2    0    0 -0.11845245283E+02  0.26647341336E+01 -0.29484114357E+02  0.31886104234E+02  0.00000000000E+00 0. -1.
         11    1    3    3    0    0  0.40274805418E+01  0.12095984039E+02  0.42768393318E+01  0.13447110631E+02  0.51100000000E-03 0. -1.
        -11    1    3    3    0    0 -0.42374579506E+01  0.52349263339E+01  0.21098608615E+02  0.22147500748E+02  0.51100000000E-03 0.  1.
        -12    1    3    3    0    0  0.12055222691E+02 -0.19995644507E+02  0.41086664096E+01  0.23707284388E+02  0.00000000000E+00 0.  1.
</event>
<event>
 7    1  0.5662448E-012  0.5930194E+02  0.7816164E-02  0.1266605E+00
        -11   -1    0    0    0    0  0.00000000000E+00  0.00000000000E+00  0.45593999997E+02  0.45594000000E+02  0.51100000000E-03 0. -1.
         11   -1    0    0    0    0 -0.00000000000E+00 -0.00000000000E+00 -0.45593999997E+02  0.45594000000E+02  0.51100000000E-03 0.  1.
    9900012    2    1    2    0    0  0.18829673829E+02 -0.16285539963E+02 -0.19923488088E+02  0.59301940256E+02  0.49999993122E+02 0.  0.
         12    1    1    2    0    0 -0.18829673829E+02  0.16285539963E+02  0.19923488088E+02  0.31886059744E+02  0.00000000000E+00 0. -1.
         11    1    3    3    0    0 -0.53672564917E+01 -0.10177252118E+02  0.51233123703E+01  0.12594928854E+02  0.51100000000E-03 0. -1.
        -11    1    3    3    0    0  0.67657440592E+01 -0.13618910910E+02  0.92474319190E-01  0.15207188393E+02  0.51100000000E-03 0.  1.
        -12    1    3    3    0    0  0.17431186261E+02  0.75106230657E+01 -0.25139274778E+02  0.31499823010E+02  0.00000000000E+00 0.  1.
</event>
<event>
 7    1  0.5662448E-012  0.5930195E+02  0.7816164E-02  0.1266605E+00
        -11   -1    0    0    0    0  0.00000000000E+00  0.00000000000E+00  0.45593999997E+02  0.45594000000E+02  0.51100000000E-03 0.  1.
         11   -1    0    0    0    0 -0.00000000000E+00 -0.00000000000E+00 -0.45593999997E+02  0.45594000000E+02  0.51100000000E-03 0. -1.
    9900012    2    1    2    0    0  0.71275772527E+01  0.26756129591E+02  0.15812248560E+02  0.59301952381E+02  0.50000015235E+02 0.  0.
         12    1    1    2    0    0 -0.71275772527E+01 -0.26756129591E+02 -0.15812248560E+02  0.31886047619E+02  0.00000000000E+00 0. -1.
         11    1    3    3    0    0 -0.14187294595E+01 -0.25403700336E+01 -0.72039414749E+00  0.29975391867E+01  0.51100000000E-03 0. -1.
        -11    1    3    3    0    0  0.19545076220E+02 -0.15362061233E+01 -0.56098267195E-01  0.19605434986E+02  0.51100000000E-03 0.  1.
         12    1    3    3    0    0 -0.10998769508E+02  0.30832705748E+02  0.16588740975E+02  0.36698978209E+02  0.00000000000E+00 0. -1.
</event>
<event>
 7    1  0.5662448E-012  0.5930193E+02  0.7816164E-02  0.1266605E+00
        -11   -1    0    0    0    0  0.00000000000E+00  0.00000000000E+00  0.45593999997E+02  0.45594000000E+02  0.51100000000E-03 0. -1.
         11   -1    0    0    0    0 -0.00000000000E+00 -0.00000000000E+00 -0.45593999997E+02  0.45594000000E+02  0.51100000000E-03 0.  1.
    9900012    2    1    2    0    0  0.24808994743E+02 -0.18824645947E+02 -0.68460137100E+01  0.59301930645E+02  0.49999975593E+02 0.  0.
         12    1    1    2    0    0 -0.24808994743E+02  0.18824645947E+02  0.68460137100E+01  0.31886069355E+02  0.00000000000E+00 0. -1.
         11    1    3    3    0    0  0.17436929762E+01  0.82408289096E+01  0.55661911606E+01  0.10096247353E+02  0.51100000000E-03 0. -1.
        -11    1    3    3    0    0 -0.60978024152E+01 -0.18088546204E+01  0.37431217762E+01  0.73801158680E+01  0.51100000000E-03 0.  1.
        -12    1    3    3    0    0  0.29163104182E+02 -0.25256620236E+02 -0.16155326647E+02  0.41825567424E+02  0.00000000000E+00 0.  1.
</event>
<event>
 7    1  0.5662448E-012  0.5930194E+02  0.7816164E-02  0.1266605E+00
        -11   -1    0    0    0    0  0.00000000000E+00  0.00000000000E+00  0.45593999997E+02  0.45594000000E+02  0.51100000000E-03 0. -1.
         11   -1    0    0    0    0 -0.00000000000E+00 -0.00000000000E+00 -0.45593999997E+02  0.45594000000E+02  0.51100000000E-03 0.  1.
    9900012    2    1    2    0    0 -0.85177910958E+01 -0.28432027128E+02 -0.11652804565E+02  0.59301940569E+02  0.49999993693E+02 0.  0.
         12    1    1    2    0    0  0.85177910958E+01  0.28432027128E+02  0.11652804565E+02  0.31886059431E+02  0.00000000000E+00 0. -1.
         11    1    3    3    0    0 -0.78354365035E+00  0.41412129762E+01  0.42844672312E+01  0.60100120867E+01  0.51100000000E-03 0. -1.
        -11    1    3    3    0    0 -0.53263523330E+01 -0.98952905974E+01  0.12520245663E+02  0.16823892442E+02  0.51100000000E-03 0.  1.
        -12    1    3    3    0    0 -0.24078951125E+01 -0.22677949507E+02 -0.28457517459E+02  0.36468036041E+02  0.00000000000E+00 0.  1.
</event>
<event>
 7    1  0.5662448E-012  0.5930194E+02  0.7816164E-02  0.1266605E+00
        -11   -1    0    0    0    0  0.00000000000E+00  0.00000000000E+00  0.45593999997E+02  0.45594000000E+02  0.51100000000E-03 0.  1.
         11   -1    0    0    0    0 -0.00000000000E+00 -0.00000000000E+00 -0.45593999997E+02  0.45594000000E+02  0.51100000000E-03 0. -1.
    9900012    2    1    2    0    0 -0.36890950627E+01 -0.26121228974E+02  0.17910682642E+02  0.59301943828E+02  0.49999999636E+02 0.  0.
         12    1    1    2    0    0  0.36890950627E+01  0.26121228974E+02 -0.17910682642E+02  0.31886056172E+02  0.00000000000E+00 0. -1.
         11    1    3    3    0    0 -0.17746197601E+01 -0.20506014216E+02  0.92258836492E+01  0.22555771405E+02  0.51100000000E-03 0. -1.
        -11    1    3    3    0    0  0.13236947952E+02 -0.88316138810E+01  0.13131675272E+02  0.20631410290E+02  0.51100000000E-03 0.  1.
         12    1    3    3    0    0 -0.15151423255E+02  0.32163991221E+01 -0.44468762801E+01  0.16114762133E+02  0.00000000000E+00 0. -1.
</event>
<event>
 7    1  0.5662448E-012  0.5930195E+02  0.7816164E-02  0.1266605E+00
        -11   -1    0    0    0    0  0.00000000000E+00  0.00000000000E+00  0.45593999997E+02  0.45594000000E+02  0.51100000000E-03 0.  1.
         11   -1    0    0    0    0 -0.00000000000E+00 -0.00000000000E+00 -0.45593999997E+02  0.45594000000E+02  0.51100000000E-03 0. -1.
    9900012    2    1    2    0    0  0.54350372725E+01  0.23996879693E+01  0.31327659675E+02  0.59301946729E+02  0.50000004927E+02 0.  0.
         12    1    1    2    0    0 -0.54350372725E+01 -0.23996879693E+01 -0.31327659675E+02  0.31886053271E+02  0.00000000000E+00 0. -1.
         11    1    3    3    0    0 -0.20057594493E+02 -0.25699916774E+01  0.54262817516E+01  0.20936964631E+02  0.51100000000E-03 0. -1.
        -11    1    3    3    0    0  0.99655153113E+01  0.12226296307E+01  0.30664761465E+01  0.10498075769E+02  0.51100000000E-03 0.  1.
        -12    1    3    3    0    0  0.15527116454E+02  0.37470500160E+01  0.22834901776E+02  0.27866906329E+02  0.00000000000E+00 0.  1.
</event>
<event>
 7    1  0.5662448E-012  0.5930194E+02  0.7816164E-02  0.1266605E+00
        -11   -1    0    0    0    0  0.00000000000E+00  0.00000000000E+00  0.45593999997E+02  0.45594000000E+02  0.51100000000E-03 0.  1.
         11   -1    0    0    0    0 -0.00000000000E+00 -0.00000000000E+00 -0.45593999997E+02  0.45594000000E+02  0.51100000000E-03 0. -1.
    9900012    2    1    2    0    0 -0.28020203235E+02 -0.52147283467E+01 -0.14296690760E+02  0.59301944306E+02  0.50000000507E+02 0.  0.
         12    1    1    2    0    0  0.28020203235E+02  0.52147283467E+01  0.14296690760E+02  0.31886055694E+02  0.00000000000E+00 0. -1.
         11    1    3    3    0    0 -0.12576598597E+02  0.57725284744E+00  0.39166356500E+01  0.13184994812E+02  0.51100000000E-03 0. -1.
        -11    1    3    3    0    0 -0.14074691814E+02  0.13457217595E+02  0.15693070583E+00  0.19473527738E+02  0.51100000000E-03 0.  1.
         12    1    3    3    0    0 -0.13689128237E+01 -0.19249198789E+02 -0.18370257116E+02  0.26643421756E+02  0.00000000000E+00 0. -1.
</event>
<event>
 7    1  0.5662448E-012  0.5930194E+02  0.7816164E-02  0.1266605E+00
        -11   -1    0    0    0    0  0.00000000000E+00  0.00000000000E+00  0.45593999997E+02  0.45594000000E+02  0.51100000000E-03 0.  1.
         11   -1    0    0    0    0 -0.00000000000E+00 -0.00000000000E+00 -0.45593999997E+02  0.45594000000E+02  0.51100000000E-03 0. -1.
    9900012    2    1    2    0    0  0.76906490953E+01 -0.29287685013E+02 -0.99903051308E+01  0.59301940765E+02  0.49999994049E+02 0.  0.
         12    1    1    2    0    0 -0.76906490953E+01  0.29287685013E+02  0.99903051308E+01  0.31886059235E+02  0.00000000000E+00 0. -1.
         11    1    3    3    0    0 -0.66426806773E+01 -0.23628974717E+02 -0.15008289730E+02  0.28769817755E+02  0.51100000000E-03 0. -1.
        -11    1    3    3    0    0  0.91244739038E+01 -0.10506913765E+02  0.13549373377E+02  0.19422584279E+02  0.51100000000E-03 0.  1.
        -12    1    3    3    0    0  0.52088558688E+01  0.48482034684E+01 -0.85313887783E+01  0.11109538731E+02  0.00000000000E+00 0.  1.
</event>
<event>
 7    1  0.5662448E-012  0.5930195E+02  0.7816164E-02  0.1266605E+00
        -11   -1    0    0    0    0  0.00000000000E+00  0.00000000000E+00  0.45593999997E+02  0.45594000000E+02  0.51100000000E-03 0.  1.
         11   -1    0    0    0    0 -0.00000000000E+00 -0.00000000000E+00 -0.45593999997E+02  0.45594000000E+02  0.51100000000E-03 0. -1.
    9900012    2    1    2    0    0 -0.50399184026E+01  0.32723734580E+01  0.31314711583E+02  0.59301947139E+02  0.50000005674E+02 0.  0.
         12    1    1    2    0    0  0.50399184026E+01 -0.32723734580E+01 -0.31314711583E+02  0.31886052861E+02  0.00000000000E+00 0. -1.
         11    1    3    3    0    0 -0.81553333379E+01  0.12465350856E+02  0.96428486201E+01  0.17744829207E+02  0.51100000000E-03 0. -1.
        -11    1    3    3    0    0 -0.94741343426E+00  0.35775600664E+01 -0.81014819579E+01  0.89067692470E+01  0.51100000000E-03 0.  1.
        -12    1    3    3    0    0  0.40628283696E+01 -0.12770537464E+02  0.29773344921E+02  0.32650348685E+02  0.00000000000E+00 0.  1.
</event>
<event>
 7    1  0.5662448E-012  0.5930195E+02  0.7816164E-02  0.1266605E+00
        -11   -1    0    0    0    0  0.00000000000E+00  0.00000000000E+00  0.45593999997E+02  0.45594000000E+02  0.51100000000E-03 0. -1.
         11   -1    0    0    0    0 -0.00000000000E+00 -0.00000000000E+00 -0.45593999997E+02  0.45594000000E+02  0.51100000000E-03 0.  1.
    9900012    2    1    2    0    0  0.50091485718E+01 -0.31056363500E+02 -0.52087494002E+01  0.59301947350E+02  0.50000006059E+02 0.  0.
         12    1    1    2    0    0 -0.50091485718E+01  0.31056363500E+02  0.52087494002E+01  0.31886052650E+02  0.00000000000E+00 0. -1.
         11    1    3    3    0    0  0.32959495403E+01  0.47958606147E+01 -0.34136585681E+01  0.67466011804E+01  0.51100000000E-03 0. -1.
        -11    1    3    3    0    0  0.19582515204E+02 -0.12957701071E+02 -0.93554713419E+00  0.23500046116E+02  0.51100000000E-03 0.  1.
         12    1    3    3    0    0 -0.17869316172E+02 -0.22894523044E+02 -0.85954369799E+00  0.29055300054E+02  0.00000000000E+00 0. -1.
</event>
<event>
 7    1  0.5662448E-012  0.5930194E+02  0.7816164E-02  0.1266605E+00
        -11   -1    0    0    0    0  0.00000000000E+00  0.00000000000E+00  0.45593999997E+02  0.45594000000E+02  0.51100000000E-03 0. -1.
         11   -1    0    0    0    0 -0.00000000000E+00 -0.00000000000E+00 -0.45593999997E+02  0.45594000000E+02  0.51100000000E-03 0.  1.
    9900012    2    1    2    0    0  0.13770072159E+00  0.20548816909E+02 -0.24381304101E+02  0.59301939919E+02  0.49999992506E+02 0.  0.
         12    1    1    2    0    0 -0.13770072159E+00 -0.20548816909E+02  0.24381304101E+02  0.31886060081E+02  0.00000000000E+00 0. -1.
         11    1    3    3    0    0 -0.20272673960E+01  0.39976076422E+01 -0.33116750358E+01  0.55729589770E+01  0.51100000000E-03 0. -1.
        -11    1    3    3    0    0 -0.11051594550E+02 -0.36684548806E+01 -0.26521633400E+02  0.28965364520E+02  0.51100000000E-03 0.  1.
         12    1    3    3    0    0  0.13216562668E+02  0.20219664148E+02  0.54520043352E+01  0.24763616421E+02  0.00000000000E+00 0. -1.
</event>
<event>
 7    1  0.5662448E-012  0.5930194E+02  0.7816164E-02  0.1266605E+00
        -11   -1    0    0    0    0  0.00000000000E+00  0.00000000000E+00  0.45593999997E+02  0.45594000000E+02  0.51100000000E-03 0.  1.
         11   -1    0    0    0    0 -0.00000000000E+00 -0.00000000000E+00 -0.45593999997E+02  0.45594000000E+02  0.51100000000E-03 0. -1.
    9900012    2    1    2    0    0 -0.29640949599E+02  0.69431720185E+00 -0.11732554229E+02  0.59301940377E+02  0.49999993343E+02 0.  0.
         12    1    1    2    0    0  0.29640949599E+02 -0.69431720185E+00  0.11732554229E+02  0.31886059623E+02  0.00000000000E+00 0. -1.
         11    1    3    3    0    0 -0.99593872217E+01 -0.19410822313E+02 -0.15880277158E+02  0.26984303207E+02  0.51100000000E-03 0. -1.
        -11    1    3    3    0    0 -0.74102465963E+01  0.67042642153E+00 -0.33237474715E+01  0.81491425144E+01  0.51100000000E-03 0.  1.
         12    1    3    3    0    0 -0.12271315781E+02  0.19434713093E+02  0.74714703999E+01  0.24168494656E+02  0.00000000000E+00 0. -1.
</event>
<event>
 7    1  0.5662448E-012  0.5930189E+02  0.7816164E-02  0.1266605E+00
        -11   -1    0    0    0    0  0.00000000000E+00  0.00000000000E+00  0.45593999997E+02  0.45594000000E+02  0.51100000000E-03 0.  1.
         11   -1    0    0    0    0 -0.00000000000E+00 -0.00000000000E+00 -0.45593999997E+02  0.45594000000E+02  0.51100000000E-03 0. -1.
    9900012    2    1    2    0    0 -0.10821910608E+02  0.24613400394E+02 -0.17140319725E+02  0.59301893488E+02  0.49999907828E+02 0.  0.
         12    1    1    2    0    0  0.10821910608E+02 -0.24613400394E+02  0.17140319725E+02  0.31886106512E+02  0.00000000000E+00 0. -1.
         11    1    3    3    0    0 -0.12048725549E+02 -0.10853923211E+02 -0.10327030533E+02  0.19225685848E+02  0.51100000000E-03 0. -1.
        -11    1    3    3    0    0  0.58889217932E+01  0.10548431745E+02 -0.83383270807E+01  0.14679118193E+02  0.51100000000E-03 0.  1.
        -12    1    3    3    0    0 -0.46621068520E+01  0.24918891860E+02  0.15250378880E+01  0.25397089448E+02  0.00000000000E+00 0.  1.
</event>
<event>
 7    1  0.5662448E-012  0.5930193E+02  0.7816164E-02  0.1266605E+00
        -11   -1    0    0    0    0  0.00000000000E+00  0.00000000000E+00  0.45593999997E+02  0.45594000000E+02  0.51100000000E-03 0. -1.
         11   -1    0    0    0    0 -0.00000000000E+00 -0.00000000000E+00 -0.45593999997E+02  0.45594000000E+02  0.51100000000E-03 0.  1.
    9900012    2    1    2    0    0  0.28575964224E+02 -0.85849916163E+01 -0.11244274505E+02  0.59301929036E+02  0.49999972660E+02 0.  0.
         12    1    1    2    0    0 -0.28575964224E+02  0.85849916163E+01  0.11244274505E+02  0.31886070964E+02  0.00000000000E+00 0. -1.
         11    1    3    3    0    0  0.37172539122E+00 -0.44050440150E+00  0.50746425195E+01  0.51072713709E+01  0.51100000000E-03 0. -1.
        -11    1    3    3    0    0  0.24522254260E+02  0.79934679405E+01  0.59286576875E+01  0.26464796729E+02  0.51100000000E-03 0.  1.
         12    1    3    3    0    0  0.36819845726E+01 -0.16137955155E+02 -0.22247574712E+02  0.27729860936E+02  0.00000000000E+00 0. -1.
</event>
<event>
 7    1  0.5662448E-012  0.5930200E+02  0.7816164E-02  0.1266605E+00
        -11   -1    0    0    0    0  0.00000000000E+00  0.00000000000E+00  0.45593999997E+02  0.45594000000E+02  0.51100000000E-03 0. -1.
         11   -1    0    0    0    0 -0.00000000000E+00 -0.00000000000E+00 -0.45593999997E+02  0.45594000000E+02  0.51100000000E-03 0.  1.
    9900012    2    1    2    0    0  0.28141243685E+02  0.48686834394E+00 -0.14985010473E+02  0.59301997180E+02  0.50000096938E+02 0.  0.
         12    1    1    2    0    0 -0.28141243685E+02 -0.48686834394E+00  0.14985010473E+02  0.31886002820E+02  0.00000000000E+00 0. -1.
         11    1    3    3    0    0  0.65969632933E+01  0.12721458431E+02  0.20642328495E+01  0.14478138238E+02  0.51100000000E-03 0. -1.
        -11    1    3    3    0    0 -0.39810979168E+01 -0.14269908148E+02 -0.15588663426E+01  0.14896626588E+02  0.51100000000E-03 0.  1.
         12    1    3    3    0    0  0.25525378309E+02  0.20353180609E+01 -0.15490376980E+02  0.29927232354E+02  0.00000000000E+00 0. -1.
</event>
<event>
 7    1  0.5662448E-012  0.5930194E+02  0.7816164E-02  0.1266605E+00
        -11   -1    0    0    0    0  0.00000000000E+00  0.00000000000E+00  0.45593999997E+02  0.45594000000E+02  0.51100000000E-03 0.  1.
         11   -1    0    0    0    0 -0.00000000000E+00 -0.00000000000E+00 -0.45593999997E+02  0.45594000000E+02  0.51100000000E-03 0. -1.
    9900012    2    1    2    0    0 -0.20553519420E+02 -0.20372291793E+02 -0.13388191794E+02  0.59301935443E+02  0.49999984343E+02 0.  0.
         12    1    1    2    0    0  0.20553519420E+02  0.20372291793E+02  0.13388191794E+02  0.31886064557E+02  0.00000000000E+00 0. -1.
         11    1    3    3    0    0 -0.77654844473E+01 -0.64798551194E+01 -0.14487475723E+02  0.17668565990E+02  0.51100000000E-03 0. -1.
        -11    1    3    3    0    0 -0.23487700946E+02 -0.18532695536E+02 -0.38663112605E-02  0.29918771947E+02  0.51100000000E-03 0.  1.
        -12    1    3    3    0    0  0.10699665974E+02  0.46402588626E+01  0.11031502405E+01  0.11714597505E+02  0.00000000000E+00 0.  1.
</event>
<event>
 7    1  0.5662448E-012  0.5930195E+02  0.7816164E-02  0.1266605E+00
        -11   -1    0    0    0    0  0.00000000000E+00  0.00000000000E+00  0.45593999997E+02  0.45594000000E+02  0.51100000000E-03 0. -1.
         11   -1    0    0    0    0 -0.00000000000E+00 -0.00000000000E+00 -0.45593999997E+02  0.45594000000E+02  0.51100000000E-03 0.  1.
    9900012    2    1    2    0    0 -0.55519604510E+01  0.24920859084E+02 -0.19100966460E+02  0.59301946591E+02  0.50000004675E+02 0.  0.
         12    1    1    2    0    0  0.55519604510E+01 -0.24920859084E+02  0.19100966460E+02  0.31886053409E+02  0.00000000000E+00 0. -1.
         11    1    3    3    0    0  0.35265030970E+01 -0.34207966054E+00 -0.21491425762E+02  0.21781520244E+02  0.51100000000E-03 0. -1.
        -11    1    3    3    0    0  0.70204654854E+01  0.14903532066E+01 -0.38425086664E+01  0.81408206850E+01  0.51100000000E-03 0.  1.
        -12    1    3    3    0    0 -0.16098929033E+02  0.23772585537E+02  0.62329679690E+01  0.29379605662E+02  0.00000000000E+00 0.  1.
</event>
<event>
 7    1  0.5662448E-012  0.5930201E+02  0.7816164E-02  0.1266605E+00
        -11   -1    0    0    0    0  0.00000000000E+00  0.00000000000E+00  0.45593999997E+02  0.45594000000E+02  0.51100000000E-03 0.  1.
         11   -1    0    0    0    0 -0.00000000000E+00 -0.00000000000E+00 -0.45593999997E+02  0.45594000000E+02  0.51100000000E-03 0. -1.
    9900012    2    1    2    0    0 -0.21010389313E+00  0.56997487871E+01  0.31371729158E+02  0.59302005108E+02  0.50000111395E+02 0.  0.
         12    1    1    2    0    0  0.21010389313E+00 -0.56997487871E+01 -0.31371729158E+02  0.31885994892E+02  0.00000000000E+00 0. -1.
         11    1    3    3    0    0 -0.12038490345E+01 -0.54691122367E+01  0.16479950305E+02  0.17405436032E+02  0.51100000000E-03 0. -1.
        -11    1    3    3    0    0  0.91722766875E+01 -0.89210466318E+01  0.15622375280E+02  0.20193423244E+02  0.51100000000E-03 0.  1.
         12    1    3    3    0    0 -0.81785315461E+01  0.20089907656E+02 -0.73059642697E+00  0.21703145832E+02  0.00000000000E+00 0. -1.
</event>
<event>
 7    1  0.5662448E-012  0.5930193E+02  0.7816164E-02  0.1266605E+00
        -11   -1    0    0    0    0  0.00000000000E+00  0.00000000000E+00  0.45593999997E+02  0.45594000000E+02  0.51100000000E-03 0.  1.
         11   -1    0    0    0    0 -0.00000000000E+00 -0.00000000000E+00 -0.45593999997E+02  0.45594000000E+02  0.51100000000E-03 0. -1.
    9900012    2    1    2    0    0  0.29906450244E+02  0.94497732204E+00  0.11019640307E+02  0.59301933751E+02  0.49999981258E+02 0.  0.
         12    1    1    2    0    0 -0.29906450244E+02 -0.94497732204E+00 -0.11019640307E+02  0.31886066249E+02  0.00000000000E+00 0. -1.
         11    1    3    3    0    0  0.48082266589E+01  0.84207452933E+01  0.11470517914E+02  0.15020012529E+02  0.51100000000E-03 0. -1.
        -11    1    3    3    0    0 -0.87860143152E+01  0.13384025429E+01 -0.24317646385E+01  0.92140571103E+01  0.51100000000E-03 0.  1.
         12    1    3    3    0    0  0.33884237900E+02 -0.88141705142E+01  0.19808870317E+01  0.35067864112E+02  0.00000000000E+00 0. -1.
</event>
<event>
 7    1  0.5662448E-012  0.5930192E+02  0.7816164E-02  0.1266605E+00
        -11   -1    0    0    0    0  0.00000000000E+00  0.00000000000E+00  0.45593999997E+02  0.45594000000E+02  0.51100000000E-03 0. -1.
         11   -1    0    0    0    0 -0.00000000000E+00 -0.00000000000E+00 -0.45593999997E+02  0.45594000000E+02  0.51100000000E-03 0.  1.
    9900012    2    1    2    0    0  0.14958090239E+02  0.26758223168E+02 -0.87735484863E+01  0.59301919592E+02  0.49999955436E+02 0.  0.
         12    1    1    2    0    0 -0.14958090239E+02 -0.26758223168E+02  0.87735484863E+01  0.31886080408E+02  0.00000000000E+00 0. -1.
         11    1    3    3    0    0  0.13748938186E+02  0.14791374783E+02  0.70294731407E+01  0.21382973650E+02  0.51100000000E-03 0. -1.
        -11    1    3    3    0    0  0.45612808187E+01  0.22733622052E+02 -0.10306108005E+02  0.25373977157E+02  0.51100000000E-03 0.  1.
         12    1    3    3    0    0 -0.33521287649E+01 -0.10766773667E+02 -0.54969136220E+01  0.12544968785E+02  0.00000000000E+00 0. -1.
</event>
<event>
 7    1  0.5662448E-012  0.5930196E+02  0.7816164E-02  0.1266605E+00
        -11   -1    0    0    0    0  0.00000000000E+00  0.00000000000E+00  0.45593999997E+02  0.45594000000E+02  0.51100000000E-03 0.  1.
         11   -1    0    0    0    0 -0.00000000000E+00 -0.00000000000E+00 -0.45593999997E+02  0.45594000000E+02  0.51100000000E-03 0. -1.
    9900012    2    1    2    0    0 -0.79239214089E+00 -0.17643029615E+02  0.26548350612E+02  0.59301963879E+02  0.50000036204E+02 0.  0.
         12    1    1    2    0    0  0.79239214089E+00  0.17643029615E+02 -0.26548350612E+02  0.31886036121E+02  0.00000000000E+00 0. -1.
         11    1    3    3    0    0  0.79521554975E+01 -0.14873624392E+02  0.30931537784E+00  0.16868822006E+02  0.51100000000E-03 0. -1.
        -11    1    3    3    0    0 -0.97681289318E+00 -0.81611793360E+01  0.30840725064E+02  0.31917226294E+02  0.51100000000E-03 0.  1.
         12    1    3    3    0    0 -0.77677347452E+01  0.53917741134E+01 -0.46016898304E+01  0.10515915579E+02  0.00000000000E+00 0. -1.
</event>
<event>
 7    1  0.5662448E-012  0.5930199E+02  0.7816164E-02  0.1266605E+00
        -11   -1    0    0    0    0  0.00000000000E+00  0.00000000000E+00  0.45593999997E+02  0.45594000000E+02  0.51100000000E-03 0. -1.
         11   -1    0    0    0    0 -0.00000000000E+00 -0.00000000000E+00 -0.45593999997E+02  0.45594000000E+02  0.51100000000E-03 0.  1.
    9900012    2    1    2    0    0 -0.13577364311E+02 -0.28426556364E+02  0.49298568471E+01  0.59301993400E+02  0.50000090043E+02 0.  0.
         12    1    1    2    0    0  0.13577364311E+02  0.28426556364E+02 -0.49298568471E+01  0.31886006600E+02  0.00000000000E+00 0. -1.
         11    1    3    3    0    0  0.66102773648E+01  0.11816473498E+01 -0.72265212537E+01  0.98648196633E+01  0.51100000000E-03 0. -1.
        -11    1    3    3    0    0 -0.21854977708E+02 -0.30251481864E+02  0.17225251425E+00  0.37320528892E+02  0.51100000000E-03 0.  1.
         12    1    3    3    0    0  0.16673360319E+01  0.64327815036E+00  0.11984125587E+02  0.12116644845E+02  0.00000000000E+00 0. -1.
</event>
<event>
 7    1  0.5662448E-012  0.5930194E+02  0.7816164E-02  0.1266605E+00
        -11   -1    0    0    0    0  0.00000000000E+00  0.00000000000E+00  0.45593999997E+02  0.45594000000E+02  0.51100000000E-03 0. -1.
         11   -1    0    0    0    0 -0.00000000000E+00 -0.00000000000E+00 -0.45593999997E+02  0.45594000000E+02  0.51100000000E-03 0.  1.
    9900012    2    1    2    0    0  0.66445627427E+01  0.27299041312E+02 -0.15077566853E+02  0.59301938895E+02  0.49999990639E+02 0.  0.
         12    1    1    2    0    0 -0.66445627427E+01 -0.27299041312E+02  0.15077566853E+02  0.31886061105E+02  0.00000000000E+00 0. -1.
         11    1    3    3    0    0  0.63069103294E+01  0.18996958780E+01  0.98233699148E+01  0.11827280291E+02  0.51100000000E-03 0. -1.
        -11    1    3    3    0    0 -0.67845869268E+01 -0.46881754856E+01 -0.82595109578E+00  0.82880519198E+01  0.51100000000E-03 0.  1.
        -12    1    3    3    0    0  0.71222393401E+01  0.30087520919E+02 -0.24074985672E+02  0.39186606684E+02  0.00000000000E+00 0.  1.
</event>
<event>
 7    1  0.5662448E-012  0.5930196E+02  0.7816164E-02  0.1266605E+00
        -11   -1    0    0    0    0  0.00000000000E+00  0.00000000000E+00  0.45593999997E+02  0.45594000000E+02  0.51100000000E-03 0.  1.
         11   -1    0    0    0    0 -0.00000000000E+00 -0.00000000000E+00 -0.45593999997E+02  0.45594000000E+02  0.51100000000E-03 0. -1.
    9900012    2    1    2    0    0 -0.10366710542E+02 -0.63580612529E+01  0.29475853718E+02  0.59301959437E+02  0.50000028103E+02 0.  0.
         12    1    1    2    0    0  0.10366710542E+02  0.63580612529E+01 -0.29475853718E+02  0.31886040563E+02  0.00000000000E+00 0. -1.
         11    1    3    3    0    0  0.12449973931E+02  0.14781955763E+01  0.40430219806E+01  0.13173190200E+02  0.51100000000E-03 0. -1.
        -11    1    3    3    0    0 -0.10640592519E+02 -0.18169664269E+02  0.80995880301E+01  0.22560191385E+02  0.51100000000E-03 0.  1.
         12    1    3    3    0    0 -0.12176091954E+02  0.10333407440E+02  0.17333243708E+02  0.23568577853E+02  0.00000000000E+00 0. -1.
</event>
<event>
 7    1  0.5662448E-012  0.5930194E+02  0.7816164E-02  0.1266605E+00
        -11   -1    0    0    0    0  0.00000000000E+00  0.00000000000E+00  0.45593999997E+02  0.45594000000E+02  0.51100000000E-03 0.  1.
         11   -1    0    0    0    0 -0.00000000000E+00 -0.00000000000E+00 -0.45593999997E+02  0.45594000000E+02  0.51100000000E-03 0. -1.
    9900012    2    1    2    0    0  0.45997454280E+01 -0.16718029218E+02  0.26759497258E+02  0.59301939528E+02  0.49999991794E+02 0.  0.
         12    1    1    2    0    0 -0.45997454280E+01  0.16718029218E+02 -0.26759497258E+02  0.31886060472E+02  0.00000000000E+00 0. -1.
         11    1    3    3    0    0 -0.12305744728E+01  0.16596553980E+01 -0.74944346812E+01  0.77740157592E+01  0.51100000000E-03 0. -1.
        -11    1    3    3    0    0 -0.11719123916E+02 -0.16856021487E+02  0.21864473279E+02  0.29991974223E+02  0.51100000000E-03 0.  1.
         12    1    3    3    0    0  0.17549443817E+02 -0.15216631289E+01  0.12389458660E+02  0.21535949546E+02  0.00000000000E+00 0. -1.
</event>
<event>
 7    1  0.5662448E-012  0.5930194E+02  0.7816164E-02  0.1266605E+00
        -11   -1    0    0    0    0  0.00000000000E+00  0.00000000000E+00  0.45593999997E+02  0.45594000000E+02  0.51100000000E-03 0.  1.
         11   -1    0    0    0    0 -0.00000000000E+00 -0.00000000000E+00 -0.45593999997E+02  0.45594000000E+02  0.51100000000E-03 0. -1.
    9900012    2    1    2    0    0 -0.75017617113E+01  0.92493102815E+01  0.29578622700E+02  0.59301935798E+02  0.49999984990E+02 0.  0.
         12    1    1    2    0    0  0.75017617113E+01 -0.92493102815E+01 -0.29578622700E+02  0.31886064202E+02  0.00000000000E+00 0. -1.
         11    1    3    3    0    0 -0.89240646456E+01  0.81017818152E+01  0.31608157242E+02  0.33828292935E+02  0.51100000000E-03 0.  1.
        -11    1    3    3    0    0  0.56156490797E+01  0.12046665193E+02  0.12334241104E+01  0.13348370394E+02  0.51100000000E-03 0. -1.
        -12    1    3    3    0    0 -0.41933461453E+01 -0.10899136727E+02 -0.32629586521E+01  0.12125272469E+02  0.00000000000E+00 0.  1.
</event>
<event>
 7    1  0.5662448E-012  0.5930195E+02  0.7816164E-02  0.1266605E+00
        -11   -1    0    0    0    0  0.00000000000E+00  0.00000000000E+00  0.45593999997E+02  0.45594000000E+02  0.51100000000E-03 0. -1.
         11   -1    0    0    0    0 -0.00000000000E+00 -0.00000000000E+00 -0.45593999997E+02  0.45594000000E+02  0.51100000000E-03 0.  1.
    9900012    2    1    2    0    0 -0.69383742047E+01  0.72965966720E+01 -0.30254571102E+02  0.59301946118E+02  0.50000003812E+02 0.  0.
         12    1    1    2    0    0  0.69383742047E+01 -0.72965966720E+01  0.30254571102E+02  0.31886053882E+02  0.00000000000E+00 0. -1.
         11    1    3    3    0    0  0.12060110646E+02  0.10123097452E+02  0.13766791904E+01  0.15805651415E+02  0.51100000000E-03 0. -1.
        -11    1    3    3    0    0  0.25319855427E+01  0.14689384862E+01 -0.16678010276E+02  0.16932948890E+02  0.51100000000E-03 0.  1.
         12    1    3    3    0    0 -0.21530470393E+02 -0.42954392659E+01 -0.14953240016E+02  0.26563345814E+02  0.00000000000E+00 0. -1.
</event>
<event>
 7    1  0.5662448E-012  0.5930193E+02  0.7816164E-02  0.1266605E+00
        -11   -1    0    0    0    0  0.00000000000E+00  0.00000000000E+00  0.45593999997E+02  0.45594000000E+02  0.51100000000E-03 0.  1.
         11   -1    0    0    0    0 -0.00000000000E+00 -0.00000000000E+00 -0.45593999997E+02  0.45594000000E+02  0.51100000000E-03 0. -1.
    9900012    2    1    2    0    0  0.12751855404E+02 -0.21602276026E+02  0.19683833140E+02  0.59301930426E+02  0.49999975194E+02 0.  0.
         12    1    1    2    0    0 -0.12751855404E+02  0.21602276026E+02 -0.19683833140E+02  0.31886069574E+02  0.00000000000E+00 0. -1.
         11    1    3    3    0    0  0.61679318040E+01 -0.13313234298E+02 -0.11899308377E+02  0.18891244806E+02  0.51100000000E-03 0. -1.
        -11    1    3    3    0    0  0.63985431736E+01 -0.13601044617E+02  0.96949170582E+01  0.17886340778E+02  0.51100000000E-03 0.  1.
         12    1    3    3    0    0  0.18538042666E+00  0.53120028882E+01  0.21888224459E+02  0.22524344842E+02  0.00000000000E+00 0. -1.
</event>
<event>
 7    1  0.5662448E-012  0.5930192E+02  0.7816164E-02  0.1266605E+00
        -11   -1    0    0    0    0  0.00000000000E+00  0.00000000000E+00  0.45593999997E+02  0.45594000000E+02  0.51100000000E-03 0. -1.
         11   -1    0    0    0    0 -0.00000000000E+00 -0.00000000000E+00 -0.45593999997E+02  0.45594000000E+02  0.51100000000E-03 0.  1.
    9900012    2    1    2    0    0  0.25239014455E+02  0.11182377685E+02 -0.15958342847E+02  0.59301919530E+02  0.49999955322E+02 0.  0.
         12    1    1    2    0    0 -0.25239014455E+02 -0.11182377685E+02  0.15958342847E+02  0.31886080470E+02  0.00000000000E+00 0. -1.
         11    1    3    3    0    0 -0.64267161800E+01  0.12485885445E+02 -0.12864542481E+02  0.19044591613E+02  0.51100000000E-03 0. -1.
        -11    1    3    3    0    0  0.15041701017E+02  0.29010280030E+01 -0.13313184998E+02  0.20295556853E+02  0.51100000000E-03 0.  1.
         12    1    3    3    0    0  0.16624029618E+02 -0.42045357635E+01  0.10219384632E+02  0.19961771063E+02  0.00000000000E+00 0. -1.
</event>
<event>
 7    1  0.5662448E-012  0.5930205E+02  0.7816164E-02  0.1266604E+00
        -11   -1    0    0    0    0  0.00000000000E+00  0.00000000000E+00  0.45593999997E+02  0.45594000000E+02  0.51100000000E-03 0.  1.
         11   -1    0    0    0    0 -0.00000000000E+00 -0.00000000000E+00 -0.45593999997E+02  0.45594000000E+02  0.51100000000E-03 0. -1.
    9900012    2    1    2    0    0 -0.26196481750E+02 -0.10401036642E+02  0.14908944071E+02  0.59302049605E+02  0.50000192547E+02 0.  0.
         12    1    1    2    0    0  0.26196481750E+02  0.10401036642E+02 -0.14908944071E+02  0.31885950395E+02  0.00000000000E+00 0. -1.
         11    1    3    3    0    0 -0.52170008427E+01  0.78287477430E+00  0.17302518815E+02  0.18088868077E+02  0.51100000000E-03 0. -1.
        -11    1    3    3    0    0 -0.20482110125E+01  0.87625933223E+01  0.77759054590E+01  0.11892977594E+02  0.51100000000E-03 0.  1.
        -12    1    3    3    0    0 -0.18931269894E+02 -0.19946504739E+02 -0.10169480204E+02  0.29320203934E+02  0.00000000000E+00 0.  1.
</event>
<event>
 7    1  0.5662448E-012  0.5930192E+02  0.7816164E-02  0.1266605E+00
        -11   -1    0    0    0    0  0.00000000000E+00  0.00000000000E+00  0.45593999997E+02  0.45594000000E+02  0.51100000000E-03 0.  1.
         11   -1    0    0    0    0 -0.00000000000E+00 -0.00000000000E+00 -0.45593999997E+02  0.45594000000E+02  0.51100000000E-03 0. -1.
    9900012    2    1    2    0    0  0.17893363355E+02  0.87059942685E+01  0.24914962472E+02  0.59301919286E+02  0.49999954876E+02 0.  0.
         12    1    1    2    0    0 -0.17893363355E+02 -0.87059942685E+01 -0.24914962472E+02  0.31886080714E+02  0.00000000000E+00 0. -1.
         11    1    3    3    0    0  0.78365273397E+01 -0.25262376722E+01 -0.82200171513E+01  0.11634505565E+02  0.51100000000E-03 0. -1.
        -11    1    3    3    0    0 -0.42030213888E+01  0.17963130280E+02  0.19150990386E+02  0.26591349557E+02  0.51100000000E-03 0.  1.
        -12    1    3    3    0    0  0.14259857404E+02 -0.67308983390E+01  0.13983989237E+02  0.21076064163E+02  0.00000000000E+00 0.  1.
</event>
<event>
 7    1  0.7796659E-012  0.5930195E+02  0.7816164E-02  0.1266605E+00
        -11   -1    0    0    0    0  0.00000000000E+00  0.00000000000E+00  0.45593999997E+02  0.45594000000E+02  0.51100000000E-03 0. -1.
         11   -1    0    0    0    0 -0.00000000000E+00 -0.00000000000E+00 -0.45593999997E+02  0.45594000000E+02  0.51100000000E-03 0.  1.
    9900012    2    1    2    0    0 -0.99100223904E+01  0.15283951960E+01 -0.30268390037E+02  0.59301953348E+02  0.50000016999E+02 0.  0.
         12    1    1    2    0    0  0.99100223904E+01 -0.15283951960E+01  0.30268390037E+02  0.31886046652E+02  0.00000000000E+00 0. -1.
         11    1    3    3    0    0 -0.10031812647E+02 -0.12130571503E+01 -0.20542412962E+01  0.10311579908E+02  0.51100000000E-03 0. -1.
        -11    1    3    3    0    0 -0.65996270923E+01  0.15543416715E+01 -0.37140067807E+02  0.37753883148E+02  0.51100000000E-03 0.  1.
         12    1    3    3    0    0  0.67214173488E+01  0.11871106747E+01  0.89259190660E+01  0.11236490293E+02  0.00000000000E+00 0. -1.
</event>
<event>
 7    1  0.5662448E-012  0.5930198E+02  0.7816164E-02  0.1266605E+00
        -11   -1    0    0    0    0  0.00000000000E+00  0.00000000000E+00  0.45593999997E+02  0.45594000000E+02  0.51100000000E-03 0.  1.
         11   -1    0    0    0    0 -0.00000000000E+00 -0.00000000000E+00 -0.45593999997E+02  0.45594000000E+02  0.51100000000E-03 0. -1.
    9900012    2    1    2    0    0 -0.28690449835E+02 -0.13976933726E+01  0.13842798310E+02  0.59301976047E+02  0.50000058396E+02 0.  0.
         12    1    1    2    0    0  0.28690449835E+02  0.13976933726E+01 -0.13842798310E+02  0.31886023953E+02  0.00000000000E+00 0. -1.
         11    1    3    3    0    0 -0.62807505413E+01 -0.65174794300E+00 -0.94892615282E+01  0.11398187898E+02  0.51100000000E-03 0. -1.
        -11    1    3    3    0    0 -0.18324743068E+02 -0.16675781056E+02  0.17967373019E+02  0.30605626539E+02  0.51100000000E-03 0.  1.
         12    1    3    3    0    0 -0.40849562251E+01  0.15929835627E+02  0.53646868184E+01  0.17298161611E+02  0.00000000000E+00 0. -1.
</event>
<event>
 7    1  0.5662448E-012  0.5930195E+02  0.7816164E-02  0.1266605E+00
        -11   -1    0    0    0    0  0.00000000000E+00  0.00000000000E+00  0.45593999997E+02  0.45594000000E+02  0.51100000000E-03 0. -1.
         11   -1    0    0    0    0 -0.00000000000E+00 -0.00000000000E+00 -0.45593999997E+02  0.45594000000E+02  0.51100000000E-03 0.  1.
    9900012    2    1    2    0    0  0.24161045917E+01  0.18228062208E+02 -0.26050342081E+02  0.59301950765E+02  0.50000012288E+02 0.  0.
         12    1    1    2    0    0 -0.24161045917E+01 -0.18228062208E+02  0.26050342081E+02  0.31886049235E+02  0.00000000000E+00 0. -1.
         11    1    3    3    0    0  0.18990021325E+02  0.15160253028E+02  0.18916165211E+00  0.24299999263E+02  0.51100000000E-03 0. -1.
        -11    1    3    3    0    0 -0.59203773787E+00  0.63886372025E+01 -0.10631486015E+02  0.12417475151E+02  0.51100000000E-03 0.  1.
        -12    1    3    3    0    0 -0.15981878995E+02 -0.33208280221E+01 -0.15608017718E+02  0.22584476351E+02  0.00000000000E+00 0.  1.
</event>
<event>
 7    1  0.5662448E-012  0.5930194E+02  0.7816164E-02  0.1266605E+00
        -11   -1    0    0    0    0  0.00000000000E+00  0.00000000000E+00  0.45593999997E+02  0.45594000000E+02  0.51100000000E-03 0. -1.
         11   -1    0    0    0    0 -0.00000000000E+00 -0.00000000000E+00 -0.45593999997E+02  0.45594000000E+02  0.51100000000E-03 0.  1.
    9900012    2    1    2    0    0 -0.20456295894E+02  0.20259639566E+02 -0.13704287924E+02  0.59301944356E+02  0.50000000599E+02 0.  0.
         12    1    1    2    0    0  0.20456295894E+02 -0.20259639566E+02  0.13704287924E+02  0.31886055644E+02  0.00000000000E+00 0. -1.
         11    1    3    3    0    0 -0.10214479945E+02  0.48126424175E+01  0.10385802321E+02  0.15341512888E+02  0.51100000000E-03 0. -1.
        -11    1    3    3    0    0 -0.13307244077E+02 -0.63088673954E+01 -0.83075861720E+01  0.16908593703E+02  0.51100000000E-03 0.  1.
         12    1    3    3    0    0  0.30654281285E+01  0.21755864544E+02 -0.15782504072E+02  0.27051837765E+02  0.00000000000E+00 0. -1.
</event>
<event>
 7    1  0.5662448E-012  0.5930195E+02  0.7816164E-02  0.1266605E+00
        -11   -1    0    0    0    0  0.00000000000E+00  0.00000000000E+00  0.45593999997E+02  0.45594000000E+02  0.51100000000E-03 0.  1.
         11   -1    0    0    0    0 -0.00000000000E+00 -0.00000000000E+00 -0.45593999997E+02  0.45594000000E+02  0.51100000000E-03 0. -1.
    9900012    2    1    2    0    0 -0.30482816922E+02  0.13567133223E+00  0.93541280732E+01  0.59301949033E+02  0.50000009129E+02 0.  0.
         12    1    1    2    0    0  0.30482816922E+02 -0.13567133223E+00 -0.93541280732E+01  0.31886050967E+02  0.00000000000E+00 0. -1.
         11    1    3    3    0    0 -0.11528648097E+02  0.18605970432E+01  0.75917477993E+01  0.13928610239E+02  0.51100000000E-03 0. -1.
        -11    1    3    3    0    0 -0.27838120906E+02  0.10836670399E+02  0.24425297307E+01  0.29972660086E+02  0.51100000000E-03 0.  1.
         12    1    3    3    0    0  0.88839520799E+01 -0.12561596110E+02 -0.68014945683E+00  0.15400678708E+02  0.00000000000E+00 0. -1.
</event>
<event>
 7    1  0.5662448E-012  0.5930194E+02  0.7816164E-02  0.1266605E+00
        -11   -1    0    0    0    0  0.00000000000E+00  0.00000000000E+00  0.45593999997E+02  0.45594000000E+02  0.51100000000E-03 0.  1.
         11   -1    0    0    0    0 -0.00000000000E+00 -0.00000000000E+00 -0.45593999997E+02  0.45594000000E+02  0.51100000000E-03 0. -1.
    9900012    2    1    2    0    0  0.29046822823E+02  0.21390389089E+01  0.12977966343E+02  0.59301936995E+02  0.49999987175E+02 0.  0.
         12    1    1    2    0    0 -0.29046822823E+02 -0.21390389089E+01 -0.12977966343E+02  0.31886063005E+02  0.00000000000E+00 0. -1.
         11    1    3    3    0    0  0.22705187694E+02  0.24744548927E+01  0.10149165739E+02  0.24993079857E+02  0.51100000000E-03 0. -1.
        -11    1    3    3    0    0  0.19000702560E+02 -0.64386351667E+01  0.27918109672E+01  0.20255293859E+02  0.51100000000E-03 0.  1.
         12    1    3    3    0    0 -0.12659067432E+02  0.61032191829E+01  0.36989636038E-01  0.14053563280E+02  0.00000000000E+00 0. -1.
</event>
<event>
 7    1  0.5662448E-012  0.5930195E+02  0.7816164E-02  0.1266605E+00
        -11   -1    0    0    0    0  0.00000000000E+00  0.00000000000E+00  0.45593999997E+02  0.45594000000E+02  0.51100000000E-03 0.  1.
         11   -1    0    0    0    0 -0.00000000000E+00 -0.00000000000E+00 -0.45593999997E+02  0.45594000000E+02  0.51100000000E-03 0. -1.
    9900012    2    1    2    0    0  0.16307134038E+02 -0.26664526025E+02  0.63087762871E+01  0.59301949336E+02  0.50000009681E+02 0.  0.
         12    1    1    2    0    0 -0.16307134038E+02  0.26664526025E+02 -0.63087762871E+01  0.31886050664E+02  0.00000000000E+00 0. -1.
         11    1    3    3    0    0  0.41580843699E+01  0.88934083386E+01  0.47169182876E+01  0.10891817842E+02  0.51100000000E-03 0. -1.
        -11    1    3    3    0    0 -0.42551058582E+01 -0.18533836683E+02  0.12099258486E+02  0.22538879391E+02  0.51100000000E-03 0.  1.
         12    1    3    3    0    0  0.16404155527E+02 -0.17024097681E+02 -0.10507400486E+02  0.25871252103E+02  0.00000000000E+00 0. -1.
</event>
<event>
 7    1  0.5662448E-012  0.5930192E+02  0.7816164E-02  0.1266605E+00
        -11   -1    0    0    0    0  0.00000000000E+00  0.00000000000E+00  0.45593999997E+02  0.45594000000E+02  0.51100000000E-03 0.  1.
         11   -1    0    0    0    0 -0.00000000000E+00 -0.00000000000E+00 -0.45593999997E+02  0.45594000000E+02  0.51100000000E-03 0. -1.
    9900012    2    1    2    0    0 -0.19344334643E+02 -0.25039897684E+02 -0.39398056734E+01  0.59301924237E+02  0.49999963907E+02 0.  0.
         12    1    1    2    0    0  0.19344334643E+02  0.25039897684E+02  0.39398056734E+01  0.31886075763E+02  0.00000000000E+00 0. -1.
         11    1    3    3    0    0 -0.30932870288E+01  0.23086362431E+01 -0.18280827502E+01  0.42708445006E+01  0.51100000000E-03 0. -1.
        -11    1    3    3    0    0 -0.84109952548E+01 -0.23963011497E+02  0.19353121343E+02  0.31929830366E+02  0.51100000000E-03 0.  1.
         12    1    3    3    0    0 -0.78400523595E+01 -0.33855224298E+01 -0.21464844267E+02  0.23101249371E+02  0.00000000000E+00 0. -1.
</event>
<event>
 7    1  0.5662448E-012  0.5930194E+02  0.7816164E-02  0.1266605E+00
        -11   -1    0    0    0    0  0.00000000000E+00  0.00000000000E+00  0.45593999997E+02  0.45594000000E+02  0.51100000000E-03 0.  1.
         11   -1    0    0    0    0 -0.00000000000E+00 -0.00000000000E+00 -0.45593999997E+02  0.45594000000E+02  0.51100000000E-03 0. -1.
    9900012    2    1    2    0    0 -0.49383969375E+01  0.26647406059E+02  0.16800262264E+02  0.59301939940E+02  0.49999992545E+02 0.  0.
         12    1    1    2    0    0  0.49383969375E+01 -0.26647406059E+02 -0.16800262264E+02  0.31886060060E+02  0.00000000000E+00 0. -1.
         11    1    3    3    0    0  0.41390127360E+01  0.19901520954E+02  0.11883499135E+02  0.23546114641E+02  0.51100000000E-03 0. -1.
        -11    1    3    3    0    0 -0.19216448334E+01 -0.20045955395E+01  0.18144718458E+02  0.18355978054E+02  0.51100000000E-03 0.  1.
         12    1    3    3    0    0 -0.71557648401E+01  0.87504806448E+01 -0.13227955329E+02  0.17399847245E+02  0.00000000000E+00 0. -1.
</event>
<event>
 7    1  0.6056928E-012  0.5930190E+02  0.7816164E-02  0.1266605E+00
        -11   -1    0    0    0    0  0.00000000000E+00  0.00000000000E+00  0.45593999997E+02  0.45594000000E+02  0.51100000000E-03 0.  1.
         11   -1    0    0    0    0 -0.00000000000E+00 -0.00000000000E+00 -0.45593999997E+02  0.45594000000E+02  0.51100000000E-03 0. -1.
    9900012    2    1    2    0    0  0.15534582384E+02 -0.26926170987E+02  0.70979886892E+01  0.59301899936E+02  0.49999919587E+02 0.  0.
         12    1    1    2    0    0 -0.15534582384E+02  0.26926170987E+02 -0.70979886892E+01  0.31886100064E+02  0.00000000000E+00 0. -1.
         11    1    3    3    0    0 -0.16466529175E+01 -0.12610932045E+02  0.64025274409E-01  0.12718143433E+02  0.51100000000E-03 0. -1.
        -11    1    3    3    0    0  0.14876229307E+02 -0.22940538751E+02  0.17778824746E+02  0.32613756701E+02  0.51100000000E-03 0.  1.
         12    1    3    3    0    0  0.23050059944E+01  0.86252998085E+01 -0.10744861331E+02  0.13969999802E+02  0.00000000000E+00 0. -1.
</event>
<event>
 7    1  0.5662448E-012  0.5930195E+02  0.7816164E-02  0.1266605E+00
        -11   -1    0    0    0    0  0.00000000000E+00  0.00000000000E+00  0.45593999997E+02  0.45594000000E+02  0.51100000000E-03 0.  1.
         11   -1    0    0    0    0 -0.00000000000E+00 -0.00000000000E+00 -0.45593999997E+02  0.45594000000E+02  0.51100000000E-03 0. -1.
    9900012    2    1    2    0    0  0.73346012289E-01 -0.17934910257E+02  0.26363871896E+02  0.59301950905E+02  0.50000012542E+02 0.  0.
         12    1    1    2    0    0 -0.73346012289E-01  0.17934910257E+02 -0.26363871896E+02  0.31886049095E+02  0.00000000000E+00 0. -1.
         11    1    3    3    0    0 -0.55366796197E+01  0.49308505332E+01  0.21317867725E+02  0.22570325491E+02  0.51100000000E-03 0. -1.
        -11    1    3    3    0    0 -0.60819367995E+01 -0.52414645232E+01  0.12025869452E+02  0.14459752485E+02  0.51100000000E-03 0.  1.
        -12    1    3    3    0    0  0.11691962432E+02 -0.17624296267E+02 -0.69798652814E+01  0.22271872929E+02  0.00000000000E+00 0.  1.
</event>
<event>
 7    1  0.5662448E-012  0.5930191E+02  0.7816164E-02  0.1266605E+00
        -11   -1    0    0    0    0  0.00000000000E+00  0.00000000000E+00  0.45593999997E+02  0.45594000000E+02  0.51100000000E-03 0.  1.
         11   -1    0    0    0    0 -0.00000000000E+00 -0.00000000000E+00 -0.45593999997E+02  0.45594000000E+02  0.51100000000E-03 0. -1.
    9900012    2    1    2    0    0  0.18462131713E+02 -0.93094047495E+01  0.24273593915E+02  0.59301910781E+02  0.49999939366E+02 0.  0.
         12    1    1    2    0    0 -0.18462131713E+02  0.93094047495E+01 -0.24273593915E+02  0.31886089219E+02  0.00000000000E+00 0. -1.
         11    1    3    3    0    0 -0.68373645057E+01  0.75159952615E+01  0.90323000823E+01  0.13594932261E+02  0.51100000000E-03 0. -1.
        -11    1    3    3    0    0  0.25108247034E+01  0.81581462472E+01 -0.18737354153E+00  0.85378393044E+01  0.51100000000E-03 0.  1.
        -12    1    3    3    0    0  0.22788671515E+02 -0.24983546258E+02  0.15428667374E+02  0.37169139215E+02  0.00000000000E+00 0.  1.
</event>
<event>
 7    1  0.5662448E-012  0.5930193E+02  0.7816164E-02  0.1266605E+00
        -11   -1    0    0    0    0  0.00000000000E+00  0.00000000000E+00  0.45593999997E+02  0.45594000000E+02  0.51100000000E-03 0.  1.
         11   -1    0    0    0    0 -0.00000000000E+00 -0.00000000000E+00 -0.45593999997E+02  0.45594000000E+02  0.51100000000E-03 0. -1.
    9900012    2    1    2    0    0 -0.10207028300E+02  0.30208088752E+02 -0.96906026717E-01  0.59301930259E+02  0.49999974889E+02 0.  0.
         12    1    1    2    0    0  0.10207028300E+02 -0.30208088752E+02  0.96906026717E-01  0.31886069741E+02  0.00000000000E+00 0. -1.
         11    1    3    3    0    0 -0.10376847518E+02 -0.87709988407E+01 -0.52130276946E+01  0.14552836255E+02  0.51100000000E-03 0. -1.
        -11    1    3    3    0    0  0.19701462885E+01 -0.15045233158E+01  0.33756830734E+01  0.41881145255E+01  0.51100000000E-03 0.  1.
         12    1    3    3    0    0 -0.18003270705E+01  0.40483610908E+02  0.17404385944E+01  0.40560979478E+02  0.00000000000E+00 0. -1.
</event>
<event>
 7    1  0.5662448E-012  0.5930203E+02  0.7816164E-02  0.1266604E+00
        -11   -1    0    0    0    0  0.00000000000E+00  0.00000000000E+00  0.45593999997E+02  0.45594000000E+02  0.51100000000E-03 0. -1.
         11   -1    0    0    0    0 -0.00000000000E+00 -0.00000000000E+00 -0.45593999997E+02  0.45594000000E+02  0.51100000000E-03 0.  1.
    9900012    2    1    2    0    0  0.20037243007E+02  0.10026054707E+02  0.22687045533E+02  0.59302032627E+02  0.50000161583E+02 0.  0.
         12    1    1    2    0    0 -0.20037243007E+02 -0.10026054707E+02 -0.22687045533E+02  0.31885967373E+02  0.00000000000E+00 0. -1.
         11    1    3    3    0    0  0.38183677496E+01  0.95512934377E+01 -0.27240303494E+01  0.10640840202E+02  0.51100000000E-03 0. -1.
        -11    1    3    3    0    0  0.24913449012E+01  0.18594183097E+02  0.11921497651E+02  0.22227742822E+02  0.51100000000E-03 0.  1.
        -12    1    3    3    0    0  0.13727530356E+02 -0.18119421827E+02  0.13489578232E+02  0.26433449603E+02  0.00000000000E+00 0.  1.
</event>
<event>
 7    1  0.5662448E-012  0.5930195E+02  0.7816164E-02  0.1266605E+00
        -11   -1    0    0    0    0  0.00000000000E+00  0.00000000000E+00  0.45593999997E+02  0.45594000000E+02  0.51100000000E-03 0.  1.
         11   -1    0    0    0    0 -0.00000000000E+00 -0.00000000000E+00 -0.45593999997E+02  0.45594000000E+02  0.51100000000E-03 0. -1.
    9900012    2    1    2    0    0  0.11245365528E+02 -0.11066888799E+02  0.27708953592E+02  0.59301946893E+02  0.50000005226E+02 0.  0.
         12    1    1    2    0    0 -0.11245365528E+02  0.11066888799E+02 -0.27708953592E+02  0.31886053107E+02  0.00000000000E+00 0. -1.
         11    1    3    3    0    0  0.37483933466E+01  0.14520580220E+02  0.14710499653E+02  0.21007058407E+02  0.51100000000E-03 0. -1.
        -11    1    3    3    0    0  0.75814061087E+01 -0.12976024159E+02  0.19084544359E+02  0.24291454366E+02  0.51100000000E-03 0.  1.
         12    1    3    3    0    0 -0.84433927686E-01 -0.12611444861E+02 -0.60860904196E+01  0.14003434120E+02  0.00000000000E+00 0. -1.
</event>
<event>
 7    1  0.5662448E-012  0.5930167E+02  0.7816164E-02  0.1266606E+00
        -11   -1    0    0    0    0  0.00000000000E+00  0.00000000000E+00  0.45593999997E+02  0.45594000000E+02  0.51100000000E-03 0.  1.
         11   -1    0    0    0    0 -0.00000000000E+00 -0.00000000000E+00 -0.45593999997E+02  0.45594000000E+02  0.51100000000E-03 0. -1.
    9900012    2    1    2    0    0 -0.19807535777E+02 -0.25298967776E+01  0.24859592295E+02  0.59301667813E+02  0.49999496248E+02 0.  0.
         12    1    1    2    0    0  0.19807535777E+02  0.25298967776E+01 -0.24859592295E+02  0.31886332187E+02  0.00000000000E+00 0. -1.
         11    1    3    3    0    0  0.27974710379E+00  0.10697506807E+02 -0.73557611171E+01  0.12985458490E+02  0.51100000000E-03 0. -1.
        -11    1    3    3    0    0 -0.65955101170E+01  0.62721552674E+01  0.56740629315E+01  0.10725468559E+02  0.51100000000E-03 0.  1.
        -12    1    3    3    0    0 -0.13491772764E+02 -0.19499558852E+02  0.26541290481E+02  0.35590740764E+02  0.00000000000E+00 0.  1.
</event>
<event>
 7    1  0.5662448E-012  0.5930194E+02  0.7816164E-02  0.1266605E+00
        -11   -1    0    0    0    0  0.00000000000E+00  0.00000000000E+00  0.45593999997E+02  0.45594000000E+02  0.51100000000E-03 0.  1.
         11   -1    0    0    0    0 -0.00000000000E+00 -0.00000000000E+00 -0.45593999997E+02  0.45594000000E+02  0.51100000000E-03 0. -1.
    9900012    2    1    2    0    0 -0.61083944818E+01  0.21427753957E+02  0.22809199361E+02  0.59301941945E+02  0.49999996202E+02 0.  0.
         12    1    1    2    0    0  0.61083944818E+01 -0.21427753957E+02 -0.22809199361E+02  0.31886058055E+02  0.00000000000E+00 0. -1.
         11    1    3    3    0    0 -0.53352957684E+01  0.20021119055E+01 -0.55882807051E+01  0.79813980303E+01  0.51100000000E-03 0. -1.
        -11    1    3    3    0    0 -0.17825128447E+02  0.10844151046E+02  0.56334745137E+01  0.21611729487E+02  0.51100000000E-03 0.  1.
         12    1    3    3    0    0  0.17052029734E+02  0.85814910058E+01  0.22764005552E+02  0.29708814428E+02  0.00000000000E+00 0. -1.
</event>
<event>
 7    1  0.5662448E-012  0.5930195E+02  0.7816164E-02  0.1266605E+00
        -11   -1    0    0    0    0  0.00000000000E+00  0.00000000000E+00  0.45593999997E+02  0.45594000000E+02  0.51100000000E-03 0. -1.
         11   -1    0    0    0    0 -0.00000000000E+00 -0.00000000000E+00 -0.45593999997E+02  0.45594000000E+02  0.51100000000E-03 0.  1.
    9900012    2    1    2    0    0 -0.17268649004E+02  0.14841125437E+02 -0.22321626766E+02  0.59301948753E+02  0.50000008618E+02 0.  0.
         12    1    1    2    0    0  0.17268649004E+02 -0.14841125437E+02  0.22321626766E+02  0.31886051247E+02  0.00000000000E+00 0. -1.
         11    1    3    3    0    0 -0.29696951922E+01  0.18883250450E+02 -0.26201593884E+01  0.19294078692E+02  0.51100000000E-03 0. -1.
        -11    1    3    3    0    0 -0.24134862828E+02 -0.16786679399E+01 -0.10649673011E+02  0.26433408129E+02  0.51100000000E-03 0.  1.
        -12    1    3    3    0    0  0.98359090164E+01 -0.23634570734E+01 -0.90517943659E+01  0.13574461933E+02  0.00000000000E+00 0.  1.
</event>
<event>
 7    1  0.5662448E-012  0.5930195E+02  0.7816164E-02  0.1266605E+00
        -11   -1    0    0    0    0  0.00000000000E+00  0.00000000000E+00  0.45593999997E+02  0.45594000000E+02  0.51100000000E-03 0.  1.
         11   -1    0    0    0    0 -0.00000000000E+00 -0.00000000000E+00 -0.45593999997E+02  0.45594000000E+02  0.51100000000E-03 0. -1.
    9900012    2    1    2    0    0 -0.68754106748E+01  0.22927502384E+02  0.21066053148E+02  0.59301949245E+02  0.50000009515E+02 0.  0.
         12    1    1    2    0    0  0.68754106748E+01 -0.22927502384E+02 -0.21066053148E+02  0.31886050755E+02  0.00000000000E+00 0. -1.
         11    1    3    3    0    0 -0.72536582361E+01  0.87612588031E+00  0.17590612837E+02  0.19047645907E+02  0.51100000000E-03 0. -1.
        -11    1    3    3    0    0  0.47401609958E+01  0.11774963128E+02  0.17943862848E+02  0.21979560894E+02  0.51100000000E-03 0.  1.
         12    1    3    3    0    0 -0.43619134345E+01  0.10276413376E+02 -0.14468422537E+02  0.18274742444E+02  0.00000000000E+00 0. -1.
</event>
<event>
 7    1  0.5662448E-012  0.5930217E+02  0.7816164E-02  0.1266604E+00
        -11   -1    0    0    0    0  0.00000000000E+00  0.00000000000E+00  0.45593999997E+02  0.45594000000E+02  0.51100000000E-03 0.  1.
         11   -1    0    0    0    0 -0.00000000000E+00 -0.00000000000E+00 -0.45593999997E+02  0.45594000000E+02  0.51100000000E-03 0. -1.
    9900012    2    1    2    0    0  0.18585134646E+02 -0.25223891435E+02 -0.59206782923E+01  0.59302166776E+02  0.50000406238E+02 0.  0.
         12    1    1    2    0    0 -0.18585134646E+02  0.25223891435E+02  0.59206782923E+01  0.31885833224E+02  0.00000000000E+00 0. -1.
         11    1    3    3    0    0  0.69766058505E+01 -0.45977373860E+01 -0.10726840851E+02  0.13596960439E+02  0.51100000000E-03 0. -1.
        -11    1    3    3    0    0 -0.89220685378E+00 -0.29834495510E+02  0.18905114915E+01  0.29907644330E+02  0.51100000000E-03 0.  1.
         12    1    3    3    0    0  0.12500735649E+02  0.92083414612E+01  0.29156510673E+01  0.15797562008E+02  0.00000000000E+00 0. -1.
</event>
<event>
 7    1  0.5662448E-012  0.5930194E+02  0.7816164E-02  0.1266605E+00
        -11   -1    0    0    0    0  0.00000000000E+00  0.00000000000E+00  0.45593999997E+02  0.45594000000E+02  0.51100000000E-03 0.  1.
         11   -1    0    0    0    0 -0.00000000000E+00 -0.00000000000E+00 -0.45593999997E+02  0.45594000000E+02  0.51100000000E-03 0. -1.
    9900012    2    1    2    0    0  0.21211598007E+02  0.18911479739E+02  0.14461841657E+02  0.59301940036E+02  0.49999992720E+02 0.  0.
         12    1    1    2    0    0 -0.21211598007E+02 -0.18911479739E+02 -0.14461841657E+02  0.31886059964E+02  0.00000000000E+00 0. -1.
         11    1    3    3    0    0 -0.55900946491E+01 -0.46535008574E+01  0.59927599040E+00  0.72981751411E+01  0.51100000000E-03 0. -1.
        -11    1    3    3    0    0  0.15179028456E+02  0.10271301914E+00 -0.86516622551E+01  0.17471826318E+02  0.51100000000E-03 0.  1.
        -12    1    3    3    0    0  0.11622664200E+02  0.23462267578E+02  0.22514227922E+02  0.34531938577E+02  0.00000000000E+00 0.  1.
</event>
<event>
 7    1  0.5662448E-012  0.5930197E+02  0.7816164E-02  0.1266605E+00
        -11   -1    0    0    0    0  0.00000000000E+00  0.00000000000E+00  0.45593999997E+02  0.45594000000E+02  0.51100000000E-03 0.  1.
         11   -1    0    0    0    0 -0.00000000000E+00 -0.00000000000E+00 -0.45593999997E+02  0.45594000000E+02  0.51100000000E-03 0. -1.
    9900012    2    1    2    0    0 -0.29294684501E+02 -0.47663382861E+01  0.11654272679E+02  0.59301974968E+02  0.50000056427E+02 0.  0.
         12    1    1    2    0    0  0.29294684501E+02  0.47663382861E+01 -0.11654272679E+02  0.31886025032E+02  0.00000000000E+00 0. -1.
         11    1    3    3    0    0 -0.21691899555E+02 -0.85385814692E+00 -0.21386337018E+01  0.21813787713E+02  0.51100000000E-03 0. -1.
        -11    1    3    3    0    0 -0.58268573000E+01 -0.16307464311E+02 -0.18896492272E+01  0.17420000939E+02  0.51100000000E-03 0.  1.
         12    1    3    3    0    0 -0.17759276464E+01  0.12394984172E+02  0.15682555608E+02  0.20068186316E+02  0.00000000000E+00 0. -1.
</event>
<event>
 7    1  0.5662448E-012  0.5930195E+02  0.7816164E-02  0.1266605E+00
        -11   -1    0    0    0    0  0.00000000000E+00  0.00000000000E+00  0.45593999997E+02  0.45594000000E+02  0.51100000000E-03 0. -1.
         11   -1    0    0    0    0 -0.00000000000E+00 -0.00000000000E+00 -0.45593999997E+02  0.45594000000E+02  0.51100000000E-03 0.  1.
    9900012    2    1    2    0    0 -0.70294525430E+01 -0.30903421992E+02 -0.35051071338E+01  0.59301945527E+02  0.50000002733E+02 0.  0.
         12    1    1    2    0    0  0.70294525430E+01  0.30903421992E+02  0.35051071338E+01  0.31886054473E+02  0.00000000000E+00 0. -1.
         11    1    3    3    0    0 -0.16670325100E+02 -0.94525557341E+01 -0.14087203604E+02  0.23784445642E+02  0.51100000000E-03 0. -1.
        -11    1    3    3    0    0 -0.53881140233E+01 -0.12779171322E+02 -0.20984002802E+01  0.14026484819E+02  0.51100000000E-03 0.  1.
         12    1    3    3    0    0  0.15028986581E+02 -0.86716949363E+01  0.12680496750E+02  0.21491015065E+02  0.00000000000E+00 0. -1.
</event>
<event>
 7    1  0.5662448E-012  0.5930195E+02  0.7816164E-02  0.1266605E+00
        -11   -1    0    0    0    0  0.00000000000E+00  0.00000000000E+00  0.45593999997E+02  0.45594000000E+02  0.51100000000E-03 0.  1.
         11   -1    0    0    0    0 -0.00000000000E+00 -0.00000000000E+00 -0.45593999997E+02  0.45594000000E+02  0.51100000000E-03 0. -1.
    9900012    2    1    2    0    0 -0.14708583564E+02  0.25088000276E+02 -0.13075550775E+02  0.59301949502E+02  0.50000009983E+02 0.  0.
         12    1    1    2    0    0  0.14708583564E+02 -0.25088000276E+02  0.13075550775E+02  0.31886050498E+02  0.00000000000E+00 0. -1.
         11    1    3    3    0    0 -0.98545147452E-01 -0.64053102745E+01  0.28512888411E+01  0.70119582982E+01  0.51100000000E-03 0. -1.
        -11    1    3    3    0    0 -0.41403628680E+01  0.20808790726E+02  0.91377813907E+01  0.23100810054E+02  0.51100000000E-03 0.  1.
         12    1    3    3    0    0 -0.10469675549E+02  0.10684519825E+02 -0.25064621007E+02  0.29189181150E+02  0.00000000000E+00 0. -1.
</event>
<event>
 7    1  0.5662448E-012  0.5930194E+02  0.7816164E-02  0.1266605E+00
        -11   -1    0    0    0    0  0.00000000000E+00  0.00000000000E+00  0.45593999997E+02  0.45594000000E+02  0.51100000000E-03 0. -1.
         11   -1    0    0    0    0 -0.00000000000E+00 -0.00000000000E+00 -0.45593999997E+02  0.45594000000E+02  0.51100000000E-03 0.  1.
    9900012    2    1    2    0    0 -0.12921098923E+02  0.20896110493E+02 -0.20325314753E+02  0.59301942688E+02  0.49999997556E+02 0.  0.
         12    1    1    2    0    0  0.12921098923E+02 -0.20896110493E+02  0.20325314753E+02  0.31886057312E+02  0.00000000000E+00 0. -1.
         11    1    3    3    0    0 -0.46237855739E+01  0.78365555763E+01  0.11277529795E+02  0.14490468415E+02  0.51100000000E-03 0. -1.
        -11    1    3    3    0    0  0.51806168049E+01  0.16409439195E+01  0.28187776859E+01  0.61218457453E+01  0.51100000000E-03 0.  1.
        -12    1    3    3    0    0 -0.13477930154E+02  0.11418610997E+02 -0.34421622235E+02  0.38689628528E+02  0.00000000000E+00 0.  1.
</event>
<event>
 7    1  0.5662448E-012  0.5930194E+02  0.7816164E-02  0.1266605E+00
        -11   -1    0    0    0    0  0.00000000000E+00  0.00000000000E+00  0.45593999997E+02  0.45594000000E+02  0.51100000000E-03 0. -1.
         11   -1    0    0    0    0 -0.00000000000E+00 -0.00000000000E+00 -0.45593999997E+02  0.45594000000E+02  0.51100000000E-03 0.  1.
    9900012    2    1    2    0    0 -0.29031006484E+02  0.89275308390E+01  0.97067233775E+01  0.59301943124E+02  0.49999998352E+02 0.  0.
         12    1    1    2    0    0  0.29031006484E+02 -0.89275308390E+01 -0.97067233775E+01  0.31886056876E+02  0.00000000000E+00 0. -1.
         11    1    3    3    0    0 -0.17211258279E+02  0.74331927584E+01  0.14585347242E+02  0.23753149698E+02  0.51100000000E-03 0. -1.
        -11    1    3    3    0    0 -0.14884447428E+02 -0.56082383769E+01  0.99937529788E+01  0.18784946414E+02  0.51100000000E-03 0.  1.
        -12    1    3    3    0    0  0.30646992228E+01  0.71025764575E+01 -0.14872376844E+02  0.16763847012E+02  0.00000000000E+00 0.  1.
</event>
<event>
 7    1  0.5662448E-012  0.5930198E+02  0.7816164E-02  0.1266605E+00
        -11   -1    0    0    0    0  0.00000000000E+00  0.00000000000E+00  0.45593999997E+02  0.45594000000E+02  0.51100000000E-03 0. -1.
         11   -1    0    0    0    0 -0.00000000000E+00 -0.00000000000E+00 -0.45593999997E+02  0.45594000000E+02  0.51100000000E-03 0.  1.
    9900012    2    1    2    0    0  0.15660133725E+02 -0.76241877216E+01 -0.26708621270E+02  0.59301976779E+02  0.50000059731E+02 0.  0.
         12    1    1    2    0    0 -0.15660133725E+02  0.76241877216E+01  0.26708621270E+02  0.31886023221E+02  0.00000000000E+00 0. -1.
         11    1    3    3    0    0  0.13426101785E+02  0.21917169630E+01 -0.47123984064E+01  0.14396893116E+02  0.51100000000E-03 0. -1.
        -11    1    3    3    0    0  0.97431682795E+01 -0.22053558655E+02 -0.96516511036E+01  0.25970043257E+02  0.51100000000E-03 0.  1.
         12    1    3    3    0    0 -0.75091363398E+01  0.12237653970E+02 -0.12344571760E+02  0.18935040407E+02  0.00000000000E+00 0. -1.
</event>
<event>
 7    1  0.5662448E-012  0.5930195E+02  0.7816164E-02  0.1266605E+00
        -11   -1    0    0    0    0  0.00000000000E+00  0.00000000000E+00  0.45593999997E+02  0.45594000000E+02  0.51100000000E-03 0.  1.
         11   -1    0    0    0    0 -0.00000000000E+00 -0.00000000000E+00 -0.45593999997E+02  0.45594000000E+02  0.51100000000E-03 0. -1.
    9900012    2    1    2    0    0  0.54526014416E+01 -0.50351887818E+01  0.31010263308E+02  0.59301946325E+02  0.50000004189E+02 0.  0.
         12    1    1    2    0    0 -0.54526014416E+01  0.50351887818E+01 -0.31010263308E+02  0.31886053675E+02  0.00000000000E+00 0. -1.
         11    1    3    3    0    0  0.10534754629E+02 -0.12943300820E+02  0.97267110157E+01  0.19316288429E+02  0.51100000000E-03 0. -1.
        -11    1    3    3    0    0 -0.24172033983E+01 -0.78817880527E+01 -0.46809067871E+01  0.94803134857E+01  0.51100000000E-03 0.  1.
        -12    1    3    3    0    0 -0.26649497894E+01  0.15789900091E+02  0.25964459080E+02  0.30505344410E+02  0.00000000000E+00 0.  1.
</event>
<event>
 7    1  0.5662448E-012  0.5930196E+02  0.7816164E-02  0.1266605E+00
        -11   -1    0    0    0    0  0.00000000000E+00  0.00000000000E+00  0.45593999997E+02  0.45594000000E+02  0.51100000000E-03 0. -1.
         11   -1    0    0    0    0 -0.00000000000E+00 -0.00000000000E+00 -0.45593999997E+02  0.45594000000E+02  0.51100000000E-03 0.  1.
    9900012    2    1    2    0    0 -0.24434103004E+02 -0.19002940123E+02 -0.76539206602E+01  0.59301958784E+02  0.50000026913E+02 0.  0.
         12    1    1    2    0    0  0.24434103004E+02  0.19002940123E+02  0.76539206602E+01  0.31886041216E+02  0.00000000000E+00 0. -1.
         11    1    3    3    0    0  0.40755057350E+01 -0.11719089386E+02  0.37506631380E+01  0.12962032143E+02  0.51100000000E-03 0. -1.
        -11    1    3    3    0    0 -0.48274740468E+01 -0.18138775285E+02 -0.33084488197E+01  0.19059525397E+02  0.51100000000E-03 0.  1.
         12    1    3    3    0    0 -0.23682134692E+02  0.10854924547E+02 -0.80961349785E+01  0.27280401245E+02  0.00000000000E+00 0. -1.
</event>
<event>
 7    1  0.5662448E-012  0.5930195E+02  0.7816164E-02  0.1266605E+00
        -11   -1    0    0    0    0  0.00000000000E+00  0.00000000000E+00  0.45593999997E+02  0.45594000000E+02  0.51100000000E-03 0.  1.
         11   -1    0    0    0    0 -0.00000000000E+00 -0.00000000000E+00 -0.45593999997E+02  0.45594000000E+02  0.51100000000E-03 0. -1.
    9900012    2    1    2    0    0 -0.13848857725E+02  0.14250336666E+02  0.24937063908E+02  0.59301951143E+02  0.50000012976E+02 0.  0.
         12    1    1    2    0    0  0.13848857725E+02 -0.14250336666E+02 -0.24937063908E+02  0.31886048857E+02  0.00000000000E+00 0. -1.
         11    1    3    3    0    0  0.84804291205E+01 -0.11986997541E+00 -0.69478914508E+00  0.85096873677E+01  0.51100000000E-03 0. -1.
        -11    1    3    3    0    0 -0.48512618047E+01  0.56235624020E+01 -0.86066868534E+01  0.11368124473E+02  0.51100000000E-03 0.  1.
        -12    1    3    3    0    0 -0.17478025040E+02  0.87466442391E+01  0.34238539907E+02  0.39424139302E+02  0.00000000000E+00 0.  1.
</event>
<event>
 7    1  0.5662448E-012  0.5930196E+02  0.7816164E-02  0.1266605E+00
        -11   -1    0    0    0    0  0.00000000000E+00  0.00000000000E+00  0.45593999997E+02  0.45594000000E+02  0.51100000000E-03 0.  1.
         11   -1    0    0    0    0 -0.00000000000E+00 -0.00000000000E+00 -0.45593999997E+02  0.45594000000E+02  0.51100000000E-03 0. -1.
    9900012    2    1    2    0    0 -0.27797358615E+02  0.67157644578E+01  0.14104077448E+02  0.59301958557E+02  0.50000026499E+02 0.  0.
         12    1    1    2    0    0  0.27797358615E+02 -0.67157644578E+01 -0.14104077448E+02  0.31886041443E+02  0.00000000000E+00 0. -1.
         11    1    3    3    0    0 -0.25067323066E+02  0.58195986086E+00 -0.46785547282E+00  0.25078441977E+02  0.51100000000E-03 0. -1.
        -11    1    3    3    0    0 -0.97327421555E+01  0.13694229659E+02  0.16713523690E+02  0.23698102671E+02  0.51100000000E-03 0.  1.
        -12    1    3    3    0    0  0.70027066071E+01 -0.75604250620E+01 -0.21415907687E+01  0.10525413909E+02  0.00000000000E+00 0.  1.
</event>
<event>
 7    1  0.5662448E-012  0.5930205E+02  0.7816164E-02  0.1266604E+00
        -11   -1    0    0    0    0  0.00000000000E+00  0.00000000000E+00  0.45593999997E+02  0.45594000000E+02  0.51100000000E-03 0.  1.
         11   -1    0    0    0    0 -0.00000000000E+00 -0.00000000000E+00 -0.45593999997E+02  0.45594000000E+02  0.51100000000E-03 0. -1.
    9900012    2    1    2    0    0  0.59706593217E+00  0.19975176525E+02 -0.24846521531E+02  0.59302050162E+02  0.50000193563E+02 0.  0.
         12    1    1    2    0    0 -0.59706593217E+00 -0.19975176525E+02  0.24846521531E+02  0.31885949838E+02  0.00000000000E+00 0. -1.
         11    1    3    3    0    0 -0.34201355270E+01  0.24555242995E+02 -0.10092142466E+02  0.26767678745E+02  0.51100000000E-03 0. -1.
        -11    1    3    3    0    0 -0.90358327170E+01  0.56190624416E+01 -0.11472395213E+02  0.15647235788E+02  0.51100000000E-03 0.  1.
         12    1    3    3    0    0  0.13053034176E+02 -0.10199128912E+02 -0.32819838515E+01  0.16887135629E+02  0.00000000000E+00 0. -1.
</event>
<event>
 7    1  0.5662448E-012  0.5930194E+02  0.7816164E-02  0.1266605E+00
        -11   -1    0    0    0    0  0.00000000000E+00  0.00000000000E+00  0.45593999997E+02  0.45594000000E+02  0.51100000000E-03 0.  1.
         11   -1    0    0    0    0 -0.00000000000E+00 -0.00000000000E+00 -0.45593999997E+02  0.45594000000E+02  0.51100000000E-03 0. -1.
    9900012    2    1    2    0    0  0.18392618500E+02 -0.22607209755E+02  0.12936235803E+02  0.59301944350E+02  0.50000000587E+02 0.  0.
         12    1    1    2    0    0 -0.18392618500E+02  0.22607209755E+02 -0.12936235803E+02  0.31886055650E+02  0.00000000000E+00 0. -1.
         11    1    3    3    0    0 -0.88452948272E+01 -0.73032417355E+01  0.45000782404E+01  0.12321821491E+02  0.51100000000E-03 0. -1.
        -11    1    3    3    0    0 -0.29538322462E+01  0.40607010355E+01  0.98800003845E+01  0.11082816686E+02  0.51100000000E-03 0.  1.
        -12    1    3    3    0    0  0.30191745573E+02 -0.19364669055E+02 -0.14438428223E+01  0.35897306173E+02  0.00000000000E+00 0.  1.
</event>
<event>
 7    1  0.5662448E-012  0.5930190E+02  0.7816164E-02  0.1266605E+00
        -11   -1    0    0    0    0  0.00000000000E+00  0.00000000000E+00  0.45593999997E+02  0.45594000000E+02  0.51100000000E-03 0.  1.
         11   -1    0    0    0    0 -0.00000000000E+00 -0.00000000000E+00 -0.45593999997E+02  0.45594000000E+02  0.51100000000E-03 0. -1.
    9900012    2    1    2    0    0  0.13459677799E+02  0.24043231115E+02  0.16046283819E+02  0.59301904076E+02  0.49999927137E+02 0.  0.
         12    1    1    2    0    0 -0.13459677799E+02 -0.24043231115E+02 -0.16046283819E+02  0.31886095924E+02  0.00000000000E+00 0. -1.
         11    1    3    3    0    0  0.73272237971E+01 -0.13957574332E+01 -0.70026176025E+01  0.10230982403E+02  0.51100000000E-03 0. -1.
        -11    1    3    3    0    0  0.19889140192E+02  0.20091195270E+02  0.12398914044E+02  0.30870165122E+02  0.51100000000E-03 0.  1.
        -12    1    3    3    0    0 -0.13756686190E+02  0.53477932777E+01  0.10649987378E+02  0.18200756550E+02  0.00000000000E+00 0.  1.
</event>
<event>
 7    1  0.5662448E-012  0.5930194E+02  0.7816164E-02  0.1266605E+00
        -11   -1    0    0    0    0  0.00000000000E+00  0.00000000000E+00  0.45593999997E+02  0.45594000000E+02  0.51100000000E-03 0.  1.
         11   -1    0    0    0    0 -0.00000000000E+00 -0.00000000000E+00 -0.45593999997E+02  0.45594000000E+02  0.51100000000E-03 0. -1.
    9900012    2    1    2    0    0 -0.15141064761E+02 -0.36835433426E+01  0.27819062344E+02  0.59301944061E+02  0.50000000061E+02 0.  0.
         12    1    1    2    0    0  0.15141064761E+02  0.36835433426E+01 -0.27819062344E+02  0.31886055939E+02  0.00000000000E+00 0. -1.
         11    1    3    3    0    0  0.26790776100E+01 -0.19404521868E+02  0.11333853763E+02  0.22631154791E+02  0.51100000000E-03 0. -1.
        -11    1    3    3    0    0 -0.35592042125E+01  0.14412027267E+02  0.16705334435E+02  0.22348213875E+02  0.51100000000E-03 0.  1.
        -12    1    3    3    0    0 -0.14260938159E+02  0.13089512590E+01 -0.22012585344E+00  0.14322575395E+02  0.00000000000E+00 0.  1.
</event>
<event>
 7    1  0.5662448E-012  0.5930195E+02  0.7816164E-02  0.1266605E+00
        -11   -1    0    0    0    0  0.00000000000E+00  0.00000000000E+00  0.45593999997E+02  0.45594000000E+02  0.51100000000E-03 0.  1.
         11   -1    0    0    0    0 -0.00000000000E+00 -0.00000000000E+00 -0.45593999997E+02  0.45594000000E+02  0.51100000000E-03 0. -1.
    9900012    2    1    2    0    0  0.22359326558E+02  0.20766847328E+01  0.22637756885E+02  0.59301950693E+02  0.50000012156E+02 0.  0.
         12    1    1    2    0    0 -0.22359326558E+02 -0.20766847328E+01 -0.22637756885E+02  0.31886049307E+02  0.00000000000E+00 0. -1.
         11    1    3    3    0    0  0.11560564050E+02 -0.12945359559E+02  0.53228133216E+01  0.18153823762E+02  0.51100000000E-03 0. -1.
        -11    1    3    3    0    0  0.12347616919E+02 -0.76789833709E+01  0.76018455281E+01  0.16407878744E+02  0.51100000000E-03 0.  1.
         12    1    3    3    0    0 -0.15488544105E+01  0.22701027663E+02  0.97130980358E+01  0.24740248188E+02  0.00000000000E+00 0. -1.
</event>
<event>
 7    1  0.5662448E-012  0.5930198E+02  0.7816164E-02  0.1266605E+00
        -11   -1    0    0    0    0  0.00000000000E+00  0.00000000000E+00  0.45593999997E+02  0.45594000000E+02  0.51100000000E-03 0.  1.
         11   -1    0    0    0    0 -0.00000000000E+00 -0.00000000000E+00 -0.45593999997E+02  0.45594000000E+02  0.51100000000E-03 0. -1.
    9900012    2    1    2    0    0  0.19959387981E+02  0.18071026557E+02  0.17081547960E+02  0.59301977199E+02  0.50000060496E+02 0.  0.
         12    1    1    2    0    0 -0.19959387981E+02 -0.18071026557E+02 -0.17081547960E+02  0.31886022801E+02  0.00000000000E+00 0. -1.
         11    1    3    3    0    0  0.17674811837E+01  0.64687844806E+01  0.19724361711E+02  0.20833137247E+02  0.51100000000E-03 0. -1.
        -11    1    3    3    0    0  0.74393016088E+01  0.14874145446E+02  0.11635937270E+02  0.20297252218E+02  0.51100000000E-03 0.  1.
         12    1    3    3    0    0  0.10752605189E+02 -0.32719033703E+01 -0.14278751022E+02  0.18171587733E+02  0.00000000000E+00 0. -1.
</event>
<event>
 7    1  0.5662448E-012  0.5930195E+02  0.7816164E-02  0.1266605E+00
        -11   -1    0    0    0    0  0.00000000000E+00  0.00000000000E+00  0.45593999997E+02  0.45594000000E+02  0.51100000000E-03 0.  1.
         11   -1    0    0    0    0 -0.00000000000E+00 -0.00000000000E+00 -0.45593999997E+02  0.45594000000E+02  0.51100000000E-03 0. -1.
    9900012    2    1    2    0    0  0.10255758490E+02 -0.20733449920E+02  0.21946835642E+02  0.59301950974E+02  0.50000012669E+02 0.  0.
         12    1    1    2    0    0 -0.10255758490E+02  0.20733449920E+02 -0.21946835642E+02  0.31886049026E+02  0.00000000000E+00 0. -1.
         11    1    3    3    0    0  0.80803137282E+01 -0.25494671934E+01  0.90361425377E+01  0.12387216198E+02  0.51100000000E-03 0. -1.
        -11    1    3    3    0    0 -0.62962281540E+01  0.59041678685E+01  0.18820433297E+02  0.20705322913E+02  0.51100000000E-03 0.  1.
         12    1    3    3    0    0  0.84716729163E+01 -0.24088150595E+02 -0.59097401927E+01  0.26209411863E+02  0.00000000000E+00 0. -1.
</event>
<event>
 7    1  0.5662448E-012  0.5930196E+02  0.7816164E-02  0.1266605E+00
        -11   -1    0    0    0    0  0.00000000000E+00  0.00000000000E+00  0.45593999997E+02  0.45594000000E+02  0.51100000000E-03 0.  1.
         11   -1    0    0    0    0 -0.00000000000E+00 -0.00000000000E+00 -0.45593999997E+02  0.45594000000E+02  0.51100000000E-03 0. -1.
    9900012    2    1    2    0    0  0.55539946554E+01 -0.12664686147E+02  0.28731142830E+02  0.59301957596E+02  0.50000024746E+02 0.  0.
         12    1    1    2    0    0 -0.55539946554E+01  0.12664686147E+02 -0.28731142830E+02  0.31886042404E+02  0.00000000000E+00 0. -1.
         11    1    3    3    0    0  0.70390915326E+01 -0.39923003720E+01  0.12274183353E+02  0.14701797479E+02  0.51100000000E-03 0. -1.
        -11    1    3    3    0    0 -0.13723619214E+02 -0.14207164167E+02  0.22440530114E+02  0.29895796194E+02  0.51100000000E-03 0.  1.
         12    1    3    3    0    0  0.12238522337E+02  0.55347783916E+01 -0.59835706370E+01  0.14704363924E+02  0.00000000000E+00 0. -1.
</event>
<event>
 7    1  0.5662448E-012  0.5930227E+02  0.7816164E-02  0.1266604E+00
        -11   -1    0    0    0    0  0.00000000000E+00  0.00000000000E+00  0.45593999997E+02  0.45594000000E+02  0.51100000000E-03 0.  1.
         11   -1    0    0    0    0 -0.00000000000E+00 -0.00000000000E+00 -0.45593999997E+02  0.45594000000E+02  0.51100000000E-03 0. -1.
    9900012    2    1    2    0    0 -0.94396603888E+01  0.23241625417E+02  0.19682979386E+02  0.59302266234E+02  0.50000587623E+02 0.  0.
         12    1    1    2    0    0  0.94396603888E+01 -0.23241625417E+02 -0.19682979386E+02  0.31885733766E+02  0.00000000000E+00 0. -1.
         11    1    3    3    0    0 -0.17118650111E+02  0.10733690514E+02 -0.90779323370E+00  0.20225834531E+02  0.51100000000E-03 0. -1.
        -11    1    3    3    0    0  0.43867608604E+01  0.21231735790E+02  0.73706849125E+01  0.22898848701E+02  0.51100000000E-03 0.  1.
        -12    1    3    3    0    0  0.32922288615E+01 -0.87238008862E+01  0.13220087707E+02  0.16177583002E+02  0.00000000000E+00 0.  1.
</event>
<event>
 7    1  0.5662448E-012  0.5930192E+02  0.7816164E-02  0.1266605E+00
        -11   -1    0    0    0    0  0.00000000000E+00  0.00000000000E+00  0.45593999997E+02  0.45594000000E+02  0.51100000000E-03 0.  1.
         11   -1    0    0    0    0 -0.00000000000E+00 -0.00000000000E+00 -0.45593999997E+02  0.45594000000E+02  0.51100000000E-03 0. -1.
    9900012    2    1    2    0    0  0.25050770570E+01 -0.28478849000E+02  0.14120966509E+02  0.59301922371E+02  0.49999960503E+02 0.  0.
         12    1    1    2    0    0 -0.25050770570E+01  0.28478849000E+02 -0.14120966509E+02  0.31886077629E+02  0.00000000000E+00 0. -1.
         11    1    3    3    0    0  0.95985591265E+01 -0.14643617118E+02  0.16996952484E+02  0.24402136251E+02  0.51100000000E-03 0. -1.
        -11    1    3    3    0    0 -0.14545296976E+02 -0.16544572544E+02  0.61637840944E+01  0.22875331242E+02  0.51100000000E-03 0.  1.
         12    1    3    3    0    0  0.74518149063E+01  0.27093406629E+01 -0.90397700690E+01  0.12024454879E+02  0.00000000000E+00 0. -1.
</event>
<event>
 7    1  0.5662448E-012  0.5930195E+02  0.7816164E-02  0.1266605E+00
        -11   -1    0    0    0    0  0.00000000000E+00  0.00000000000E+00  0.45593999997E+02  0.45594000000E+02  0.51100000000E-03 0.  1.
         11   -1    0    0    0    0 -0.00000000000E+00 -0.00000000000E+00 -0.45593999997E+02  0.45594000000E+02  0.51100000000E-03 0. -1.
    9900012    2    1    2    0    0  0.34193534755E+01 -0.12692527231E+02  0.29050434653E+02  0.59301953220E+02  0.50000016765E+02 0.  0.
         12    1    1    2    0    0 -0.34193534755E+01  0.12692527231E+02 -0.29050434653E+02  0.31886046780E+02  0.00000000000E+00 0. -1.
         11    1    3    3    0    0  0.43593990150E+01 -0.61506915616E+01  0.25704934853E+02  0.26787665866E+02  0.51100000000E-03 0. -1.
        -11    1    3    3    0    0 -0.10899644536E+02 -0.80524467604E+01  0.12842288960E+02  0.18669990247E+02  0.51100000000E-03 0.  1.
         12    1    3    3    0    0  0.99595989968E+01  0.15106110907E+01 -0.94967891603E+01  0.13844297107E+02  0.00000000000E+00 0. -1.
</event>
<event>
 7    1  0.5662448E-012  0.5930203E+02  0.7816164E-02  0.1266604E+00
        -11   -1    0    0    0    0  0.00000000000E+00  0.00000000000E+00  0.45593999997E+02  0.45594000000E+02  0.51100000000E-03 0. -1.
         11   -1    0    0    0    0 -0.00000000000E+00 -0.00000000000E+00 -0.45593999997E+02  0.45594000000E+02  0.51100000000E-03 0.  1.
    9900012    2    1    2    0    0 -0.11022077375E+02 -0.29602115684E+02  0.43524347013E+01  0.59302029253E+02  0.50000155430E+02 0.  0.
         12    1    1    2    0    0  0.11022077375E+02  0.29602115684E+02 -0.43524347013E+01  0.31885970747E+02  0.00000000000E+00 0. -1.
         11    1    3    3    0    0 -0.16698100072E+02 -0.75658196215E+01  0.84068485430E+01  0.20167877311E+02  0.51100000000E-03 0. -1.
        -11    1    3    3    0    0 -0.34643393376E+01 -0.16526524286E+02  0.11384809135E+02  0.20365203935E+02  0.51100000000E-03 0.  1.
        -12    1    3    3    0    0  0.91403620344E+01 -0.55097717769E+01 -0.15439222976E+02  0.18768948006E+02  0.00000000000E+00 0.  1.
</event>
<event>
 7    1  0.5662448E-012  0.5930199E+02  0.7816164E-02  0.1266605E+00
        -11   -1    0    0    0    0  0.00000000000E+00  0.00000000000E+00  0.45593999997E+02  0.45594000000E+02  0.51100000000E-03 0.  1.
         11   -1    0    0    0    0 -0.00000000000E+00 -0.00000000000E+00 -0.45593999997E+02  0.45594000000E+02  0.51100000000E-03 0. -1.
    9900012    2    1    2    0    0  0.12160133098E+02 -0.27351822091E+02  0.10987558811E+02  0.59301992766E+02  0.50000088888E+02 0.  0.
         12    1    1    2    0    0 -0.12160133098E+02  0.27351822091E+02 -0.10987558811E+02  0.31886007234E+02  0.00000000000E+00 0. -1.
         11    1    3    3    0    0  0.23020134038E+02 -0.31966826784E+00 -0.40341795787E+00  0.23025887718E+02  0.51100000000E-03 0. -1.
        -11    1    3    3    0    0 -0.63104799651E+01 -0.60674066806E+00 -0.15143575488E+01  0.65179422117E+01  0.51100000000E-03 0.  1.
        -12    1    3    3    0    0 -0.45495209749E+01 -0.26425413155E+02  0.12905334318E+02  0.29758162836E+02  0.00000000000E+00 0.  1.
</event>
<event>
 7    1  0.5662448E-012  0.5930195E+02  0.7816164E-02  0.1266605E+00
        -11   -1    0    0    0    0  0.00000000000E+00  0.00000000000E+00  0.45593999997E+02  0.45594000000E+02  0.51100000000E-03 0.  1.
         11   -1    0    0    0    0 -0.00000000000E+00 -0.00000000000E+00 -0.45593999997E+02  0.45594000000E+02  0.51100000000E-03 0. -1.
    9900012    2    1    2    0    0  0.98027406317E-01 -0.26905318103E-01  0.31885892562E+02  0.59301945403E+02  0.50000002509E+02 0.  0.
         12    1    1    2    0    0 -0.98027406317E-01  0.26905318103E-01 -0.31885892562E+02  0.31886054597E+02  0.00000000000E+00 0. -1.
         11    1    3    3    0    0  0.16336171209E+02 -0.20787533506E+01  0.19921216686E+02  0.25846597064E+02  0.51100000000E-03 0. -1.
        -11    1    3    3    0    0 -0.10922565465E+02 -0.62109855028E+01  0.17979891885E+02  0.21935252214E+02  0.51100000000E-03 0.  1.
         12    1    3    3    0    0 -0.53155783379E+01  0.82628335353E+01 -0.60152160093E+01  0.11520096125E+02  0.00000000000E+00 0. -1.
</event>
<event>
 7    1  0.5662448E-012  0.5930197E+02  0.7816164E-02  0.1266605E+00
        -11   -1    0    0    0    0  0.00000000000E+00  0.00000000000E+00  0.45593999997E+02  0.45594000000E+02  0.51100000000E-03 0. -1.
         11   -1    0    0    0    0 -0.00000000000E+00 -0.00000000000E+00 -0.45593999997E+02  0.45594000000E+02  0.51100000000E-03 0.  1.
    9900012    2    1    2    0    0  0.87913639559E+01 -0.73428260575E+01 -0.29757583460E+02  0.59301969389E+02  0.50000046253E+02 0.  0.
         12    1    1    2    0    0 -0.87913639559E+01  0.73428260575E+01  0.29757583460E+02  0.31886030611E+02  0.00000000000E+00 0. -1.
         11    1    3    3    0    0 -0.60202583547E+01 -0.11015184169E+02  0.13401593672E+01  0.12624334450E+02  0.51100000000E-03 0. -1.
        -11    1    3    3    0    0  0.19096319523E+02 -0.89800136859E+01 -0.22189040076E+02  0.30621292672E+02  0.51100000000E-03 0.  1.
        -12    1    3    3    0    0 -0.42846972122E+01  0.12652371797E+02 -0.89087027514E+01  0.16056342267E+02  0.00000000000E+00 0.  1.
</event>
<event>
 7    1  0.5662448E-012  0.5930206E+02  0.7816164E-02  0.1266604E+00
        -11   -1    0    0    0    0  0.00000000000E+00  0.00000000000E+00  0.45593999997E+02  0.45594000000E+02  0.51100000000E-03 0.  1.
         11   -1    0    0    0    0 -0.00000000000E+00 -0.00000000000E+00 -0.45593999997E+02  0.45594000000E+02  0.51100000000E-03 0. -1.
    9900012    2    1    2    0    0  0.20265076435E+02 -0.91426645013E+01  0.22857191973E+02  0.59302064824E+02  0.50000220304E+02 0.  0.
         12    1    1    2    0    0 -0.20265076435E+02  0.91426645013E+01 -0.22857191973E+02  0.31885935176E+02  0.00000000000E+00 0. -1.
         11    1    3    3    0    0  0.37215216733E+01 -0.24401571256E+02 -0.15671981566E+01  0.24733429072E+02  0.51100000000E-03 0. -1.
        -11    1    3    3    0    0  0.61719357216E+00 -0.39272588342E+00 -0.65992725965E+00  0.98522371783E+00  0.51100000000E-03 0.  1.
        -12    1    3    3    0    0  0.15926361190E+02  0.15651632638E+02  0.25084317389E+02  0.33583412035E+02  0.00000000000E+00 0.  1.
</event>
<event>
 7    1  0.5662448E-012  0.5930200E+02  0.7816164E-02  0.1266605E+00
        -11   -1    0    0    0    0  0.00000000000E+00  0.00000000000E+00  0.45593999997E+02  0.45594000000E+02  0.51100000000E-03 0. -1.
         11   -1    0    0    0    0 -0.00000000000E+00 -0.00000000000E+00 -0.45593999997E+02  0.45594000000E+02  0.51100000000E-03 0.  1.
    9900012    2    1    2    0    0 -0.13553893712E+02  0.28031384637E+02 -0.68738838670E+01  0.59302002465E+02  0.50000106575E+02 0.  0.
         12    1    1    2    0    0  0.13553893712E+02 -0.28031384637E+02  0.68738838670E+01  0.31885997535E+02  0.00000000000E+00 0. -1.
         11    1    3    3    0    0 -0.16219018544E+02  0.64397674263E+01 -0.40410374496E+01  0.17912485896E+02  0.51100000000E-03 0. -1.
        -11    1    3    3    0    0  0.72191980911E+01  0.18111589717E+02 -0.17150663368E+02  0.25967128401E+02  0.51100000000E-03 0.  1.
         12    1    3    3    0    0 -0.45540732592E+01  0.34800274928E+01  0.14317816950E+02  0.15422388169E+02  0.00000000000E+00 0. -1.
</event>
<event>
 7    1  0.5662448E-012  0.5930195E+02  0.7816164E-02  0.1266605E+00
        -11   -1    0    0    0    0  0.00000000000E+00  0.00000000000E+00  0.45593999997E+02  0.45594000000E+02  0.51100000000E-03 0.  1.
         11   -1    0    0    0    0 -0.00000000000E+00 -0.00000000000E+00 -0.45593999997E+02  0.45594000000E+02  0.51100000000E-03 0. -1.
    9900012    2    1    2    0    0 -0.56716554364E+00  0.22646919989E+02  0.22439147409E+02  0.59301952923E+02  0.50000016223E+02 0.  0.
         12    1    1    2    0    0  0.56716554364E+00 -0.22646919989E+02 -0.22439147409E+02  0.31886047077E+02  0.00000000000E+00 0. -1.
         11    1    3    3    0    0 -0.94041964158E+01  0.18235049690E+02  0.54617865397E+01  0.21231746510E+02  0.51100000000E-03 0. -1.
        -11    1    3    3    0    0 -0.41712767668E+01  0.10325953493E+02  0.20520666143E+02  0.23347860815E+02  0.51100000000E-03 0.  1.
         12    1    3    3    0    0  0.13008307639E+02 -0.59140831941E+01 -0.35433052732E+01  0.14722345598E+02  0.00000000000E+00 0. -1.
</event>
<event>
 7    1  0.5662448E-012  0.5930195E+02  0.7816164E-02  0.1266605E+00
        -11   -1    0    0    0    0  0.00000000000E+00  0.00000000000E+00  0.45593999997E+02  0.45594000000E+02  0.51100000000E-03 0.  1.
         11   -1    0    0    0    0 -0.00000000000E+00 -0.00000000000E+00 -0.45593999997E+02  0.45594000000E+02  0.51100000000E-03 0. -1.
    9900012    2    1    2    0    0  0.41566935002E+01  0.89515544149E+01  0.30320157304E+02  0.59301947151E+02  0.50000005697E+02 0.  0.
         12    1    1    2    0    0 -0.41566935002E+01 -0.89515544149E+01 -0.30320157304E+02  0.31886052849E+02  0.00000000000E+00 0. -1.
         11    1    3    3    0    0  0.89685522653E+01  0.70401108810E+01  0.70495205274E+01  0.13404992759E+02  0.51100000000E-03 0. -1.
        -11    1    3    3    0    0  0.81955602612E+01 -0.48730427133E+01  0.28708980734E+02  0.30250939297E+02  0.51100000000E-03 0.  1.
         12    1    3    3    0    0 -0.13007419026E+02  0.67844862472E+01 -0.54383439570E+01  0.15646015095E+02  0.00000000000E+00 0. -1.
</event>
<event>
 7    1  0.5662448E-012  0.5930193E+02  0.7816164E-02  0.1266605E+00
        -11   -1    0    0    0    0  0.00000000000E+00  0.00000000000E+00  0.45593999997E+02  0.45594000000E+02  0.51100000000E-03 0.  1.
         11   -1    0    0    0    0 -0.00000000000E+00 -0.00000000000E+00 -0.45593999997E+02  0.45594000000E+02  0.51100000000E-03 0. -1.
    9900012    2    1    2    0    0  0.73552399194E+00 -0.31669573034E+02  0.36357295516E+01  0.59301931239E+02  0.49999976676E+02 0.  0.
         12    1    1    2    0    0 -0.73552399194E+00  0.31669573034E+02 -0.36357295516E+01  0.31886068761E+02  0.00000000000E+00 0. -1.
         11    1    3    3    0    0 -0.57871467107E+00 -0.73789190352E+01  0.40856119648E+01  0.84543232837E+01  0.51100000000E-03 0. -1.
        -11    1    3    3    0    0  0.68565258465E+01 -0.33441389087E+02  0.10324376772E+02  0.35664144553E+02  0.51100000000E-03 0.  1.
         12    1    3    3    0    0 -0.55422871835E+01  0.91507350884E+01 -0.10774259185E+02  0.15183463401E+02  0.00000000000E+00 0. -1.
</event>
<event>
 7    1  0.5662448E-012  0.5930200E+02  0.7816164E-02  0.1266605E+00
        -11   -1    0    0    0    0  0.00000000000E+00  0.00000000000E+00  0.45593999997E+02  0.45594000000E+02  0.51100000000E-03 0.  1.
         11   -1    0    0    0    0 -0.00000000000E+00 -0.00000000000E+00 -0.45593999997E+02  0.45594000000E+02  0.51100000000E-03 0. -1.
    9900012    2    1    2    0    0 -0.10174220677E+01 -0.19813048220E+02  0.24962477275E+02  0.59301995247E+02  0.50000093411E+02 0.  0.
         12    1    1    2    0    0  0.10174220677E+01  0.19813048220E+02 -0.24962477275E+02  0.31886004753E+02  0.00000000000E+00 0. -1.
         11    1    3    3    0    0 -0.35599567689E+01 -0.47598327911E+01 -0.67466583324E+01  0.89914792616E+01  0.51100000000E-03 0. -1.
        -11    1    3    3    0    0  0.16211661780E+02 -0.18857828070E+02  0.19897410607E+02  0.31848745758E+02  0.51100000000E-03 0.  1.
         12    1    3    3    0    0 -0.13669127079E+02  0.38046126411E+01  0.11811725000E+02  0.18461770227E+02  0.00000000000E+00 0. -1.
</event>
<event>
 7    1  0.5662448E-012  0.5930198E+02  0.7816164E-02  0.1266605E+00
        -11   -1    0    0    0    0  0.00000000000E+00  0.00000000000E+00  0.45593999997E+02  0.45594000000E+02  0.51100000000E-03 0. -1.
         11   -1    0    0    0    0 -0.00000000000E+00 -0.00000000000E+00 -0.45593999997E+02  0.45594000000E+02  0.51100000000E-03 0.  1.
    9900012    2    1    2    0    0 -0.28843066311E+02  0.13564575032E+02 -0.89327940829E+00  0.59301982404E+02  0.50000069989E+02 0.  0.
         12    1    1    2    0    0  0.28843066311E+02 -0.13564575032E+02  0.89327940829E+00  0.31886017596E+02  0.00000000000E+00 0. -1.
         11    1    3    3    0    0 -0.10489963951E+02  0.37957707337E+01 -0.16341698069E+02  0.19786316363E+02  0.51100000000E-03 0. -1.
        -11    1    3    3    0    0 -0.23978555286E+02  0.37970673131E+00  0.52373275770E+01  0.24546789836E+02  0.51100000000E-03 0.  1.
         12    1    3    3    0    0  0.56254529261E+01  0.93890975666E+01  0.10211091084E+02  0.14968876206E+02  0.00000000000E+00 0. -1.
</event>
<event>
 7    1  0.5662448E-012  0.5930197E+02  0.7816164E-02  0.1266605E+00
        -11   -1    0    0    0    0  0.00000000000E+00  0.00000000000E+00  0.45593999997E+02  0.45594000000E+02  0.51100000000E-03 0.  1.
         11   -1    0    0    0    0 -0.00000000000E+00 -0.00000000000E+00 -0.45593999997E+02  0.45594000000E+02  0.51100000000E-03 0. -1.
    9900012    2    1    2    0    0  0.29224299932E+02 -0.12719912322E+02 -0.92911881411E+00  0.59301966415E+02  0.50000040829E+02 0.  0.
         12    1    1    2    0    0 -0.29224299932E+02  0.12719912322E+02  0.92911881411E+00  0.31886033585E+02  0.00000000000E+00 0. -1.
         11    1    3    3    0    0 -0.21140099268E+01  0.70575884065E+01 -0.47771076064E+01  0.87806235217E+01  0.51100000000E-03 0. -1.
        -11    1    3    3    0    0 -0.42078842882E+01  0.18589503158E+01 -0.61921761498E+01  0.77139504918E+01  0.51100000000E-03 0.  1.
        -12    1    3    3    0    0  0.35546194147E+02 -0.21636451045E+02  0.10040164942E+02  0.42807392401E+02  0.00000000000E+00 0.  1.
</event>
<event>
 7    1  0.5662448E-012  0.5930194E+02  0.7816164E-02  0.1266605E+00
        -11   -1    0    0    0    0  0.00000000000E+00  0.00000000000E+00  0.45593999997E+02  0.45594000000E+02  0.51100000000E-03 0. -1.
         11   -1    0    0    0    0 -0.00000000000E+00 -0.00000000000E+00 -0.45593999997E+02  0.45594000000E+02  0.51100000000E-03 0.  1.
    9900012    2    1    2    0    0  0.79697047394E+01 -0.21120705513E+02 -0.22519338803E+02  0.59301936977E+02  0.49999987141E+02 0.  0.
         12    1    1    2    0    0 -0.79697047394E+01  0.21120705513E+02  0.22519338803E+02  0.31886063023E+02  0.00000000000E+00 0. -1.
         11    1    3    3    0    0 -0.82177019139E+01 -0.40495500112E+01  0.34657970610E+01  0.97949593959E+01  0.51100000000E-03 0. -1.
        -11    1    3    3    0    0  0.26428399102E+01  0.67947196155E+01  0.44388580348E+01  0.85355889287E+01  0.51100000000E-03 0.  1.
        -12    1    3    3    0    0  0.13544566743E+02 -0.23865875117E+02 -0.30423993898E+02  0.40971388652E+02  0.00000000000E+00 0.  1.
</event>
<event>
 7    1  0.5662448E-012  0.5930195E+02  0.7816164E-02  0.1266605E+00
        -11   -1    0    0    0    0  0.00000000000E+00  0.00000000000E+00  0.45593999997E+02  0.45594000000E+02  0.51100000000E-03 0.  1.
         11   -1    0    0    0    0 -0.00000000000E+00 -0.00000000000E+00 -0.45593999997E+02  0.45594000000E+02  0.51100000000E-03 0. -1.
    9900012    2    1    2    0    0  0.20822963499E+02 -0.15639157087E+02 -0.18399488654E+02  0.59301949351E+02  0.50000009708E+02 0.  0.
         12    1    1    2    0    0 -0.20822963499E+02  0.15639157087E+02  0.18399488654E+02  0.31886050649E+02  0.00000000000E+00 0. -1.
         11    1    3    3    0    0  0.15953264172E+02  0.19189806238E+01 -0.29961382075E+01  0.16345212412E+02  0.51100000000E-03 0. -1.
        -11    1    3    3    0    0 -0.12669923049E+02 -0.75518160599E+01 -0.17230064783E+02  0.22681093637E+02  0.51100000000E-03 0.  1.
         12    1    3    3    0    0  0.17539622375E+02 -0.10006321651E+02  0.18267143363E+01  0.20275643302E+02  0.00000000000E+00 0. -1.
</event>
<event>
 7    1  0.5662448E-012  0.5930194E+02  0.7816164E-02  0.1266605E+00
        -11   -1    0    0    0    0  0.00000000000E+00  0.00000000000E+00  0.45593999997E+02  0.45594000000E+02  0.51100000000E-03 0.  1.
         11   -1    0    0    0    0 -0.00000000000E+00 -0.00000000000E+00 -0.45593999997E+02  0.45594000000E+02  0.51100000000E-03 0. -1.
    9900012    2    1    2    0    0  0.12426229401E+02  0.20957357444E+02  0.20569358831E+02  0.59301944570E+02  0.50000000989E+02 0.  0.
         12    1    1    2    0    0 -0.12426229401E+02 -0.20957357444E+02 -0.20569358831E+02  0.31886055430E+02  0.00000000000E+00 0. -1.
         11    1    3    3    0    0 -0.16794043072E+01 -0.26267874267E+01  0.17141963246E+02  0.17423183269E+02  0.51100000000E-03 0. -1.
        -11    1    3    3    0    0  0.10909753856E+02  0.44842537969E+01  0.15181573116E+02  0.19225280852E+02  0.51100000000E-03 0.  1.
        -12    1    3    3    0    0  0.31958798522E+01  0.19099891074E+02 -0.11754177531E+02  0.22653480450E+02  0.00000000000E+00 0.  1.
</event>
<event>
 7    1  0.5662448E-012  0.5930193E+02  0.7816164E-02  0.1266605E+00
        -11   -1    0    0    0    0  0.00000000000E+00  0.00000000000E+00  0.45593999997E+02  0.45594000000E+02  0.51100000000E-03 0.  1.
         11   -1    0    0    0    0 -0.00000000000E+00 -0.00000000000E+00 -0.45593999997E+02  0.45594000000E+02  0.51100000000E-03 0. -1.
    9900012    2    1    2    0    0 -0.23994568822E+02 -0.44781511462E+01  0.20516541789E+02  0.59301926902E+02  0.49999968767E+02 0.  0.
         12    1    1    2    0    0  0.23994568822E+02  0.44781511462E+01 -0.20516541789E+02  0.31886073098E+02  0.00000000000E+00 0. -1.
         11    1    3    3    0    0 -0.92965822573E+00  0.11918827740E+01 -0.57675737676E+00  0.16178684422E+01  0.51100000000E-03 0. -1.
        -11    1    3    3    0    0 -0.17844591454E+02 -0.15597886638E+02  0.33450153525E+02  0.40995564184E+02  0.51100000000E-03 0.  1.
        -12    1    3    3    0    0 -0.52203191426E+01  0.99278527176E+01 -0.12356854359E+02  0.16688494276E+02  0.00000000000E+00 0.  1.
</event>
<event>
 7    1  0.5662448E-012  0.5930198E+02  0.7816164E-02  0.1266605E+00
        -11   -1    0    0    0    0  0.00000000000E+00  0.00000000000E+00  0.45593999997E+02  0.45594000000E+02  0.51100000000E-03 0.  1.
         11   -1    0    0    0    0 -0.00000000000E+00 -0.00000000000E+00 -0.45593999997E+02  0.45594000000E+02  0.51100000000E-03 0. -1.
    9900012    2    1    2    0    0  0.27870707738E+02 -0.11210168117E+02  0.10689911058E+02  0.59301977711E+02  0.50000061430E+02 0.  0.
         12    1    1    2    0    0 -0.27870707738E+02  0.11210168117E+02 -0.10689911058E+02  0.31886022289E+02  0.00000000000E+00 0. -1.
         11    1    3    3    0    0  0.12772465005E+02 -0.22190164487E+02  0.83925790922E+01  0.26943916685E+02  0.51100000000E-03 0. -1.
        -11    1    3    3    0    0 -0.50427644502E+01 -0.45896751346E+01  0.55091481885E+00  0.68409135750E+01  0.51100000000E-03 0.  1.
         12    1    3    3    0    0  0.20141007184E+02  0.15569671505E+02  0.17464171465E+01  0.25517147450E+02  0.00000000000E+00 0. -1.
</event>
<event>
 7    1  0.5662448E-012  0.5930196E+02  0.7816164E-02  0.1266605E+00
        -11   -1    0    0    0    0  0.00000000000E+00  0.00000000000E+00  0.45593999997E+02  0.45594000000E+02  0.51100000000E-03 0.  1.
         11   -1    0    0    0    0 -0.00000000000E+00 -0.00000000000E+00 -0.45593999997E+02  0.45594000000E+02  0.51100000000E-03 0. -1.
    9900012    2    1    2    0    0 -0.19772045507E+02  0.19503073505E+01  0.24939566612E+02  0.59301961283E+02  0.50000031469E+02 0.  0.
         12    1    1    2    0    0  0.19772045507E+02 -0.19503073505E+01 -0.24939566612E+02  0.31886038717E+02  0.00000000000E+00 0. -1.
         11    1    3    3    0    0  0.47892273432E+00  0.63907065274E+01  0.97010236264E+00  0.64816352689E+01  0.51100000000E-03 0. -1.
        -11    1    3    3    0    0  0.75804607225E+01  0.11503199068E+02  0.19473937282E+01  0.13913278411E+02  0.51100000000E-03 0.  1.
        -12    1    3    3    0    0 -0.27831428964E+02 -0.15943598244E+02  0.22022070521E+02  0.38907047603E+02  0.00000000000E+00 0.  1.
</event>
<event>
 7    1  0.5662448E-012  0.5930194E+02  0.7816164E-02  0.1266605E+00
        -11   -1    0    0    0    0  0.00000000000E+00  0.00000000000E+00  0.45593999997E+02  0.45594000000E+02  0.51100000000E-03 0. -1.
         11   -1    0    0    0    0 -0.00000000000E+00 -0.00000000000E+00 -0.45593999997E+02  0.45594000000E+02  0.51100000000E-03 0.  1.
    9900012    2    1    2    0    0  0.95841631693E+01  0.28751424507E+02 -0.99106066445E+01  0.59301941622E+02  0.49999995612E+02 0.  0.
         12    1    1    2    0    0 -0.95841631693E+01 -0.28751424507E+02  0.99106066445E+01  0.31886058378E+02  0.00000000000E+00 0. -1.
         11    1    3    3    0    0 -0.96864608139E+01  0.86545229144E+01  0.11274118480E+02  0.17199826678E+02  0.51100000000E-03 0. -1.
        -11    1    3    3    0    0 -0.35940910090E+01 -0.13436132706E+01 -0.63614785199E+01  0.74290777370E+01  0.51100000000E-03 0.  1.
        -12    1    3    3    0    0  0.22864714992E+02  0.21440514863E+02 -0.14823246605E+02  0.34673037207E+02  0.00000000000E+00 0.  1.
</event>
<event>
 7    1  0.5662448E-012  0.5930195E+02  0.7816164E-02  0.1266605E+00
        -11   -1    0    0    0    0  0.00000000000E+00  0.00000000000E+00  0.45593999997E+02  0.45594000000E+02  0.51100000000E-03 0.  1.
         11   -1    0    0    0    0 -0.00000000000E+00 -0.00000000000E+00 -0.45593999997E+02  0.45594000000E+02  0.51100000000E-03 0. -1.
    9900012    2    1    2    0    0 -0.29989985799E+02  0.36622592690E+01  0.10193560381E+02  0.59301951885E+02  0.50000014329E+02 0.  0.
         12    1    1    2    0    0  0.29989985799E+02 -0.36622592690E+01 -0.10193560381E+02  0.31886048115E+02  0.00000000000E+00 0. -1.
         11    1    3    3    0    0  0.86040208340E-01 -0.22494993322E+01 -0.12037492188E+02  0.12246177714E+02  0.51100000000E-03 0. -1.
        -11    1    3    3    0    0  0.24512286171E+01  0.73239318868E+00 -0.41371054425E+01  0.48642124974E+01  0.51100000000E-03 0.  1.
        -12    1    3    3    0    0 -0.32527254625E+02  0.51793654125E+01  0.26368158011E+02  0.42191561673E+02  0.00000000000E+00 0.  1.
</event>
<event>
 7    1  0.5662448E-012  0.5930194E+02  0.7816164E-02  0.1266605E+00
        -11   -1    0    0    0    0  0.00000000000E+00  0.00000000000E+00  0.45593999997E+02  0.45594000000E+02  0.51100000000E-03 0. -1.
         11   -1    0    0    0    0 -0.00000000000E+00 -0.00000000000E+00 -0.45593999997E+02  0.45594000000E+02  0.51100000000E-03 0.  1.
    9900012    2    1    2    0    0 -0.25367009876E+02  0.16491870736E+02 -0.10062503786E+02  0.59301937639E+02  0.49999988349E+02 0.  0.
         12    1    1    2    0    0  0.25367009876E+02 -0.16491870736E+02  0.10062503786E+02  0.31886062361E+02  0.00000000000E+00 0. -1.
         11    1    3    3    0    0 -0.27431543665E+02 -0.37934976278E+01  0.91580567893E+01  0.29167622743E+02  0.51100000000E-03 0. -1.
        -11    1    3    3    0    0  0.25994042368E+01  0.24110371396E-01 -0.40698660105E+01  0.48292124929E+01  0.51100000000E-03 0.  1.
        -12    1    3    3    0    0 -0.53487044865E+00  0.20261257993E+02 -0.15150694565E+02  0.25305102403E+02  0.00000000000E+00 0.  1.
</event>
<event>
 7    1  0.5662448E-012  0.5930196E+02  0.7816164E-02  0.1266605E+00
        -11   -1    0    0    0    0  0.00000000000E+00  0.00000000000E+00  0.45593999997E+02  0.45594000000E+02  0.51100000000E-03 0. -1.
         11   -1    0    0    0    0 -0.00000000000E+00 -0.00000000000E+00 -0.45593999997E+02  0.45594000000E+02  0.51100000000E-03 0.  1.
    9900012    2    1    2    0    0  0.35021355388E+01  0.31645884826E+02 -0.17299556589E+01  0.59301957187E+02  0.50000023998E+02 0.  0.
         12    1    1    2    0    0 -0.35021355388E+01 -0.31645884826E+02  0.17299556589E+01  0.31886042813E+02  0.00000000000E+00 0. -1.
         11    1    3    3    0    0  0.80460075565E+01 -0.46181540038E+01 -0.12133347879E+02  0.15273628089E+02  0.51100000000E-03 0. -1.
        -11    1    3    3    0    0 -0.77334919328E+01  0.49873169243E+01 -0.32409865737E+01  0.97562401472E+01  0.51100000000E-03 0.  1.
        -12    1    3    3    0    0  0.31896199151E+01  0.31276721905E+02  0.13644378794E+02  0.34272088950E+02  0.00000000000E+00 0.  1.
</event>
<event>
 7    1  0.5662448E-012  0.5930197E+02  0.7816164E-02  0.1266605E+00
        -11   -1    0    0    0    0  0.00000000000E+00  0.00000000000E+00  0.45593999997E+02  0.45594000000E+02  0.51100000000E-03 0.  1.
         11   -1    0    0    0    0 -0.00000000000E+00 -0.00000000000E+00 -0.45593999997E+02  0.45594000000E+02  0.51100000000E-03 0. -1.
    9900012    2    1    2    0    0  0.28520937252E+02  0.42714037012E+01  0.13602587324E+02  0.59301966487E+02  0.50000040960E+02 0.  0.
         12    1    1    2    0    0 -0.28520937252E+02 -0.42714037012E+01 -0.13602587324E+02  0.31886033513E+02  0.00000000000E+00 0. -1.
         11    1    3    3    0    0  0.29506881980E+02 -0.35730525945E+01  0.85028312557E+01  0.30914736432E+02  0.51100000000E-03 0. -1.
        -11    1    3    3    0    0  0.10232412953E+02  0.48223908048E+00  0.97930125770E+01  0.14171729780E+02  0.51100000000E-03 0.  1.
         12    1    3    3    0    0 -0.11218357681E+02  0.73622172152E+01 -0.46932565091E+01  0.14215500274E+02  0.00000000000E+00 0. -1.
</event>
<event>
 7    1  0.5662448E-012  0.5930186E+02  0.7816164E-02  0.1266605E+00
        -11   -1    0    0    0    0  0.00000000000E+00  0.00000000000E+00  0.45593999997E+02  0.45594000000E+02  0.51100000000E-03 0.  1.
         11   -1    0    0    0    0 -0.00000000000E+00 -0.00000000000E+00 -0.45593999997E+02  0.45594000000E+02  0.51100000000E-03 0. -1.
    9900012    2    1    2    0    0  0.27467543336E+02 -0.31065670239E+01  0.15893692131E+02  0.59301856534E+02  0.49999840432E+02 0.  0.
         12    1    1    2    0    0 -0.27467543336E+02  0.31065670239E+01 -0.15893692131E+02  0.31886143466E+02  0.00000000000E+00 0. -1.
         11    1    3    3    0    0  0.10604746718E+02 -0.66128286494E+01  0.94369984625E+00  0.12533184965E+02  0.51100000000E-03 0.  1.
        -11    1    3    3    0    0  0.26832036942E+02  0.80119731610E+01 -0.29523494880E+00  0.28004233328E+02  0.51100000000E-03 0. -1.
        -12    1    3    3    0    0 -0.99692403237E+01 -0.45057115356E+01  0.15245227234E+02  0.18764438241E+02  0.00000000000E+00 0.  1.
</event>
<event>
 7    1  0.5662448E-012  0.5930166E+02  0.7816164E-02  0.1266606E+00
        -11   -1    0    0    0    0  0.00000000000E+00  0.00000000000E+00  0.45593999997E+02  0.45594000000E+02  0.51100000000E-03 0.  1.
         11   -1    0    0    0    0 -0.00000000000E+00 -0.00000000000E+00 -0.45593999997E+02  0.45594000000E+02  0.51100000000E-03 0. -1.
    9900012    2    1    2    0    0 -0.11810897159E+02  0.48970298725E+01  0.29210622920E+02  0.59301659905E+02  0.49999481825E+02 0.  0.
         12    1    1    2    0    0  0.11810897159E+02 -0.48970298725E+01 -0.29210622920E+02  0.31886340095E+02  0.00000000000E+00 0. -1.
         11    1    3    3    0    0 -0.13825235975E+02  0.17527274660E+02  0.25917726733E+01  0.22473535383E+02  0.51100000000E-03 0. -1.
        -11    1    3    3    0    0  0.55465400069E+01 -0.25617556275E+00 -0.16296555572E+01  0.57866665243E+01  0.51100000000E-03 0.  1.
        -12    1    3    3    0    0 -0.35322011910E+01 -0.12374069225E+02  0.28248505804E+02  0.31041457998E+02  0.00000000000E+00 0.  1.
</event>
<event>
 7    1  0.5662448E-012  0.5930191E+02  0.7816164E-02  0.1266605E+00
        -11   -1    0    0    0    0  0.00000000000E+00  0.00000000000E+00  0.45593999997E+02  0.45594000000E+02  0.51100000000E-03 0.  1.
         11   -1    0    0    0    0 -0.00000000000E+00 -0.00000000000E+00 -0.45593999997E+02  0.45594000000E+02  0.51100000000E-03 0. -1.
    9900012    2    1    2    0    0 -0.31244044971E+02 -0.18938187020E+01 -0.60782920116E+01  0.59301913235E+02  0.49999943841E+02 0.  0.
         12    1    1    2    0    0  0.31244044971E+02  0.18938187020E+01  0.60782920116E+01  0.31886086765E+02  0.00000000000E+00 0. -1.
         11    1    3    3    0    0 -0.56924024127E+01 -0.37141922715E+01 -0.28574374129E+01  0.73731688091E+01  0.51100000000E-03 0. -1.
        -11    1    3    3    0    0 -0.25203620908E+02  0.13887604171E+02 -0.17147432961E+02  0.33498097168E+02  0.51100000000E-03 0.  1.
        -12    1    3    3    0    0 -0.34802165032E+00 -0.12067230601E+02  0.13926578362E+02  0.18430647258E+02  0.00000000000E+00 0.  1.
</event>
<event>
 7    1  0.5662448E-012  0.5930193E+02  0.7816164E-02  0.1266605E+00
        -11   -1    0    0    0    0  0.00000000000E+00  0.00000000000E+00  0.45593999997E+02  0.45594000000E+02  0.51100000000E-03 0.  1.
         11   -1    0    0    0    0 -0.00000000000E+00 -0.00000000000E+00 -0.45593999997E+02  0.45594000000E+02  0.51100000000E-03 0. -1.
    9900012    2    1    2    0    0  0.70231867087E+01  0.70984685206E+01  0.30282145988E+02  0.59301925101E+02  0.49999965481E+02 0.  0.
         12    1    1    2    0    0 -0.70231867087E+01 -0.70984685206E+01 -0.30282145988E+02  0.31886074899E+02  0.00000000000E+00 0. -1.
         11    1    3    3    0    0  0.76971778626E+01 -0.35312056844E+01  0.27399309581E+02  0.28678182063E+02  0.51100000000E-03 0. -1.
        -11    1    3    3    0    0 -0.53802528215E+01  0.13975989446E+02  0.12432495182E+02  0.19463872640E+02  0.51100000000E-03 0.  1.
        -12    1    3    3    0    0  0.47062616676E+01 -0.33463152414E+01 -0.95496587753E+01  0.11159870398E+02  0.00000000000E+00 0.  1.
</event>
<event>
 7    1  0.5662448E-012  0.5930183E+02  0.7816164E-02  0.1266605E+00
        -11   -1    0    0    0    0  0.00000000000E+00  0.00000000000E+00  0.45593999997E+02  0.45594000000E+02  0.51100000000E-03 0.  1.
         11   -1    0    0    0    0 -0.00000000000E+00 -0.00000000000E+00 -0.45593999997E+02  0.45594000000E+02  0.51100000000E-03 0. -1.
    9900012    2    1    2    0    0  0.14916471296E+02  0.24404690804E+02  0.14093889497E+02  0.59301831050E+02  0.49999793955E+02 0.  0.
         12    1    1    2    0    0 -0.14916471296E+02 -0.24404690804E+02 -0.14093889497E+02  0.31886168950E+02  0.00000000000E+00 0. -1.
         11    1    3    3    0    0 -0.37343666851E+01 -0.35025150036E+01  0.86607544755E+01  0.10060903251E+02  0.51100000000E-03 0. -1.
        -11    1    3    3    0    0  0.24491840665E+02  0.12461582842E+02  0.13776399025E+02  0.30739721477E+02  0.51100000000E-03 0.  1.
         12    1    3    3    0    0 -0.58410026835E+01  0.15445622965E+02 -0.83432640038E+01  0.18501206322E+02  0.00000000000E+00 0. -1.
</event>
<event>
 7    1  0.5662448E-012  0.5930193E+02  0.7816164E-02  0.1266605E+00
        -11   -1    0    0    0    0  0.00000000000E+00  0.00000000000E+00  0.45593999997E+02  0.45594000000E+02  0.51100000000E-03 0. -1.
         11   -1    0    0    0    0 -0.00000000000E+00 -0.00000000000E+00 -0.45593999997E+02  0.45594000000E+02  0.51100000000E-03 0.  1.
    9900012    2    1    2    0    0  0.29206939554E+02 -0.69402889671E+01 -0.10747478122E+02  0.59301933842E+02  0.49999981424E+02 0.  0.
         12    1    1    2    0    0 -0.29206939554E+02  0.69402889671E+01  0.10747478122E+02  0.31886066158E+02  0.00000000000E+00 0. -1.
         11    1    3    3    0    0  0.85419368042E+01 -0.10429791979E+02  0.91714793733E+01  0.16305253118E+02  0.51100000000E-03 0. -1.
        -11    1    3    3    0    0  0.19067178182E+02  0.14888465194E+02 -0.59800698441E+01  0.24919568922E+02  0.51100000000E-03 0.  1.
         12    1    3    3    0    0  0.15978245678E+01 -0.11398962182E+02 -0.13938887651E+02  0.18077111802E+02  0.00000000000E+00 0. -1.
</event>
<event>
 7    1  0.5662448E-012  0.5930207E+02  0.7816164E-02  0.1266604E+00
        -11   -1    0    0    0    0  0.00000000000E+00  0.00000000000E+00  0.45593999997E+02  0.45594000000E+02  0.51100000000E-03 0. -1.
         11   -1    0    0    0    0 -0.00000000000E+00 -0.00000000000E+00 -0.45593999997E+02  0.45594000000E+02  0.51100000000E-03 0.  1.
    9900012    2    1    2    0    0 -0.27430686943E+02  0.12879216838E+02 -0.99194748160E+01  0.59302065905E+02  0.50000222274E+02 0.  0.
         12    1    1    2    0    0  0.27430686943E+02 -0.12879216838E+02  0.99194748160E+01  0.31885934095E+02  0.00000000000E+00 0. -1.
         11    1    3    3    0    0 -0.25244438188E+02  0.14838992932E+01  0.14603271960E+01  0.25330143551E+02  0.51100000000E-03 0. -1.
        -11    1    3    3    0    0 -0.52556084068E+01  0.17517700257E+02 -0.17108027175E+02  0.25043478913E+02  0.51100000000E-03 0.  1.
         12    1    3    3    0    0  0.30693596522E+01 -0.61223827126E+01  0.57282251628E+01  0.89284434405E+01  0.00000000000E+00 0. -1.
</event>
<event>
 7    1  0.5662448E-012  0.5930196E+02  0.7816164E-02  0.1266605E+00
        -11   -1    0    0    0    0  0.00000000000E+00  0.00000000000E+00  0.45593999997E+02  0.45594000000E+02  0.51100000000E-03 0. -1.
         11   -1    0    0    0    0 -0.00000000000E+00 -0.00000000000E+00 -0.45593999997E+02  0.45594000000E+02  0.51100000000E-03 0.  1.
    9900012    2    1    2    0    0 -0.17189172041E+02  0.26609152205E+02 -0.36338641376E+01  0.59301959401E+02  0.50000028037E+02 0.  0.
         12    1    1    2    0    0  0.17189172041E+02 -0.26609152205E+02  0.36338641376E+01  0.31886040599E+02  0.00000000000E+00 0. -1.
         11    1    3    3    0    0 -0.23789789688E+02  0.12463498344E+02  0.41356870731E+01  0.27173457494E+02  0.51100000000E-03 0. -1.
        -11    1    3    3    0    0 -0.90760187407E+01  0.12418226992E+02 -0.44397452612E+01  0.16009304047E+02  0.51100000000E-03 0.  1.
         12    1    3    3    0    0  0.15676636387E+02  0.17274268685E+01 -0.33298059495E+01  0.16119197860E+02  0.00000000000E+00 0. -1.
</event>
<event>
 7    1  0.5662448E-012  0.5930194E+02  0.7816164E-02  0.1266605E+00
        -11   -1    0    0    0    0  0.00000000000E+00  0.00000000000E+00  0.45593999997E+02  0.45594000000E+02  0.51100000000E-03 0.  1.
         11   -1    0    0    0    0 -0.00000000000E+00 -0.00000000000E+00 -0.45593999997E+02  0.45594000000E+02  0.51100000000E-03 0. -1.
    9900012    2    1    2    0    0 -0.19243083198E+02 -0.13541433399E+02  0.21518698482E+02  0.59301936370E+02  0.49999986034E+02 0.  0.
         12    1    1    2    0    0  0.19243083198E+02  0.13541433399E+02 -0.21518698482E+02  0.31886063630E+02  0.00000000000E+00 0. -1.
         11    1    3    3    0    0  0.15016982203E+01 -0.91542029504E+01  0.30194640231E+02  0.31587510635E+02  0.51100000000E-03 0. -1.
        -11    1    3    3    0    0  0.22463178874E+00 -0.13149139970E+00  0.32216726694E+01  0.32321702428E+01  0.51100000000E-03 0.  1.
        -12    1    3    3    0    0 -0.20969413207E+02 -0.42557390494E+01 -0.11897614418E+02  0.24482255492E+02  0.00000000000E+00 0.  1.
</event>
<event>
 7    1  0.5662448E-012  0.5930193E+02  0.7816164E-02  0.1266605E+00
        -11   -1    0    0    0    0  0.00000000000E+00  0.00000000000E+00  0.45593999997E+02  0.45594000000E+02  0.51100000000E-03 0. -1.
         11   -1    0    0    0    0 -0.00000000000E+00 -0.00000000000E+00 -0.45593999997E+02  0.45594000000E+02  0.51100000000E-03 0.  1.
    9900012    2    1    2    0    0 -0.13836568910E+02 -0.16934528163E+02 -0.23205448590E+02  0.59301925805E+02  0.49999966766E+02 0.  0.
         12    1    1    2    0    0  0.13836568910E+02  0.16934528163E+02  0.23205448590E+02  0.31886074195E+02  0.00000000000E+00 0. -1.
         11    1    3    3    0    0 -0.23463066898E+02 -0.10253138278E+01 -0.90165402590E+01  0.25156803756E+02  0.51100000000E-03 0. -1.
        -11    1    3    3    0    0 -0.68079198040E+01 -0.30443978949E+01 -0.10611344315E+02  0.12969840362E+02  0.51100000000E-03 0.  1.
         12    1    3    3    0    0  0.16434417792E+02 -0.12864816440E+02 -0.35775640161E+01  0.21175281686E+02  0.00000000000E+00 0. -1.
</event>
<event>
 7    1  0.5662448E-012  0.5930196E+02  0.7816164E-02  0.1266605E+00
        -11   -1    0    0    0    0  0.00000000000E+00  0.00000000000E+00  0.45593999997E+02  0.45594000000E+02  0.51100000000E-03 0.  1.
         11   -1    0    0    0    0 -0.00000000000E+00 -0.00000000000E+00 -0.45593999997E+02  0.45594000000E+02  0.51100000000E-03 0. -1.
    9900012    2    1    2    0    0 -0.20465821383E+02 -0.21197872705E+02  0.12186884440E+02  0.59301955961E+02  0.50000021763E+02 0.  0.
         12    1    1    2    0    0  0.20465821383E+02  0.21197872705E+02 -0.12186884440E+02  0.31886044039E+02  0.00000000000E+00 0. -1.
         11    1    3    3    0    0  0.29377493358E+01  0.22705518857E+01  0.52338547926E+01  0.64170876008E+01  0.51100000000E-03 0. -1.
        -11    1    3    3    0    0  0.94994738983E+01 -0.16109238924E+02  0.20309698797E+01  0.18811497069E+02  0.51100000000E-03 0.  1.
        -12    1    3    3    0    0 -0.32903044617E+02 -0.73591856666E+01  0.49220597680E+01  0.34073371291E+02  0.00000000000E+00 0.  1.
</event>
<event>
 7    1  0.5662448E-012  0.5930193E+02  0.7816164E-02  0.1266605E+00
        -11   -1    0    0    0    0  0.00000000000E+00  0.00000000000E+00  0.45593999997E+02  0.45594000000E+02  0.51100000000E-03 0. -1.
         11   -1    0    0    0    0 -0.00000000000E+00 -0.00000000000E+00 -0.45593999997E+02  0.45594000000E+02  0.51100000000E-03 0.  1.
    9900012    2    1    2    0    0 -0.36612504368E+01 -0.23694095642E+02 -0.21021567794E+02  0.59301933520E+02  0.49999980837E+02 0.  0.
         12    1    1    2    0    0  0.36612504368E+01  0.23694095642E+02  0.21021567794E+02  0.31886066480E+02  0.00000000000E+00 0. -1.
         11    1    3    3    0    0 -0.43035157784E+01  0.21187811066E+01 -0.49279647288E+01  0.68770864516E+01  0.51100000000E-03 0. -1.
        -11    1    3    3    0    0 -0.18256824002E+02 -0.23445236009E+02 -0.15150767997E+02  0.33354707094E+02  0.51100000000E-03 0.  1.
        -12    1    3    3    0    0  0.18899089344E+02 -0.23676407399E+01 -0.94283506782E+00  0.19070139975E+02  0.00000000000E+00 0.  1.
</event>
<event>
 7    1  0.5662448E-012  0.5930194E+02  0.7816164E-02  0.1266605E+00
        -11   -1    0    0    0    0  0.00000000000E+00  0.00000000000E+00  0.45593999997E+02  0.45594000000E+02  0.51100000000E-03 0.  1.
         11   -1    0    0    0    0 -0.00000000000E+00 -0.00000000000E+00 -0.45593999997E+02  0.45594000000E+02  0.51100000000E-03 0. -1.
    9900012    2    1    2    0    0  0.55675029946E+01  0.12120141202E+02  0.28962490332E+02  0.59301941000E+02  0.49999994478E+02 0.  0.
         12    1    1    2    0    0 -0.55675029946E+01 -0.12120141202E+02 -0.28962490332E+02  0.31886059000E+02  0.00000000000E+00 0. -1.
         11    1    3    3    0    0 -0.14187272739E+02  0.68959041261E+01  0.34524195950E+01  0.16147798699E+02  0.51100000000E-03 0. -1.
        -11    1    3    3    0    0 -0.28270750597E+01 -0.81040736382E+01  0.64907801205E+01  0.10760975316E+02  0.51100000000E-03 0.  1.
        -12    1    3    3    0    0  0.22581850794E+02  0.13328310714E+02  0.19019290616E+02  0.32393166985E+02  0.00000000000E+00 0.  1.
</event>
<event>
 7    1  0.5662448E-012  0.5930194E+02  0.7816164E-02  0.1266605E+00
        -11   -1    0    0    0    0  0.00000000000E+00  0.00000000000E+00  0.45593999997E+02  0.45594000000E+02  0.51100000000E-03 0.  1.
         11   -1    0    0    0    0 -0.00000000000E+00 -0.00000000000E+00 -0.45593999997E+02  0.45594000000E+02  0.51100000000E-03 0. -1.
    9900012    2    1    2    0    0  0.49839247688E+01  0.92249080526E+01  0.30112832130E+02  0.59301935746E+02  0.49999984897E+02 0.  0.
         12    1    1    2    0    0 -0.49839247688E+01 -0.92249080526E+01 -0.30112832130E+02  0.31886064254E+02  0.00000000000E+00 0. -1.
         11    1    3    3    0    0  0.38345438543E+01  0.15262377074E+02 -0.24179104349E+01  0.15921374679E+02  0.51100000000E-03 0. -1.
        -11    1    3    3    0    0  0.14572316535E+02 -0.24890404188E+01  0.15759862023E+02  0.21608354464E+02  0.51100000000E-03 0.  1.
        -12    1    3    3    0    0 -0.13422935620E+02 -0.35484286031E+01  0.16770880542E+02  0.21772206603E+02  0.00000000000E+00 0.  1.
</event>
<event>
 7    1  0.5662448E-012  0.5930194E+02  0.7816164E-02  0.1266605E+00
        -11   -1    0    0    0    0  0.00000000000E+00  0.00000000000E+00  0.45593999997E+02  0.45594000000E+02  0.51100000000E-03 0. -1.
         11   -1    0    0    0    0 -0.00000000000E+00 -0.00000000000E+00 -0.45593999997E+02  0.45594000000E+02  0.51100000000E-03 0.  1.
    9900012    2    1    2    0    0 -0.23069641893E+02  0.79337227007E+00 -0.21997334857E+02  0.59301944153E+02  0.50000000229E+02 0.  0.
         12    1    1    2    0    0  0.23069641893E+02 -0.79337227007E+00  0.21997334857E+02  0.31886055847E+02  0.00000000000E+00 0. -1.
         11    1    3    3    0    0 -0.18424166915E+02  0.61440394490E+01  0.64829741332E+00  0.19432432608E+02  0.51100000000E-03 0. -1.
        -11    1    3    3    0    0 -0.13375803607E+02  0.75830220229E+01 -0.46778501615E+01  0.16071609363E+02  0.51100000000E-03 0.  1.
        -12    1    3    3    0    0  0.87303286292E+01 -0.12933689202E+02 -0.17967782109E+02  0.23797902182E+02  0.00000000000E+00 0.  1.
</event>
<event>
 7    1  0.5662448E-012  0.5930195E+02  0.7816164E-02  0.1266605E+00
        -11   -1    0    0    0    0  0.00000000000E+00  0.00000000000E+00  0.45593999997E+02  0.45594000000E+02  0.51100000000E-03 0.  1.
         11   -1    0    0    0    0 -0.00000000000E+00 -0.00000000000E+00 -0.45593999997E+02  0.45594000000E+02  0.51100000000E-03 0. -1.
    9900012    2    1    2    0    0 -0.24222411558E+02 -0.20654290457E+02  0.18425390860E+01  0.59301954678E+02  0.50000019424E+02 0.  0.
         12    1    1    2    0    0  0.24222411558E+02  0.20654290457E+02 -0.18425390860E+01  0.31886045322E+02  0.00000000000E+00 0. -1.
         11    1    3    3    0    0 -0.90579299639E+01 -0.13970889878E+02 -0.36268593170E+01  0.17040715008E+02  0.51100000000E-03 0. -1.
        -11    1    3    3    0    0 -0.17828158610E+02 -0.20201974082E+02  0.83037414279E+01  0.28194239096E+02  0.51100000000E-03 0.  1.
        -12    1    3    3    0    0  0.26636770163E+01  0.13518573502E+02 -0.28343430249E+01  0.14067000574E+02  0.00000000000E+00 0.  1.
</event>
<event>
 7    1  0.5662448E-012  0.5930191E+02  0.7816164E-02  0.1266605E+00
        -11   -1    0    0    0    0  0.00000000000E+00  0.00000000000E+00  0.45593999997E+02  0.45594000000E+02  0.51100000000E-03 0.  1.
         11   -1    0    0    0    0 -0.00000000000E+00 -0.00000000000E+00 -0.45593999997E+02  0.45594000000E+02  0.51100000000E-03 0. -1.
    9900012    2    1    2    0    0  0.22791545666E+02  0.79704435359E+01  0.20826434101E+02  0.59301907713E+02  0.49999933770E+02 0.  0.
         12    1    1    2    0    0 -0.22791545666E+02 -0.79704435359E+01 -0.20826434101E+02  0.31886092287E+02  0.00000000000E+00 0. -1.
         11    1    3    3    0    0 -0.71285492013E+01 -0.88720820220E+01 -0.38058959990E+01  0.12000620723E+02  0.51100000000E-03 0. -1.
        -11    1    3    3    0    0  0.10790755513E+02  0.68481517147E+00 -0.17212913781E+01  0.10948617293E+02  0.51100000000E-03 0.  1.
        -12    1    3    3    0    0  0.19129339354E+02  0.16157710387E+02  0.26353621478E+02  0.36352669696E+02  0.00000000000E+00 0.  1.
</event>
<event>
 7    1  0.5662448E-012  0.5930195E+02  0.7816164E-02  0.1266605E+00
        -11   -1    0    0    0    0  0.00000000000E+00  0.00000000000E+00  0.45593999997E+02  0.45594000000E+02  0.51100000000E-03 0.  1.
         11   -1    0    0    0    0 -0.00000000000E+00 -0.00000000000E+00 -0.45593999997E+02  0.45594000000E+02  0.51100000000E-03 0. -1.
    9900012    2    1    2    0    0  0.90160548459E+01 -0.10398529953E+02  0.28762850717E+02  0.59301948951E+02  0.50000008978E+02 0.  0.
         12    1    1    2    0    0 -0.90160548459E+01  0.10398529953E+02 -0.28762850717E+02  0.31886051049E+02  0.00000000000E+00 0. -1.
         11    1    3    3    0    0 -0.11008601499E+02 -0.30913294019E+01 -0.18598887579E+01  0.11584680008E+02  0.51100000000E-03 0. -1.
        -11    1    3    3    0    0  0.12555910237E+02  0.52421537996E+01 -0.20237889393E+00  0.13607792466E+02  0.51100000000E-03 0.  1.
        -12    1    3    3    0    0  0.74687461080E+01 -0.12549354351E+02  0.30825118369E+02  0.34109476476E+02  0.00000000000E+00 0.  1.
</event>
<event>
 7    1  0.5662448E-012  0.5930186E+02  0.7816164E-02  0.1266605E+00
        -11   -1    0    0    0    0  0.00000000000E+00  0.00000000000E+00  0.45593999997E+02  0.45594000000E+02  0.51100000000E-03 0.  1.
         11   -1    0    0    0    0 -0.00000000000E+00 -0.00000000000E+00 -0.45593999997E+02  0.45594000000E+02  0.51100000000E-03 0. -1.
    9900012    2    1    2    0    0  0.23525558021E+01  0.28019359261E+02 -0.15036841535E+02  0.59301864839E+02  0.49999855578E+02 0.  0.
         12    1    1    2    0    0 -0.23525558021E+01 -0.28019359261E+02  0.15036841535E+02  0.31886135161E+02  0.00000000000E+00 0. -1.
         11    1    3    3    0    0 -0.69013283671E+01  0.12182018308E+02 -0.10519516907E+02  0.17512570900E+02  0.51100000000E-03 0. -1.
        -11    1    3    3    0    0 -0.75374030851E+01  0.47010838542E+01  0.12555380658E+02  0.15380189154E+02  0.51100000000E-03 0.  1.
        -12    1    3    3    0    0  0.16791287254E+02  0.11136257098E+02 -0.17072705285E+02  0.26409104786E+02  0.00000000000E+00 0.  1.
</event>
<event>
 7    1  0.5662448E-012  0.5930193E+02  0.7816164E-02  0.1266605E+00
        -11   -1    0    0    0    0  0.00000000000E+00  0.00000000000E+00  0.45593999997E+02  0.45594000000E+02  0.51100000000E-03 0. -1.
         11   -1    0    0    0    0 -0.00000000000E+00 -0.00000000000E+00 -0.45593999997E+02  0.45594000000E+02  0.51100000000E-03 0.  1.
    9900012    2    1    2    0    0 -0.24331676357E+02  0.13069883199E+02 -0.15933268555E+02  0.59301931443E+02  0.49999977048E+02 0.  0.
         12    1    1    2    0    0  0.24331676357E+02 -0.13069883199E+02  0.15933268555E+02  0.31886068557E+02  0.00000000000E+00 0. -1.
         11    1    3    3    0    0 -0.10734162906E+02 -0.46656502926E+01  0.14777872479E+02  0.18851420668E+02  0.51100000000E-03 0. -1.
        -11    1    3    3    0    0 -0.53452287483E+01  0.18472719498E-01 -0.19766527143E+01  0.56990321834E+01  0.51100000000E-03 0.  1.
        -12    1    3    3    0    0 -0.82522847027E+01  0.17717060772E+02 -0.28734488320E+02  0.34751478591E+02  0.00000000000E+00 0.  1.
</event>
<event>
 7    1  0.5662448E-012  0.5930187E+02  0.7816164E-02  0.1266605E+00
        -11   -1    0    0    0    0  0.00000000000E+00  0.00000000000E+00  0.45593999997E+02  0.45594000000E+02  0.51100000000E-03 0. -1.
         11   -1    0    0    0    0 -0.00000000000E+00 -0.00000000000E+00 -0.45593999997E+02  0.45594000000E+02  0.51100000000E-03 0.  1.
    9900012    2    1    2    0    0  0.25147882469E+02  0.18847792604E+02 -0.53916733435E+01  0.59301867902E+02  0.49999861165E+02 0.  0.
         12    1    1    2    0    0 -0.25147882469E+02 -0.18847792604E+02  0.53916733435E+01  0.31886132098E+02  0.00000000000E+00 0. -1.
         11    1    3    3    0    0  0.12099180177E+02 -0.26438927824E+01 -0.16823414703E+02  0.20890371288E+02  0.51100000000E-03 0.  1.
        -11    1    3    3    0    0 -0.74068518511E+01  0.10995978361E+02  0.14153796062E+01  0.13333277698E+02  0.51100000000E-03 0. -1.
         12    1    3    3    0    0  0.20455554143E+02  0.10495707025E+02  0.10016361754E+02  0.25078218917E+02  0.00000000000E+00 0. -1.
</event>
<event>
 7    1  0.5662448E-012  0.5930196E+02  0.7816164E-02  0.1266605E+00
        -11   -1    0    0    0    0  0.00000000000E+00  0.00000000000E+00  0.45593999997E+02  0.45594000000E+02  0.51100000000E-03 0. -1.
         11   -1    0    0    0    0 -0.00000000000E+00 -0.00000000000E+00 -0.45593999997E+02  0.45594000000E+02  0.51100000000E-03 0.  1.
    9900012    2    1    2    0    0  0.17364393196E+02  0.93127625712E+01 -0.25069301188E+02  0.59301959797E+02  0.50000028759E+02 0.  0.
         12    1    1    2    0    0 -0.17364393196E+02 -0.93127625712E+01  0.25069301188E+02  0.31886040203E+02  0.00000000000E+00 0. -1.
         11    1    3    3    0    0 -0.10897327029E+02 -0.32985163081E+01 -0.65203686763E+01  0.13120486049E+02  0.51100000000E-03 0. -1.
        -11    1    3    3    0    0  0.69351277374E+01 -0.82092219247E+01 -0.11121520795E+02  0.15465301368E+02  0.51100000000E-03 0.  1.
         12    1    3    3    0    0  0.21326592488E+02  0.20820500804E+02 -0.74274117170E+01  0.30716172380E+02  0.00000000000E+00 0. -1.
</event>
<event>
 7    1  0.5662448E-012  0.5930195E+02  0.7816164E-02  0.1266605E+00
        -11   -1    0    0    0    0  0.00000000000E+00  0.00000000000E+00  0.45593999997E+02  0.45594000000E+02  0.51100000000E-03 0.  1.
         11   -1    0    0    0    0 -0.00000000000E+00 -0.00000000000E+00 -0.45593999997E+02  0.45594000000E+02  0.51100000000E-03 0. -1.
    9900012    2    1    2    0    0 -0.23547627906E+02 -0.13399709478E+02  0.16813012101E+02  0.59301947093E+02  0.50000005591E+02 0.  0.
         12    1    1    2    0    0  0.23547627906E+02  0.13399709478E+02 -0.16813012101E+02  0.31886052907E+02  0.00000000000E+00 0. -1.
         11    1    3    3    0    0 -0.64567278223E+00 -0.55025591308E+01 -0.10560575737E+02  0.11925636691E+02  0.51100000000E-03 0. -1.
        -11    1    3    3    0    0 -0.10454727039E+02  0.60988245021E+01 -0.22666620915E+01  0.12314005646E+02  0.51100000000E-03 0.  1.
        -12    1    3    3    0    0 -0.12447228085E+02 -0.13995974849E+02  0.29640249929E+02  0.35062304756E+02  0.00000000000E+00 0.  1.
</event>
<event>
 7    1  0.5662448E-012  0.5930193E+02  0.7816164E-02  0.1266605E+00
        -11   -1    0    0    0    0  0.00000000000E+00  0.00000000000E+00  0.45593999997E+02  0.45594000000E+02  0.51100000000E-03 0.  1.
         11   -1    0    0    0    0 -0.00000000000E+00 -0.00000000000E+00 -0.45593999997E+02  0.45594000000E+02  0.51100000000E-03 0. -1.
    9900012    2    1    2    0    0 -0.27960948352E+02 -0.78420008919E+01  0.13168526488E+02  0.59301926228E+02  0.49999967537E+02 0.  0.
         12    1    1    2    0    0  0.27960948352E+02  0.78420008919E+01 -0.13168526488E+02  0.31886073772E+02  0.00000000000E+00 0. -1.
         11    1    3    3    0    0 -0.68614186253E+01 -0.11836532482E+02  0.44933740566E+00  0.13688844769E+02  0.51100000000E-03 0. -1.
        -11    1    3    3    0    0 -0.23084922695E+02 -0.10045079090E+02  0.17487624698E+02  0.30653454741E+02  0.51100000000E-03 0.  1.
        -12    1    3    3    0    0  0.19853929681E+01  0.14039610680E+02 -0.47684356156E+01  0.14959626717E+02  0.00000000000E+00 0.  1.
</event>
<event>
 7    1  0.5662448E-012  0.5930193E+02  0.7816164E-02  0.1266605E+00
        -11   -1    0    0    0    0  0.00000000000E+00  0.00000000000E+00  0.45593999997E+02  0.45594000000E+02  0.51100000000E-03 0. -1.
         11   -1    0    0    0    0 -0.00000000000E+00 -0.00000000000E+00 -0.45593999997E+02  0.45594000000E+02  0.51100000000E-03 0.  1.
    9900012    2    1    2    0    0  0.24215155411E+02 -0.17756654588E+02 -0.10726087417E+02  0.59301929609E+02  0.49999973703E+02 0.  0.
         12    1    1    2    0    0 -0.24215155411E+02  0.17756654588E+02  0.10726087417E+02  0.31886070391E+02  0.00000000000E+00 0. -1.
         11    1    3    3    0    0 -0.58549527627E+01  0.12194788597E+01 -0.27516677073E+01  0.65832572466E+01  0.51100000000E-03 0. -1.
        -11    1    3    3    0    0 -0.13095887628E+01 -0.62910719476E+01 -0.16591406913E+02  0.17792340841E+02  0.51100000000E-03 0.  1.
        -12    1    3    3    0    0  0.31379696936E+02 -0.12685061500E+02  0.86169872035E+01  0.34926331521E+02  0.00000000000E+00 0.  1.
</event>
<event>
 7    1  0.5662448E-012  0.5930192E+02  0.7816164E-02  0.1266605E+00
        -11   -1    0    0    0    0  0.00000000000E+00  0.00000000000E+00  0.45593999997E+02  0.45594000000E+02  0.51100000000E-03 0.  1.
         11   -1    0    0    0    0 -0.00000000000E+00 -0.00000000000E+00 -0.45593999997E+02  0.45594000000E+02  0.51100000000E-03 0. -1.
    9900012    2    1    2    0    0  0.19564356144E+02  0.17726591275E+02  0.17880884158E+02  0.59301920156E+02  0.49999956463E+02 0.  0.
         12    1    1    2    0    0 -0.19564356144E+02 -0.17726591275E+02 -0.17880884158E+02  0.31886079844E+02  0.00000000000E+00 0. -1.
         11    1    3    3    0    0  0.11784911895E+02  0.25136798081E+02 -0.20033929266E+01  0.27834445380E+02  0.51100000000E-03 0. -1.
        -11    1    3    3    0    0  0.87456200282E+01 -0.45610612689E+00 -0.15668887184E+01  0.88965747899E+01  0.51100000000E-03 0.  1.
        -12    1    3    3    0    0 -0.96617577878E+00 -0.69541006789E+01  0.21451165803E+02  0.22570899986E+02  0.00000000000E+00 0.  1.
</event>
<event>
 7    1  0.5662448E-012  0.5930193E+02  0.7816164E-02  0.1266605E+00
        -11   -1    0    0    0    0  0.00000000000E+00  0.00000000000E+00  0.45593999997E+02  0.45594000000E+02  0.51100000000E-03 0.  1.
         11   -1    0    0    0    0 -0.00000000000E+00 -0.00000000000E+00 -0.45593999997E+02  0.45594000000E+02  0.51100000000E-03 0. -1.
    9900012    2    1    2    0    0 -0.17232695857E+02  0.24443423371E+02  0.11057777282E+02  0.59301934218E+02  0.49999982110E+02 0.  0.
         12    1    1    2    0    0  0.17232695857E+02 -0.24443423371E+02 -0.11057777282E+02  0.31886065782E+02  0.00000000000E+00 0. -1.
         11    1    3    3    0    0 -0.43646451250E+01  0.80330063526E+01  0.13417764114E+02  0.16236246863E+02  0.51100000000E-03 0. -1.
        -11    1    3    3    0    0 -0.12238028471E+02  0.25097948530E+02  0.84592217329E+01  0.29175928329E+02  0.51100000000E-03 0.  1.
         12    1    3    3    0    0 -0.63002226135E+00 -0.86875315117E+01 -0.10819208565E+02  0.13889759026E+02  0.00000000000E+00 0. -1.
</event>
<event>
 7    1  0.5662448E-012  0.5930195E+02  0.7816164E-02  0.1266605E+00
        -11   -1    0    0    0    0  0.00000000000E+00  0.00000000000E+00  0.45593999997E+02  0.45594000000E+02  0.51100000000E-03 0.  1.
         11   -1    0    0    0    0 -0.00000000000E+00 -0.00000000000E+00 -0.45593999997E+02  0.45594000000E+02  0.51100000000E-03 0. -1.
    9900012    2    1    2    0    0  0.22093107053E+02 -0.12585850008E+01  0.22957153425E+02  0.59301948052E+02  0.50000007339E+02 0.  0.
         12    1    1    2    0    0 -0.22093107053E+02  0.12585850008E+01 -0.22957153425E+02  0.31886051948E+02  0.00000000000E+00 0. -1.
         11    1    3    3    0    0 -0.49305700062E+01  0.17415441414E+01 -0.50025359258E+01  0.72366333701E+01  0.51100000000E-03 0. -1.
        -11    1    3    3    0    0  0.17792135018E+02  0.10174642397E+02  0.81551994485E+00  0.20512154676E+02  0.51100000000E-03 0.  1.
        -12    1    3    3    0    0  0.92315420411E+01 -0.13174771539E+02  0.27144169406E+02  0.31553160005E+02  0.00000000000E+00 0.  1.
</event>
<event>
 7    1  0.5662448E-012  0.5930193E+02  0.7816164E-02  0.1266605E+00
        -11   -1    0    0    0    0  0.00000000000E+00  0.00000000000E+00  0.45593999997E+02  0.45594000000E+02  0.51100000000E-03 0. -1.
         11   -1    0    0    0    0 -0.00000000000E+00 -0.00000000000E+00 -0.45593999997E+02  0.45594000000E+02  0.51100000000E-03 0.  1.
    9900012    2    1    2    0    0  0.13720361882E+01 -0.29996184773E+02  0.10726962735E+02  0.59301932294E+02  0.49999978600E+02 0.  0.
         12    1    1    2    0    0 -0.13720361882E+01  0.29996184773E+02 -0.10726962735E+02  0.31886067706E+02  0.00000000000E+00 0. -1.
         11    1    3    3    0    0  0.68411950105E+01 -0.15996649309E+02  0.80534955904E+01  0.19171685627E+02  0.51100000000E-03 0. -1.
        -11    1    3    3    0    0 -0.14766226595E+02 -0.22510749353E+02 -0.11866962010E+01  0.26947792719E+02  0.51100000000E-03 0.  1.
         12    1    3    3    0    0  0.92970677727E+01  0.85112138890E+01  0.38601633452E+01  0.13182453948E+02  0.00000000000E+00 0. -1.
</event>
<event>
 7    1  0.5662448E-012  0.5930194E+02  0.7816164E-02  0.1266605E+00
        -11   -1    0    0    0    0  0.00000000000E+00  0.00000000000E+00  0.45593999997E+02  0.45594000000E+02  0.51100000000E-03 0. -1.
         11   -1    0    0    0    0 -0.00000000000E+00 -0.00000000000E+00 -0.45593999997E+02  0.45594000000E+02  0.51100000000E-03 0.  1.
    9900012    2    1    2    0    0  0.10851890008E+02  0.13537259943E+02 -0.26752564311E+02  0.59301943162E+02  0.49999998421E+02 0.  0.
         12    1    1    2    0    0 -0.10851890008E+02 -0.13537259943E+02  0.26752564311E+02  0.31886056838E+02  0.00000000000E+00 0. -1.
         11    1    3    3    0    0 -0.71345232146E+01  0.33194546611E+01 -0.51119675915E+01  0.93836247615E+01  0.51100000000E-03 0. -1.
        -11    1    3    3    0    0 -0.39481856391E+01  0.11012554925E+02  0.71534087420E+01  0.13712614365E+02  0.51100000000E-03 0.  1.
        -12    1    3    3    0    0  0.21934598861E+02 -0.79474964380E+00 -0.28794005461E+02  0.36205704035E+02  0.00000000000E+00 0.  1.
</event>
<event>
 7    1  0.5662448E-012  0.5930196E+02  0.7816164E-02  0.1266605E+00
        -11   -1    0    0    0    0  0.00000000000E+00  0.00000000000E+00  0.45593999997E+02  0.45594000000E+02  0.51100000000E-03 0. -1.
         11   -1    0    0    0    0 -0.00000000000E+00 -0.00000000000E+00 -0.45593999997E+02  0.45594000000E+02  0.51100000000E-03 0.  1.
    9900012    2    1    2    0    0  0.27437261751E+02 -0.73484476984E+01 -0.14488490491E+02  0.59301962732E+02  0.50000034112E+02 0.  0.
         12    1    1    2    0    0 -0.27437261751E+02  0.73484476984E+01  0.14488490491E+02  0.31886037268E+02  0.00000000000E+00 0. -1.
         11    1    3    3    0    0  0.25093633613E+02  0.59888928758E+01  0.10147150704E+02  0.27722228508E+02  0.51100000000E-03 0. -1.
        -11    1    3    3    0    0  0.81613201578E+01 -0.59907497412E+01 -0.10217586165E+02  0.14383855411E+02  0.51100000000E-03 0.  1.
        -12    1    3    3    0    0 -0.58176920202E+01 -0.73465908330E+01 -0.14418055030E+02  0.17195878813E+02  0.00000000000E+00 0.  1.
</event>
<event>
 7    1  0.5662448E-012  0.5930194E+02  0.7816164E-02  0.1266605E+00
        -11   -1    0    0    0    0  0.00000000000E+00  0.00000000000E+00  0.45593999997E+02  0.45594000000E+02  0.51100000000E-03 0. -1.
         11   -1    0    0    0    0 -0.00000000000E+00 -0.00000000000E+00 -0.45593999997E+02  0.45594000000E+02  0.51100000000E-03 0.  1.
    9900012    2    1    2    0    0  0.37594784579E+01  0.31495022197E+02 -0.32634993128E+01  0.59301944596E+02  0.50000001037E+02 0.  0.
         12    1    1    2    0    0 -0.37594784579E+01 -0.31495022197E+02  0.32634993128E+01  0.31886055404E+02  0.00000000000E+00 0. -1.
         11    1    3    3    0    0  0.65290040175E+01  0.19421180071E+02  0.42411258666E+01  0.20923605752E+02  0.51100000000E-03 0. -1.
        -11    1    3    3    0    0  0.13649796777E+02  0.55104132558E+01 -0.13230208109E+02  0.19791917875E+02  0.51100000000E-03 0.  1.
        -12    1    3    3    0    0 -0.16419322337E+02  0.65634288703E+01  0.57255829298E+01  0.18586420969E+02  0.00000000000E+00 0.  1.
</event>
<event>
 7    1  0.5662448E-012  0.5930196E+02  0.7816164E-02  0.1266605E+00
        -11   -1    0    0    0    0  0.00000000000E+00  0.00000000000E+00  0.45593999997E+02  0.45594000000E+02  0.51100000000E-03 0.  1.
         11   -1    0    0    0    0 -0.00000000000E+00 -0.00000000000E+00 -0.45593999997E+02  0.45594000000E+02  0.51100000000E-03 0. -1.
    9900012    2    1    2    0    0  0.35528759354E+01 -0.84039230876E+01  0.30552754586E+02  0.59301958172E+02  0.50000025796E+02 0.  0.
         12    1    1    2    0    0 -0.35528759354E+01  0.84039230876E+01 -0.30552754586E+02  0.31886041828E+02  0.00000000000E+00 0. -1.
         11    1    3    3    0    0 -0.94646032180E+01 -0.19428065153E+00 -0.59805094487E+01  0.11197452950E+02  0.51100000000E-03 0. -1.
        -11    1    3    3    0    0  0.41248076041E+01  0.59920372799E+01 -0.66663789950E+00  0.73049952009E+01  0.51100000000E-03 0.  1.
        -12    1    3    3    0    0  0.88926715493E+01 -0.14201679716E+02  0.37199901934E+02  0.40799510021E+02  0.00000000000E+00 0.  1.
</event>
<event>
 7    1  0.5662448E-012  0.5930196E+02  0.7816164E-02  0.1266605E+00
        -11   -1    0    0    0    0  0.00000000000E+00  0.00000000000E+00  0.45593999997E+02  0.45594000000E+02  0.51100000000E-03 0.  1.
         11   -1    0    0    0    0 -0.00000000000E+00 -0.00000000000E+00 -0.45593999997E+02  0.45594000000E+02  0.51100000000E-03 0. -1.
    9900012    2    1    2    0    0 -0.27488904292E+02 -0.55277908914E+01  0.15182981109E+02  0.59301964707E+02  0.50000037714E+02 0.  0.
         12    1    1    2    0    0  0.27488904292E+02  0.55277908914E+01 -0.15182981109E+02  0.31886035293E+02  0.00000000000E+00 0. -1.
         11    1    3    3    0    0 -0.55253147125E+01 -0.16177581715E+02 -0.17071685980E+01  0.17180153599E+02  0.51100000000E-03 0. -1.
        -11    1    3    3    0    0 -0.10091247540E+02 -0.40214424404E+01 -0.60354133251E+01  0.12427046732E+02  0.51100000000E-03 0.  1.
        -12    1    3    3    0    0 -0.11872342040E+02  0.14671233264E+02  0.22925563032E+02  0.29694764376E+02  0.00000000000E+00 0.  1.
</event>
<event>
 7    1  0.5662448E-012  0.5930195E+02  0.7816164E-02  0.1266605E+00
        -11   -1    0    0    0    0  0.00000000000E+00  0.00000000000E+00  0.45593999997E+02  0.45594000000E+02  0.51100000000E-03 0. -1.
         11   -1    0    0    0    0 -0.00000000000E+00 -0.00000000000E+00 -0.45593999997E+02  0.45594000000E+02  0.51100000000E-03 0.  1.
    9900012    2    1    2    0    0 -0.17695763758E+02 -0.26492670022E+02 -0.13109621103E+01  0.59301949107E+02  0.50000009264E+02 0.  0.
         12    1    1    2    0    0  0.17695763758E+02  0.26492670022E+02  0.13109621103E+01  0.31886050893E+02  0.00000000000E+00 0. -1.
         11    1    3    3    0    0 -0.66583415605E+01  0.29869249252E+01  0.18882718487E+02  0.20243821046E+02  0.51100000000E-03 0. -1.
        -11    1    3    3    0    0 -0.94031902539E+01 -0.16463457226E+02 -0.63708235888E+01  0.20001320062E+02  0.51100000000E-03 0.  1.
        -12    1    3    3    0    0 -0.16342319437E+01 -0.13016137721E+02 -0.13822857008E+02  0.19056807999E+02  0.00000000000E+00 0.  1.
</event>
<event>
 7    1  0.5662448E-012  0.5930194E+02  0.7816164E-02  0.1266605E+00
        -11   -1    0    0    0    0  0.00000000000E+00  0.00000000000E+00  0.45593999997E+02  0.45594000000E+02  0.51100000000E-03 0.  1.
         11   -1    0    0    0    0 -0.00000000000E+00 -0.00000000000E+00 -0.45593999997E+02  0.45594000000E+02  0.51100000000E-03 0. -1.
    9900012    2    1    2    0    0 -0.29097109855E+02  0.74717385157E+01  0.10688880453E+02  0.59301939665E+02  0.49999992044E+02 0.  0.
         12    1    1    2    0    0  0.29097109855E+02 -0.74717385157E+01 -0.10688880453E+02  0.31886060335E+02  0.00000000000E+00 0. -1.
         11    1    3    3    0    0 -0.21489387372E+02  0.22258954374E+02 -0.26755125494E+01  0.31055002610E+02  0.51100000000E-03 0. -1.
        -11    1    3    3    0    0 -0.12143952997E+02 -0.38896656851E+01  0.92231502704E+01  0.15737585416E+02  0.51100000000E-03 0.  1.
        -12    1    3    3    0    0  0.45362305151E+01 -0.10897550173E+02  0.41412427317E+01  0.12509351639E+02  0.00000000000E+00 0.  1.
</event>
<event>
 7    1  0.5662448E-012  0.5930193E+02  0.7816164E-02  0.1266605E+00
        -11   -1    0    0    0    0  0.00000000000E+00  0.00000000000E+00  0.45593999997E+02  0.45594000000E+02  0.51100000000E-03 0. -1.
         11   -1    0    0    0    0 -0.00000000000E+00 -0.00000000000E+00 -0.45593999997E+02  0.45594000000E+02  0.51100000000E-03 0.  1.
    9900012    2    1    2    0    0 -0.23059821284E+02  0.19508309797E+02  0.10217245724E+02  0.59301927507E+02  0.49999969871E+02 0.  0.
         12    1    1    2    0    0  0.23059821284E+02 -0.19508309797E+02 -0.10217245724E+02  0.31886072493E+02  0.00000000000E+00 0. -1.
         11    1    3    3    0    0 -0.12717906141E+02 -0.17202937864E+01  0.25145908674E+02  0.28231565146E+02  0.51100000000E-03 0. -1.
        -11    1    3    3    0    0 -0.15147373708E+01 -0.18356336250E+01 -0.23939678382E+01  0.33756573255E+01  0.51100000000E-03 0.  1.
        -12    1    3    3    0    0 -0.88271777728E+01  0.23064237209E+02 -0.12534695112E+02  0.27694705036E+02  0.00000000000E+00 0.  1.
</event>
<event>
 7    1  0.5662448E-012  0.5930195E+02  0.7816164E-02  0.1266605E+00
        -11   -1    0    0    0    0  0.00000000000E+00  0.00000000000E+00  0.45593999997E+02  0.45594000000E+02  0.51100000000E-03 0.  1.
         11   -1    0    0    0    0 -0.00000000000E+00 -0.00000000000E+00 -0.45593999997E+02  0.45594000000E+02  0.51100000000E-03 0. -1.
    9900012    2    1    2    0    0 -0.30534324319E+02  0.25763856881E+01  0.88168929555E+01  0.59301947779E+02  0.50000006842E+02 0.  0.
         12    1    1    2    0    0  0.30534324319E+02 -0.25763856881E+01 -0.88168929555E+01  0.31886052221E+02  0.00000000000E+00 0. -1.
         11    1    3    3    0    0 -0.20394346425E+02  0.73068889359E+01  0.62699262102E+01  0.22552870482E+02  0.51100000000E-03 0. -1.
        -11    1    3    3    0    0 -0.60478522311E+01  0.15145642401E+02  0.97724516556E-01  0.16308787530E+02  0.51100000000E-03 0.  1.
         12    1    3    3    0    0 -0.40921256629E+01 -0.19876145649E+02  0.24492422287E+01  0.20440289768E+02  0.00000000000E+00 0. -1.
</event>
<event>
 7    1  0.5662448E-012  0.5930200E+02  0.7816164E-02  0.1266605E+00
        -11   -1    0    0    0    0  0.00000000000E+00  0.00000000000E+00  0.45593999997E+02  0.45594000000E+02  0.51100000000E-03 0. -1.
         11   -1    0    0    0    0 -0.00000000000E+00 -0.00000000000E+00 -0.45593999997E+02  0.45594000000E+02  0.51100000000E-03 0.  1.
    9900012    2    1    2    0    0 -0.26062320119E+02 -0.15948389731E+02 -0.91171069549E+01  0.59301995167E+02  0.50000093266E+02 0.  0.
         12    1    1    2    0    0  0.26062320119E+02  0.15948389731E+02  0.91171069549E+01  0.31886004833E+02  0.00000000000E+00 0. -1.
         11    1    3    3    0    0 -0.17944754139E+02 -0.74490011193E+00 -0.18288989224E+02  0.25633107584E+02  0.51100000000E-03 0. -1.
        -11    1    3    3    0    0 -0.78847091826E+01 -0.86338550597E+01 -0.87340564389E+01  0.14594376802E+02  0.51100000000E-03 0.  1.
         12    1    3    3    0    0 -0.23285679663E+00 -0.65696345593E+01  0.17905938708E+02  0.19074510782E+02  0.00000000000E+00 0. -1.
</event>
<event>
 7    1  0.5662448E-012  0.5930192E+02  0.7816164E-02  0.1266605E+00
        -11   -1    0    0    0    0  0.00000000000E+00  0.00000000000E+00  0.45593999997E+02  0.45594000000E+02  0.51100000000E-03 0. -1.
         11   -1    0    0    0    0 -0.00000000000E+00 -0.00000000000E+00 -0.45593999997E+02  0.45594000000E+02  0.51100000000E-03 0.  1.
    9900012    2    1    2    0    0  0.30630609372E+02 -0.69586074690E+01 -0.54832235215E+01  0.59301918576E+02  0.49999953581E+02 0.  0.
         12    1    1    2    0    0 -0.30630609372E+02  0.69586074690E+01  0.54832235215E+01  0.31886081424E+02  0.00000000000E+00 0. -1.
         11    1    3    3    0    0  0.20818785275E+01 -0.12530977512E+02 -0.58050532408E+01  0.13966325895E+02  0.51100000000E-03 0. -1.
        -11    1    3    3    0    0  0.21376854186E+02 -0.60134941986E+00 -0.15836162023E+02  0.26610440505E+02  0.51100000000E-03 0.  1.
        -12    1    3    3    0    0  0.71718766590E+01  0.61737194633E+01  0.16157991743E+02  0.18725152175E+02  0.00000000000E+00 0.  1.
</event>
<event>
 7    1  0.5662448E-012  0.5930194E+02  0.7816164E-02  0.1266605E+00
        -11   -1    0    0    0    0  0.00000000000E+00  0.00000000000E+00  0.45593999997E+02  0.45594000000E+02  0.51100000000E-03 0. -1.
         11   -1    0    0    0    0 -0.00000000000E+00 -0.00000000000E+00 -0.45593999997E+02  0.45594000000E+02  0.51100000000E-03 0.  1.
    9900012    2    1    2    0    0 -0.21808751845E+02 -0.22587829065E+02  0.55578236216E+01  0.59301935923E+02  0.49999985219E+02 0.  0.
         12    1    1    2    0    0  0.21808751845E+02  0.22587829065E+02 -0.55578236216E+01  0.31886064077E+02  0.00000000000E+00 0. -1.
         11    1    3    3    0    0  0.67366214590E+01  0.81440496838E+01  0.85827944726E+01  0.13615137721E+02  0.51100000000E-03 0. -1.
        -11    1    3    3    0    0 -0.81638969627E+00 -0.12203121987E+02 -0.11487511363E+01  0.12284230045E+02  0.51100000000E-03 0.  1.
        -12    1    3    3    0    0 -0.27728983608E+02 -0.18528756762E+02 -0.18762197147E+01  0.33402568157E+02  0.00000000000E+00 0.  1.
</event>
<event>
 7    1  0.5662448E-012  0.5930190E+02  0.7816164E-02  0.1266605E+00
        -11   -1    0    0    0    0  0.00000000000E+00  0.00000000000E+00  0.45593999997E+02  0.45594000000E+02  0.51100000000E-03 0.  1.
         11   -1    0    0    0    0 -0.00000000000E+00 -0.00000000000E+00 -0.45593999997E+02  0.45594000000E+02  0.51100000000E-03 0. -1.
    9900012    2    1    2    0    0  0.16939557865E+02  0.12590621843E+02  0.23900861280E+02  0.59301897244E+02  0.49999914678E+02 0.  0.
         12    1    1    2    0    0 -0.16939557865E+02 -0.12590621843E+02 -0.23900861280E+02  0.31886102756E+02  0.00000000000E+00 0. -1.
         11    1    3    3    0    0 -0.85727137142E+01  0.12354236670E+02 -0.10318449242E+01  0.15072600583E+02  0.51100000000E-03 0. -1.
        -11    1    3    3    0    0 -0.52233566392E+01 -0.20368682583E+01  0.51058308344E+01  0.75829938450E+01  0.51100000000E-03 0.  1.
         12    1    3    3    0    0  0.30735628218E+02  0.22732534311E+01  0.19826875369E+02  0.36646302816E+02  0.00000000000E+00 0. -1.
</event>
<event>
 7    1  0.5662448E-012  0.5930195E+02  0.7816164E-02  0.1266605E+00
        -11   -1    0    0    0    0  0.00000000000E+00  0.00000000000E+00  0.45593999997E+02  0.45594000000E+02  0.51100000000E-03 0. -1.
         11   -1    0    0    0    0 -0.00000000000E+00 -0.00000000000E+00 -0.45593999997E+02  0.45594000000E+02  0.51100000000E-03 0.  1.
    9900012    2    1    2    0    0  0.17258058906E+02 -0.19370989339E+02 -0.18537638918E+02  0.59301954748E+02  0.50000019551E+02 0.  0.
         12    1    1    2    0    0 -0.17258058906E+02  0.19370989339E+02  0.18537638918E+02  0.31886045252E+02  0.00000000000E+00 0. -1.
         11    1    3    3    0    0  0.18413027803E+02 -0.59127451493E+01  0.61037881257E+01  0.20279457039E+02  0.51100000000E-03 0. -1.
        -11    1    3    3    0    0  0.12448762235E+00 -0.19604100356E+02 -0.78885977811E+01  0.21132113551E+02  0.51100000000E-03 0.  1.
         12    1    3    3    0    0 -0.12794565189E+01  0.61458561662E+01 -0.16752829262E+02  0.17890384157E+02  0.00000000000E+00 0. -1.
</event>
<event>
 7    1  0.5662448E-012  0.5930193E+02  0.7816164E-02  0.1266605E+00
        -11   -1    0    0    0    0  0.00000000000E+00  0.00000000000E+00  0.45593999997E+02  0.45594000000E+02  0.51100000000E-03 0.  1.
         11   -1    0    0    0    0 -0.00000000000E+00 -0.00000000000E+00 -0.45593999997E+02  0.45594000000E+02  0.51100000000E-03 0. -1.
    9900012    2    1    2    0    0  0.39812390257E+01 -0.14883529937E+02  0.27916872351E+02  0.59301929539E+02  0.49999973576E+02 0.  0.
         12    1    1    2    0    0 -0.39812390257E+01  0.14883529937E+02 -0.27916872351E+02  0.31886070461E+02  0.00000000000E+00 0. -1.
         11    1    3    3    0    0  0.16336692522E+02 -0.86525613535E+01  0.16842433251E+01  0.18563162887E+02  0.51100000000E-03 0. -1.
        -11    1    3    3    0    0 -0.46864526791E+01 -0.10485251386E+02 -0.15645022070E+01  0.11590987998E+02  0.51100000000E-03 0.  1.
         12    1    3    3    0    0 -0.76690008170E+01  0.42542828024E+01  0.27797131233E+02  0.29147778654E+02  0.00000000000E+00 0. -1.
</event>
<event>
 7    1  0.5662448E-012  0.5930205E+02  0.7816164E-02  0.1266604E+00
        -11   -1    0    0    0    0  0.00000000000E+00  0.00000000000E+00  0.45593999997E+02  0.45594000000E+02  0.51100000000E-03 0.  1.
         11   -1    0    0    0    0 -0.00000000000E+00 -0.00000000000E+00 -0.45593999997E+02  0.45594000000E+02  0.51100000000E-03 0. -1.
    9900012    2    1    2    0    0 -0.98008248134E+01  0.76967005298E+00  0.30332581579E+02  0.59302045972E+02  0.50000185922E+02 0.  0.
         12    1    1    2    0    0  0.98008248134E+01 -0.76967005298E+00 -0.30332581579E+02  0.31885954028E+02  0.00000000000E+00 0. -1.
         11    1    3    3    0    0 -0.29586139063E+00 -0.13716056463E+01 -0.63809479681E+01  0.65334013533E+01  0.51100000000E-03 0. -1.
        -11    1    3    3    0    0  0.79395668209E+01  0.13889104441E+02  0.10393829167E+02  0.19078145311E+02  0.51100000000E-03 0.  1.
        -12    1    3    3    0    0 -0.17444530244E+02 -0.11747828742E+02  0.26319700380E+02  0.33690499308E+02  0.00000000000E+00 0.  1.
</event>
<event>
 7    1  0.5662448E-012  0.5930194E+02  0.7816164E-02  0.1266605E+00
        -11   -1    0    0    0    0  0.00000000000E+00  0.00000000000E+00  0.45593999997E+02  0.45594000000E+02  0.51100000000E-03 0. -1.
         11   -1    0    0    0    0 -0.00000000000E+00 -0.00000000000E+00 -0.45593999997E+02  0.45594000000E+02  0.51100000000E-03 0.  1.
    9900012    2    1    2    0    0  0.57325219965E+01  0.31110698108E+02  0.39979311068E+01  0.59301940376E+02  0.49999993341E+02 0.  0.
         12    1    1    2    0    0 -0.57325219965E+01 -0.31110698108E+02 -0.39979311068E+01  0.31886059624E+02  0.00000000000E+00 0. -1.
         11    1    3    3    0    0 -0.99660593460E+01  0.12195149185E+02  0.16397655251E+02  0.22736030888E+02  0.51100000000E-03 0. -1.
        -11    1    3    3    0    0 -0.34287610908E+01  0.13303278985E+02 -0.87860138685E+01  0.16307288994E+02  0.51100000000E-03 0.  1.
        -12    1    3    3    0    0  0.19127342433E+02  0.56122699377E+01 -0.36137102755E+01  0.20258620495E+02  0.00000000000E+00 0.  1.
</event>
<event>
 7    1  0.5662448E-012  0.5930194E+02  0.7816164E-02  0.1266605E+00
        -11   -1    0    0    0    0  0.00000000000E+00  0.00000000000E+00  0.45593999997E+02  0.45594000000E+02  0.51100000000E-03 0.  1.
         11   -1    0    0    0    0 -0.00000000000E+00 -0.00000000000E+00 -0.45593999997E+02  0.45594000000E+02  0.51100000000E-03 0. -1.
    9900012    2    1    2    0    0 -0.14899216942E+02  0.27917820012E+02  0.39152779640E+01  0.59301941272E+02  0.49999994974E+02 0.  0.
         12    1    1    2    0    0  0.14899216942E+02 -0.27917820012E+02 -0.39152779640E+01  0.31886058728E+02  0.00000000000E+00 0. -1.
         11    1    3    3    0    0  0.43932208770E+01 -0.58949504701E+01 -0.95808757823E+01  0.12076589408E+02  0.51100000000E-03 0. -1.
        -11    1    3    3    0    0 -0.54307040213E+01 -0.15172628768E+01 -0.23359787639E+01  0.61033949447E+01  0.51100000000E-03 0.  1.
        -12    1    3    3    0    0 -0.13861733797E+02  0.35330033359E+02  0.15832132510E+02  0.41121956919E+02  0.00000000000E+00 0.  1.
</event>
<event>
 7    1  0.5662448E-012  0.5930195E+02  0.7816164E-02  0.1266605E+00
        -11   -1    0    0    0    0  0.00000000000E+00  0.00000000000E+00  0.45593999997E+02  0.45594000000E+02  0.51100000000E-03 0.  1.
         11   -1    0    0    0    0 -0.00000000000E+00 -0.00000000000E+00 -0.45593999997E+02  0.45594000000E+02  0.51100000000E-03 0. -1.
    9900012    2    1    2    0    0  0.62767623940E+01  0.25830438826E+02 -0.17609969710E+02  0.59301947418E+02  0.50000006183E+02 0.  0.
         12    1    1    2    0    0 -0.62767623940E+01 -0.25830438826E+02  0.17609969710E+02  0.31886052582E+02  0.00000000000E+00 0. -1.
         11    1    3    3    0    0  0.16756173729E+01 -0.12124668786E+01 -0.13060491466E+01  0.24461263554E+01  0.51100000000E-03 0. -1.
        -11    1    3    3    0    0  0.56318885651E+00 -0.13602861778E+02 -0.44900200362E+01  0.14335805189E+02  0.51100000000E-03 0.  1.
         12    1    3    3    0    0  0.40379561646E+01  0.40645767482E+02 -0.11813900527E+02  0.42520015873E+02  0.00000000000E+00 0. -1.
</event>
<event>
 7    1  0.5662448E-012  0.5930194E+02  0.7816164E-02  0.1266605E+00
        -11   -1    0    0    0    0  0.00000000000E+00  0.00000000000E+00  0.45593999997E+02  0.45594000000E+02  0.51100000000E-03 0.  1.
         11   -1    0    0    0    0 -0.00000000000E+00 -0.00000000000E+00 -0.45593999997E+02  0.45594000000E+02  0.51100000000E-03 0. -1.
    9900012    2    1    2    0    0  0.17001420972E+02  0.26972882969E+02  0.36897542353E+00  0.59301939197E+02  0.49999991189E+02 0.  0.
         12    1    1    2    0    0 -0.17001420972E+02 -0.26972882969E+02 -0.36897542353E+00  0.31886060803E+02  0.00000000000E+00 0. -1.
         11    1    3    3    0    0  0.68059772062E+01 -0.67118754291E+01  0.12441131571E+02  0.15689243211E+02  0.51100000000E-03 0. -1.
        -11    1    3    3    0    0  0.75158706044E+01  0.15947956939E+02  0.55336518504E+01  0.18478283052E+02  0.51100000000E-03 0.  1.
         12    1    3    3    0    0  0.26795731613E+01  0.17736801459E+02 -0.17605807997E+02  0.25134412934E+02  0.00000000000E+00 0. -1.
</event>
<event>
 7    1  0.5662448E-012  0.5930196E+02  0.7816164E-02  0.1266605E+00
        -11   -1    0    0    0    0  0.00000000000E+00  0.00000000000E+00  0.45593999997E+02  0.45594000000E+02  0.51100000000E-03 0.  1.
         11   -1    0    0    0    0 -0.00000000000E+00 -0.00000000000E+00 -0.45593999997E+02  0.45594000000E+02  0.51100000000E-03 0. -1.
    9900012    2    1    2    0    0  0.24308559503E+02  0.44912443632E+00 -0.20630354567E+02  0.59301963754E+02  0.50000035977E+02 0.  0.
         12    1    1    2    0    0 -0.24308559503E+02 -0.44912443632E+00  0.20630354567E+02  0.31886036246E+02  0.00000000000E+00 0. -1.
         11    1    3    3    0    0  0.46220180007E+01 -0.84710551520E+01  0.90016970577E+01  0.13196680490E+02  0.51100000000E-03 0. -1.
        -11    1    3    3    0    0  0.25248423314E+02  0.35592792906E+01 -0.15062998853E+02  0.29614950340E+02  0.51100000000E-03 0.  1.
         12    1    3    3    0    0 -0.55618818115E+01  0.53609002977E+01 -0.14569052772E+02  0.16490332924E+02  0.00000000000E+00 0. -1.
</event>
<event>
 7    1  0.5662448E-012  0.5930196E+02  0.7816164E-02  0.1266605E+00
        -11   -1    0    0    0    0  0.00000000000E+00  0.00000000000E+00  0.45593999997E+02  0.45594000000E+02  0.51100000000E-03 0.  1.
         11   -1    0    0    0    0 -0.00000000000E+00 -0.00000000000E+00 -0.45593999997E+02  0.45594000000E+02  0.51100000000E-03 0. -1.
    9900012    2    1    2    0    0 -0.20972209815E+02  0.22223910447E+02  0.91095391916E+01  0.59301960980E+02  0.50000030917E+02 0.  0.
         12    1    1    2    0    0  0.20972209815E+02 -0.22223910447E+02 -0.91095391916E+01  0.31886039020E+02  0.00000000000E+00 0. -1.
         11    1    3    3    0    0 -0.11339699625E+02 -0.26288033232E+01  0.13485465731E+02  0.17814521625E+02  0.51100000000E-03 0. -1.
        -11    1    3    3    0    0  0.11368431108E+02  0.54846023061E+01 -0.24184340489E+01  0.12851883590E+02  0.51100000000E-03 0.  1.
         12    1    3    3    0    0 -0.21000941298E+02  0.19368111465E+02 -0.19574924904E+01  0.28635555765E+02  0.00000000000E+00 0. -1.
</event>
<event>
 7    1  0.5662448E-012  0.5930195E+02  0.7816164E-02  0.1266605E+00
        -11   -1    0    0    0    0  0.00000000000E+00  0.00000000000E+00  0.45593999997E+02  0.45594000000E+02  0.51100000000E-03 0.  1.
         11   -1    0    0    0    0 -0.00000000000E+00 -0.00000000000E+00 -0.45593999997E+02  0.45594000000E+02  0.51100000000E-03 0. -1.
    9900012    2    1    2    0    0 -0.29579844069E+02 -0.11806195720E+02 -0.15383527182E+01  0.59301953496E+02  0.50000017269E+02 0.  0.
         12    1    1    2    0    0  0.29579844069E+02  0.11806195720E+02  0.15383527182E+01  0.31886046504E+02  0.00000000000E+00 0. -1.
         11    1    3    3    0    0 -0.12916397419E+02 -0.27681499041E+01 -0.80975776277E+01  0.15494087255E+02  0.51100000000E-03 0. -1.
        -11    1    3    3    0    0 -0.20874268775E+02 -0.10369814463E+02 -0.10948672079E+02  0.25751535283E+02  0.51100000000E-03 0.  1.
        -12    1    3    3    0    0  0.42108221245E+01  0.13317686472E+01  0.17507896989E+02  0.18056330958E+02  0.00000000000E+00 0.  1.
</event>
<event>
 7    1  0.5662448E-012  0.5930194E+02  0.7816164E-02  0.1266605E+00
        -11   -1    0    0    0    0  0.00000000000E+00  0.00000000000E+00  0.45593999997E+02  0.45594000000E+02  0.51100000000E-03 0.  1.
         11   -1    0    0    0    0 -0.00000000000E+00 -0.00000000000E+00 -0.45593999997E+02  0.45594000000E+02  0.51100000000E-03 0. -1.
    9900012    2    1    2    0    0 -0.57731150010E+01  0.17349314623E+02  0.26122656466E+02  0.59301941048E+02  0.49999994565E+02 0.  0.
         12    1    1    2    0    0  0.57731150010E+01 -0.17349314623E+02 -0.26122656466E+02  0.31886058952E+02  0.00000000000E+00 0. -1.
         11    1    3    3    0    0  0.16844969880E+02 -0.33528819339E+00 -0.79300110276E+00  0.16866958215E+02  0.51100000000E-03 0. -1.
        -11    1    3    3    0    0 -0.52069865983E+01  0.13727801926E+02  0.14867979956E+02  0.20895503903E+02  0.51100000000E-03 0.  1.
        -12    1    3    3    0    0 -0.17411098282E+02  0.39568008907E+01  0.12047677612E+02  0.21539478929E+02  0.00000000000E+00 0.  1.
</event>
<event>
 7    1  0.5662448E-012  0.5930195E+02  0.7816164E-02  0.1266605E+00
        -11   -1    0    0    0    0  0.00000000000E+00  0.00000000000E+00  0.45593999997E+02  0.45594000000E+02  0.51100000000E-03 0. -1.
         11   -1    0    0    0    0 -0.00000000000E+00 -0.00000000000E+00 -0.45593999997E+02  0.45594000000E+02  0.51100000000E-03 0.  1.
    9900012    2    1    2    0    0  0.58306305889E+01  0.29384907429E+02 -0.10920225780E+02  0.59301947113E+02  0.50000005626E+02 0.  0.
         12    1    1    2    0    0 -0.58306305889E+01 -0.29384907429E+02  0.10920225780E+02  0.31886052887E+02  0.00000000000E+00 0. -1.
         11    1    3    3    0    0 -0.18716887231E+01  0.16633822468E+02  0.73235746686E+01  0.18270796775E+02  0.51100000000E-03 0. -1.
        -11    1    3    3    0    0 -0.98895655611E+01 -0.42737714440E+01 -0.47984525248E+00  0.10784195894E+02  0.51100000000E-03 0.  1.
        -12    1    3    3    0    0  0.17591884873E+02  0.17024856404E+02 -0.17763955196E+02  0.30246954445E+02  0.00000000000E+00 0.  1.
</event>
<event>
 7    1  0.5662448E-012  0.5930194E+02  0.7816164E-02  0.1266605E+00
        -11   -1    0    0    0    0  0.00000000000E+00  0.00000000000E+00  0.45593999997E+02  0.45594000000E+02  0.51100000000E-03 0. -1.
         11   -1    0    0    0    0 -0.00000000000E+00 -0.00000000000E+00 -0.45593999997E+02  0.45594000000E+02  0.51100000000E-03 0.  1.
    9900012    2    1    2    0    0  0.29728705673E+02  0.11262393013E+02 -0.24664290984E+01  0.59301941763E+02  0.49999995870E+02 0.  0.
         12    1    1    2    0    0 -0.29728705673E+02 -0.11262393013E+02  0.24664290984E+01  0.31886058237E+02  0.00000000000E+00 0. -1.
         11    1    3    3    0    0 -0.63069498631E+01  0.53080757508E+01  0.15367253974E+02  0.17438628952E+02  0.51100000000E-03 0. -1.
        -11    1    3    3    0    0  0.36555483508E+01 -0.23801618067E+01 -0.12305713325E+01  0.45323845861E+01  0.51100000000E-03 0.  1.
        -12    1    3    3    0    0  0.32380107186E+02  0.83344790690E+01 -0.16603111740E+02  0.37330928225E+02  0.00000000000E+00 0.  1.
</event>
<event>
 7    1  0.5662448E-012  0.5930196E+02  0.7816164E-02  0.1266605E+00
        -11   -1    0    0    0    0  0.00000000000E+00  0.00000000000E+00  0.45593999997E+02  0.45594000000E+02  0.51100000000E-03 0.  1.
         11   -1    0    0    0    0 -0.00000000000E+00 -0.00000000000E+00 -0.45593999997E+02  0.45594000000E+02  0.51100000000E-03 0. -1.
    9900012    2    1    2    0    0 -0.24090835406E+02  0.20533437132E+02  0.38378757495E+01  0.59301957892E+02  0.50000025286E+02 0.  0.
         12    1    1    2    0    0  0.24090835406E+02 -0.20533437132E+02 -0.38378757495E+01  0.31886042108E+02  0.00000000000E+00 0. -1.
         11    1    3    3    0    0  0.93867576311E+01  0.17695897369E+01 -0.95179282297E+01  0.13484569875E+02  0.51100000000E-03 0. -1.
        -11    1    3    3    0    0 -0.16683490617E+02 -0.85624977790E+00  0.10737961580E+02  0.19858898308E+02  0.51100000000E-03 0.  1.
        -12    1    3    3    0    0 -0.16794102420E+02  0.19620097173E+02  0.26178423993E+01  0.25958489709E+02  0.00000000000E+00 0.  1.
</event>
<event>
 7    1  0.5662448E-012  0.5930195E+02  0.7816164E-02  0.1266605E+00
        -11   -1    0    0    0    0  0.00000000000E+00  0.00000000000E+00  0.45593999997E+02  0.45594000000E+02  0.51100000000E-03 0.  1.
         11   -1    0    0    0    0 -0.00000000000E+00 -0.00000000000E+00 -0.45593999997E+02  0.45594000000E+02  0.51100000000E-03 0. -1.
    9900012    2    1    2    0    0 -0.30561912289E+02  0.51719411810E+01  0.74793725092E+01  0.59301945502E+02  0.50000002688E+02 0.  0.
         12    1    1    2    0    0  0.30561912289E+02 -0.51719411810E+01 -0.74793725092E+01  0.31886054498E+02  0.00000000000E+00 0. -1.
         11    1    3    3    0    0 -0.13732682843E+02 -0.17605047222E+02 -0.51276637957E+01  0.22908889148E+02  0.51100000000E-03 0. -1.
        -11    1    3    3    0    0 -0.45319401024E+01 -0.26494671296E+01  0.47422906427E+01  0.70744242143E+01  0.51100000000E-03 0.  1.
         12    1    3    3    0    0 -0.12297289344E+02  0.25426455533E+02  0.78647456621E+01  0.29318632139E+02  0.00000000000E+00 0. -1.
</event>
<event>
 7    1  0.5662448E-012  0.5930194E+02  0.7816164E-02  0.1266605E+00
        -11   -1    0    0    0    0  0.00000000000E+00  0.00000000000E+00  0.45593999997E+02  0.45594000000E+02  0.51100000000E-03 0.  1.
         11   -1    0    0    0    0 -0.00000000000E+00 -0.00000000000E+00 -0.45593999997E+02  0.45594000000E+02  0.51100000000E-03 0. -1.
    9900012    2    1    2    0    0 -0.10625581484E+02  0.44162477059E+00  0.30060315010E+02  0.59301944227E+02  0.50000000363E+02 0.  0.
         12    1    1    2    0    0  0.10625581484E+02 -0.44162477059E+00 -0.30060315010E+02  0.31886055773E+02  0.00000000000E+00 0. -1.
         11    1    3    3    0    0 -0.65758013165E+01  0.52649512873E+01  0.10961205684E+02  0.13824214456E+02  0.51100000000E-03 0. -1.
        -11    1    3    3    0    0  0.27177177407E+01  0.16775873465E+02  0.14590159665E+02  0.22398407969E+02  0.51100000000E-03 0.  1.
         12    1    3    3    0    0 -0.67674979078E+01 -0.21599199982E+02  0.45089496597E+01  0.23079321801E+02  0.00000000000E+00 0. -1.
</event>
<event>
 7    1  0.5662448E-012  0.5930201E+02  0.7816164E-02  0.1266605E+00
        -11   -1    0    0    0    0  0.00000000000E+00  0.00000000000E+00  0.45593999997E+02  0.45594000000E+02  0.51100000000E-03 0.  1.
         11   -1    0    0    0    0 -0.00000000000E+00 -0.00000000000E+00 -0.45593999997E+02  0.45594000000E+02  0.51100000000E-03 0. -1.
    9900012    2    1    2    0    0 -0.10135890617E+02 -0.29521508417E+02  0.65162057690E+01  0.59302005027E+02  0.50000111247E+02 0.  0.
         12    1    1    2    0    0  0.10135890617E+02  0.29521508417E+02 -0.65162057690E+01  0.31885994973E+02  0.00000000000E+00 0. -1.
         11    1    3    3    0    0  0.86632477363E+00 -0.91370709953E+01 -0.10978946677E+00  0.91787057353E+01  0.51100000000E-03 0.  1.
        -11    1    3    3    0    0  0.81224616696E+01 -0.67966721317E+01  0.20351927978E+02  0.22942757209E+02  0.51100000000E-03 0. -1.
         12    1    3    3    0    0 -0.19124677060E+02 -0.13587765290E+02 -0.13725932743E+02  0.27180542083E+02  0.00000000000E+00 0. -1.
</event>
<event>
 7    1  0.5662448E-012  0.5930186E+02  0.7816164E-02  0.1266605E+00
        -11   -1    0    0    0    0  0.00000000000E+00  0.00000000000E+00  0.45593999997E+02  0.45594000000E+02  0.51100000000E-03 0.  1.
         11   -1    0    0    0    0 -0.00000000000E+00 -0.00000000000E+00 -0.45593999997E+02  0.45594000000E+02  0.51100000000E-03 0. -1.
    9900012    2    1    2    0    0  0.19716091664E+02  0.20270759647E+02  0.14734246710E+02  0.59301858915E+02  0.49999844775E+02 0.  0.
         12    1    1    2    0    0 -0.19716091664E+02 -0.20270759647E+02 -0.14734246710E+02  0.31886141085E+02  0.00000000000E+00 0. -1.
         11    1    3    3    0    0 -0.13323122377E+01 -0.82388164325E+01 -0.44750235402E+00  0.83578352895E+01  0.51100000000E-03 0. -1.
        -11    1    3    3    0    0  0.20507667937E+02  0.81960019218E+01  0.20290705055E+02  0.29990858668E+02  0.51100000000E-03 0.  1.
         12    1    3    3    0    0  0.54073596465E+00  0.20313574158E+02 -0.51089559912E+01  0.20953164958E+02  0.00000000000E+00 0. -1.
</event>
<event>
 7    1  0.5662448E-012  0.5930195E+02  0.7816164E-02  0.1266605E+00
        -11   -1    0    0    0    0  0.00000000000E+00  0.00000000000E+00  0.45593999997E+02  0.45594000000E+02  0.51100000000E-03 0.  1.
         11   -1    0    0    0    0 -0.00000000000E+00 -0.00000000000E+00 -0.45593999997E+02  0.45594000000E+02  0.51100000000E-03 0. -1.
    9900012    2    1    2    0    0 -0.20078816092E+02 -0.14415036244E+01  0.24728194750E+02  0.59301946560E+02  0.50000004619E+02 0.  0.
         12    1    1    2    0    0  0.20078816092E+02  0.14415036244E+01 -0.24728194750E+02  0.31886053440E+02  0.00000000000E+00 0. -1.
         11    1    3    3    0    0 -0.72939342335E+01  0.93019613625E+01 -0.16057379872E+01  0.11929222797E+02  0.51100000000E-03 0. -1.
        -11    1    3    3    0    0  0.90448224323E+01  0.62616803446E+01  0.36458434928E+01  0.11589203105E+02  0.51100000000E-03 0.  1.
        -12    1    3    3    0    0 -0.21829704291E+02 -0.17005145332E+02  0.22688089244E+02  0.35783520659E+02  0.00000000000E+00 0.  1.
</event>
<event>
 7    1  0.5662448E-012  0.5930195E+02  0.7816164E-02  0.1266605E+00
        -11   -1    0    0    0    0  0.00000000000E+00  0.00000000000E+00  0.45593999997E+02  0.45594000000E+02  0.51100000000E-03 0.  1.
         11   -1    0    0    0    0 -0.00000000000E+00 -0.00000000000E+00 -0.45593999997E+02  0.45594000000E+02  0.51100000000E-03 0. -1.
    9900012    2    1    2    0    0 -0.23315100578E+01 -0.24982903928E+02  0.19675847254E+02  0.59301946732E+02  0.50000004932E+02 0.  0.
         12    1    1    2    0    0  0.23315100578E+01  0.24982903928E+02 -0.19675847254E+02  0.31886053268E+02  0.00000000000E+00 0. -1.
         11    1    3    3    0    0  0.56353030270E+01 -0.46871645622E-01  0.22883601871E+02  0.23567309393E+02  0.51100000000E-03 0.  1.
        -11    1    3    3    0    0 -0.80271261920E+01  0.10218089610E+01 -0.53308661363E+01  0.96900455355E+01  0.51100000000E-03 0. -1.
        -12    1    3    3    0    0  0.60313107162E-01 -0.25957841244E+02  0.21231115186E+01  0.26044591804E+02  0.00000000000E+00 0.  1.
</event>
<event>
 7    1  0.5662448E-012  0.5930191E+02  0.7816164E-02  0.1266605E+00
        -11   -1    0    0    0    0  0.00000000000E+00  0.00000000000E+00  0.45593999997E+02  0.45594000000E+02  0.51100000000E-03 0.  1.
         11   -1    0    0    0    0 -0.00000000000E+00 -0.00000000000E+00 -0.45593999997E+02  0.45594000000E+02  0.51100000000E-03 0. -1.
    9900012    2    1    2    0    0 -0.25804933762E+02  0.96167431871E+01  0.16073161037E+02  0.59301908021E+02  0.49999934332E+02 0.  0.
         12    1    1    2    0    0  0.25804933762E+02 -0.96167431871E+01 -0.16073161037E+02  0.31886091979E+02  0.00000000000E+00 0. -1.
         11    1    3    3    0    0 -0.10289177528E+02  0.56093973769E+01 -0.89906294063E+01  0.14770373405E+02  0.51100000000E-03 0. -1.
        -11    1    3    3    0    0 -0.22231744514E+01  0.17435674615E+01 -0.81816166142E+01  0.86557138826E+01  0.51100000000E-03 0.  1.
        -12    1    3    3    0    0 -0.13292581782E+02  0.22637783487E+01  0.33245407058E+02  0.35875820733E+02  0.00000000000E+00 0.  1.
</event>
<event>
 7    1  0.5662448E-012  0.5930195E+02  0.7816164E-02  0.1266605E+00
        -11   -1    0    0    0    0  0.00000000000E+00  0.00000000000E+00  0.45593999997E+02  0.45594000000E+02  0.51100000000E-03 0.  1.
         11   -1    0    0    0    0 -0.00000000000E+00 -0.00000000000E+00 -0.45593999997E+02  0.45594000000E+02  0.51100000000E-03 0. -1.
    9900012    2    1    2    0    0  0.23146618024E+02 -0.34558492211E+01 -0.21656668983E+02  0.59301950837E+02  0.50000012419E+02 0.  0.
         12    1    1    2    0    0 -0.23146618024E+02  0.34558492211E+01  0.21656668983E+02  0.31886049163E+02  0.00000000000E+00 0. -1.
         11    1    3    3    0    0  0.50264517034E+01 -0.10711889579E+02 -0.16822664308E+02  0.20567251391E+02  0.51100000000E-03 0. -1.
        -11    1    3    3    0    0  0.35006105572E+01 -0.12984868726E+02 -0.11779430098E+01  0.13499949633E+02  0.51100000000E-03 0.  1.
        -12    1    3    3    0    0  0.14619555763E+02  0.20240909084E+02 -0.36560616646E+01  0.25234749813E+02  0.00000000000E+00 0.  1.
</event>
<event>
 7    1  0.5662448E-012  0.5930184E+02  0.7816164E-02  0.1266605E+00
        -11   -1    0    0    0    0  0.00000000000E+00  0.00000000000E+00  0.45593999997E+02  0.45594000000E+02  0.51100000000E-03 0.  1.
         11   -1    0    0    0    0 -0.00000000000E+00 -0.00000000000E+00 -0.45593999997E+02  0.45594000000E+02  0.51100000000E-03 0. -1.
    9900012    2    1    2    0    0  0.51716361702E+00 -0.11933550675E+02  0.29564338976E+02  0.59301839538E+02  0.49999809436E+02 0.  0.
         12    1    1    2    0    0 -0.51716361702E+00  0.11933550675E+02 -0.29564338976E+02  0.31886160462E+02  0.00000000000E+00 0. -1.
         11    1    3    3    0    0  0.15149764683E+02 -0.53687019535E+01  0.41819555717E+01  0.16608042729E+02  0.51100000000E-03 0. -1.
        -11    1    3    3    0    0 -0.75818028033E+01 -0.16292393430E+02  0.43772619222E+01  0.18495573514E+02  0.51100000000E-03 0.  1.
        -12    1    3    3    0    0 -0.70507982625E+01  0.97275447082E+01  0.21005121482E+02  0.24198223295E+02  0.00000000000E+00 0.  1.
</event>
<event>
 7    1  0.5662448E-012  0.5930195E+02  0.7816164E-02  0.1266605E+00
        -11   -1    0    0    0    0  0.00000000000E+00  0.00000000000E+00  0.45593999997E+02  0.45594000000E+02  0.51100000000E-03 0.  1.
         11   -1    0    0    0    0 -0.00000000000E+00 -0.00000000000E+00 -0.45593999997E+02  0.45594000000E+02  0.51100000000E-03 0. -1.
    9900012    2    1    2    0    0  0.70152828705E+01  0.13133228145E+02  0.28196178856E+02  0.59301946978E+02  0.50000005380E+02 0.  0.
         12    1    1    2    0    0 -0.70152828705E+01 -0.13133228145E+02 -0.28196178856E+02  0.31886053022E+02  0.00000000000E+00 0. -1.
         11    1    3    3    0    0  0.28186671090E+01 -0.54433445896E+00 -0.99812827806E+00  0.30393164684E+01  0.51100000000E-03 0. -1.
        -11    1    3    3    0    0  0.76554883760E+01  0.29836963393E+02  0.14084289678E+02  0.33870608243E+02  0.51100000000E-03 0.  1.
         12    1    3    3    0    0 -0.34588726145E+01 -0.16159400789E+02  0.15110017456E+02  0.22392022266E+02  0.00000000000E+00 0. -1.
</event>
<event>
 7    1  0.5662448E-012  0.5930196E+02  0.7816164E-02  0.1266605E+00
        -11   -1    0    0    0    0  0.00000000000E+00  0.00000000000E+00  0.45593999997E+02  0.45594000000E+02  0.51100000000E-03 0. -1.
         11   -1    0    0    0    0 -0.00000000000E+00 -0.00000000000E+00 -0.45593999997E+02  0.45594000000E+02  0.51100000000E-03 0.  1.
    9900012    2    1    2    0    0  0.29000501663E+02 -0.15511520847E+01 -0.13163749311E+02  0.59301961277E+02  0.50000031459E+02 0.  0.
         12    1    1    2    0    0 -0.29000501663E+02  0.15511520847E+01  0.13163749311E+02  0.31886038723E+02  0.00000000000E+00 0. -1.
         11    1    3    3    0    0 -0.63628217338E+01 -0.10151092931E+00 -0.13590346048E+01  0.65071330248E+01  0.51100000000E-03 0. -1.
        -11    1    3    3    0    0  0.21059826174E+02  0.76080494632E+01 -0.23312017684E+02  0.32324122012E+02  0.51100000000E-03 0.  1.
         12    1    3    3    0    0  0.14303497223E+02 -0.90576906187E+01  0.11507302978E+02  0.20470706240E+02  0.00000000000E+00 0. -1.
</event>
<event>
 7    1  0.5662448E-012  0.5930193E+02  0.7816164E-02  0.1266605E+00
        -11   -1    0    0    0    0  0.00000000000E+00  0.00000000000E+00  0.45593999997E+02  0.45594000000E+02  0.51100000000E-03 0.  1.
         11   -1    0    0    0    0 -0.00000000000E+00 -0.00000000000E+00 -0.45593999997E+02  0.45594000000E+02  0.51100000000E-03 0. -1.
    9900012    2    1    2    0    0 -0.25909549564E+01 -0.25596235704E+02  0.18837222255E+02  0.59301932947E+02  0.49999979792E+02 0.  0.
         12    1    1    2    0    0  0.25909549564E+01  0.25596235704E+02 -0.18837222255E+02  0.31886067053E+02  0.00000000000E+00 0. -1.
         11    1    3    3    0    0  0.15953418567E+02  0.47129996399E+01  0.53240436575E+01  0.17466235162E+02  0.51100000000E-03 0. -1.
        -11    1    3    3    0    0 -0.93992322988E+01 -0.31422532894E+01 -0.51155817309E+00  0.99237601526E+01  0.51100000000E-03 0.  1.
        -12    1    3    3    0    0 -0.91451412250E+01 -0.27166982055E+02  0.14024736771E+02  0.31911937633E+02  0.00000000000E+00 0.  1.
</event>
<event>
 7    1  0.5662448E-012  0.5930190E+02  0.7816164E-02  0.1266605E+00
        -11   -1    0    0    0    0  0.00000000000E+00  0.00000000000E+00  0.45593999997E+02  0.45594000000E+02  0.51100000000E-03 0. -1.
         11   -1    0    0    0    0 -0.00000000000E+00 -0.00000000000E+00 -0.45593999997E+02  0.45594000000E+02  0.51100000000E-03 0.  1.
    9900012    2    1    2    0    0 -0.21795157345E+02 -0.16289238695E+02 -0.16623937975E+02  0.59301898094E+02  0.49999916229E+02 0.  0.
         12    1    1    2    0    0  0.21795157345E+02  0.16289238695E+02  0.16623937975E+02  0.31886101906E+02  0.00000000000E+00 0. -1.
         11    1    3    3    0    0 -0.11086757344E+02 -0.11300596658E+02 -0.34992409230E+01  0.16213092257E+02  0.51100000000E-03 0. -1.
        -11    1    3    3    0    0 -0.16122374107E+02  0.13767462836E+02 -0.41515223528E+01  0.21603451528E+02  0.51100000000E-03 0.  1.
         12    1    3    3    0    0  0.54139741069E+01 -0.18756104873E+02 -0.89731746992E+01  0.21485354309E+02  0.00000000000E+00 0. -1.
</event>
<event>
 7    1  0.5662448E-012  0.5930195E+02  0.7816164E-02  0.1266605E+00
        -11   -1    0    0    0    0  0.00000000000E+00  0.00000000000E+00  0.45593999997E+02  0.45594000000E+02  0.51100000000E-03 0. -1.
         11   -1    0    0    0    0 -0.00000000000E+00 -0.00000000000E+00 -0.45593999997E+02  0.45594000000E+02  0.51100000000E-03 0.  1.
    9900012    2    1    2    0    0  0.23225137016E+02  0.16684998358E+02 -0.14104053879E+02  0.59301945126E+02  0.50000002003E+02 0.  0.
         12    1    1    2    0    0 -0.23225137016E+02 -0.16684998358E+02  0.14104053879E+02  0.31886054874E+02  0.00000000000E+00 0. -1.
         11    1    3    3    0    0  0.18156722474E+02 -0.98708952282E+01 -0.10919907803E+02  0.23374035387E+02  0.51100000000E-03 0. -1.
        -11    1    3    3    0    0  0.45245196375E+01  0.35166077712E+01 -0.10318693738E+02  0.11803103358E+02  0.51100000000E-03 0.  1.
        -12    1    3    3    0    0  0.54389490428E+00  0.23039285815E+02  0.71345476622E+01  0.24124806380E+02  0.00000000000E+00 0.  1.
</event>
<event>
 7    1  0.5662448E-012  0.5930197E+02  0.7816164E-02  0.1266605E+00
        -11   -1    0    0    0    0  0.00000000000E+00  0.00000000000E+00  0.45593999997E+02  0.45594000000E+02  0.51100000000E-03 0.  1.
         11   -1    0    0    0    0 -0.00000000000E+00 -0.00000000000E+00 -0.45593999997E+02  0.45594000000E+02  0.51100000000E-03 0. -1.
    9900012    2    1    2    0    0  0.73245871772E+01 -0.29796567797E+02 -0.86737638475E+01  0.59301965297E+02  0.50000038790E+02 0.  0.
         12    1    1    2    0    0 -0.73245871772E+01  0.29796567797E+02  0.86737638475E+01  0.31886034703E+02  0.00000000000E+00 0. -1.
         11    1    3    3    0    0 -0.15591853811E+01 -0.12878298267E+02 -0.10389440875E+02  0.16619931024E+02  0.51100000000E-03 0. -1.
        -11    1    3    3    0    0 -0.38505246875E+01  0.10969254194E+02  0.29705224364E+01  0.11998961695E+02  0.51100000000E-03 0.  1.
         12    1    3    3    0    0  0.12734297246E+02 -0.27887523724E+02 -0.12548454093E+01  0.30683072578E+02  0.00000000000E+00 0. -1.
</event>
<event>
 7    1  0.5662448E-012  0.5930192E+02  0.7816164E-02  0.1266605E+00
        -11   -1    0    0    0    0  0.00000000000E+00  0.00000000000E+00  0.45593999997E+02  0.45594000000E+02  0.51100000000E-03 0.  1.
         11   -1    0    0    0    0 -0.00000000000E+00 -0.00000000000E+00 -0.45593999997E+02  0.45594000000E+02  0.51100000000E-03 0. -1.
    9900012    2    1    2    0    0 -0.18791574165E+02 -0.25758852359E+02 -0.28305334345E+00  0.59301923827E+02  0.49999963160E+02 0.  0.
         12    1    1    2    0    0  0.18791574165E+02  0.25758852359E+02  0.28305334345E+00  0.31886076173E+02  0.00000000000E+00 0. -1.
         11    1    3    3    0    0  0.72544199119E+01 -0.19666291517E+02 -0.38083181955E+00  0.20965082004E+02  0.51100000000E-03 0. -1.
        -11    1    3    3    0    0 -0.18078239900E+02 -0.10046119314E+02 -0.11544264806E+02  0.23685804215E+02  0.51100000000E-03 0.  1.
        -12    1    3    3    0    0 -0.79677541773E+01  0.39535584719E+01  0.11642043282E+02  0.14651037608E+02  0.00000000000E+00 0.  1.
</event>
<event>
 7    1  0.5662448E-012  0.5930186E+02  0.7816164E-02  0.1266605E+00
        -11   -1    0    0    0    0  0.00000000000E+00  0.00000000000E+00  0.45593999997E+02  0.45594000000E+02  0.51100000000E-03 0.  1.
         11   -1    0    0    0    0 -0.00000000000E+00 -0.00000000000E+00 -0.45593999997E+02  0.45594000000E+02  0.51100000000E-03 0. -1.
    9900012    2    1    2    0    0  0.17410518757E+02 -0.14505045641E+02  0.22432200560E+02  0.59301856703E+02  0.49999840740E+02 0.  0.
         12    1    1    2    0    0 -0.17410518757E+02  0.14505045641E+02 -0.22432200560E+02  0.31886143297E+02  0.00000000000E+00 0. -1.
         11    1    3    3    0    0  0.68621251581E+01  0.65455426177E+01  0.25669185713E+00  0.94867687237E+01  0.51100000000E-03 0. -1.
        -11    1    3    3    0    0 -0.11658651047E+02 -0.11215026735E+02 -0.10481292525E+01  0.16211093242E+02  0.51100000000E-03 0.  1.
        -12    1    3    3    0    0  0.22207044646E+02 -0.98355615245E+01  0.23223637955E+02  0.33603994737E+02  0.00000000000E+00 0.  1.
</event>
<event>
 7    1  0.5662448E-012  0.5930196E+02  0.7816164E-02  0.1266605E+00
        -11   -1    0    0    0    0  0.00000000000E+00  0.00000000000E+00  0.45593999997E+02  0.45594000000E+02  0.51100000000E-03 0. -1.
         11   -1    0    0    0    0 -0.00000000000E+00 -0.00000000000E+00 -0.45593999997E+02  0.45594000000E+02  0.51100000000E-03 0.  1.
    9900012    2    1    2    0    0  0.21837200846E+02  0.22134683862E+02 -0.70648445754E+01  0.59301959178E+02  0.50000027630E+02 0.  0.
         12    1    1    2    0    0 -0.21837200846E+02 -0.22134683862E+02  0.70648445754E+01  0.31886040822E+02  0.00000000000E+00 0. -1.
         11    1    3    3    0    0 -0.35104173471E+01 -0.45592752088E+01  0.39017248554E+01  0.69522282392E+01  0.51100000000E-03 0. -1.
        -11    1    3    3    0    0  0.17064415700E+02  0.11758919250E+02  0.11832385040E+02  0.23863608300E+02  0.51100000000E-03 0.  1.
         12    1    3    3    0    0  0.82832024934E+01  0.14935039820E+02 -0.22798954471E+02  0.28486122638E+02  0.00000000000E+00 0. -1.
</event>
<event>
 7    1  0.5662448E-012  0.5930194E+02  0.7816164E-02  0.1266605E+00
        -11   -1    0    0    0    0  0.00000000000E+00  0.00000000000E+00  0.45593999997E+02  0.45594000000E+02  0.51100000000E-03 0.  1.
         11   -1    0    0    0    0 -0.00000000000E+00 -0.00000000000E+00 -0.45593999997E+02  0.45594000000E+02  0.51100000000E-03 0. -1.
    9900012    2    1    2    0    0  0.26351635135E+02 -0.29988892905E+01  0.17700816632E+02  0.59301938457E+02  0.49999989840E+02 0.  0.
         12    1    1    2    0    0 -0.26351635135E+02  0.29988892905E+01 -0.17700816632E+02  0.31886061543E+02  0.00000000000E+00 0. -1.
         11    1    3    3    0    0  0.25147351938E+02  0.43004574051E+01  0.97379007265E+01  0.27307690386E+02  0.51100000000E-03 0. -1.
        -11    1    3    3    0    0  0.52541985420E+01  0.47350601665E+01  0.15633874143E+02  0.17159411938E+02  0.51100000000E-03 0.  1.
         12    1    3    3    0    0 -0.40499153444E+01 -0.12034406862E+02 -0.76709582372E+01  0.14834836133E+02  0.00000000000E+00 0. -1.
</event>
<event>
 7    1  0.5662448E-012  0.5930199E+02  0.7816164E-02  0.1266605E+00
        -11   -1    0    0    0    0  0.00000000000E+00  0.00000000000E+00  0.45593999997E+02  0.45594000000E+02  0.51100000000E-03 0. -1.
         11   -1    0    0    0    0 -0.00000000000E+00 -0.00000000000E+00 -0.45593999997E+02  0.45594000000E+02  0.51100000000E-03 0.  1.
    9900012    2    1    2    0    0  0.23767661953E+02  0.14746509510E+02 -0.15308698870E+02  0.59301991179E+02  0.50000085993E+02 0.  0.
         12    1    1    2    0    0 -0.23767661953E+02 -0.14746509510E+02  0.15308698870E+02  0.31886008821E+02  0.00000000000E+00 0. -1.
         11    1    3    3    0    0  0.43588673297E+00 -0.63934236835E+01 -0.14383286385E+02  0.15746262768E+02  0.51100000000E-03 0. -1.
        -11    1    3    3    0    0  0.24398767065E+02  0.99956530351E+01 -0.10929046503E+02  0.28542196335E+02  0.51100000000E-03 0.  1.
         12    1    3    3    0    0 -0.10669918452E+01  0.11144280158E+02  0.10003634018E+02  0.15013532077E+02  0.00000000000E+00 0. -1.
</event>
<event>
 7    1  0.5662448E-012  0.5930191E+02  0.7816164E-02  0.1266605E+00
        -11   -1    0    0    0    0  0.00000000000E+00  0.00000000000E+00  0.45593999997E+02  0.45594000000E+02  0.51100000000E-03 0.  1.
         11   -1    0    0    0    0 -0.00000000000E+00 -0.00000000000E+00 -0.45593999997E+02  0.45594000000E+02  0.51100000000E-03 0. -1.
    9900012    2    1    2    0    0 -0.11732015898E+02  0.25921326436E+02  0.14393309893E+02  0.59301910071E+02  0.49999938072E+02 0.  0.
         12    1    1    2    0    0  0.11732015898E+02 -0.25921326436E+02 -0.14393309893E+02  0.31886089929E+02  0.00000000000E+00 0. -1.
         11    1    3    3    0    0  0.33877725002E+00  0.16829433646E+02 -0.11499035997E+01  0.16872074129E+02  0.51100000000E-03 0.  1.
        -11    1    3    3    0    0 -0.22376706629E+02  0.70838934288E+01 -0.24089336647E+00  0.23472464198E+02  0.51100000000E-03 0. -1.
         12    1    3    3    0    0  0.10305913481E+02  0.20079993617E+01  0.15784106859E+02  0.18957371744E+02  0.00000000000E+00 0. -1.
</event>
<event>
 7    1  0.5662448E-012  0.5930194E+02  0.7816164E-02  0.1266605E+00
        -11   -1    0    0    0    0  0.00000000000E+00  0.00000000000E+00  0.45593999997E+02  0.45594000000E+02  0.51100000000E-03 0.  1.
         11   -1    0    0    0    0 -0.00000000000E+00 -0.00000000000E+00 -0.45593999997E+02  0.45594000000E+02  0.51100000000E-03 0. -1.
    9900012    2    1    2    0    0  0.12078078678E+02  0.15344003947E+01  0.29470089160E+02  0.59301944675E+02  0.50000001180E+02 0.  0.
         12    1    1    2    0    0 -0.12078078678E+02 -0.15344003947E+01 -0.29470089160E+02  0.31886055325E+02  0.00000000000E+00 0. -1.
         11    1    3    3    0    0 -0.76641345718E+01 -0.40206865328E+01 -0.26599736918E+00  0.86588471398E+01  0.51100000000E-03 0. -1.
        -11    1    3    3    0    0 -0.16332430784E+01 -0.44831367729E+01  0.26359378967E+02  0.26787737084E+02  0.51100000000E-03 0.  1.
         12    1    3    3    0    0  0.21375456328E+02  0.10038223700E+02  0.33767075617E+01  0.23855360451E+02  0.00000000000E+00 0. -1.
</event>
<event>
 7    1  0.5662448E-012  0.5930193E+02  0.7816164E-02  0.1266605E+00
        -11   -1    0    0    0    0  0.00000000000E+00  0.00000000000E+00  0.45593999997E+02  0.45594000000E+02  0.51100000000E-03 0. -1.
         11   -1    0    0    0    0 -0.00000000000E+00 -0.00000000000E+00 -0.45593999997E+02  0.45594000000E+02  0.51100000000E-03 0.  1.
    9900012    2    1    2    0    0  0.12157237907E+02 -0.29477470249E+02 -0.38901307553E-01  0.59301934092E+02  0.49999981879E+02 0.  0.
         12    1    1    2    0    0 -0.12157237907E+02  0.29477470249E+02  0.38901307553E-01  0.31886065908E+02  0.00000000000E+00 0. -1.
         11    1    3    3    0    0  0.25912212621E+01  0.23200370769E+01  0.16401989206E+02  0.16766700625E+02  0.51100000000E-03 0. -1.
        -11    1    3    3    0    0  0.26106280333E+01 -0.75743990010E+01  0.50024300930E+01  0.94451683972E+01  0.51100000000E-03 0.  1.
        -12    1    3    3    0    0  0.69553886114E+01 -0.24223108325E+02 -0.21443320607E+02  0.33090065069E+02  0.00000000000E+00 0.  1.
</event>
<event>
 7    1  0.5662448E-012  0.5930194E+02  0.7816164E-02  0.1266605E+00
        -11   -1    0    0    0    0  0.00000000000E+00  0.00000000000E+00  0.45593999997E+02  0.45594000000E+02  0.51100000000E-03 0.  1.
         11   -1    0    0    0    0 -0.00000000000E+00 -0.00000000000E+00 -0.45593999997E+02  0.45594000000E+02  0.51100000000E-03 0. -1.
    9900012    2    1    2    0    0  0.83137427251E+01  0.50487374992E+00  0.30779016390E+02  0.59301936186E+02  0.49999985699E+02 0.  0.
         12    1    1    2    0    0 -0.83137427251E+01 -0.50487374992E+00 -0.30779016390E+02  0.31886063814E+02  0.00000000000E+00 0. -1.
         11    1    3    3    0    0  0.92872836690E+01  0.75027536891E+01 -0.66132218858E+01  0.13648430490E+02  0.51100000000E-03 0. -1.
        -11    1    3    3    0    0 -0.43174388052E+01  0.77781111864E+01  0.58087467891E+01  0.10624539095E+02  0.51100000000E-03 0.  1.
         12    1    3    3    0    0  0.33438978613E+01 -0.14775991126E+02  0.31583491487E+02  0.35028966601E+02  0.00000000000E+00 0. -1.
</event>
<event>
 7    1  0.5662448E-012  0.5930195E+02  0.7816164E-02  0.1266605E+00
        -11   -1    0    0    0    0  0.00000000000E+00  0.00000000000E+00  0.45593999997E+02  0.45594000000E+02  0.51100000000E-03 0.  1.
         11   -1    0    0    0    0 -0.00000000000E+00 -0.00000000000E+00 -0.45593999997E+02  0.45594000000E+02  0.51100000000E-03 0. -1.
    9900012    2    1    2    0    0 -0.15300339905E+02  0.15494811636E+02  0.23292291016E+02  0.59301946472E+02  0.50000004458E+02 0.  0.
         12    1    1    2    0    0  0.15300339905E+02 -0.15494811636E+02 -0.23292291016E+02  0.31886053528E+02  0.00000000000E+00 0. -1.
         11    1    3    3    0    0 -0.10961381060E+02  0.65882556283E+01  0.13732556803E+02  0.18765396440E+02  0.51100000000E-03 0. -1.
        -11    1    3    3    0    0 -0.67722410683E+01  0.14973544102E+02  0.21417785492E+02  0.26996144312E+02  0.51100000000E-03 0.  1.
         12    1    3    3    0    0  0.24332822233E+01 -0.60669880940E+01 -0.11858051279E+02  0.13540405720E+02  0.00000000000E+00 0. -1.
</event>
<event>
 7    1  0.5662448E-012  0.5930193E+02  0.7816164E-02  0.1266605E+00
        -11   -1    0    0    0    0  0.00000000000E+00  0.00000000000E+00  0.45593999997E+02  0.45594000000E+02  0.51100000000E-03 0.  1.
         11   -1    0    0    0    0 -0.00000000000E+00 -0.00000000000E+00 -0.45593999997E+02  0.45594000000E+02  0.51100000000E-03 0. -1.
    9900012    2    1    2    0    0 -0.16314260403E+02 -0.23153522170E+02  0.14645154224E+02  0.59301933708E+02  0.49999981179E+02 0.  0.
         12    1    1    2    0    0  0.16314260403E+02  0.23153522170E+02 -0.14645154224E+02  0.31886066292E+02  0.00000000000E+00 0. -1.
         11    1    3    3    0    0 -0.47070077638E+01  0.60146421541E+01 -0.59723114069E+01  0.96953775652E+01  0.51100000000E-03 0. -1.
        -11    1    3    3    0    0  0.58297588821E+01 -0.18568569740E+00  0.13966185540E+02  0.15135220732E+02  0.51100000000E-03 0.  1.
        -12    1    3    3    0    0 -0.17437011521E+02 -0.28982478627E+02  0.66512800902E+01  0.34471335410E+02  0.00000000000E+00 0.  1.
</event>
<event>
 7    1  0.5662448E-012  0.5930196E+02  0.7816164E-02  0.1266605E+00
        -11   -1    0    0    0    0  0.00000000000E+00  0.00000000000E+00  0.45593999997E+02  0.45594000000E+02  0.51100000000E-03 0. -1.
         11   -1    0    0    0    0 -0.00000000000E+00 -0.00000000000E+00 -0.45593999997E+02  0.45594000000E+02  0.51100000000E-03 0.  1.
    9900012    2    1    2    0    0 -0.29652439418E+02  0.18467255152E+01 -0.11577660619E+02  0.59301956283E+02  0.50000022350E+02 0.  0.
         12    1    1    2    0    0  0.29652439418E+02 -0.18467255152E+01  0.11577660619E+02  0.31886043717E+02  0.00000000000E+00 0. -1.
         11    1    3    3    0    0 -0.53314423736E+01 -0.15803784794E+00  0.47653289638E+01  0.71524551126E+01  0.51100000000E-03 0. -1.
        -11    1    3    3    0    0 -0.28332685407E+02 -0.14177515592E+02 -0.52238927537E+01  0.32109688047E+02  0.51100000000E-03 0.  1.
        -12    1    3    3    0    0  0.40116883628E+01  0.16182278955E+02 -0.11119096829E+02  0.20039813123E+02  0.00000000000E+00 0.  1.
</event>
<event>
 7    1  0.5662448E-012  0.5930193E+02  0.7816164E-02  0.1266605E+00
        -11   -1    0    0    0    0  0.00000000000E+00  0.00000000000E+00  0.45593999997E+02  0.45594000000E+02  0.51100000000E-03 0.  1.
         11   -1    0    0    0    0 -0.00000000000E+00 -0.00000000000E+00 -0.45593999997E+02  0.45594000000E+02  0.51100000000E-03 0. -1.
    9900012    2    1    2    0    0 -0.30661022001E+02 -0.18406502402E+01  0.85577481837E+01  0.59301932237E+02  0.49999978496E+02 0.  0.
         12    1    1    2    0    0  0.30661022001E+02  0.18406502402E+01 -0.85577481837E+01  0.31886067763E+02  0.00000000000E+00 0. -1.
         11    1    3    3    0    0 -0.70693481753E+01 -0.34858756258E+01 -0.56546087257E+01  0.97005985694E+01  0.51100000000E-03 0. -1.
        -11    1    3    3    0    0  0.27065228480E+01 -0.99923842737E-01 -0.12076064792E+02  0.12376049120E+02  0.51100000000E-03 0.  1.
        -12    1    3    3    0    0 -0.26298196673E+02  0.17451492283E+01  0.26288421701E+02  0.37225284547E+02  0.00000000000E+00 0.  1.
</event>
<event>
 7    1  0.5662448E-012  0.5930199E+02  0.7816164E-02  0.1266605E+00
        -11   -1    0    0    0    0  0.00000000000E+00  0.00000000000E+00  0.45593999997E+02  0.45594000000E+02  0.51100000000E-03 0.  1.
         11   -1    0    0    0    0 -0.00000000000E+00 -0.00000000000E+00 -0.45593999997E+02  0.45594000000E+02  0.51100000000E-03 0. -1.
    9900012    2    1    2    0    0 -0.11552369159E+02  0.17023137628E+02  0.24361309412E+02  0.59301986700E+02  0.50000077824E+02 0.  0.
         12    1    1    2    0    0  0.11552369159E+02 -0.17023137628E+02 -0.24361309412E+02  0.31886013300E+02  0.00000000000E+00 0. -1.
         11    1    3    3    0    0 -0.12808485504E+02  0.43569544365E+01  0.11061083982E+01  0.13574381345E+02  0.51100000000E-03 0. -1.
        -11    1    3    3    0    0 -0.13974619042E+02  0.17641982950E+02  0.88580173220E+01  0.24186649436E+02  0.51100000000E-03 0.  1.
         12    1    3    3    0    0  0.15230735387E+02 -0.49757997578E+01  0.14397183691E+02  0.21540955919E+02  0.00000000000E+00 0. -1.
</event>
<event>
 7    1  0.5662448E-012  0.5930193E+02  0.7816164E-02  0.1266605E+00
        -11   -1    0    0    0    0  0.00000000000E+00  0.00000000000E+00  0.45593999997E+02  0.45594000000E+02  0.51100000000E-03 0. -1.
         11   -1    0    0    0    0 -0.00000000000E+00 -0.00000000000E+00 -0.45593999997E+02  0.45594000000E+02  0.51100000000E-03 0.  1.
    9900012    2    1    2    0    0  0.23599514410E+02 -0.15448708416E+02 -0.14870165970E+02  0.59301929247E+02  0.49999973043E+02 0.  0.
         12    1    1    2    0    0 -0.23599514410E+02  0.15448708416E+02  0.14870165970E+02  0.31886070753E+02  0.00000000000E+00 0. -1.
         11    1    3    3    0    0  0.11124670474E+02 -0.82716653336E+00 -0.42924590662E+01  0.11952727836E+02  0.51100000000E-03 0. -1.
        -11    1    3    3    0    0  0.21112545750E+02  0.68253923968E+01 -0.96876398111E+01  0.24211070500E+02  0.51100000000E-03 0.  1.
         12    1    3    3    0    0 -0.86377018131E+01 -0.21446934280E+02 -0.89006709265E+00  0.23138130911E+02  0.00000000000E+00 0. -1.
</event>
<event>
 7    1  0.5662448E-012  0.5930193E+02  0.7816164E-02  0.1266605E+00
        -11   -1    0    0    0    0  0.00000000000E+00  0.00000000000E+00  0.45593999997E+02  0.45594000000E+02  0.51100000000E-03 0. -1.
         11   -1    0    0    0    0 -0.00000000000E+00 -0.00000000000E+00 -0.45593999997E+02  0.45594000000E+02  0.51100000000E-03 0.  1.
    9900012    2    1    2    0    0  0.14123460139E+02  0.14818181185E+01 -0.28549140286E+02  0.59301932160E+02  0.49999978356E+02 0.  0.
         12    1    1    2    0    0 -0.14123460139E+02 -0.14818181185E+01  0.28549140286E+02  0.31886067840E+02  0.00000000000E+00 0. -1.
         11    1    3    3    0    0  0.43793022847E+01  0.49767471623E+01  0.83716666666E+01  0.10678534724E+02  0.51100000000E-03 0. -1.
        -11    1    3    3    0    0  0.10825010010E+02  0.10586451392E+02 -0.97713557634E+01  0.18020354839E+02  0.51100000000E-03 0.  1.
        -12    1    3    3    0    0 -0.10808521554E+01 -0.14081380436E+02 -0.27149451189E+02  0.30603042597E+02  0.00000000000E+00 0.  1.
</event>
<event>
 7    1  0.5662448E-012  0.5930196E+02  0.7816164E-02  0.1266605E+00
        -11   -1    0    0    0    0  0.00000000000E+00  0.00000000000E+00  0.45593999997E+02  0.45594000000E+02  0.51100000000E-03 0. -1.
         11   -1    0    0    0    0 -0.00000000000E+00 -0.00000000000E+00 -0.45593999997E+02  0.45594000000E+02  0.51100000000E-03 0.  1.
    9900012    2    1    2    0    0  0.43141145784E+01  0.23863865586E+02  0.20703230146E+02  0.59301962244E+02  0.50000033222E+02 0.  0.
         12    1    1    2    0    0 -0.43141145784E+01 -0.23863865586E+02 -0.20703230146E+02  0.31886037756E+02  0.00000000000E+00 0. -1.
         11    1    3    3    0    0 -0.50746936047E+01  0.33534489115E+02  0.15708558044E+02  0.37377443351E+02  0.51100000000E-03 0. -1.
        -11    1    3    3    0    0  0.19252667577E+01  0.44560896800E+01 -0.81845223098E+00  0.49227280689E+01  0.51100000000E-03 0.  1.
         12    1    3    3    0    0  0.74635414254E+01 -0.14126713210E+02  0.58131243328E+01  0.17001790824E+02  0.00000000000E+00 0. -1.
</event>
<event>
 7    1  0.5662448E-012  0.5930193E+02  0.7816164E-02  0.1266605E+00
        -11   -1    0    0    0    0  0.00000000000E+00  0.00000000000E+00  0.45593999997E+02  0.45594000000E+02  0.51100000000E-03 0. -1.
         11   -1    0    0    0    0 -0.00000000000E+00 -0.00000000000E+00 -0.45593999997E+02  0.45594000000E+02  0.51100000000E-03 0.  1.
    9900012    2    1    2    0    0 -0.20002487408E+02 -0.19292096211E+02 -0.15634474137E+02  0.59301933133E+02  0.49999980131E+02 0.  0.
         12    1    1    2    0    0  0.20002487408E+02  0.19292096211E+02  0.15634474137E+02  0.31886066867E+02  0.00000000000E+00 0. -1.
         11    1    3    3    0    0  0.32597561228E+01  0.35102312726E+00 -0.12319148814E+01  0.35024051383E+01  0.51100000000E-03 0. -1.
        -11    1    3    3    0    0 -0.99826069430E+01 -0.10673685263E+02 -0.30041776821E+02  0.33407908545E+02  0.51100000000E-03 0.  1.
        -12    1    3    3    0    0 -0.13279636588E+02 -0.89694340746E+01  0.15639217566E+02  0.22391619450E+02  0.00000000000E+00 0.  1.
</event>
<event>
 7    1  0.5662448E-012  0.5930194E+02  0.7816164E-02  0.1266605E+00
        -11   -1    0    0    0    0  0.00000000000E+00  0.00000000000E+00  0.45593999997E+02  0.45594000000E+02  0.51100000000E-03 0.  1.
         11   -1    0    0    0    0 -0.00000000000E+00 -0.00000000000E+00 -0.45593999997E+02  0.45594000000E+02  0.51100000000E-03 0. -1.
    9900012    2    1    2    0    0 -0.11471398524E+02  0.10632089365E+02  0.27786442371E+02  0.59301942106E+02  0.49999996495E+02 0.  0.
         12    1    1    2    0    0  0.11471398524E+02 -0.10632089365E+02 -0.27786442371E+02  0.31886057894E+02  0.00000000000E+00 0. -1.
         11    1    3    3    0    0 -0.42326668325E+01  0.14281163987E+02 -0.36068455287E+01  0.15325679374E+02  0.51100000000E-03 0. -1.
        -11    1    3    3    0    0 -0.34536027947E+01  0.12296735837E+02  0.20969987347E+02  0.24553562962E+02  0.51100000000E-03 0.  1.
         12    1    3    3    0    0 -0.37851288972E+01 -0.15945810459E+02  0.10423300553E+02  0.19422699770E+02  0.00000000000E+00 0. -1.
</event>
<event>
 7    1  0.5662448E-012  0.5930195E+02  0.7816164E-02  0.1266605E+00
        -11   -1    0    0    0    0  0.00000000000E+00  0.00000000000E+00  0.45593999997E+02  0.45594000000E+02  0.51100000000E-03 0.  1.
         11   -1    0    0    0    0 -0.00000000000E+00 -0.00000000000E+00 -0.45593999997E+02  0.45594000000E+02  0.51100000000E-03 0. -1.
    9900012    2    1    2    0    0 -0.42631013737E+01 -0.24759986802E+02  0.19633878849E+02  0.59301950097E+02  0.50000011070E+02 0.  0.
         12    1    1    2    0    0  0.42631013737E+01  0.24759986802E+02 -0.19633878849E+02  0.31886049903E+02  0.00000000000E+00 0. -1.
         11    1    3    3    0    0  0.10782602555E+02 -0.10438501256E+01  0.13443677580E+02  0.17265184855E+02  0.51100000000E-03 0.  1.
        -11    1    3    3    0    0  0.63088853500E+01 -0.18500662342E+02  0.18909242641E+01  0.19638027811E+02  0.51100000000E-03 0. -1.
         12    1    3    3    0    0 -0.21354589278E+02 -0.52154743337E+01  0.42992770045E+01  0.22398737432E+02  0.00000000000E+00 0. -1.
</event>
<event>
 7    1  0.5662448E-012  0.5930159E+02  0.7816164E-02  0.1266606E+00
        -11   -1    0    0    0    0  0.00000000000E+00  0.00000000000E+00  0.45593999997E+02  0.45594000000E+02  0.51100000000E-03 0. -1.
         11   -1    0    0    0    0 -0.00000000000E+00 -0.00000000000E+00 -0.45593999997E+02  0.45594000000E+02  0.51100000000E-03 0.  1.
    9900012    2    1    2    0    0 -0.20119221997E+02 -0.24421586254E+02 -0.39428583996E+01  0.59301590649E+02  0.49999355518E+02 0.  0.
         12    1    1    2    0    0  0.20119221997E+02  0.24421586254E+02  0.39428583996E+01  0.31886409351E+02  0.00000000000E+00 0. -1.
         11    1    3    3    0    0  0.74202744061E-01 -0.95099774527E+01  0.31301085983E+01  0.10012130507E+02  0.51100000000E-03 0.  1.
        -11    1    3    3    0    0 -0.29928454123E+02 -0.13308705053E+02  0.55993781085E+01  0.33229309831E+02  0.51100000000E-03 0. -1.
         12    1    3    3    0    0  0.97350293821E+01 -0.16029037481E+01 -0.12672345106E+02  0.16060150310E+02  0.00000000000E+00 0. -1.
</event>
<event>
 7    1  0.5662448E-012  0.5930193E+02  0.7816164E-02  0.1266605E+00
        -11   -1    0    0    0    0  0.00000000000E+00  0.00000000000E+00  0.45593999997E+02  0.45594000000E+02  0.51100000000E-03 0. -1.
         11   -1    0    0    0    0 -0.00000000000E+00 -0.00000000000E+00 -0.45593999997E+02  0.45594000000E+02  0.51100000000E-03 0.  1.
    9900012    2    1    2    0    0 -0.26820243932E+02  0.61875365874E+01 -0.16096895726E+02  0.59301934931E+02  0.49999983409E+02 0.  0.
         12    1    1    2    0    0  0.26820243932E+02 -0.61875365874E+01  0.16096895726E+02  0.31886065069E+02  0.00000000000E+00 0. -1.
         11    1    3    3    0    0 -0.19213159173E+02  0.37688295067E+01 -0.16731302260E+02  0.25754340156E+02  0.51100000000E-03 0. -1.
        -11    1    3    3    0    0 -0.31255278978E+01  0.10688267242E+02 -0.12915285652E+02  0.17053227994E+02  0.51100000000E-03 0.  1.
         12    1    3    3    0    0 -0.44815568608E+01 -0.82695601615E+01  0.13549692186E+02  0.16494366781E+02  0.00000000000E+00 0. -1.
</event>
<event>
 7    1  0.5662448E-012  0.5930196E+02  0.7816164E-02  0.1266605E+00
        -11   -1    0    0    0    0  0.00000000000E+00  0.00000000000E+00  0.45593999997E+02  0.45594000000E+02  0.51100000000E-03 0. -1.
         11   -1    0    0    0    0 -0.00000000000E+00 -0.00000000000E+00 -0.45593999997E+02  0.45594000000E+02  0.51100000000E-03 0.  1.
    9900012    2    1    2    0    0 -0.20412643127E+02 -0.14299443533E+02 -0.19888926126E+02  0.59301961249E+02  0.50000031408E+02 0.  0.
         12    1    1    2    0    0  0.20412643127E+02  0.14299443533E+02  0.19888926126E+02  0.31886038751E+02  0.00000000000E+00 0. -1.
         11    1    3    3    0    0 -0.11403838138E+02 -0.17912022328E+02 -0.14015976660E+02  0.25442792106E+02  0.51100000000E-03 0. -1.
        -11    1    3    3    0    0 -0.79425467711E+01 -0.13521999978E+02  0.98941674180E-01  0.15682420806E+02  0.51100000000E-03 0.  1.
         12    1    3    3    0    0 -0.10662582180E+01  0.17134578773E+02 -0.59718911402E+01  0.18176748337E+02  0.00000000000E+00 0. -1.
</event>
<event>
 7    1  0.5662448E-012  0.5930196E+02  0.7816164E-02  0.1266605E+00
        -11   -1    0    0    0    0  0.00000000000E+00  0.00000000000E+00  0.45593999997E+02  0.45594000000E+02  0.51100000000E-03 0. -1.
         11   -1    0    0    0    0 -0.00000000000E+00 -0.00000000000E+00 -0.45593999997E+02  0.45594000000E+02  0.51100000000E-03 0.  1.
    9900012    2    1    2    0    0 -0.22143036470E+02  0.21265049699E+02 -0.86141391430E+01  0.59301956094E+02  0.50000022005E+02 0.  0.
         12    1    1    2    0    0  0.22143036470E+02 -0.21265049699E+02  0.86141391430E+01  0.31886043906E+02  0.00000000000E+00 0. -1.
         11    1    3    3    0    0 -0.63761737807E+01 -0.21611406339E+01  0.54128271016E+01  0.86385657614E+01  0.51100000000E-03 0. -1.
        -11    1    3    3    0    0 -0.18070081572E+02  0.31979682734E+02 -0.34893752220E+01  0.36897204440E+02  0.51100000000E-03 0.  1.
         12    1    3    3    0    0  0.23032188824E+01 -0.85534924008E+01 -0.10537591023E+02  0.13766185893E+02  0.00000000000E+00 0. -1.
</event>
<event>
 7    1  0.5662448E-012  0.5930195E+02  0.7816164E-02  0.1266605E+00
        -11   -1    0    0    0    0  0.00000000000E+00  0.00000000000E+00  0.45593999997E+02  0.45594000000E+02  0.51100000000E-03 0. -1.
         11   -1    0    0    0    0 -0.00000000000E+00 -0.00000000000E+00 -0.45593999997E+02  0.45594000000E+02  0.51100000000E-03 0.  1.
    9900012    2    1    2    0    0  0.47997259044E+01 -0.56034770824E+01 -0.31020696577E+02  0.59301953831E+02  0.50000017879E+02 0.  0.
         12    1    1    2    0    0 -0.47997259044E+01  0.56034770824E+01  0.31020696577E+02  0.31886046169E+02  0.00000000000E+00 0. -1.
         11    1    3    3    0    0  0.27215272433E+01 -0.17965878461E+02 -0.17036106393E+02  0.24907999131E+02  0.51100000000E-03 0. -1.
        -11    1    3    3    0    0  0.96430301940E+01 -0.61410406687E+01 -0.50811148535E+01  0.12510721012E+02  0.51100000000E-03 0.  1.
        -12    1    3    3    0    0 -0.75648315328E+01  0.18503442047E+02 -0.89034753305E+01  0.21883233689E+02  0.00000000000E+00 0.  1.
</event>
<event>
 7    1  0.5662448E-012  0.5930194E+02  0.7816164E-02  0.1266605E+00
        -11   -1    0    0    0    0  0.00000000000E+00  0.00000000000E+00  0.45593999997E+02  0.45594000000E+02  0.51100000000E-03 0.  1.
         11   -1    0    0    0    0 -0.00000000000E+00 -0.00000000000E+00 -0.45593999997E+02  0.45594000000E+02  0.51100000000E-03 0. -1.
    9900012    2    1    2    0    0  0.72202324387E+01 -0.59218710850E+01  0.30488040091E+02  0.59301938747E+02  0.49999990370E+02 0.  0.
         12    1    1    2    0    0 -0.72202324387E+01  0.59218710850E+01 -0.30488040091E+02  0.31886061253E+02  0.00000000000E+00 0. -1.
         11    1    3    3    0    0 -0.53109355770E+01 -0.26496803909E+01  0.18897926287E+01  0.62288168473E+01  0.51100000000E-03 0. -1.
        -11    1    3    3    0    0 -0.15144498637E+02  0.18068001794E+01  0.41721575900E+01  0.15812250474E+02  0.51100000000E-03 0.  1.
        -12    1    3    3    0    0  0.27675666652E+02 -0.50789908736E+01  0.24426089872E+02  0.37260871426E+02  0.00000000000E+00 0.  1.
</event>
<event>
 7    1  0.5662448E-012  0.5930194E+02  0.7816164E-02  0.1266605E+00
        -11   -1    0    0    0    0  0.00000000000E+00  0.00000000000E+00  0.45593999997E+02  0.45594000000E+02  0.51100000000E-03 0.  1.
         11   -1    0    0    0    0 -0.00000000000E+00 -0.00000000000E+00 -0.45593999997E+02  0.45594000000E+02  0.51100000000E-03 0. -1.
    9900012    2    1    2    0    0 -0.46365708195E+00  0.31329168686E+02 -0.59151351149E+01  0.59301943300E+02  0.49999998672E+02 0.  0.
         12    1    1    2    0    0  0.46365708195E+00 -0.31329168686E+02  0.59151351149E+01  0.31886056700E+02  0.00000000000E+00 0. -1.
         11    1    3    3    0    0  0.12573441634E+02 -0.11861866889E+00  0.65179393506E+01  0.14162945971E+02  0.51100000000E-03 0. -1.
        -11    1    3    3    0    0  0.13161626146E+01  0.24315642293E+02  0.78514869132E+00  0.24363891374E+02  0.51100000000E-03 0.  1.
         12    1    3    3    0    0 -0.14353261331E+02  0.71321450624E+01 -0.13218223157E+02  0.20775105955E+02  0.00000000000E+00 0. -1.
</event>
<event>
 7    1  0.5662448E-012  0.5930194E+02  0.7816164E-02  0.1266605E+00
        -11   -1    0    0    0    0  0.00000000000E+00  0.00000000000E+00  0.45593999997E+02  0.45594000000E+02  0.51100000000E-03 0.  1.
         11   -1    0    0    0    0 -0.00000000000E+00 -0.00000000000E+00 -0.45593999997E+02  0.45594000000E+02  0.51100000000E-03 0. -1.
    9900012    2    1    2    0    0  0.12370491834E+02 -0.26357807881E+02  0.12998376594E+02  0.59301938805E+02  0.49999990474E+02 0.  0.
         12    1    1    2    0    0 -0.12370491834E+02  0.26357807881E+02 -0.12998376594E+02  0.31886061195E+02  0.00000000000E+00 0. -1.
         11    1    3    3    0    0  0.26943975821E+01  0.75784579419E+00 -0.83129516330E+01  0.87715035023E+01  0.51100000000E-03 0. -1.
        -11    1    3    3    0    0 -0.12952064550E+01  0.55331661164E+01 -0.46956014631E+01  0.73717135317E+01  0.51100000000E-03 0.  1.
        -12    1    3    3    0    0  0.10971300706E+02 -0.32648819791E+02  0.26006929690E+02  0.43158721770E+02  0.00000000000E+00 0.  1.
</event>
<event>
 7    1  0.5662448E-012  0.5930194E+02  0.7816164E-02  0.1266605E+00
        -11   -1    0    0    0    0  0.00000000000E+00  0.00000000000E+00  0.45593999997E+02  0.45594000000E+02  0.51100000000E-03 0.  1.
         11   -1    0    0    0    0 -0.00000000000E+00 -0.00000000000E+00 -0.45593999997E+02  0.45594000000E+02  0.51100000000E-03 0. -1.
    9900012    2    1    2    0    0 -0.22200779608E+02 -0.19599763884E+00  0.22886848254E+02  0.59301939514E+02  0.49999991769E+02 0.  0.
         12    1    1    2    0    0  0.22200779608E+02  0.19599763884E+00 -0.22886848254E+02  0.31886060486E+02  0.00000000000E+00 0. -1.
         11    1    3    3    0    0 -0.11255020311E+01 -0.79413458036E+01  0.10113471546E+02  0.12907905909E+02  0.51100000000E-03 0. -1.
        -11    1    3    3    0    0  0.43859454739E+01  0.58544397749E+01  0.18789685820E+02  0.20163414301E+02  0.51100000000E-03 0.  1.
         12    1    3    3    0    0 -0.25461223051E+02  0.18909083899E+01 -0.60163091116E+01  0.26230619304E+02  0.00000000000E+00 0. -1.
</event>
<event>
 7    1  0.5662448E-012  0.5930194E+02  0.7816164E-02  0.1266605E+00
        -11   -1    0    0    0    0  0.00000000000E+00  0.00000000000E+00  0.45593999997E+02  0.45594000000E+02  0.51100000000E-03 0.  1.
         11   -1    0    0    0    0 -0.00000000000E+00 -0.00000000000E+00 -0.45593999997E+02  0.45594000000E+02  0.51100000000E-03 0. -1.
    9900012    2    1    2    0    0 -0.24912020614E+02 -0.16348570968E+02 -0.11350599347E+02  0.59301942713E+02  0.49999997602E+02 0.  0.
         12    1    1    2    0    0  0.24912020614E+02  0.16348570968E+02  0.11350599347E+02  0.31886057287E+02  0.00000000000E+00 0. -1.
         11    1    3    3    0    0  0.53996372541E+01  0.43741234616E+01  0.34926252927E+01  0.77773691072E+01  0.51100000000E-03 0. -1.
        -11    1    3    3    0    0 -0.21821779787E+02  0.47153486341E+01 -0.44557916111E+01  0.22765734448E+02  0.51100000000E-03 0.  1.
         12    1    3    3    0    0 -0.84898780813E+01 -0.25438043064E+02 -0.10387433029E+02  0.28758839157E+02  0.00000000000E+00 0. -1.
</event>
<event>
 7    1  0.5662448E-012  0.5930193E+02  0.7816164E-02  0.1266605E+00
        -11   -1    0    0    0    0  0.00000000000E+00  0.00000000000E+00  0.45593999997E+02  0.45594000000E+02  0.51100000000E-03 0.  1.
         11   -1    0    0    0    0 -0.00000000000E+00 -0.00000000000E+00 -0.45593999997E+02  0.45594000000E+02  0.51100000000E-03 0. -1.
    9900012    2    1    2    0    0  0.51322446102E+01 -0.31464212560E+02  0.62015485769E+00  0.59301934097E+02  0.49999981888E+02 0.  0.
         12    1    1    2    0    0 -0.51322446102E+01  0.31464212560E+02 -0.62015485769E+00  0.31886065903E+02  0.00000000000E+00 0. -1.
         11    1    3    3    0    0 -0.10183211330E+01 -0.23855997732E+02 -0.44842534012E+01  0.24295146316E+02  0.51100000000E-03 0. -1.
        -11    1    3    3    0    0  0.11510885673E+01 -0.20265219106E+02  0.65331550637E+01  0.21323372755E+02  0.51100000000E-03 0.  1.
         12    1    3    3    0    0  0.49994771759E+01  0.12657004278E+02 -0.14287468047E+01  0.13683415025E+02  0.00000000000E+00 0. -1.
</event>
<event>
 7    1  0.5662448E-012  0.5930192E+02  0.7816164E-02  0.1266605E+00
        -11   -1    0    0    0    0  0.00000000000E+00  0.00000000000E+00  0.45593999997E+02  0.45594000000E+02  0.51100000000E-03 0.  1.
         11   -1    0    0    0    0 -0.00000000000E+00 -0.00000000000E+00 -0.45593999997E+02  0.45594000000E+02  0.51100000000E-03 0. -1.
    9900012    2    1    2    0    0  0.19547617256E+02  0.24937795096E+02 -0.35664014616E+01  0.59301918647E+02  0.49999953712E+02 0.  0.
         12    1    1    2    0    0 -0.19547617256E+02 -0.24937795096E+02  0.35664014616E+01  0.31886081353E+02  0.00000000000E+00 0. -1.
         11    1    3    3    0    0 -0.41800058486E+01  0.56605780647E+01 -0.10957241907E+02  0.13022125149E+02  0.51100000000E-03 0. -1.
        -11    1    3    3    0    0  0.95094079281E+01  0.14848359135E+02 -0.12367850576E+02  0.21537556414E+02  0.51100000000E-03 0.  1.
         12    1    3    3    0    0  0.14218215177E+02  0.44288578964E+01  0.19758691021E+02  0.24742237085E+02  0.00000000000E+00 0. -1.
</event>
<event>
 7    1  0.5662448E-012  0.5930197E+02  0.7816164E-02  0.1266605E+00
        -11   -1    0    0    0    0  0.00000000000E+00  0.00000000000E+00  0.45593999997E+02  0.45594000000E+02  0.51100000000E-03 0.  1.
         11   -1    0    0    0    0 -0.00000000000E+00 -0.00000000000E+00 -0.45593999997E+02  0.45594000000E+02  0.51100000000E-03 0. -1.
    9900012    2    1    2    0    0 -0.22122333893E+02  0.38130428784E+01  0.22644691976E+02  0.59301968143E+02  0.50000043980E+02 0.  0.
         12    1    1    2    0    0  0.22122333893E+02 -0.38130428784E+01 -0.22644691976E+02  0.31886031857E+02  0.00000000000E+00 0. -1.
         11    1    3    3    0    0 -0.71357666416E+01 -0.16200261252E+02  0.10739604765E+02  0.20705234627E+02  0.51100000000E-03 0. -1.
        -11    1    3    3    0    0  0.59623285468E+01  0.23737989776E+01 -0.33594931702E+01  0.72436508687E+01  0.51100000000E-03 0.  1.
        -12    1    3    3    0    0 -0.20948895798E+02  0.17639505153E+02  0.15264580382E+02  0.31353082647E+02  0.00000000000E+00 0.  1.
</event>
<event>
 7    1  0.5662448E-012  0.5930195E+02  0.7816164E-02  0.1266605E+00
        -11   -1    0    0    0    0  0.00000000000E+00  0.00000000000E+00  0.45593999997E+02  0.45594000000E+02  0.51100000000E-03 0.  1.
         11   -1    0    0    0    0 -0.00000000000E+00 -0.00000000000E+00 -0.45593999997E+02  0.45594000000E+02  0.51100000000E-03 0. -1.
    9900012    2    1    2    0    0 -0.21244199630E+02  0.21164038795E+02  0.10839183112E+02  0.59301945892E+02  0.50000003401E+02 0.  0.
         12    1    1    2    0    0  0.21244199630E+02 -0.21164038795E+02 -0.10839183112E+02  0.31886054108E+02  0.00000000000E+00 0. -1.
         11    1    3    3    0    0 -0.11762751892E+01  0.13805552713E+02 -0.11683535570E+02  0.18124069982E+02  0.51100000000E-03 0. -1.
        -11    1    3    3    0    0  0.13634785296E+01  0.32274589654E+01  0.18693006329E+02  0.19018518632E+02  0.51100000000E-03 0.  1.
        -12    1    3    3    0    0 -0.21431402970E+02  0.41310271166E+01  0.38297123529E+01  0.22159357279E+02  0.00000000000E+00 0.  1.
</event>
<event>
 7    1  0.5662448E-012  0.5930194E+02  0.7816164E-02  0.1266605E+00
        -11   -1    0    0    0    0  0.00000000000E+00  0.00000000000E+00  0.45593999997E+02  0.45594000000E+02  0.51100000000E-03 0.  1.
         11   -1    0    0    0    0 -0.00000000000E+00 -0.00000000000E+00 -0.45593999997E+02  0.45594000000E+02  0.51100000000E-03 0. -1.
    9900012    2    1    2    0    0 -0.29869598945E+02 -0.51234748700E+01  0.99135172045E+01  0.59301940989E+02  0.49999994458E+02 0.  0.
         12    1    1    2    0    0  0.29869598945E+02  0.51234748700E+01 -0.99135172045E+01  0.31886059011E+02  0.00000000000E+00 0. -1.
         11    1    3    3    0    0 -0.29019387628E+02  0.53321655286E+01 -0.35221050328E+01  0.29714677714E+02  0.51100000000E-03 0. -1.
        -11    1    3    3    0    0 -0.73627406267E+01 -0.84386552622E+01 -0.31678341570E+01  0.11638557715E+02  0.51100000000E-03 0.  1.
         12    1    3    3    0    0  0.65125293095E+01 -0.20169851365E+01  0.16603456394E+02  0.17948705560E+02  0.00000000000E+00 0. -1.
</event>
<event>
 7    1  0.5662448E-012  0.5930197E+02  0.7816164E-02  0.1266605E+00
        -11   -1    0    0    0    0  0.00000000000E+00  0.00000000000E+00  0.45593999997E+02  0.45594000000E+02  0.51100000000E-03 0. -1.
         11   -1    0    0    0    0 -0.00000000000E+00 -0.00000000000E+00 -0.45593999997E+02  0.45594000000E+02  0.51100000000E-03 0.  1.
    9900012    2    1    2    0    0 -0.15213282632E+02 -0.19903792505E+02 -0.19725977618E+02  0.59301966733E+02  0.50000041408E+02 0.  0.
         12    1    1    2    0    0  0.15213282632E+02  0.19903792505E+02  0.19725977618E+02  0.31886033267E+02  0.00000000000E+00 0. -1.
         11    1    3    3    0    0  0.26466222515E+01 -0.45990827832E+01  0.48671755991E+01  0.72003868204E+01  0.51100000000E-03 0. -1.
        -11    1    3    3    0    0 -0.23349342867E+02 -0.15958337334E+02 -0.14626208215E+01  0.28319597502E+02  0.51100000000E-03 0.  1.
        -12    1    3    3    0    0  0.54894379831E+01  0.65362761224E+00 -0.23130532396E+02  0.23781982410E+02  0.00000000000E+00 0.  1.
</event>
<event>
 7    1  0.5662448E-012  0.5930196E+02  0.7816164E-02  0.1266605E+00
        -11   -1    0    0    0    0  0.00000000000E+00  0.00000000000E+00  0.45593999997E+02  0.45594000000E+02  0.51100000000E-03 0. -1.
         11   -1    0    0    0    0 -0.00000000000E+00 -0.00000000000E+00 -0.45593999997E+02  0.45594000000E+02  0.51100000000E-03 0.  1.
    9900012    2    1    2    0    0  0.46545725044E+01  0.16838595974E+02  0.26674263045E+02  0.59301958092E+02  0.50000025650E+02 0.  0.
         12    1    1    2    0    0 -0.46545725044E+01 -0.16838595974E+02 -0.26674263045E+02  0.31886041908E+02  0.00000000000E+00 0. -1.
         11    1    3    3    0    0 -0.13041402293E+02  0.16103793306E+02  0.13367772087E+02  0.24659839080E+02  0.51100000000E-03 0. -1.
        -11    1    3    3    0    0 -0.46931946086E+01  0.26821356366E+01 -0.36212908279E+01  0.65064333339E+01  0.51100000000E-03 0.  1.
         12    1    3    3    0    0  0.22389169406E+02 -0.19473329690E+01  0.16927781786E+02  0.28135685678E+02  0.00000000000E+00 0. -1.
</event>
<event>
 7    1  0.5662448E-012  0.5930195E+02  0.7816164E-02  0.1266605E+00
        -11   -1    0    0    0    0  0.00000000000E+00  0.00000000000E+00  0.45593999997E+02  0.45594000000E+02  0.51100000000E-03 0.  1.
         11   -1    0    0    0    0 -0.00000000000E+00 -0.00000000000E+00 -0.45593999997E+02  0.45594000000E+02  0.51100000000E-03 0. -1.
    9900012    2    1    2    0    0 -0.16468455183E+02  0.24994710800E+02  0.10989740143E+02  0.59301953326E+02  0.50000016958E+02 0.  0.
         12    1    1    2    0    0  0.16468455183E+02 -0.24994710800E+02 -0.10989740143E+02  0.31886046674E+02  0.00000000000E+00 0. -1.
         11    1    3    3    0    0 -0.26591808142E+01  0.99074111048E+00 -0.51100183328E+01  0.58450918019E+01  0.51100000000E-03 0. -1.
        -11    1    3    3    0    0 -0.26176325647E+02  0.11495237346E+02  0.20674752549E+02  0.35281523482E+02  0.51100000000E-03 0.  1.
         12    1    3    3    0    0  0.12367051278E+02  0.12508732343E+02 -0.45749940728E+01  0.18175338042E+02  0.00000000000E+00 0. -1.
</event>
<event>
 7    1  0.5662448E-012  0.5930194E+02  0.7816164E-02  0.1266605E+00
        -11   -1    0    0    0    0  0.00000000000E+00  0.00000000000E+00  0.45593999997E+02  0.45594000000E+02  0.51100000000E-03 0.  1.
         11   -1    0    0    0    0 -0.00000000000E+00 -0.00000000000E+00 -0.45593999997E+02  0.45594000000E+02  0.51100000000E-03 0. -1.
    9900012    2    1    2    0    0 -0.26180988596E+02 -0.10962760092E+02  0.14529091093E+02  0.59301940966E+02  0.49999994417E+02 0.  0.
         12    1    1    2    0    0  0.26180988596E+02  0.10962760092E+02 -0.14529091093E+02  0.31886059034E+02  0.00000000000E+00 0. -1.
         11    1    3    3    0    0 -0.17476694721E+02 -0.25012173920E+02  0.64759564619E+01  0.31192654823E+02  0.51100000000E-03 0. -1.
        -11    1    3    3    0    0  0.64687431247E+00 -0.41495627731E+01  0.63026367616E+01  0.75736746691E+01  0.51100000000E-03 0.  1.
        -12    1    3    3    0    0 -0.93511681879E+01  0.18198976601E+02  0.17504978695E+01  0.20535611474E+02  0.00000000000E+00 0.  1.
</event>
<event>
 7    1  0.5662448E-012  0.5930193E+02  0.7816164E-02  0.1266605E+00
        -11   -1    0    0    0    0  0.00000000000E+00  0.00000000000E+00  0.45593999997E+02  0.45594000000E+02  0.51100000000E-03 0. -1.
         11   -1    0    0    0    0 -0.00000000000E+00 -0.00000000000E+00 -0.45593999997E+02  0.45594000000E+02  0.51100000000E-03 0.  1.
    9900012    2    1    2    0    0 -0.66824016108E+00 -0.24424002403E+02 -0.20487625012E+02  0.59301933812E+02  0.49999981370E+02 0.  0.
         12    1    1    2    0    0  0.66824016108E+00  0.24424002403E+02  0.20487625012E+02  0.31886066188E+02  0.00000000000E+00 0. -1.
         11    1    3    3    0    0  0.11164418698E+02 -0.96578998665E+01 -0.11738182794E+01  0.14808684084E+02  0.51100000000E-03 0. -1.
        -11    1    3    3    0    0 -0.24114868472E+01 -0.22009428831E+02 -0.38653557306E+00  0.22144517071E+02  0.51100000000E-03 0.  1.
        -12    1    3    3    0    0 -0.94211720117E+01  0.72433262943E+01 -0.18927271159E+02  0.22348732658E+02  0.00000000000E+00 0.  1.
</event>
<event>
 7    1  0.5662448E-012  0.5930193E+02  0.7816164E-02  0.1266605E+00
        -11   -1    0    0    0    0  0.00000000000E+00  0.00000000000E+00  0.45593999997E+02  0.45594000000E+02  0.51100000000E-03 0. -1.
         11   -1    0    0    0    0 -0.00000000000E+00 -0.00000000000E+00 -0.45593999997E+02  0.45594000000E+02  0.51100000000E-03 0.  1.
    9900012    2    1    2    0    0 -0.14191432727E+02  0.28277685294E+02 -0.39619803474E+01  0.59301928798E+02  0.49999972225E+02 0.  0.
         12    1    1    2    0    0  0.14191432727E+02 -0.28277685294E+02  0.39619803474E+01  0.31886071202E+02  0.00000000000E+00 0. -1.
         11    1    3    3    0    0 -0.39601278892E+01  0.12526349349E+02  0.18005882864E+02  0.22289097310E+02  0.51100000000E-03 0. -1.
        -11    1    3    3    0    0 -0.16923310818E+02  0.10118343261E+02 -0.97767564178E+01  0.22008277664E+02  0.51100000000E-03 0.  1.
        -12    1    3    3    0    0  0.66920059809E+01  0.56329926841E+01 -0.12191106794E+02  0.15004553825E+02  0.00000000000E+00 0.  1.
</event>
<event>
 7    1  0.5662448E-012  0.5930186E+02  0.7816164E-02  0.1266605E+00
        -11   -1    0    0    0    0  0.00000000000E+00  0.00000000000E+00  0.45593999997E+02  0.45594000000E+02  0.51100000000E-03 0. -1.
         11   -1    0    0    0    0 -0.00000000000E+00 -0.00000000000E+00 -0.45593999997E+02  0.45594000000E+02  0.51100000000E-03 0.  1.
    9900012    2    1    2    0    0  0.25407140025E+02 -0.28042212822E+01 -0.19061463713E+02  0.59301861631E+02  0.49999849727E+02 0.  0.
         12    1    1    2    0    0 -0.25407140025E+02  0.28042212822E+01  0.19061463713E+02  0.31886138369E+02  0.00000000000E+00 0. -1.
         11    1    3    3    0    0  0.15609510713E+02 -0.13070808066E+02 -0.82882362381E+01  0.21981758538E+02  0.51100000000E-03 0. -1.
        -11    1    3    3    0    0  0.14233034123E+02  0.32167362556E+01 -0.20085475892E+02  0.24826457552E+02  0.51100000000E-03 0.  1.
        -12    1    3    3    0    0 -0.44354048115E+01  0.70498505283E+01  0.93122484176E+01  0.12493645541E+02  0.00000000000E+00 0.  1.
</event>
<event>
 7    1  0.5662448E-012  0.5930197E+02  0.7816164E-02  0.1266605E+00
        -11   -1    0    0    0    0  0.00000000000E+00  0.00000000000E+00  0.45593999997E+02  0.45594000000E+02  0.51100000000E-03 0.  1.
         11   -1    0    0    0    0 -0.00000000000E+00 -0.00000000000E+00 -0.45593999997E+02  0.45594000000E+02  0.51100000000E-03 0. -1.
    9900012    2    1    2    0    0 -0.20951544739E+02  0.19638038627E+02  0.13859991627E+02  0.59301966130E+02  0.50000040310E+02 0.  0.
         12    1    1    2    0    0  0.20951544739E+02 -0.19638038627E+02 -0.13859991627E+02  0.31886033870E+02  0.00000000000E+00 0. -1.
         11    1    3    3    0    0 -0.40567967510E+01 -0.73499700609E+01  0.25638360410E+01  0.87779789975E+01  0.51100000000E-03 0. -1.
        -11    1    3    3    0    0  0.11454579186E+02  0.80115406199E+01  0.83506747731E+01  0.16282688256E+02  0.51100000000E-03 0.  1.
         12    1    3    3    0    0 -0.28349327174E+02  0.18976468068E+02  0.29454808124E+01  0.34241298876E+02  0.00000000000E+00 0. -1.
</event>
<event>
 7    1  0.5662448E-012  0.5930194E+02  0.7816164E-02  0.1266605E+00
        -11   -1    0    0    0    0  0.00000000000E+00  0.00000000000E+00  0.45593999997E+02  0.45594000000E+02  0.51100000000E-03 0.  1.
         11   -1    0    0    0    0 -0.00000000000E+00 -0.00000000000E+00 -0.45593999997E+02  0.45594000000E+02  0.51100000000E-03 0. -1.
    9900012    2    1    2    0    0  0.12501670898E+02 -0.75447110292E+01  0.28346190206E+02  0.59301938171E+02  0.49999989319E+02 0.  0.
         12    1    1    2    0    0 -0.12501670898E+02  0.75447110292E+01 -0.28346190206E+02  0.31886061829E+02  0.00000000000E+00 0. -1.
         11    1    3    3    0    0 -0.98237926189E+00 -0.21241212472E+01 -0.29657784397E+01  0.37779362225E+01  0.51100000000E-03 0. -1.
        -11    1    3    3    0    0 -0.10274678893E+01  0.32004878397E+01  0.37422229331E+02  0.37572889975E+02  0.51100000000E-03 0.  1.
         12    1    3    3    0    0  0.14511518049E+02 -0.86210776217E+01 -0.61102606854E+01  0.17951111974E+02  0.00000000000E+00 0. -1.
</event>
<event>
 7    1  0.5662448E-012  0.5930187E+02  0.7816164E-02  0.1266605E+00
        -11   -1    0    0    0    0  0.00000000000E+00  0.00000000000E+00  0.45593999997E+02  0.45594000000E+02  0.51100000000E-03 0.  1.
         11   -1    0    0    0    0 -0.00000000000E+00 -0.00000000000E+00 -0.45593999997E+02  0.45594000000E+02  0.51100000000E-03 0. -1.
    9900012    2    1    2    0    0  0.31609545958E+02  0.39937229399E+01  0.12697094483E+01  0.59301868521E+02  0.49999862294E+02 0.  0.
         12    1    1    2    0    0 -0.31609545958E+02 -0.39937229399E+01 -0.12697094483E+01  0.31886131479E+02  0.00000000000E+00 0. -1.
         11    1    3    3    0    0  0.72372488747E+01  0.11061798377E+01 -0.15668456346E+02  0.17294563586E+02  0.51100000000E-03 0. -1.
        -11    1    3    3    0    0  0.21880544222E+02  0.11195490709E+02  0.19058733663E+01  0.24652171937E+02  0.51100000000E-03 0.  1.
        -12    1    3    3    0    0  0.24917528618E+01 -0.83079476072E+01  0.15032292428E+02  0.17355132999E+02  0.00000000000E+00 0.  1.
</event>
<event>
 7    1  0.5662448E-012  0.5930194E+02  0.7816164E-02  0.1266605E+00
        -11   -1    0    0    0    0  0.00000000000E+00  0.00000000000E+00  0.45593999997E+02  0.45594000000E+02  0.51100000000E-03 0.  1.
         11   -1    0    0    0    0 -0.00000000000E+00 -0.00000000000E+00 -0.45593999997E+02  0.45594000000E+02  0.51100000000E-03 0. -1.
    9900012    2    1    2    0    0  0.23983262155E+02 -0.20997078294E+02 -0.80427132609E+00  0.59301937012E+02  0.49999987206E+02 0.  0.
         12    1    1    2    0    0 -0.23983262155E+02  0.20997078294E+02  0.80427132609E+00  0.31886062988E+02  0.00000000000E+00 0. -1.
         11    1    3    3    0    0  0.56081622079E+01  0.47228646123E+01  0.72620416670E+01  0.10319601878E+02  0.51100000000E-03 0. -1.
        -11    1    3    3    0    0  0.17927781941E+02 -0.53602679525E+01  0.10472493354E+02  0.21443203006E+02  0.51100000000E-03 0.  1.
         12    1    3    3    0    0  0.44731800630E+00 -0.20359674953E+02 -0.18538806347E+02  0.27539132128E+02  0.00000000000E+00 0. -1.
</event>
<event>
 7    1  0.5662448E-012  0.5930195E+02  0.7816164E-02  0.1266605E+00
        -11   -1    0    0    0    0  0.00000000000E+00  0.00000000000E+00  0.45593999997E+02  0.45594000000E+02  0.51100000000E-03 0. -1.
         11   -1    0    0    0    0 -0.00000000000E+00 -0.00000000000E+00 -0.45593999997E+02  0.45594000000E+02  0.51100000000E-03 0.  1.
    9900012    2    1    2    0    0 -0.15878805924E+02 -0.17725819849E+02 -0.21222131861E+02  0.59301952148E+02  0.50000014810E+02 0.  0.
         12    1    1    2    0    0  0.15878805924E+02  0.17725819849E+02  0.21222131861E+02  0.31886047852E+02  0.00000000000E+00 0. -1.
         11    1    3    3    0    0  0.41312458851E+01 -0.46627808293E+01 -0.13702284297E+02  0.15051953788E+02  0.51100000000E-03 0. -1.
        -11    1    3    3    0    0 -0.11425810346E+02 -0.12198686896E+02 -0.21858151648E+02  0.27516102518E+02  0.51100000000E-03 0.  1.
         12    1    3    3    0    0 -0.85842414626E+01 -0.86435212366E+00  0.14338304083E+02  0.16733895842E+02  0.00000000000E+00 0. -1.
</event>
<event>
 7    1  0.5662448E-012  0.5930194E+02  0.7816164E-02  0.1266605E+00
        -11   -1    0    0    0    0  0.00000000000E+00  0.00000000000E+00  0.45593999997E+02  0.45594000000E+02  0.51100000000E-03 0.  1.
         11   -1    0    0    0    0 -0.00000000000E+00 -0.00000000000E+00 -0.45593999997E+02  0.45594000000E+02  0.51100000000E-03 0. -1.
    9900012    2    1    2    0    0 -0.23122819358E+02  0.15945480529E+02  0.15092958210E+02  0.59301944868E+02  0.50000001532E+02 0.  0.
         12    1    1    2    0    0  0.23122819358E+02 -0.15945480529E+02 -0.15092958210E+02  0.31886055132E+02  0.00000000000E+00 0. -1.
         11    1    3    3    0    0  0.38001037977E+01  0.15032745719E+02  0.37131192148E+01  0.15944011017E+02  0.51100000000E-03 0. -1.
        -11    1    3    3    0    0 -0.25435679435E+02  0.13651547733E+02  0.61988388053E+01  0.29525652349E+02  0.51100000000E-03 0.  1.
        -12    1    3    3    0    0 -0.14872437211E+01 -0.12738812924E+02  0.51810001901E+01  0.13832281502E+02  0.00000000000E+00 0.  1.
</event>
<event>
 7    1  0.5662448E-012  0.5930196E+02  0.7816164E-02  0.1266605E+00
        -11   -1    0    0    0    0  0.00000000000E+00  0.00000000000E+00  0.45593999997E+02  0.45594000000E+02  0.51100000000E-03 0.  1.
         11   -1    0    0    0    0 -0.00000000000E+00 -0.00000000000E+00 -0.45593999997E+02  0.45594000000E+02  0.51100000000E-03 0. -1.
    9900012    2    1    2    0    0 -0.16771790262E+02 -0.75776867757E+01  0.26038531255E+02  0.59301962376E+02  0.50000033463E+02 0.  0.
         12    1    1    2    0    0  0.16771790262E+02  0.75776867757E+01 -0.26038531255E+02  0.31886037624E+02  0.00000000000E+00 0. -1.
         11    1    3    3    0    0  0.38494956152E+01 -0.35577317484E+01  0.35362944046E+02  0.35749320043E+02  0.51100000000E-03 0. -1.
        -11    1    3    3    0    0 -0.62200279172E+01 -0.23316104058E+00 -0.51745760318E+01  0.80944023085E+01  0.51100000000E-03 0.  1.
        -12    1    3    3    0    0 -0.14401257960E+02 -0.37867939867E+01 -0.41498367594E+01  0.15458240024E+02  0.00000000000E+00 0.  1.
</event>
<event>
 7    1  0.5662448E-012  0.5930192E+02  0.7816164E-02  0.1266605E+00
        -11   -1    0    0    0    0  0.00000000000E+00  0.00000000000E+00  0.45593999997E+02  0.45594000000E+02  0.51100000000E-03 0. -1.
         11   -1    0    0    0    0 -0.00000000000E+00 -0.00000000000E+00 -0.45593999997E+02  0.45594000000E+02  0.51100000000E-03 0.  1.
    9900012    2    1    2    0    0  0.98340279311E+01  0.27895890164E+02 -0.11909390234E+02  0.59301915745E+02  0.49999948419E+02 0.  0.
         12    1    1    2    0    0 -0.98340279311E+01 -0.27895890164E+02  0.11909390234E+02  0.31886084255E+02  0.00000000000E+00 0. -1.
         11    1    3    3    0    0  0.16160979646E+02  0.33668971071E+01  0.11466953933E+02  0.20099858010E+02  0.51100000000E-03 0. -1.
        -11    1    3    3    0    0  0.55732823013E+01  0.19294859005E+01 -0.50764361556E+01  0.77816833496E+01  0.51100000000E-03 0.  1.
        -12    1    3    3    0    0 -0.11900234016E+02  0.22599507156E+02 -0.18299908011E+02  0.31420374386E+02  0.00000000000E+00 0.  1.
</event>
<event>
 7    1  0.5662448E-012  0.5930192E+02  0.7816164E-02  0.1266605E+00
        -11   -1    0    0    0    0  0.00000000000E+00  0.00000000000E+00  0.45593999997E+02  0.45594000000E+02  0.51100000000E-03 0. -1.
         11   -1    0    0    0    0 -0.00000000000E+00 -0.00000000000E+00 -0.45593999997E+02  0.45594000000E+02  0.51100000000E-03 0.  1.
    9900012    2    1    2    0    0 -0.65734864192E+01  0.31201086632E+02 -0.58895231868E-01  0.59301921543E+02  0.49999958994E+02 0.  0.
         12    1    1    2    0    0  0.65734864192E+01 -0.31201086632E+02  0.58895231868E-01  0.31886078457E+02  0.00000000000E+00 0. -1.
         11    1    3    3    0    0 -0.15821362681E+02  0.39250937983E+01 -0.12616283089E+01  0.16349727358E+02  0.51100000000E-03 0. -1.
        -11    1    3    3    0    0 -0.30576936605E+01  0.26272923300E+02 -0.79092212110E+01  0.27607458588E+02  0.51100000000E-03 0.  1.
         12    1    3    3    0    0  0.12305569923E+02  0.10030695331E+01  0.91119542880E+01  0.15344735598E+02  0.00000000000E+00 0. -1.
</event>
<event>
 7    1  0.5662448E-012  0.5930192E+02  0.7816164E-02  0.1266605E+00
        -11   -1    0    0    0    0  0.00000000000E+00  0.00000000000E+00  0.45593999997E+02  0.45594000000E+02  0.51100000000E-03 0.  1.
         11   -1    0    0    0    0 -0.00000000000E+00 -0.00000000000E+00 -0.45593999997E+02  0.45594000000E+02  0.51100000000E-03 0. -1.
    9900012    2    1    2    0    0 -0.81971253582E+01 -0.56826342753E+01  0.30285914762E+02  0.59301924208E+02  0.49999963854E+02 0.  0.
         12    1    1    2    0    0  0.81971253582E+01  0.56826342753E+01 -0.30285914762E+02  0.31886075792E+02  0.00000000000E+00 0. -1.
         11    1    3    3    0    0  0.43891816429E+01 -0.43662788908E+01 -0.53521130527E+01  0.81837901511E+01  0.51100000000E-03 0. -1.
        -11    1    3    3    0    0  0.20543923781E+01 -0.11311703894E+02  0.30600582475E+02  0.32689001531E+02  0.51100000000E-03 0.  1.
        -12    1    3    3    0    0 -0.14640699379E+02  0.99953485091E+01  0.50374453399E+01  0.18429132527E+02  0.00000000000E+00 0.  1.
</event>
<event>
 7    1  0.5662448E-012  0.5930176E+02  0.7816164E-02  0.1266605E+00
        -11   -1    0    0    0    0  0.00000000000E+00  0.00000000000E+00  0.45593999997E+02  0.45594000000E+02  0.51100000000E-03 0.  1.
         11   -1    0    0    0    0 -0.00000000000E+00 -0.00000000000E+00 -0.45593999997E+02  0.45594000000E+02  0.51100000000E-03 0. -1.
    9900012    2    1    2    0    0 -0.94734475631E+01 -0.28181282996E+02  0.11523957093E+02  0.59301756774E+02  0.49999658492E+02 0.  0.
         12    1    1    2    0    0  0.94734475631E+01  0.28181282996E+02 -0.11523957093E+02  0.31886243226E+02  0.00000000000E+00 0. -1.
         11    1    3    3    0    0 -0.12435644992E+02 -0.15321758681E+01  0.14144309016E+02  0.18895880690E+02  0.51100000000E-03 0. -1.
        -11    1    3    3    0    0 -0.79218362479E+01 -0.13607470272E+02  0.10514432694E+02  0.18933357649E+02  0.51100000000E-03 0.  1.
        -12    1    3    3    0    0  0.10884033677E+02 -0.13041636856E+02 -0.13134784617E+02  0.21472518434E+02  0.00000000000E+00 0.  1.
</event>
<event>
 7    1  0.5662448E-012  0.5930194E+02  0.7816164E-02  0.1266605E+00
        -11   -1    0    0    0    0  0.00000000000E+00  0.00000000000E+00  0.45593999997E+02  0.45594000000E+02  0.51100000000E-03 0. -1.
         11   -1    0    0    0    0 -0.00000000000E+00 -0.00000000000E+00 -0.45593999997E+02  0.45594000000E+02  0.51100000000E-03 0.  1.
    9900012    2    1    2    0    0  0.11023437830E+02  0.29914704980E+02  0.56110139356E+00  0.59301943637E+02  0.49999999287E+02 0.  0.
         12    1    1    2    0    0 -0.11023437830E+02 -0.29914704980E+02 -0.56110139356E+00  0.31886056363E+02  0.00000000000E+00 0. -1.
         11    1    3    3    0    0 -0.18185827297E+01  0.23326399190E+02  0.24365520067E+01  0.23523709917E+02  0.51100000000E-03 0. -1.
        -11    1    3    3    0    0  0.13889640747E+02  0.10080670280E+02 -0.14605817911E+02  0.22536014521E+02  0.51100000000E-03 0.  1.
         12    1    3    3    0    0 -0.10476201869E+01 -0.34923644907E+01  0.12730367298E+02  0.13242219199E+02  0.00000000000E+00 0. -1.
</event>
<event>
 7    1  0.5662448E-012  0.5930195E+02  0.7816164E-02  0.1266605E+00
        -11   -1    0    0    0    0  0.00000000000E+00  0.00000000000E+00  0.45593999997E+02  0.45594000000E+02  0.51100000000E-03 0.  1.
         11   -1    0    0    0    0 -0.00000000000E+00 -0.00000000000E+00 -0.45593999997E+02  0.45594000000E+02  0.51100000000E-03 0. -1.
    9900012    2    1    2    0    0 -0.13211041689E+01  0.13949275177E+02  0.28642498737E+02  0.59301947750E+02  0.50000006789E+02 0.  0.
         12    1    1    2    0    0  0.13211041689E+01 -0.13949275177E+02 -0.28642498737E+02  0.31886052250E+02  0.00000000000E+00 0. -1.
         11    1    3    3    0    0 -0.28669933884E+01 -0.10451821845E+02  0.14429942745E+02  0.18046702715E+02  0.51100000000E-03 0. -1.
        -11    1    3    3    0    0 -0.47457452043E+01  0.23089285079E+02  0.21241687797E+02  0.31730844359E+02  0.51100000000E-03 0.  1.
         12    1    3    3    0    0  0.62916344237E+01  0.13118119428E+01 -0.70291318063E+01  0.95244006765E+01  0.00000000000E+00 0. -1.
</event>
<event>
 7    1  0.5662448E-012  0.5930197E+02  0.7816164E-02  0.1266605E+00
        -11   -1    0    0    0    0  0.00000000000E+00  0.00000000000E+00  0.45593999997E+02  0.45594000000E+02  0.51100000000E-03 0. -1.
         11   -1    0    0    0    0 -0.00000000000E+00 -0.00000000000E+00 -0.45593999997E+02  0.45594000000E+02  0.51100000000E-03 0.  1.
    9900012    2    1    2    0    0  0.31241628271E+02  0.57121758585E+01  0.28373706541E+01  0.59301969166E+02  0.50000045847E+02 0.  0.
         12    1    1    2    0    0 -0.31241628271E+02 -0.57121758585E+01 -0.28373706541E+01  0.31886030834E+02  0.00000000000E+00 0. -1.
         11    1    3    3    0    0 -0.14787664754E+01 -0.61738017611E+01 -0.91441593387E+01  0.11131856482E+02  0.51100000000E-03 0. -1.
        -11    1    3    3    0    0  0.76773329979E+01  0.13825770091E+02 -0.63837330418E+01  0.17054190346E+02  0.51100000000E-03 0.  1.
         12    1    3    3    0    0  0.25043061749E+02 -0.19397924710E+01  0.18365263035E+02  0.31115922338E+02  0.00000000000E+00 0. -1.
</event>
<event>
 7    1  0.5662448E-012  0.5930192E+02  0.7816164E-02  0.1266605E+00
        -11   -1    0    0    0    0  0.00000000000E+00  0.00000000000E+00  0.45593999997E+02  0.45594000000E+02  0.51100000000E-03 0. -1.
         11   -1    0    0    0    0 -0.00000000000E+00 -0.00000000000E+00 -0.45593999997E+02  0.45594000000E+02  0.51100000000E-03 0.  1.
    9900012    2    1    2    0    0 -0.78287809114E+01  0.30752089369E+02 -0.31211426379E+01  0.59301916162E+02  0.49999949180E+02 0.  0.
         12    1    1    2    0    0  0.78287809114E+01 -0.30752089369E+02  0.31211426379E+01  0.31886083838E+02  0.00000000000E+00 0. -1.
         11    1    3    3    0    0 -0.23787038788E+01  0.82380850023E+01 -0.15925901692E+02  0.18087526686E+02  0.51100000000E-03 0. -1.
        -11    1    3    3    0    0  0.12345821989E+02  0.30501692093E+01  0.29055123389E+01  0.13044725180E+02  0.51100000000E-03 0.  1.
         12    1    3    3    0    0 -0.17795899022E+02  0.19463835158E+02  0.98992467156E+01  0.28169664297E+02  0.00000000000E+00 0. -1.
</event>
<event>
 7    1  0.5662448E-012  0.5930196E+02  0.7816164E-02  0.1266605E+00
        -11   -1    0    0    0    0  0.00000000000E+00  0.00000000000E+00  0.45593999997E+02  0.45594000000E+02  0.51100000000E-03 0.  1.
         11   -1    0    0    0    0 -0.00000000000E+00 -0.00000000000E+00 -0.45593999997E+02  0.45594000000E+02  0.51100000000E-03 0. -1.
    9900012    2    1    2    0    0  0.29878155057E+02 -0.11134498291E+02 -0.19557465242E+00  0.59301961500E+02  0.50000031865E+02 0.  0.
         12    1    1    2    0    0 -0.29878155057E+02  0.11134498291E+02  0.19557465242E+00  0.31886038500E+02  0.00000000000E+00 0. -1.
         11    1    3    3    0    0 -0.71733677545E+00 -0.49589898488E+01  0.10784007631E+02  0.11891214118E+02  0.51100000000E-03 0. -1.
        -11    1    3    3    0    0 -0.53215597979E+01  0.46999099649E+01  0.25129286383E+01  0.75314648616E+01  0.51100000000E-03 0.  1.
        -12    1    3    3    0    0  0.35917051630E+02 -0.10875418407E+02 -0.13492510921E+02  0.39879282520E+02  0.00000000000E+00 0.  1.
</event>
<event>
 7    1  0.5662448E-012  0.5930193E+02  0.7816164E-02  0.1266605E+00
        -11   -1    0    0    0    0  0.00000000000E+00  0.00000000000E+00  0.45593999997E+02  0.45594000000E+02  0.51100000000E-03 0. -1.
         11   -1    0    0    0    0 -0.00000000000E+00 -0.00000000000E+00 -0.45593999997E+02  0.45594000000E+02  0.51100000000E-03 0.  1.
    9900012    2    1    2    0    0  0.28720651897E+01  0.28624425874E+02  0.13751907046E+02  0.59301929961E+02  0.49999974346E+02 0.  0.
         12    1    1    2    0    0 -0.28720651897E+01 -0.28624425874E+02 -0.13751907046E+02  0.31886070039E+02  0.00000000000E+00 0. -1.
         11    1    3    3    0    0  0.19149784434E+01  0.30426193744E+01  0.20924631483E+02  0.21231224130E+02  0.51100000000E-03 0. -1.
        -11    1    3    3    0    0 -0.16988167249E+01 -0.38244206710E+01 -0.74484344943E+01  0.85434974344E+01  0.51100000000E-03 0.  1.
        -12    1    3    3    0    0  0.26559034712E+01  0.29406227171E+02  0.27571005748E+00  0.29527208397E+02  0.00000000000E+00 0.  1.
</event>
<event>
 7    1  0.5662448E-012  0.5930197E+02  0.7816164E-02  0.1266605E+00
        -11   -1    0    0    0    0  0.00000000000E+00  0.00000000000E+00  0.45593999997E+02  0.45594000000E+02  0.51100000000E-03 0.  1.
         11   -1    0    0    0    0 -0.00000000000E+00 -0.00000000000E+00 -0.45593999997E+02  0.45594000000E+02  0.51100000000E-03 0. -1.
    9900012    2    1    2    0    0 -0.27331102076E+02 -0.28655095600E+01  0.16171531964E+02  0.59301972781E+02  0.50000052440E+02 0.  0.
         12    1    1    2    0    0  0.27331102076E+02  0.28655095600E+01 -0.16171531964E+02  0.31886027219E+02  0.00000000000E+00 0. -1.
         11    1    3    3    0    0  0.85361120760E+01 -0.26588249359E+01  0.60125327167E+00  0.89608071718E+01  0.51100000000E-03 0. -1.
        -11    1    3    3    0    0 -0.24460584188E+02  0.14901650249E+02  0.66007933966E+01  0.29393023538E+02  0.51100000000E-03 0.  1.
         12    1    3    3    0    0 -0.11406629964E+02 -0.15108334873E+02  0.89694852959E+01  0.20948142071E+02  0.00000000000E+00 0. -1.
</event>
<event>
 7    1  0.5662448E-012  0.5930196E+02  0.7816164E-02  0.1266605E+00
        -11   -1    0    0    0    0  0.00000000000E+00  0.00000000000E+00  0.45593999997E+02  0.45594000000E+02  0.51100000000E-03 0.  1.
         11   -1    0    0    0    0 -0.00000000000E+00 -0.00000000000E+00 -0.45593999997E+02  0.45594000000E+02  0.51100000000E-03 0. -1.
    9900012    2    1    2    0    0  0.17609035347E+02  0.25858576433E+02  0.61624136726E+01  0.59301961625E+02  0.50000032094E+02 0.  0.
         12    1    1    2    0    0 -0.17609035347E+02 -0.25858576433E+02 -0.61624136726E+01  0.31886038375E+02  0.00000000000E+00 0. -1.
         11    1    3    3    0    0 -0.84209779661E+01 -0.12909881318E+00 -0.28245800226E+01  0.88830056273E+01  0.51100000000E-03 0. -1.
        -11    1    3    3    0    0  0.66643390599E+01 -0.76941260436E+01 -0.12105384913E+01  0.10250775306E+02  0.51100000000E-03 0.  1.
        -12    1    3    3    0    0  0.19365674253E+02  0.33681801289E+02  0.10197532187E+02  0.40168180692E+02  0.00000000000E+00 0.  1.
</event>
<event>
 7    1  0.5662448E-012  0.5930197E+02  0.7816164E-02  0.1266605E+00
        -11   -1    0    0    0    0  0.00000000000E+00  0.00000000000E+00  0.45593999997E+02  0.45594000000E+02  0.51100000000E-03 0. -1.
         11   -1    0    0    0    0 -0.00000000000E+00 -0.00000000000E+00 -0.45593999997E+02  0.45594000000E+02  0.51100000000E-03 0.  1.
    9900012    2    1    2    0    0 -0.68839254640E+00  0.24596949788E+02 -0.20278928268E+02  0.59301972419E+02  0.50000051779E+02 0.  0.
         12    1    1    2    0    0  0.68839254640E+00 -0.24596949788E+02  0.20278928268E+02  0.31886027581E+02  0.00000000000E+00 0. -1.
         11    1    3    3    0    0 -0.15338794070E+02  0.26719748716E+02  0.57715680859E+00  0.30814877661E+02  0.51100000000E-03 0. -1.
        -11    1    3    3    0    0 -0.59110116410E+00 -0.27790716884E+01 -0.25539669496E+00  0.28526948257E+01  0.51100000000E-03 0.  1.
        -12    1    3    3    0    0  0.15241502688E+02  0.65627276021E+00 -0.20600688382E+02  0.25634399933E+02  0.00000000000E+00 0.  1.
</event>
<event>
 7    1  0.5662448E-012  0.5930197E+02  0.7816164E-02  0.1266605E+00
        -11   -1    0    0    0    0  0.00000000000E+00  0.00000000000E+00  0.45593999997E+02  0.45594000000E+02  0.51100000000E-03 0.  1.
         11   -1    0    0    0    0 -0.00000000000E+00 -0.00000000000E+00 -0.45593999997E+02  0.45594000000E+02  0.51100000000E-03 0. -1.
    9900012    2    1    2    0    0  0.72050140913E+01  0.12320163946E+02  0.28513511396E+02  0.59301968578E+02  0.50000044774E+02 0.  0.
         12    1    1    2    0    0 -0.72050140913E+01 -0.12320163946E+02 -0.28513511396E+02  0.31886031422E+02  0.00000000000E+00 0. -1.
         11    1    3    3    0    0  0.11599879088E+01 -0.11629594597E+00  0.75233295088E+01  0.76131191935E+01  0.51100000000E-03 0. -1.
        -11    1    3    3    0    0  0.93335133810E+01 -0.15705694894E+02  0.12404664602E+02  0.22083003154E+02  0.51100000000E-03 0.  1.
         12    1    3    3    0    0 -0.32884871985E+01  0.28142154785E+02  0.85855172847E+01  0.29605846231E+02  0.00000000000E+00 0. -1.
</event>
<event>
 7    1  0.5662448E-012  0.5930195E+02  0.7816164E-02  0.1266605E+00
        -11   -1    0    0    0    0  0.00000000000E+00  0.00000000000E+00  0.45593999997E+02  0.45594000000E+02  0.51100000000E-03 0.  1.
         11   -1    0    0    0    0 -0.00000000000E+00 -0.00000000000E+00 -0.45593999997E+02  0.45594000000E+02  0.51100000000E-03 0. -1.
    9900012    2    1    2    0    0  0.30129931406E+02  0.57298945709E+01  0.87221531774E+01  0.59301946397E+02  0.50000004321E+02 0.  0.
         12    1    1    2    0    0 -0.30129931406E+02 -0.57298945709E+01 -0.87221531774E+01  0.31886053603E+02  0.00000000000E+00 0. -1.
         11    1    3    3    0    0  0.14457860745E+02  0.15606268560E+02  0.15238070768E+02  0.26168380857E+02  0.51100000000E-03 0. -1.
        -11    1    3    3    0    0  0.18363554654E+02 -0.15674046248E+01  0.46011125116E+01  0.18995976769E+02  0.51100000000E-03 0.  1.
         12    1    3    3    0    0 -0.26914839934E+01 -0.83089693644E+01 -0.11117030102E+02  0.14137588771E+02  0.00000000000E+00 0. -1.
</event>
<event>
 7    1  0.5662448E-012  0.5930192E+02  0.7816164E-02  0.1266605E+00
        -11   -1    0    0    0    0  0.00000000000E+00  0.00000000000E+00  0.45593999997E+02  0.45594000000E+02  0.51100000000E-03 0. -1.
         11   -1    0    0    0    0 -0.00000000000E+00 -0.00000000000E+00 -0.45593999997E+02  0.45594000000E+02  0.51100000000E-03 0.  1.
    9900012    2    1    2    0    0  0.55846877606E+01  0.22448298741E+02 -0.21945553553E+02  0.59301918797E+02  0.49999953986E+02 0.  0.
         12    1    1    2    0    0 -0.55846877606E+01 -0.22448298741E+02  0.21945553553E+02  0.31886081203E+02  0.00000000000E+00 0. -1.
         11    1    3    3    0    0 -0.17630843628E+01  0.29597447029E+02  0.26339613487E+01  0.29766677506E+02  0.51100000000E-03 0. -1.
        -11    1    3    3    0    0  0.27298940418E+01  0.28607879815E+01 -0.12822799042E+02  0.13418666286E+02  0.51100000000E-03 0.  1.
        -12    1    3    3    0    0  0.46178780816E+01 -0.10009936270E+02 -0.11756715859E+02  0.16116575005E+02  0.00000000000E+00 0.  1.
</event>
<event>
 7    1  0.5662448E-012  0.5930198E+02  0.7816164E-02  0.1266605E+00
        -11   -1    0    0    0    0  0.00000000000E+00  0.00000000000E+00  0.45593999997E+02  0.45594000000E+02  0.51100000000E-03 0. -1.
         11   -1    0    0    0    0 -0.00000000000E+00 -0.00000000000E+00 -0.45593999997E+02  0.45594000000E+02  0.51100000000E-03 0.  1.
    9900012    2    1    2    0    0  0.11908366134E+02 -0.63808132524E+01 -0.28882427368E+02  0.59301975280E+02  0.50000056997E+02 0.  0.
         12    1    1    2    0    0 -0.11908366134E+02  0.63808132524E+01  0.28882427368E+02  0.31886024720E+02  0.00000000000E+00 0. -1.
         11    1    3    3    0    0 -0.91698726836E+01 -0.85366608251E+01  0.52324197478E+01  0.13577163170E+02  0.51100000000E-03 0. -1.
        -11    1    3    3    0    0  0.58029745976E+01 -0.68139749111E+01 -0.21891408207E+01  0.92139625603E+01  0.51100000000E-03 0.  1.
        -12    1    3    3    0    0  0.15275264220E+02  0.89698224837E+01 -0.31925706295E+02  0.36510849550E+02  0.00000000000E+00 0.  1.
</event>
<event>
 7    1  0.5662448E-012  0.5930173E+02  0.7816164E-02  0.1266605E+00
        -11   -1    0    0    0    0  0.00000000000E+00  0.00000000000E+00  0.45593999997E+02  0.45594000000E+02  0.51100000000E-03 0.  1.
         11   -1    0    0    0    0 -0.00000000000E+00 -0.00000000000E+00 -0.45593999997E+02  0.45594000000E+02  0.51100000000E-03 0. -1.
    9900012    2    1    2    0    0  0.10044883801E+02 -0.14351875490E+02  0.26643162154E+02  0.59301731635E+02  0.49999612645E+02 0.  0.
         12    1    1    2    0    0 -0.10044883801E+02  0.14351875490E+02 -0.26643162154E+02  0.31886268365E+02  0.00000000000E+00 0. -1.
         11    1    3    3    0    0 -0.12012208846E+02 -0.48853532822E+01  0.24161434351E+02  0.27421428631E+02  0.51100000000E-03 0. -1.
        -11    1    3    3    0    0  0.55678629298E+01  0.28985789163E+01  0.83541099992E+01  0.10449593843E+02  0.51100000000E-03 0.  1.
         12    1    3    3    0    0  0.16489229717E+02 -0.12365101124E+02 -0.58723821956E+01  0.21430709161E+02  0.00000000000E+00 0. -1.
</event>
<event>
 7    1  0.5662448E-012  0.5930194E+02  0.7816164E-02  0.1266605E+00
        -11   -1    0    0    0    0  0.00000000000E+00  0.00000000000E+00  0.45593999997E+02  0.45594000000E+02  0.51100000000E-03 0.  1.
         11   -1    0    0    0    0 -0.00000000000E+00 -0.00000000000E+00 -0.45593999997E+02  0.45594000000E+02  0.51100000000E-03 0. -1.
    9900012    2    1    2    0    0 -0.51502216055E+01  0.31462747904E+02  0.53989698541E+00  0.59301940711E+02  0.49999993951E+02 0.  0.
         12    1    1    2    0    0  0.51502216055E+01 -0.31462747904E+02 -0.53989698541E+00  0.31886059289E+02  0.00000000000E+00 0. -1.
         11    1    3    3    0    0 -0.68723699339E+01  0.20199704198E+02 -0.15858722742E+02  0.26584894310E+02  0.51100000000E-03 0. -1.
        -11    1    3    3    0    0  0.13347065479E+02  0.87989204720E+01  0.65234421819E+01  0.17266165079E+02  0.51100000000E-03 0.  1.
        -12    1    3    3    0    0 -0.11624917151E+02  0.24641232341E+01  0.98751775457E+01  0.15450881322E+02  0.00000000000E+00 0.  1.
</event>
<event>
 7    1  0.5662448E-012  0.5930174E+02  0.7816164E-02  0.1266605E+00
        -11   -1    0    0    0    0  0.00000000000E+00  0.00000000000E+00  0.45593999997E+02  0.45594000000E+02  0.51100000000E-03 0. -1.
         11   -1    0    0    0    0 -0.00000000000E+00 -0.00000000000E+00 -0.45593999997E+02  0.45594000000E+02  0.51100000000E-03 0.  1.
    9900012    2    1    2    0    0  0.23375726305E+02  0.12794309522E+02 -0.17510418381E+02  0.59301738251E+02  0.49999624712E+02 0.  0.
         12    1    1    2    0    0 -0.23375726305E+02 -0.12794309522E+02  0.17510418381E+02  0.31886261749E+02  0.00000000000E+00 0. -1.
         11    1    3    3    0    0  0.38892934226E+01 -0.13828354162E+01  0.12659646769E+02  0.13315610902E+02  0.51100000000E-03 0. -1.
        -11    1    3    3    0    0 -0.46031795318E+01  0.89178676310E+01 -0.93012897995E+01  0.13683260470E+02  0.51100000000E-03 0.  1.
        -12    1    3    3    0    0  0.24089612414E+02  0.52592773072E+01 -0.20868775350E+02  0.32302866880E+02  0.00000000000E+00 0.  1.
</event>
<event>
 7    1  0.5662448E-012  0.5930195E+02  0.7816164E-02  0.1266605E+00
        -11   -1    0    0    0    0  0.00000000000E+00  0.00000000000E+00  0.45593999997E+02  0.45594000000E+02  0.51100000000E-03 0. -1.
         11   -1    0    0    0    0 -0.00000000000E+00 -0.00000000000E+00 -0.45593999997E+02  0.45594000000E+02  0.51100000000E-03 0.  1.
    9900012    2    1    2    0    0  0.19695074710E+02 -0.73397309494E+00 -0.25065625908E+02  0.59301948402E+02  0.50000007978E+02 0.  0.
         12    1    1    2    0    0 -0.19695074710E+02  0.73397309494E+00  0.25065625908E+02  0.31886051598E+02  0.00000000000E+00 0. -1.
         11    1    3    3    0    0 -0.97562093458E+00 -0.53898888636E+01  0.77603271487E+01  0.94987060112E+01  0.51100000000E-03 0. -1.
        -11    1    3    3    0    0 -0.19763696610E+01  0.97909085811E+01 -0.49997050007E+00  0.10000894892E+02  0.51100000000E-03 0.  1.
         12    1    3    3    0    0  0.22647065306E+02 -0.51349928124E+01 -0.32325982557E+02  0.39802347499E+02  0.00000000000E+00 0. -1.
</event>
<event>
 7    1  0.5662448E-012  0.5930200E+02  0.7816164E-02  0.1266605E+00
        -11   -1    0    0    0    0  0.00000000000E+00  0.00000000000E+00  0.45593999997E+02  0.45594000000E+02  0.51100000000E-03 0. -1.
         11   -1    0    0    0    0 -0.00000000000E+00 -0.00000000000E+00 -0.45593999997E+02  0.45594000000E+02  0.51100000000E-03 0.  1.
    9900012    2    1    2    0    0 -0.28975195659E+02 -0.15271522999E+01 -0.13222059285E+02  0.59301999790E+02  0.50000101697E+02 0.  0.
         12    1    1    2    0    0  0.28975195659E+02  0.15271522999E+01  0.13222059285E+02  0.31886000210E+02  0.00000000000E+00 0. -1.
         11    1    3    3    0    0 -0.20157899188E+02 -0.14726339569E+02  0.49945511802E+00  0.24969089540E+02  0.51100000000E-03 0. -1.
        -11    1    3    3    0    0  0.13221128891E+01 -0.30172779311E+01 -0.14814452522E+02  0.15176295740E+02  0.51100000000E-03 0.  1.
         12    1    3    3    0    0 -0.10139409360E+02  0.16216465200E+02  0.10929381187E+01  0.19156614510E+02  0.00000000000E+00 0. -1.
</event>
<event>
 7    1  0.5662448E-012  0.5930195E+02  0.7816164E-02  0.1266605E+00
        -11   -1    0    0    0    0  0.00000000000E+00  0.00000000000E+00  0.45593999997E+02  0.45594000000E+02  0.51100000000E-03 0. -1.
         11   -1    0    0    0    0 -0.00000000000E+00 -0.00000000000E+00 -0.45593999997E+02  0.45594000000E+02  0.51100000000E-03 0.  1.
    9900012    2    1    2    0    0 -0.27050416743E+02 -0.14119051752E+02 -0.92546047959E+01  0.59301946963E+02  0.50000005353E+02 0.  0.
         12    1    1    2    0    0  0.27050416743E+02  0.14119051752E+02  0.92546047959E+01  0.31886053037E+02  0.00000000000E+00 0. -1.
         11    1    3    3    0    0 -0.18781175687E+01  0.11902329214E+02  0.24601468092E+01  0.12298174210E+02  0.51100000000E-03 0. -1.
        -11    1    3    3    0    0 -0.21090868541E+02 -0.15702385271E+02 -0.20098548314E+02  0.33095940591E+02  0.51100000000E-03 0.  1.
        -12    1    3    3    0    0 -0.40814306335E+01 -0.10318995695E+02  0.83837967093E+01  0.13907832161E+02  0.00000000000E+00 0.  1.
</event>
<event>
 7    1  0.5662448E-012  0.5930199E+02  0.7816164E-02  0.1266605E+00
        -11   -1    0    0    0    0  0.00000000000E+00  0.00000000000E+00  0.45593999997E+02  0.45594000000E+02  0.51100000000E-03 0. -1.
         11   -1    0    0    0    0 -0.00000000000E+00 -0.00000000000E+00 -0.45593999997E+02  0.45594000000E+02  0.51100000000E-03 0.  1.
    9900012    2    1    2    0    0  0.18430782516E+02 -0.19890239461E+02 -0.16775041135E+02  0.59301994057E+02  0.50000091240E+02 0.  0.
         12    1    1    2    0    0 -0.18430782516E+02  0.19890239461E+02  0.16775041135E+02  0.31886005943E+02  0.00000000000E+00 0. -1.
         11    1    3    3    0    0  0.12774062916E+02  0.18086193341E+01 -0.15815934924E+02  0.20410575324E+02  0.51100000000E-03 0. -1.
        -11    1    3    3    0    0  0.51418106819E+01 -0.63749749994E+01 -0.15645723234E+02  0.17659761581E+02  0.51100000000E-03 0.  1.
         12    1    3    3    0    0  0.51490891746E+00 -0.15323883796E+02  0.14686617023E+02  0.21231657151E+02  0.00000000000E+00 0. -1.
</event>
<event>
 7    1  0.5662448E-012  0.5930196E+02  0.7816164E-02  0.1266605E+00
        -11   -1    0    0    0    0  0.00000000000E+00  0.00000000000E+00  0.45593999997E+02  0.45594000000E+02  0.51100000000E-03 0.  1.
         11   -1    0    0    0    0 -0.00000000000E+00 -0.00000000000E+00 -0.45593999997E+02  0.45594000000E+02  0.51100000000E-03 0. -1.
    9900012    2    1    2    0    0  0.24192702998E+02 -0.20430848010E+02  0.37433924154E+01  0.59301962060E+02  0.50000032886E+02 0.  0.
         12    1    1    2    0    0 -0.24192702998E+02  0.20430848010E+02 -0.37433924154E+01  0.31886037940E+02  0.00000000000E+00 0. -1.
         11    1    3    3    0    0  0.92251773853E+01  0.39050527970E+01 -0.11466092971E+01  0.10083057487E+02  0.51100000000E-03 0. -1.
        -11    1    3    3    0    0  0.21785505962E+02 -0.29351405996E+02 -0.42059556386E+01  0.36794067009E+02  0.51100000000E-03 0.  1.
         12    1    3    3    0    0 -0.68179803494E+01  0.50155051896E+01  0.90959573510E+01  0.12424837564E+02  0.00000000000E+00 0. -1.
</event>
<event>
 7    1  0.5662448E-012  0.5930197E+02  0.7816164E-02  0.1266605E+00
        -11   -1    0    0    0    0  0.00000000000E+00  0.00000000000E+00  0.45593999997E+02  0.45594000000E+02  0.51100000000E-03 0. -1.
         11   -1    0    0    0    0 -0.00000000000E+00 -0.00000000000E+00 -0.45593999997E+02  0.45594000000E+02  0.51100000000E-03 0.  1.
    9900012    2    1    2    0    0  0.19725456608E+02 -0.24994563041E+02  0.17021683570E+01  0.59301965485E+02  0.50000039133E+02 0.  0.
         12    1    1    2    0    0 -0.19725456608E+02  0.24994563041E+02 -0.17021683570E+01  0.31886034515E+02  0.00000000000E+00 0. -1.
         11    1    3    3    0    0  0.10608220920E+02 -0.15647312544E+02 -0.12091521539E+02  0.22440535518E+02  0.51100000000E-03 0.  1.
        -11    1    3    3    0    0 -0.85611949144E+01 -0.54755065236E+01 -0.45129442335E+01  0.11119437754E+02  0.51100000000E-03 0. -1.
         12    1    3    3    0    0  0.17678430601E+02 -0.38717439733E+01  0.18306634129E+02  0.25741992213E+02  0.00000000000E+00 0. -1.
</event>
<event>
 7    1  0.5662448E-012  0.5930194E+02  0.7816164E-02  0.1266605E+00
        -11   -1    0    0    0    0  0.00000000000E+00  0.00000000000E+00  0.45593999997E+02  0.45594000000E+02  0.51100000000E-03 0.  1.
         11   -1    0    0    0    0 -0.00000000000E+00 -0.00000000000E+00 -0.45593999997E+02  0.45594000000E+02  0.51100000000E-03 0. -1.
    9900012    2    1    2    0    0 -0.53366943559E+01 -0.16592462403E+02  0.26700766294E+02  0.59301936650E+02  0.49999986545E+02 0.  0.
         12    1    1    2    0    0  0.53366943559E+01  0.16592462403E+02 -0.26700766294E+02  0.31886063350E+02  0.00000000000E+00 0. -1.
         11    1    3    3    0    0 -0.11635765139E+00 -0.11981658170E+02 -0.79157250308E+01  0.14360792966E+02  0.51100000000E-03 0. -1.
        -11    1    3    3    0    0 -0.82328498815E+01 -0.10527735874E+02  0.45006960895E+01  0.14102102870E+02  0.51100000000E-03 0.  1.
        -12    1    3    3    0    0  0.30125131770E+01  0.59169316402E+01  0.30115795235E+02  0.30839040814E+02  0.00000000000E+00 0.  1.
</event>
<event>
 7    1  0.5662448E-012  0.5930158E+02  0.7816164E-02  0.1266606E+00
        -11   -1    0    0    0    0  0.00000000000E+00  0.00000000000E+00  0.45593999997E+02  0.45594000000E+02  0.51100000000E-03 0.  1.
         11   -1    0    0    0    0 -0.00000000000E+00 -0.00000000000E+00 -0.45593999997E+02  0.45594000000E+02  0.51100000000E-03 0. -1.
    9900012    2    1    2    0    0  0.11754277807E+01  0.13691515530E+02  0.28773328298E+02  0.59301582055E+02  0.49999339845E+02 0.  0.
         12    1    1    2    0    0 -0.11754277807E+01 -0.13691515530E+02 -0.28773328298E+02  0.31886417945E+02  0.00000000000E+00 0. -1.
         11    1    3    3    0    0  0.21661636177E+00  0.22772211024E+02  0.12197085614E+02  0.25833881151E+02  0.51100000000E-03 0. -1.
        -11    1    3    3    0    0  0.87002343193E+01  0.68663000350E+01  0.42200175557E+01  0.11859540540E+02  0.51100000000E-03 0.  1.
        -12    1    3    3    0    0 -0.77414229004E+01 -0.15946995529E+02  0.12356225129E+02  0.21608160365E+02  0.00000000000E+00 0.  1.
</event>
<event>
 7    1  0.5662448E-012  0.5930195E+02  0.7816164E-02  0.1266605E+00
        -11   -1    0    0    0    0  0.00000000000E+00  0.00000000000E+00  0.45593999997E+02  0.45594000000E+02  0.51100000000E-03 0. -1.
         11   -1    0    0    0    0 -0.00000000000E+00 -0.00000000000E+00 -0.45593999997E+02  0.45594000000E+02  0.51100000000E-03 0.  1.
    9900012    2    1    2    0    0  0.31134956302E+02  0.47372729403E+01  0.49892593494E+01  0.59301953401E+02  0.50000017095E+02 0.  0.
         12    1    1    2    0    0 -0.31134956302E+02 -0.47372729403E+01 -0.49892593494E+01  0.31886046599E+02  0.00000000000E+00 0. -1.
         11    1    3    3    0    0  0.24146436097E+02 -0.92029842414E+01  0.11308397251E+02  0.28206827964E+02  0.51100000000E-03 0. -1.
        -11    1    3    3    0    0  0.14785644635E+02  0.17610241308E+01  0.92896608089E+00  0.14919097544E+02  0.51100000000E-03 0.  1.
         12    1    3    3    0    0 -0.77971244305E+01  0.12179233051E+02 -0.72481039824E+01  0.16176027894E+02  0.00000000000E+00 0. -1.
</event>
<event>
 7    1  0.5662448E-012  0.5930193E+02  0.7816164E-02  0.1266605E+00
        -11   -1    0    0    0    0  0.00000000000E+00  0.00000000000E+00  0.45593999997E+02  0.45594000000E+02  0.51100000000E-03 0. -1.
         11   -1    0    0    0    0 -0.00000000000E+00 -0.00000000000E+00 -0.45593999997E+02  0.45594000000E+02  0.51100000000E-03 0.  1.
    9900012    2    1    2    0    0  0.10803923379E+01  0.29091191536E+02 -0.13009878282E+02  0.59301927720E+02  0.49999970258E+02 0.  0.
         12    1    1    2    0    0 -0.10803923379E+01 -0.29091191536E+02  0.13009878282E+02  0.31886072280E+02  0.00000000000E+00 0. -1.
         11    1    3    3    0    0  0.66014305187E+01  0.23616948056E+02  0.27494447559E+01  0.24675870139E+02  0.51100000000E-03 0. -1.
        -11    1    3    3    0    0  0.83880922836E+01  0.47698447611E+01  0.40051916931E+01  0.10447634754E+02  0.51100000000E-03 0.  1.
        -12    1    3    3    0    0 -0.13909130464E+02  0.70439871844E+00 -0.19764514731E+02  0.24178422826E+02  0.00000000000E+00 0.  1.
</event>
<event>
 7    1  0.5662448E-012  0.5930191E+02  0.7816164E-02  0.1266605E+00
        -11   -1    0    0    0    0  0.00000000000E+00  0.00000000000E+00  0.45593999997E+02  0.45594000000E+02  0.51100000000E-03 0. -1.
         11   -1    0    0    0    0 -0.00000000000E+00 -0.00000000000E+00 -0.45593999997E+02  0.45594000000E+02  0.51100000000E-03 0.  1.
    9900012    2    1    2    0    0 -0.30128515106E+02  0.98174337747E+01 -0.35515398875E+01  0.59301907985E+02  0.49999934266E+02 0.  0.
         12    1    1    2    0    0  0.30128515106E+02 -0.98174337747E+01  0.35515398875E+01  0.31886092015E+02  0.00000000000E+00 0. -1.
         11    1    3    3    0    0 -0.63571799617E+01  0.10397940252E+02  0.53593394430E+01  0.13313655323E+02  0.51100000000E-03 0. -1.
        -11    1    3    3    0    0 -0.28103744973E+02 -0.13564927595E+02 -0.82780230696E+01  0.32285498422E+02  0.51100000000E-03 0.  1.
         12    1    3    3    0    0  0.43324098281E+01  0.12984421118E+02 -0.63285626099E+00  0.13702754239E+02  0.00000000000E+00 0. -1.
</event>
<event>
 7    1  0.5662448E-012  0.5930194E+02  0.7816164E-02  0.1266605E+00
        -11   -1    0    0    0    0  0.00000000000E+00  0.00000000000E+00  0.45593999997E+02  0.45594000000E+02  0.51100000000E-03 0. -1.
         11   -1    0    0    0    0 -0.00000000000E+00 -0.00000000000E+00 -0.45593999997E+02  0.45594000000E+02  0.51100000000E-03 0.  1.
    9900012    2    1    2    0    0  0.28551292085E+02  0.97580734435E+01 -0.10311372278E+02  0.59301942306E+02  0.49999996860E+02 0.  0.
         12    1    1    2    0    0 -0.28551292085E+02 -0.97580734435E+01  0.10311372278E+02  0.31886057694E+02  0.00000000000E+00 0. -1.
         11    1    3    3    0    0  0.21158232845E+02  0.31547746217E+01 -0.16449423608E+02  0.26985310029E+02  0.51100000000E-03 0. -1.
        -11    1    3    3    0    0 -0.90815597550E+01 -0.53025475043E+01 -0.14588655987E+01  0.10616968810E+02  0.51100000000E-03 0.  1.
         12    1    3    3    0    0  0.16474618994E+02  0.11905846326E+02  0.75969169290E+01  0.21699663467E+02  0.00000000000E+00 0. -1.
</event>
<event>
 7    1  0.5662448E-012  0.5930196E+02  0.7816164E-02  0.1266605E+00
        -11   -1    0    0    0    0  0.00000000000E+00  0.00000000000E+00  0.45593999997E+02  0.45594000000E+02  0.51100000000E-03 0.  1.
         11   -1    0    0    0    0 -0.00000000000E+00 -0.00000000000E+00 -0.45593999997E+02  0.45594000000E+02  0.51100000000E-03 0. -1.
    9900012    2    1    2    0    0  0.11980639379E+02 -0.22558158366E+02  0.19086990463E+02  0.59301961774E+02  0.50000032365E+02 0.  0.
         12    1    1    2    0    0 -0.11980639379E+02  0.22558158366E+02 -0.19086990463E+02  0.31886038226E+02  0.00000000000E+00 0. -1.
         11    1    3    3    0    0  0.16135279830E+02 -0.36259086413E+01  0.50615243513E+00  0.16545412029E+02  0.51100000000E-03 0. -1.
        -11    1    3    3    0    0 -0.92082682862E+00 -0.18904226899E+02 -0.44967314446E+01  0.19453490963E+02  0.51100000000E-03 0.  1.
         12    1    3    3    0    0 -0.32338136220E+01 -0.28022825338E-01  0.23077569473E+02  0.23303058782E+02  0.00000000000E+00 0. -1.
</event>
<event>
 7    1  0.5662448E-012  0.5930196E+02  0.7816164E-02  0.1266605E+00
        -11   -1    0    0    0    0  0.00000000000E+00  0.00000000000E+00  0.45593999997E+02  0.45594000000E+02  0.51100000000E-03 0.  1.
         11   -1    0    0    0    0 -0.00000000000E+00 -0.00000000000E+00 -0.45593999997E+02  0.45594000000E+02  0.51100000000E-03 0. -1.
    9900012    2    1    2    0    0  0.17474340700E+02 -0.17281640818E+02  0.20315317000E+02  0.59301956077E+02  0.50000021974E+02 0.  0.
         12    1    1    2    0    0 -0.17474340700E+02  0.17281640818E+02 -0.20315317000E+02  0.31886043923E+02  0.00000000000E+00 0. -1.
         11    1    3    3    0    0 -0.33491047808E+01  0.93401783701E+00  0.14069219297E+02  0.14492474739E+02  0.51100000000E-03 0. -1.
        -11    1    3    3    0    0  0.30305181369E+01  0.84501823752E+01  0.89019875879E+01  0.12642586983E+02  0.51100000000E-03 0.  1.
         12    1    3    3    0    0  0.17792927344E+02 -0.26665841031E+02 -0.26558898857E+01  0.32166894355E+02  0.00000000000E+00 0. -1.
</event>
<event>
 7    1  0.5662448E-012  0.5930194E+02  0.7816164E-02  0.1266605E+00
        -11   -1    0    0    0    0  0.00000000000E+00  0.00000000000E+00  0.45593999997E+02  0.45594000000E+02  0.51100000000E-03 0.  1.
         11   -1    0    0    0    0 -0.00000000000E+00 -0.00000000000E+00 -0.45593999997E+02  0.45594000000E+02  0.51100000000E-03 0. -1.
    9900012    2    1    2    0    0  0.14333591541E+02 -0.22521160226E+02  0.17437505455E+02  0.59301935632E+02  0.49999984689E+02 0.  0.
         12    1    1    2    0    0 -0.14333591541E+02  0.22521160226E+02 -0.17437505455E+02  0.31886064368E+02  0.00000000000E+00 0. -1.
         11    1    3    3    0    0  0.47432042776E+01 -0.11364851895E+02  0.51812065065E+01  0.13360492002E+02  0.51100000000E-03 0. -1.
        -11    1    3    3    0    0  0.51981047931E+01 -0.85506886732E+01  0.27818046153E+02  0.29563123351E+02  0.51100000000E-03 0.  1.
         12    1    3    3    0    0  0.43922824702E+01 -0.26056196578E+01 -0.15561747205E+02  0.16378320279E+02  0.00000000000E+00 0. -1.
</event>
<event>
 7    1  0.5662448E-012  0.5930195E+02  0.7816164E-02  0.1266605E+00
        -11   -1    0    0    0    0  0.00000000000E+00  0.00000000000E+00  0.45593999997E+02  0.45594000000E+02  0.51100000000E-03 0.  1.
         11   -1    0    0    0    0 -0.00000000000E+00 -0.00000000000E+00 -0.45593999997E+02  0.45594000000E+02  0.51100000000E-03 0. -1.
    9900012    2    1    2    0    0 -0.26968517040E+00 -0.17906870558E+02  0.26381648097E+02  0.59301951333E+02  0.50000013324E+02 0.  0.
         12    1    1    2    0    0  0.26968517040E+00  0.17906870558E+02 -0.26381648097E+02  0.31886048667E+02  0.00000000000E+00 0. -1.
         11    1    3    3    0    0 -0.13660742796E+01 -0.11805891061E+02  0.16037963280E+02  0.19961500172E+02  0.51100000000E-03 0. -1.
        -11    1    3    3    0    0 -0.13035411749E+02 -0.15376845254E+02  0.98322052849E+01  0.22428588687E+02  0.51100000000E-03 0.  1.
         12    1    3    3    0    0  0.14131800859E+02  0.92758657572E+01  0.51147953141E+00  0.16911862475E+02  0.00000000000E+00 0. -1.
</event>
<event>
 7    1  0.5662448E-012  0.5930194E+02  0.7816164E-02  0.1266605E+00
        -11   -1    0    0    0    0  0.00000000000E+00  0.00000000000E+00  0.45593999997E+02  0.45594000000E+02  0.51100000000E-03 0. -1.
         11   -1    0    0    0    0 -0.00000000000E+00 -0.00000000000E+00 -0.45593999997E+02  0.45594000000E+02  0.51100000000E-03 0.  1.
    9900012    2    1    2    0    0  0.20365023069E+02  0.23339842774E+02 -0.75655958169E+01  0.59301942461E+02  0.49999997143E+02 0.  0.
         12    1    1    2    0    0 -0.20365023069E+02 -0.23339842774E+02  0.75655958169E+01  0.31886057539E+02  0.00000000000E+00 0. -1.
         11    1    3    3    0    0 -0.72209812503E+01 -0.18808625377E+01 -0.75454687218E-01  0.74622990944E+01  0.51100000000E-03 0. -1.
        -11    1    3    3    0    0 -0.78455202886E+01  0.28948928512E+01  0.26094135268E+01  0.87602301587E+01  0.51100000000E-03 0.  1.
         12    1    3    3    0    0  0.35431524608E+02  0.22325812460E+02 -0.10099554656E+02  0.43079413208E+02  0.00000000000E+00 0. -1.
</event>
<event>
 7    1  0.5662448E-012  0.5930191E+02  0.7816164E-02  0.1266605E+00
        -11   -1    0    0    0    0  0.00000000000E+00  0.00000000000E+00  0.45593999997E+02  0.45594000000E+02  0.51100000000E-03 0.  1.
         11   -1    0    0    0    0 -0.00000000000E+00 -0.00000000000E+00 -0.45593999997E+02  0.45594000000E+02  0.51100000000E-03 0. -1.
    9900012    2    1    2    0    0  0.80520730219E+01 -0.18948309036E+02  0.24348474339E+02  0.59301913725E+02  0.49999944735E+02 0.  0.
         12    1    1    2    0    0 -0.80520730219E+01  0.18948309036E+02 -0.24348474339E+02  0.31886086275E+02  0.00000000000E+00 0. -1.
         11    1    3    3    0    0 -0.10112939133E+02  0.19621975405E+01  0.10180903421E+01  0.10351727648E+02  0.51100000000E-03 0. -1.
        -11    1    3    3    0    0  0.83238671125E+01  0.85093383578E+01  0.49506165590E+01  0.12892021082E+02  0.51100000000E-03 0.  1.
        -12    1    3    3    0    0  0.98411450425E+01 -0.29419844935E+02  0.18379767438E+02  0.36058164995E+02  0.00000000000E+00 0.  1.
</event>
<event>
 7    1  0.5662448E-012  0.5930197E+02  0.7816164E-02  0.1266605E+00
        -11   -1    0    0    0    0  0.00000000000E+00  0.00000000000E+00  0.45593999997E+02  0.45594000000E+02  0.51100000000E-03 0.  1.
         11   -1    0    0    0    0 -0.00000000000E+00 -0.00000000000E+00 -0.45593999997E+02  0.45594000000E+02  0.51100000000E-03 0. -1.
    9900012    2    1    2    0    0 -0.19793581945E+02  0.23516976087E+02  0.84785073552E+01  0.59301966420E+02  0.50000040838E+02 0.  0.
         12    1    1    2    0    0  0.19793581945E+02 -0.23516976087E+02 -0.84785073552E+01  0.31886033580E+02  0.00000000000E+00 0. -1.
         11    1    3    3    0    0 -0.68120057193E+01  0.19744612980E+02 -0.10794165998E+02  0.23511001329E+02  0.51100000000E-03 0.  1.
        -11    1    3    3    0    0 -0.29888403195E+01 -0.50521008165E+01 -0.52523219853E+01  0.78767871377E+01  0.51100000000E-03 0. -1.
        -12    1    3    3    0    0 -0.99927359058E+01  0.88244639240E+01  0.24524995339E+02  0.27914177953E+02  0.00000000000E+00 0.  1.
</event>
<event>
 7    1  0.5662448E-012  0.5930195E+02  0.7816164E-02  0.1266605E+00
        -11   -1    0    0    0    0  0.00000000000E+00  0.00000000000E+00  0.45593999997E+02  0.45594000000E+02  0.51100000000E-03 0. -1.
         11   -1    0    0    0    0 -0.00000000000E+00 -0.00000000000E+00 -0.45593999997E+02  0.45594000000E+02  0.51100000000E-03 0.  1.
    9900012    2    1    2    0    0  0.85366639010E+01  0.13694779982E+02 -0.27500880513E+02  0.59301951980E+02  0.50000014504E+02 0.  0.
         12    1    1    2    0    0 -0.85366639010E+01 -0.13694779982E+02  0.27500880513E+02  0.31886048020E+02  0.00000000000E+00 0. -1.
         11    1    3    3    0    0 -0.68780474627E+00  0.12046181110E+02  0.52219009994E+01  0.13147311703E+02  0.51100000000E-03 0. -1.
        -11    1    3    3    0    0  0.14835945488E+02  0.87595975688E+01 -0.65049264616E+01  0.18416022823E+02  0.51100000000E-03 0.  1.
         12    1    3    3    0    0 -0.56114768404E+01 -0.71109986973E+01 -0.26217855051E+02  0.27738617454E+02  0.00000000000E+00 0. -1.
</event>
<event>
 7    1  0.5662448E-012  0.5930193E+02  0.7816164E-02  0.1266605E+00
        -11   -1    0    0    0    0  0.00000000000E+00  0.00000000000E+00  0.45593999997E+02  0.45594000000E+02  0.51100000000E-03 0.  1.
         11   -1    0    0    0    0 -0.00000000000E+00 -0.00000000000E+00 -0.45593999997E+02  0.45594000000E+02  0.51100000000E-03 0. -1.
    9900012    2    1    2    0    0 -0.10853033915E+02 -0.19580779047E+02  0.22705202692E+02  0.59301929647E+02  0.49999973773E+02 0.  0.
         12    1    1    2    0    0  0.10853033915E+02  0.19580779047E+02 -0.22705202692E+02  0.31886070353E+02  0.00000000000E+00 0. -1.
         11    1    3    3    0    0 -0.55690846696E+01 -0.92427622705E+01 -0.79939695888E+01  0.13429330158E+02  0.51100000000E-03 0. -1.
        -11    1    3    3    0    0 -0.96133958590E+01  0.95079841379E+01  0.95846884111E+01  0.16573635525E+02  0.51100000000E-03 0.  1.
         12    1    3    3    0    0  0.43294466133E+01 -0.19846000914E+02  0.21114483870E+02  0.29298963964E+02  0.00000000000E+00 0. -1.
</event>
<event>
 7    1  0.5662448E-012  0.5930195E+02  0.7816164E-02  0.1266605E+00
        -11   -1    0    0    0    0  0.00000000000E+00  0.00000000000E+00  0.45593999997E+02  0.45594000000E+02  0.51100000000E-03 0. -1.
         11   -1    0    0    0    0 -0.00000000000E+00 -0.00000000000E+00 -0.45593999997E+02  0.45594000000E+02  0.51100000000E-03 0.  1.
    9900012    2    1    2    0    0  0.11905376368E+02 -0.29570801851E+02  0.74165503035E+00  0.59301947238E+02  0.50000005854E+02 0.  0.
         12    1    1    2    0    0 -0.11905376368E+02  0.29570801851E+02 -0.74165503035E+00  0.31886052762E+02  0.00000000000E+00 0. -1.
         11    1    3    3    0    0  0.75546128529E+01 -0.13055281512E+02  0.10113014588E+02  0.18160000414E+02  0.51100000000E-03 0. -1.
        -11    1    3    3    0    0  0.17631754425E+02 -0.62393780275E+01  0.46419196940E+01  0.19270599912E+02  0.51100000000E-03 0.  1.
        -12    1    3    3    0    0 -0.13280990910E+02 -0.10276142311E+02 -0.14013279251E+02  0.21871346912E+02  0.00000000000E+00 0.  1.
</event>
<event>
 7    1  0.5662448E-012  0.5930193E+02  0.7816164E-02  0.1266605E+00
        -11   -1    0    0    0    0  0.00000000000E+00  0.00000000000E+00  0.45593999997E+02  0.45594000000E+02  0.51100000000E-03 0. -1.
         11   -1    0    0    0    0 -0.00000000000E+00 -0.00000000000E+00 -0.45593999997E+02  0.45594000000E+02  0.51100000000E-03 0.  1.
    9900012    2    1    2    0    0 -0.40250455241E+01  0.94770111534E+01  0.30177915691E+02  0.59301932082E+02  0.49999978213E+02 0.  0.
         12    1    1    2    0    0  0.40250455241E+01 -0.94770111534E+01 -0.30177915691E+02  0.31886067918E+02  0.00000000000E+00 0. -1.
         11    1    3    3    0    0  0.12715264245E+01 -0.10379185102E+01  0.46212836400E-01  0.16420079687E+01  0.51100000000E-03 0. -1.
        -11    1    3    3    0    0 -0.86815338516E+01  0.13743281458E+02 -0.87751075188E+01  0.18472934999E+02  0.51100000000E-03 0.  1.
         12    1    3    3    0    0  0.33849619030E+01 -0.32283517947E+01  0.38906810373E+02  0.39186989114E+02  0.00000000000E+00 0. -1.
</event>
<event>
 7    1  0.5662448E-012  0.5930194E+02  0.7816164E-02  0.1266605E+00
        -11   -1    0    0    0    0  0.00000000000E+00  0.00000000000E+00  0.45593999997E+02  0.45594000000E+02  0.51100000000E-03 0. -1.
         11   -1    0    0    0    0 -0.00000000000E+00 -0.00000000000E+00 -0.45593999997E+02  0.45594000000E+02  0.51100000000E-03 0.  1.
    9900012    2    1    2    0    0 -0.25675117663E+02 -0.83149921989E+01 -0.16981470590E+02  0.59301935557E+02  0.49999984551E+02 0.  0.
         12    1    1    2    0    0  0.25675117663E+02  0.83149921989E+01  0.16981470590E+02  0.31886064443E+02  0.00000000000E+00 0. -1.
         11    1    3    3    0    0 -0.41311080123E+01 -0.63778561597E+01 -0.65309901980E+01  0.10019827136E+02  0.51100000000E-03 0. -1.
        -11    1    3    3    0    0 -0.21769075949E+02 -0.17853983171E+02  0.31696829755E+01  0.28332036163E+02  0.51100000000E-03 0.  1.
         12    1    3    3    0    0  0.22506629811E+00  0.15916847132E+02 -0.13620163367E+02  0.20950072258E+02  0.00000000000E+00 0. -1.
</event>
<event>
 7    1  0.5662448E-012  0.5930215E+02  0.7816164E-02  0.1266604E+00
        -11   -1    0    0    0    0  0.00000000000E+00  0.00000000000E+00  0.45593999997E+02  0.45594000000E+02  0.51100000000E-03 0.  1.
         11   -1    0    0    0    0 -0.00000000000E+00 -0.00000000000E+00 -0.45593999997E+02  0.45594000000E+02  0.51100000000E-03 0. -1.
    9900012    2    1    2    0    0  0.22740306012E+02  0.10940863536E+02 -0.19490594197E+02  0.59302152440E+02  0.50000380093E+02 0.  0.
         12    1    1    2    0    0 -0.22740306012E+02 -0.10940863536E+02  0.19490594197E+02  0.31885847560E+02  0.00000000000E+00 0. -1.
         11    1    3    3    0    0  0.97611657217E+01  0.11837404139E+02 -0.17082478022E+02  0.22961174810E+02  0.51100000000E-03 0. -1.
        -11    1    3    3    0    0  0.12413647444E+02  0.11404592393E+02  0.93824875526E+01  0.19292341575E+02  0.51100000000E-03 0.  1.
        -12    1    3    3    0    0  0.56549284680E+00 -0.12301132995E+02 -0.11790603727E+02  0.17048636056E+02  0.00000000000E+00 0.  1.
</event>
<event>
 7    1  0.5662448E-012  0.5930194E+02  0.7816164E-02  0.1266605E+00
        -11   -1    0    0    0    0  0.00000000000E+00  0.00000000000E+00  0.45593999997E+02  0.45594000000E+02  0.51100000000E-03 0. -1.
         11   -1    0    0    0    0 -0.00000000000E+00 -0.00000000000E+00 -0.45593999997E+02  0.45594000000E+02  0.51100000000E-03 0.  1.
    9900012    2    1    2    0    0  0.23621606215E+02 -0.10302119748E+01 -0.21393443962E+02  0.59301936250E+02  0.49999985816E+02 0.  0.
         12    1    1    2    0    0 -0.23621606215E+02  0.10302119748E+01  0.21393443962E+02  0.31886063750E+02  0.00000000000E+00 0. -1.
         11    1    3    3    0    0 -0.18376143106E+01  0.93288469075E+01 -0.50153882661E+01  0.10749806077E+02  0.51100000000E-03 0. -1.
        -11    1    3    3    0    0  0.15836219812E+02 -0.79064911671E+01 -0.28086998991E+02  0.33199065846E+02  0.51100000000E-03 0.  1.
         12    1    3    3    0    0  0.96230007137E+01 -0.24525677151E+01  0.11708943295E+02  0.15353064326E+02  0.00000000000E+00 0. -1.
</event>
<event>
 7    1  0.5662448E-012  0.5930193E+02  0.7816164E-02  0.1266605E+00
        -11   -1    0    0    0    0  0.00000000000E+00  0.00000000000E+00  0.45593999997E+02  0.45594000000E+02  0.51100000000E-03 0.  1.
         11   -1    0    0    0    0 -0.00000000000E+00 -0.00000000000E+00 -0.45593999997E+02  0.45594000000E+02  0.51100000000E-03 0. -1.
    9900012    2    1    2    0    0  0.20939626227E+02 -0.18260418454E+02  0.15646419112E+02  0.59301933142E+02  0.49999980147E+02 0.  0.
         12    1    1    2    0    0 -0.20939626227E+02  0.18260418454E+02 -0.15646419112E+02  0.31886066858E+02  0.00000000000E+00 0. -1.
         11    1    3    3    0    0  0.16706556172E+02 -0.13787366107E+02 -0.55523211119E+01  0.22361322709E+02  0.51100000000E-03 0. -1.
        -11    1    3    3    0    0 -0.30723237672E+01 -0.16171361728E+02  0.11553582870E+02  0.20110628803E+02  0.51100000000E-03 0.  1.
         12    1    3    3    0    0  0.73053938220E+01  0.11698309381E+02  0.96451573545E+01  0.16829981630E+02  0.00000000000E+00 0. -1.
</event>
<event>
 7    1  0.5662448E-012  0.5930187E+02  0.7816164E-02  0.1266605E+00
        -11   -1    0    0    0    0  0.00000000000E+00  0.00000000000E+00  0.45593999997E+02  0.45594000000E+02  0.51100000000E-03 0. -1.
         11   -1    0    0    0    0 -0.00000000000E+00 -0.00000000000E+00 -0.45593999997E+02  0.45594000000E+02  0.51100000000E-03 0.  1.
    9900012    2    1    2    0    0 -0.13432314929E+02 -0.24378270830E+02 -0.15556297079E+02  0.59301865838E+02  0.49999857401E+02 0.  0.
         12    1    1    2    0    0  0.13432314929E+02  0.24378270830E+02  0.15556297079E+02  0.31886134162E+02  0.00000000000E+00 0. -1.
         11    1    3    3    0    0  0.38960454356E+00 -0.34059800322E+01 -0.74542115343E+01  0.82047401872E+01  0.51100000000E-03 0. -1.
        -11    1    3    3    0    0  0.10660021830E+02 -0.23432569023E+02 -0.25183461801E+01  0.25866260343E+02  0.51100000000E-03 0.  1.
         12    1    3    3    0    0 -0.24481941302E+02  0.24602782251E+01 -0.55837393647E+01  0.25230865307E+02  0.00000000000E+00 0. -1.
</event>
<event>
 7    1  0.5662448E-012  0.5930194E+02  0.7816164E-02  0.1266605E+00
        -11   -1    0    0    0    0  0.00000000000E+00  0.00000000000E+00  0.45593999997E+02  0.45594000000E+02  0.51100000000E-03 0. -1.
         11   -1    0    0    0    0 -0.00000000000E+00 -0.00000000000E+00 -0.45593999997E+02  0.45594000000E+02  0.51100000000E-03 0.  1.
    9900012    2    1    2    0    0 -0.31045559677E+02  0.59942732434E+01 -0.41185722535E+01  0.59301941530E+02  0.49999995444E+02 0.  0.
         12    1    1    2    0    0  0.31045559677E+02 -0.59942732434E+01  0.41185722535E+01  0.31886058470E+02  0.00000000000E+00 0. -1.
         11    1    3    3    0    0 -0.24942898468E+01  0.11554709369E+02 -0.79808591087E+00  0.11847773285E+02  0.51100000000E-03 0. -1.
        -11    1    3    3    0    0 -0.65618327291E+01  0.14874977966E+02  0.35908213226E+01  0.16649823311E+02  0.51100000000E-03 0.  1.
         12    1    3    3    0    0 -0.21989437101E+02 -0.20435414092E+02 -0.69113076652E+01  0.30804344933E+02  0.00000000000E+00 0. -1.
</event>
<event>
 7    1  0.5662448E-012  0.5930197E+02  0.7816164E-02  0.1266605E+00
        -11   -1    0    0    0    0  0.00000000000E+00  0.00000000000E+00  0.45593999997E+02  0.45594000000E+02  0.51100000000E-03 0.  1.
         11   -1    0    0    0    0 -0.00000000000E+00 -0.00000000000E+00 -0.45593999997E+02  0.45594000000E+02  0.51100000000E-03 0. -1.
    9900012    2    1    2    0    0  0.17063202716E+01 -0.26370021966E+02 -0.17844589948E+02  0.59301968924E+02  0.50000045405E+02 0.  0.
         12    1    1    2    0    0 -0.17063202716E+01  0.26370021966E+02  0.17844589948E+02  0.31886031076E+02  0.00000000000E+00 0. -1.
         11    1    3    3    0    0  0.10085928263E+02  0.43944918758E+01 -0.19422076222E+01  0.11171825208E+02  0.51100000000E-03 0.  1.
        -11    1    3    3    0    0 -0.93442063265E+01 -0.12380784389E+02  0.84022040930E+01  0.17640721296E+02  0.51100000000E-03 0. -1.
         12    1    3    3    0    0  0.96459833500E+00 -0.18383729453E+02 -0.24304586419E+02  0.30489422420E+02  0.00000000000E+00 0. -1.
</event>
<event>
 7    1  0.5662448E-012  0.5930200E+02  0.7816164E-02  0.1266605E+00
        -11   -1    0    0    0    0  0.00000000000E+00  0.00000000000E+00  0.45593999997E+02  0.45594000000E+02  0.51100000000E-03 0.  1.
         11   -1    0    0    0    0 -0.00000000000E+00 -0.00000000000E+00 -0.45593999997E+02  0.45594000000E+02  0.51100000000E-03 0. -1.
    9900012    2    1    2    0    0  0.26466464718E+02  0.17669976128E+02 -0.20037828349E+01  0.59302000617E+02  0.50000103205E+02 0.  0.
         12    1    1    2    0    0 -0.26466464718E+02 -0.17669976128E+02  0.20037828349E+01  0.31885999383E+02  0.00000000000E+00 0. -1.
         11    1    3    3    0    0 -0.87825891741E+01  0.56544509384E+01 -0.10389615674E+00  0.10445931394E+02  0.51100000000E-03 0. -1.
        -11    1    3    3    0    0 -0.32058997675E+01 -0.46670665965E+01  0.34002719937E+01  0.66046312409E+01  0.51100000000E-03 0.  1.
        -12    1    3    3    0    0  0.38454953659E+02  0.16682591786E+02 -0.53001586719E+01  0.42251437982E+02  0.00000000000E+00 0.  1.
</event>
<event>
 7    1  0.5662448E-012  0.5930194E+02  0.7816164E-02  0.1266605E+00
        -11   -1    0    0    0    0  0.00000000000E+00  0.00000000000E+00  0.45593999997E+02  0.45594000000E+02  0.51100000000E-03 0.  1.
         11   -1    0    0    0    0 -0.00000000000E+00 -0.00000000000E+00 -0.45593999997E+02  0.45594000000E+02  0.51100000000E-03 0. -1.
    9900012    2    1    2    0    0 -0.69451709182E+01  0.29749456511E+02 -0.91353793789E+01  0.59301941633E+02  0.49999995633E+02 0.  0.
         12    1    1    2    0    0  0.69451709182E+01 -0.29749456511E+02  0.91353793789E+01  0.31886058367E+02  0.00000000000E+00 0. -1.
         11    1    3    3    0    0  0.38787322032E+01  0.10522681767E+02  0.23041887998E+01  0.11449047182E+02  0.51100000000E-03 0. -1.
        -11    1    3    3    0    0 -0.53816659514E+01  0.10982339774E+02  0.15159983771E+02  0.19478173002E+02  0.51100000000E-03 0.  1.
         12    1    3    3    0    0 -0.54422371700E+01  0.82444349701E+01 -0.26599551950E+02  0.28374721449E+02  0.00000000000E+00 0. -1.
</event>
<event>
 7    1  0.5662448E-012  0.5930192E+02  0.7816164E-02  0.1266605E+00
        -11   -1    0    0    0    0  0.00000000000E+00  0.00000000000E+00  0.45593999997E+02  0.45594000000E+02  0.51100000000E-03 0. -1.
         11   -1    0    0    0    0 -0.00000000000E+00 -0.00000000000E+00 -0.45593999997E+02  0.45594000000E+02  0.51100000000E-03 0.  1.
    9900012    2    1    2    0    0  0.15310046785E+02  0.27113307692E+02 -0.68697012249E+01  0.59301924960E+02  0.49999965225E+02 0.  0.
         12    1    1    2    0    0 -0.15310046785E+02 -0.27113307692E+02  0.68697012249E+01  0.31886075040E+02  0.00000000000E+00 0. -1.
         11    1    3    3    0    0 -0.47639615144E+01 -0.21025826111E+01  0.22246570126E+01  0.56626214806E+01  0.51100000000E-03 0. -1.
        -11    1    3    3    0    0 -0.94309678830E+01  0.17509199877E+02  0.20599500011E+01  0.19993964835E+02  0.51100000000E-03 0.  1.
         12    1    3    3    0    0  0.29504976182E+02  0.11706690426E+02 -0.11154308239E+02  0.33645338645E+02  0.00000000000E+00 0. -1.
</event>
<event>
 7    1  0.5662448E-012  0.5930192E+02  0.7816164E-02  0.1266605E+00
        -11   -1    0    0    0    0  0.00000000000E+00  0.00000000000E+00  0.45593999997E+02  0.45594000000E+02  0.51100000000E-03 0.  1.
         11   -1    0    0    0    0 -0.00000000000E+00 -0.00000000000E+00 -0.45593999997E+02  0.45594000000E+02  0.51100000000E-03 0. -1.
    9900012    2    1    2    0    0 -0.20124961229E+02 -0.13289220971E+02  0.20859167661E+02  0.59301916296E+02  0.49999949424E+02 0.  0.
         12    1    1    2    0    0  0.20124961229E+02  0.13289220971E+02 -0.20859167661E+02  0.31886083704E+02  0.00000000000E+00 0. -1.
         11    1    3    3    0    0  0.17645182959E+01  0.78430051730E+01 -0.61657051434E+01  0.10131247462E+02  0.51100000000E-03 0. -1.
        -11    1    3    3    0    0  0.36268543421E+01  0.38366581364E+01  0.46699040128E+01  0.70485474974E+01  0.51100000000E-03 0.  1.
        -12    1    3    3    0    0 -0.25516333867E+02 -0.24968884281E+02  0.22354968791E+02  0.42122121336E+02  0.00000000000E+00 0.  1.
</event>
<event>
 7    1  0.5662448E-012  0.5930194E+02  0.7816164E-02  0.1266605E+00
        -11   -1    0    0    0    0  0.00000000000E+00  0.00000000000E+00  0.45593999997E+02  0.45594000000E+02  0.51100000000E-03 0. -1.
         11   -1    0    0    0    0 -0.00000000000E+00 -0.00000000000E+00 -0.45593999997E+02  0.45594000000E+02  0.51100000000E-03 0.  1.
    9900012    2    1    2    0    0  0.76029176614E+01 -0.26685002858E+02 -0.15710724993E+02  0.59301943262E+02  0.49999998604E+02 0.  0.
         12    1    1    2    0    0 -0.76029176614E+01  0.26685002858E+02  0.15710724993E+02  0.31886056738E+02  0.00000000000E+00 0. -1.
         11    1    3    3    0    0  0.12931694884E+02 -0.15595202392E+02 -0.12347106878E+02  0.23725305451E+02  0.51100000000E-03 0. -1.
        -11    1    3    3    0    0 -0.71161396895E+01 -0.22266227846E+02  0.11198718003E+01  0.23402531052E+02  0.51100000000E-03 0.  1.
         12    1    3    3    0    0  0.17873624671E+01  0.11176427380E+02 -0.44834899148E+01  0.12174106759E+02  0.00000000000E+00 0. -1.
</event>
<event>
 7    1  0.5662448E-012  0.5930201E+02  0.7816164E-02  0.1266605E+00
        -11   -1    0    0    0    0  0.00000000000E+00  0.00000000000E+00  0.45593999997E+02  0.45594000000E+02  0.51100000000E-03 0.  1.
         11   -1    0    0    0    0 -0.00000000000E+00 -0.00000000000E+00 -0.45593999997E+02  0.45594000000E+02  0.51100000000E-03 0. -1.
    9900012    2    1    2    0    0 -0.19103635728E+02  0.25449700512E+02 -0.20199274114E+01  0.59302011527E+02  0.50000123102E+02 0.  0.
         12    1    1    2    0    0  0.19103635728E+02 -0.25449700512E+02  0.20199274114E+01  0.31885988473E+02  0.00000000000E+00 0. -1.
         11    1    3    3    0    0 -0.12485091450E+02  0.23732075416E+02 -0.86226789674E+01  0.28168058238E+02  0.51100000000E-03 0. -1.
        -11    1    3    3    0    0 -0.62420974051E+01  0.81969405402E+01  0.16408396507E+02  0.19374960398E+02  0.51100000000E-03 0.  1.
         12    1    3    3    0    0 -0.37644687291E+00 -0.64793154445E+01 -0.98056449513E+01  0.11758992890E+02  0.00000000000E+00 0. -1.
</event>
<event>
 7    1  0.7361591E-012  0.5930196E+02  0.7816164E-02  0.1266605E+00
        -11   -1    0    0    0    0  0.00000000000E+00  0.00000000000E+00  0.45593999997E+02  0.45594000000E+02  0.51100000000E-03 0. -1.
         11   -1    0    0    0    0 -0.00000000000E+00 -0.00000000000E+00 -0.45593999997E+02  0.45594000000E+02  0.51100000000E-03 0.  1.
    9900012    2    1    2    0    0  0.20587844419E+02 -0.38889634202E+01 -0.24036147133E+02  0.59301956920E+02  0.50000023512E+02 0.  0.
         12    1    1    2    0    0 -0.20587844419E+02  0.38889634202E+01  0.24036147133E+02  0.31886043080E+02  0.00000000000E+00 0. -1.
         11    1    3    3    0    0 -0.47722716169E+01 -0.76987392805E+01  0.71329293814E+01  0.11529260372E+02  0.51100000000E-03 0. -1.
        -11    1    3    3    0    0  0.12953128616E+02  0.12131150070E+02 -0.64355721511E+01  0.18877630469E+02  0.51100000000E-03 0.  1.
        -12    1    3    3    0    0  0.12406987421E+02 -0.83213742100E+01 -0.24733504363E+02  0.28895066079E+02  0.00000000000E+00 0.  1.
</event>
<event>
 7    1  0.5662448E-012  0.5930192E+02  0.7816164E-02  0.1266605E+00
        -11   -1    0    0    0    0  0.00000000000E+00  0.00000000000E+00  0.45593999997E+02  0.45594000000E+02  0.51100000000E-03 0.  1.
         11   -1    0    0    0    0 -0.00000000000E+00 -0.00000000000E+00 -0.45593999997E+02  0.45594000000E+02  0.51100000000E-03 0. -1.
    9900012    2    1    2    0    0  0.15734881182E+01 -0.10513222587E+02  0.30061914338E+02  0.59301915140E+02  0.49999947316E+02 0.  0.
         12    1    1    2    0    0 -0.15734881182E+01  0.10513222587E+02 -0.30061914338E+02  0.31886084860E+02  0.00000000000E+00 0. -1.
         11    1    3    3    0    0 -0.11467381220E+02 -0.82594587075E+00  0.57650556744E+01  0.12861527352E+02  0.51100000000E-03 0. -1.
        -11    1    3    3    0    0  0.32724026450E+01  0.10933056881E+02  0.20282623540E+02  0.23272841893E+02  0.51100000000E-03 0.  1.
         12    1    3    3    0    0  0.97684666931E+01 -0.20620333598E+02  0.40142351234E+01  0.23167545896E+02  0.00000000000E+00 0. -1.
</event>
<event>
 7    1  0.5662448E-012  0.5930192E+02  0.7816164E-02  0.1266605E+00
        -11   -1    0    0    0    0  0.00000000000E+00  0.00000000000E+00  0.45593999997E+02  0.45594000000E+02  0.51100000000E-03 0.  1.
         11   -1    0    0    0    0 -0.00000000000E+00 -0.00000000000E+00 -0.45593999997E+02  0.45594000000E+02  0.51100000000E-03 0. -1.
    9900012    2    1    2    0    0  0.13105970453E+02 -0.50049923185E+01  0.28633993524E+02  0.59301921615E+02  0.49999959125E+02 0.  0.
         12    1    1    2    0    0 -0.13105970453E+02  0.50049923185E+01 -0.28633993524E+02  0.31886078385E+02  0.00000000000E+00 0. -1.
         11    1    3    3    0    0  0.11910719939E+01  0.10533307295E+02 -0.61265528123E+01  0.12243523377E+02  0.51100000000E-03 0. -1.
        -11    1    3    3    0    0 -0.34033194342E+01 -0.12672413938E+02  0.61772043723E+01  0.14502776021E+02  0.51100000000E-03 0.  1.
        -12    1    3    3    0    0  0.15318217893E+02 -0.28658856753E+01  0.28583341964E+02  0.32555622218E+02  0.00000000000E+00 0.  1.
</event>
<event>
 7    1  0.5662448E-012  0.5930196E+02  0.7816164E-02  0.1266605E+00
        -11   -1    0    0    0    0  0.00000000000E+00  0.00000000000E+00  0.45593999997E+02  0.45594000000E+02  0.51100000000E-03 0. -1.
         11   -1    0    0    0    0 -0.00000000000E+00 -0.00000000000E+00 -0.45593999997E+02  0.45594000000E+02  0.51100000000E-03 0.  1.
    9900012    2    1    2    0    0  0.27120712392E+02  0.40467345853E+01  0.16273002702E+02  0.59301957310E+02  0.50000024224E+02 0.  0.
         12    1    1    2    0    0 -0.27120712392E+02 -0.40467345853E+01 -0.16273002702E+02  0.31886042690E+02  0.00000000000E+00 0. -1.
         11    1    3    3    0    0  0.31442490855E+01 -0.94500639113E+01 -0.71365295406E+00  0.99849542332E+01  0.51100000000E-03 0. -1.
        -11    1    3    3    0    0  0.19787274178E+02 -0.43577354216E+01 -0.48168977835E+01  0.20826151394E+02  0.51100000000E-03 0.  1.
        -12    1    3    3    0    0  0.41891891290E+01  0.17854533918E+02  0.21803553440E+02  0.28490851683E+02  0.00000000000E+00 0.  1.
</event>
<event>
 7    1  0.5662448E-012  0.5930195E+02  0.7816164E-02  0.1266605E+00
        -11   -1    0    0    0    0  0.00000000000E+00  0.00000000000E+00  0.45593999997E+02  0.45594000000E+02  0.51100000000E-03 0.  1.
         11   -1    0    0    0    0 -0.00000000000E+00 -0.00000000000E+00 -0.45593999997E+02  0.45594000000E+02  0.51100000000E-03 0. -1.
    9900012    2    1    2    0    0 -0.19325619137E+02 -0.18709376056E+02  0.17123080961E+02  0.59301949617E+02  0.50000010193E+02 0.  0.
         12    1    1    2    0    0  0.19325619137E+02  0.18709376056E+02 -0.17123080961E+02  0.31886050383E+02  0.00000000000E+00 0. -1.
         11    1    3    3    0    0 -0.37500937245E+01 -0.43111591506E+01  0.12983563965E+02  0.14185282149E+02  0.51100000000E-03 0. -1.
        -11    1    3    3    0    0 -0.27203367874E+02 -0.11482357108E+01  0.12803558960E+01  0.27257677458E+02  0.51100000000E-03 0.  1.
         12    1    3    3    0    0  0.11627842461E+02 -0.13249981195E+02  0.28591611000E+01  0.17858990009E+02  0.00000000000E+00 0. -1.
</event>
<event>
 7    1  0.5662448E-012  0.5930194E+02  0.7816164E-02  0.1266605E+00
        -11   -1    0    0    0    0  0.00000000000E+00  0.00000000000E+00  0.45593999997E+02  0.45594000000E+02  0.51100000000E-03 0.  1.
         11   -1    0    0    0    0 -0.00000000000E+00 -0.00000000000E+00 -0.45593999997E+02  0.45594000000E+02  0.51100000000E-03 0. -1.
    9900012    2    1    2    0    0  0.43608887237E+01  0.29201888389E+02  0.12039658553E+02  0.59301936994E+02  0.49999987172E+02 0.  0.
         12    1    1    2    0    0 -0.43608887237E+01 -0.29201888389E+02 -0.12039658553E+02  0.31886063006E+02  0.00000000000E+00 0. -1.
         11    1    3    3    0    0 -0.33402331754E+01 -0.12402192942E+02  0.66423896823E+01  0.14460044550E+02  0.51100000000E-03 0. -1.
        -11    1    3    3    0    0 -0.24641672543E+01  0.20956733650E+01  0.22196967583E+01  0.39231391856E+01  0.51100000000E-03 0.  1.
        -12    1    3    3    0    0  0.10165289153E+02  0.39508407967E+02  0.31775721122E+01  0.40918753258E+02  0.00000000000E+00 0.  1.
</event>
<event>
 7    1  0.5662448E-012  0.5930204E+02  0.7816164E-02  0.1266604E+00
        -11   -1    0    0    0    0  0.00000000000E+00  0.00000000000E+00  0.45593999997E+02  0.45594000000E+02  0.51100000000E-03 0. -1.
         11   -1    0    0    0    0 -0.00000000000E+00 -0.00000000000E+00 -0.45593999997E+02  0.45594000000E+02  0.51100000000E-03 0.  1.
    9900012    2    1    2    0    0 -0.92072353821E+01  0.15881820406E+02 -0.26071231549E+02  0.59302038868E+02  0.50000172966E+02 0.  0.
         12    1    1    2    0    0  0.92072353821E+01 -0.15881820406E+02  0.26071231549E+02  0.31885961132E+02  0.00000000000E+00 0. -1.
         11    1    3    3    0    0  0.48565139768E+01  0.94424798067E+01 -0.14983085481E+02  0.18364068277E+02  0.51100000000E-03 0. -1.
        -11    1    3    3    0    0 -0.98908286646E+01  0.18485856880E+02 -0.16898107403E+02  0.26927707484E+02  0.51100000000E-03 0.  1.
         12    1    3    3    0    0 -0.41729206943E+01 -0.12046516280E+02  0.58099613351E+01  0.14010263107E+02  0.00000000000E+00 0. -1.
</event>
<event>
 7    1  0.5662448E-012  0.5930195E+02  0.7816164E-02  0.1266605E+00
        -11   -1    0    0    0    0  0.00000000000E+00  0.00000000000E+00  0.45593999997E+02  0.45594000000E+02  0.51100000000E-03 0. -1.
         11   -1    0    0    0    0 -0.00000000000E+00 -0.00000000000E+00 -0.45593999997E+02  0.45594000000E+02  0.51100000000E-03 0.  1.
    9900012    2    1    2    0    0  0.35590404930E+00 -0.31253716005E+02  0.63086334944E+01  0.59301948373E+02  0.50000007924E+02 0.  0.
         12    1    1    2    0    0 -0.35590404930E+00  0.31253716005E+02 -0.63086334944E+01  0.31886051627E+02  0.00000000000E+00 0. -1.
         11    1    3    3    0    0  0.27434148929E+01 -0.19733152440E+02  0.31323856969E+01  0.20167683826E+02  0.51100000000E-03 0. -1.
        -11    1    3    3    0    0 -0.94884676595E+01 -0.20214303551E+02 -0.75855464316E+01  0.23583672350E+02  0.51100000000E-03 0.  1.
         12    1    3    3    0    0  0.71009568159E+01  0.86937399861E+01  0.10761794229E+02  0.15550592197E+02  0.00000000000E+00 0. -1.
</event>
<event>
 7    1  0.5662448E-012  0.5930199E+02  0.7816164E-02  0.1266605E+00
        -11   -1    0    0    0    0  0.00000000000E+00  0.00000000000E+00  0.45593999997E+02  0.45594000000E+02  0.51100000000E-03 0. -1.
         11   -1    0    0    0    0 -0.00000000000E+00 -0.00000000000E+00 -0.45593999997E+02  0.45594000000E+02  0.51100000000E-03 0.  1.
    9900012    2    1    2    0    0 -0.38348664902E+01 -0.24313877100E+02 -0.20269353026E+02  0.59301992211E+02  0.50000087875E+02 0.  0.
         12    1    1    2    0    0  0.38348664902E+01  0.24313877100E+02  0.20269353026E+02  0.31886007789E+02  0.00000000000E+00 0. -1.
         11    1    3    3    0    0 -0.23984579860E+01  0.13444218449E+02 -0.80184528366E+01  0.15836514660E+02  0.51100000000E-03 0. -1.
        -11    1    3    3    0    0  0.16601444008E+01  0.96225058112E+00 -0.29571800306E+01  0.35251836274E+01  0.51100000000E-03 0.  1.
         12    1    3    3    0    0 -0.30965529050E+01 -0.38720346130E+02 -0.92937201586E+01  0.39940293924E+02  0.00000000000E+00 0. -1.
</event>
<event>
 7    1  0.5662448E-012  0.5930197E+02  0.7816164E-02  0.1266605E+00
        -11   -1    0    0    0    0  0.00000000000E+00  0.00000000000E+00  0.45593999997E+02  0.45594000000E+02  0.51100000000E-03 0. -1.
         11   -1    0    0    0    0 -0.00000000000E+00 -0.00000000000E+00 -0.45593999997E+02  0.45594000000E+02  0.51100000000E-03 0.  1.
    9900012    2    1    2    0    0  0.29942539866E+02 -0.87806884566E+01 -0.65621993369E+01  0.59301974165E+02  0.50000054964E+02 0.  0.
         12    1    1    2    0    0 -0.29942539866E+02  0.87806884566E+01  0.65621993369E+01  0.31886025835E+02  0.00000000000E+00 0. -1.
         11    1    3    3    0    0  0.20137353579E+02  0.34979419906E+01 -0.19995950541E+02  0.28593472081E+02  0.51100000000E-03 0. -1.
        -11    1    3    3    0    0  0.30463307211E+01 -0.41970893251E+01 -0.64077318501E+01  0.82434651324E+01  0.51100000000E-03 0.  1.
         12    1    3    3    0    0  0.67588555658E+01 -0.80815411221E+01  0.19841483054E+02  0.22465036952E+02  0.00000000000E+00 0. -1.
</event>
<event>
 7    1  0.5662448E-012  0.5930193E+02  0.7816164E-02  0.1266605E+00
        -11   -1    0    0    0    0  0.00000000000E+00  0.00000000000E+00  0.45593999997E+02  0.45594000000E+02  0.51100000000E-03 0. -1.
         11   -1    0    0    0    0 -0.00000000000E+00 -0.00000000000E+00 -0.45593999997E+02  0.45594000000E+02  0.51100000000E-03 0.  1.
    9900012    2    1    2    0    0 -0.15900769497E+02  0.26710818563E+02 -0.71006408592E+01  0.59301930949E+02  0.49999976148E+02 0.  0.
         12    1    1    2    0    0  0.15900769497E+02 -0.26710818563E+02  0.71006408592E+01  0.31886069051E+02  0.00000000000E+00 0. -1.
         11    1    3    3    0    0 -0.35574576908E+01 -0.26469726356E+01  0.11659265118E+01  0.45849050424E+01  0.51100000000E-03 0. -1.
        -11    1    3    3    0    0 -0.80374146642E+01 -0.94053478841E+00 -0.20284489020E+02  0.21839073589E+02  0.51100000000E-03 0.  1.
        -12    1    3    3    0    0 -0.43058971415E+01  0.30298325987E+02  0.12017921649E+02  0.32877952317E+02  0.00000000000E+00 0.  1.
</event>
<event>
 7    1  0.5662448E-012  0.5930191E+02  0.7816164E-02  0.1266605E+00
        -11   -1    0    0    0    0  0.00000000000E+00  0.00000000000E+00  0.45593999997E+02  0.45594000000E+02  0.51100000000E-03 0. -1.
         11   -1    0    0    0    0 -0.00000000000E+00 -0.00000000000E+00 -0.45593999997E+02  0.45594000000E+02  0.51100000000E-03 0.  1.
    9900012    2    1    2    0    0 -0.31718185680E+01  0.18245698086E+02  0.25956831198E+02  0.59301905578E+02  0.49999929877E+02 0.  0.
         12    1    1    2    0    0  0.31718185680E+01 -0.18245698086E+02 -0.25956831198E+02  0.31886094422E+02  0.00000000000E+00 0. -1.
         11    1    3    3    0    0 -0.89877189414E+01 -0.19395181825E+01  0.76447151650E+01  0.11957528706E+02  0.51100000000E-03 0. -1.
        -11    1    3    3    0    0  0.95729931287E+01 -0.96230259484E+01  0.66641974190E+01  0.15121387282E+02  0.51100000000E-03 0.  1.
        -12    1    3    3    0    0 -0.37570927553E+01  0.29808242216E+02  0.11647918614E+02  0.32222989589E+02  0.00000000000E+00 0.  1.
</event>
<event>
 7    1  0.5662448E-012  0.5930201E+02  0.7816164E-02  0.1266605E+00
        -11   -1    0    0    0    0  0.00000000000E+00  0.00000000000E+00  0.45593999997E+02  0.45594000000E+02  0.51100000000E-03 0.  1.
         11   -1    0    0    0    0 -0.00000000000E+00 -0.00000000000E+00 -0.45593999997E+02  0.45594000000E+02  0.51100000000E-03 0. -1.
    9900012    2    1    2    0    0 -0.30343937169E+02  0.50732940388E+01  0.83799448232E+01  0.59302010748E+02  0.50000121681E+02 0.  0.
         12    1    1    2    0    0  0.30343937169E+02 -0.50732940388E+01 -0.83799448232E+01  0.31885989252E+02  0.00000000000E+00 0. -1.
         11    1    3    3    0    0  0.25191093548E+00  0.98746740543E+01 -0.60622083927E+01  0.11589780742E+02  0.51100000000E-03 0. -1.
        -11    1    3    3    0    0  0.50546991272E+01  0.45575395986E+01  0.76390255450E+01  0.10231122226E+02  0.51100000000E-03 0.  1.
         12    1    3    3    0    0 -0.35650547232E+02 -0.93589196141E+01  0.68031276709E+01  0.37481107780E+02  0.00000000000E+00 0. -1.
</event>
<event>
 7    1  0.5662448E-012  0.5930195E+02  0.7816164E-02  0.1266605E+00
        -11   -1    0    0    0    0  0.00000000000E+00  0.00000000000E+00  0.45593999997E+02  0.45594000000E+02  0.51100000000E-03 0.  1.
         11   -1    0    0    0    0 -0.00000000000E+00 -0.00000000000E+00 -0.45593999997E+02  0.45594000000E+02  0.51100000000E-03 0. -1.
    9900012    2    1    2    0    0 -0.28559252441E+02 -0.61753912973E+01  0.12765335872E+02  0.59301950424E+02  0.50000011665E+02 0.  0.
         12    1    1    2    0    0  0.28559252441E+02  0.61753912973E+01 -0.12765335872E+02  0.31886049576E+02  0.00000000000E+00 0. -1.
         11    1    3    3    0    0 -0.20944068034E+02 -0.15588960847E+02  0.12520183464E+02  0.28955563893E+02  0.51100000000E-03 0. -1.
        -11    1    3    3    0    0 -0.12586488443E+02  0.32734651092E+01 -0.10704597439E+02  0.16844099018E+02  0.51100000000E-03 0.  1.
        -12    1    3    3    0    0  0.49713040365E+01  0.61401044407E+01  0.10949749847E+02  0.13502287513E+02  0.00000000000E+00 0.  1.
</event>
<event>
 7    1  0.5662448E-012  0.5930198E+02  0.7816164E-02  0.1266605E+00
        -11   -1    0    0    0    0  0.00000000000E+00  0.00000000000E+00  0.45593999997E+02  0.45594000000E+02  0.51100000000E-03 0.  1.
         11   -1    0    0    0    0 -0.00000000000E+00 -0.00000000000E+00 -0.45593999997E+02  0.45594000000E+02  0.51100000000E-03 0. -1.
    9900012    2    1    2    0    0 -0.23582916922E+02  0.12790185637E+02  0.17232984120E+02  0.59301975462E+02  0.50000057328E+02 0.  0.
         12    1    1    2    0    0  0.23582916922E+02 -0.12790185637E+02 -0.17232984120E+02  0.31886024538E+02  0.00000000000E+00 0. -1.
         11    1    3    3    0    0 -0.67082798626E+01  0.10646063605E+02 -0.44840172512E+01  0.13358371905E+02  0.51100000000E-03 0. -1.
        -11    1    3    3    0    0 -0.24114173590E+02  0.96470312214E+01  0.53184209992E+01  0.26511208601E+02  0.51100000000E-03 0.  1.
        -12    1    3    3    0    0  0.72395365309E+01 -0.75029091891E+01  0.16398580372E+02  0.19432394955E+02  0.00000000000E+00 0.  1.
</event>
<event>
 7    1  0.5662448E-012  0.5930185E+02  0.7816164E-02  0.1266605E+00
        -11   -1    0    0    0    0  0.00000000000E+00  0.00000000000E+00  0.45593999997E+02  0.45594000000E+02  0.51100000000E-03 0.  1.
         11   -1    0    0    0    0 -0.00000000000E+00 -0.00000000000E+00 -0.45593999997E+02  0.45594000000E+02  0.51100000000E-03 0. -1.
    9900012    2    1    2    0    0 -0.12668880882E+02 -0.40709007985E+01  0.28976779183E+02  0.59301850845E+02  0.49999830056E+02 0.  0.
         12    1    1    2    0    0  0.12668880882E+02  0.40709007985E+01 -0.28976779183E+02  0.31886149155E+02  0.00000000000E+00 0. -1.
         11    1    3    3    0    0 -0.52733500903E+01 -0.73491158440E+01  0.15460932841E+02  0.17912514325E+02  0.51100000000E-03 0. -1.
        -11    1    3    3    0    0 -0.14409460865E+02  0.43899932741E+01  0.24232812174E+02  0.28533029798E+02  0.51100000000E-03 0.  1.
         12    1    3    3    0    0  0.70139300727E+01 -0.11117782286E+01 -0.10716965831E+02  0.12856306722E+02  0.00000000000E+00 0. -1.
</event>
<event>
 7    1  0.5662448E-012  0.5930194E+02  0.7816164E-02  0.1266605E+00
        -11   -1    0    0    0    0  0.00000000000E+00  0.00000000000E+00  0.45593999997E+02  0.45594000000E+02  0.51100000000E-03 0.  1.
         11   -1    0    0    0    0 -0.00000000000E+00 -0.00000000000E+00 -0.45593999997E+02  0.45594000000E+02  0.51100000000E-03 0. -1.
    9900012    2    1    2    0    0 -0.64698043613E+01  0.19566162620E+02  0.24331620774E+02  0.59301939446E+02  0.49999991645E+02 0.  0.
         12    1    1    2    0    0  0.64698043613E+01 -0.19566162620E+02 -0.24331620774E+02  0.31886060554E+02  0.00000000000E+00 0. -1.
         11    1    3    3    0    0  0.16469508857E+02  0.76574091647E+01  0.20266848802E+02  0.27214440977E+02  0.51100000000E-03 0. -1.
        -11    1    3    3    0    0 -0.25571353604E+01  0.98746081351E+01  0.54356435965E+01  0.11558245916E+02  0.51100000000E-03 0.  1.
        -12    1    3    3    0    0 -0.20382177858E+02  0.20341453198E+01 -0.13708716242E+01  0.20529252554E+02  0.00000000000E+00 0.  1.
</event>
<event>
 7    1  0.5662448E-012  0.5930195E+02  0.7816164E-02  0.1266605E+00
        -11   -1    0    0    0    0  0.00000000000E+00  0.00000000000E+00  0.45593999997E+02  0.45594000000E+02  0.51100000000E-03 0. -1.
         11   -1    0    0    0    0 -0.00000000000E+00 -0.00000000000E+00 -0.45593999997E+02  0.45594000000E+02  0.51100000000E-03 0.  1.
    9900012    2    1    2    0    0  0.77651654510E+01  0.24314764901E+01 -0.30830349281E+02  0.59301948046E+02  0.50000007329E+02 0.  0.
         12    1    1    2    0    0 -0.77651654510E+01 -0.24314764901E+01  0.30830349281E+02  0.31886051954E+02  0.00000000000E+00 0. -1.
         11    1    3    3    0    0  0.40031058551E+01 -0.33359858514E+01  0.35249051314E+01  0.62911536727E+01  0.51100000000E-03 0. -1.
        -11    1    3    3    0    0  0.15469198461E+02  0.14704038504E+02 -0.79488210057E+01  0.22774736112E+02  0.51100000000E-03 0.  1.
        -12    1    3    3    0    0 -0.11707138865E+02 -0.89365761623E+01 -0.26406433407E+02  0.30236058261E+02  0.00000000000E+00 0.  1.
</event>
<event>
 7    1  0.5662448E-012  0.5930195E+02  0.7816164E-02  0.1266605E+00
        -11   -1    0    0    0    0  0.00000000000E+00  0.00000000000E+00  0.45593999997E+02  0.45594000000E+02  0.51100000000E-03 0.  1.
         11   -1    0    0    0    0 -0.00000000000E+00 -0.00000000000E+00 -0.45593999997E+02  0.45594000000E+02  0.51100000000E-03 0. -1.
    9900012    2    1    2    0    0 -0.26701812222E+02 -0.14195804094E+01 -0.17370032769E+02  0.59301952536E+02  0.50000015517E+02 0.  0.
         12    1    1    2    0    0  0.26701812222E+02  0.14195804094E+01  0.17370032769E+02  0.31886047464E+02  0.00000000000E+00 0. -1.
         11    1    3    3    0    0  0.10694228481E+02  0.40470505623E+01 -0.14511116710E+02  0.18474784153E+02  0.51100000000E-03 0. -1.
        -11    1    3    3    0    0 -0.58897557900E+01  0.32817327102E+01 -0.44694913106E+01  0.80892116849E+01  0.51100000000E-03 0.  1.
        -12    1    3    3    0    0 -0.31506284913E+02 -0.87483636818E+01  0.16105752519E+01  0.32737956698E+02  0.00000000000E+00 0.  1.
</event>
<event>
 7    1  0.5662448E-012  0.5930203E+02  0.7816164E-02  0.1266604E+00
        -11   -1    0    0    0    0  0.00000000000E+00  0.00000000000E+00  0.45593999997E+02  0.45594000000E+02  0.51100000000E-03 0.  1.
         11   -1    0    0    0    0 -0.00000000000E+00 -0.00000000000E+00 -0.45593999997E+02  0.45594000000E+02  0.51100000000E-03 0. -1.
    9900012    2    1    2    0    0 -0.26362475198E+02  0.11931623598E+02  0.13392965379E+02  0.59302027193E+02  0.50000151673E+02 0.  0.
         12    1    1    2    0    0  0.26362475198E+02 -0.11931623598E+02 -0.13392965379E+02  0.31885972807E+02  0.00000000000E+00 0. -1.
         11    1    3    3    0    0 -0.27218696142E-01  0.32522761620E+01  0.39313371396E+01  0.51022988013E+01  0.51100000000E-03 0. -1.
        -11    1    3    3    0    0 -0.22817533697E+02 -0.22634886327E+00  0.26306129056E+02  0.34823892717E+02  0.51100000000E-03 0.  1.
         12    1    3    3    0    0 -0.35177228048E+01  0.89056962989E+01 -0.16844500817E+02  0.19375835674E+02  0.00000000000E+00 0. -1.
</event>
<event>
 7    1  0.5662448E-012  0.5930194E+02  0.7816164E-02  0.1266605E+00
        -11   -1    0    0    0    0  0.00000000000E+00  0.00000000000E+00  0.45593999997E+02  0.45594000000E+02  0.51100000000E-03 0.  1.
         11   -1    0    0    0    0 -0.00000000000E+00 -0.00000000000E+00 -0.45593999997E+02  0.45594000000E+02  0.51100000000E-03 0. -1.
    9900012    2    1    2    0    0  0.21946126907E+02  0.22089191029E+02  0.68670160907E+01  0.59301941031E+02  0.49999994535E+02 0.  0.
         12    1    1    2    0    0 -0.21946126907E+02 -0.22089191029E+02 -0.68670160907E+01  0.31886058969E+02  0.00000000000E+00 0. -1.
         11    1    3    3    0    0  0.80310648631E+01  0.62607211033E+00  0.10746062853E+01  0.81267919902E+01  0.51100000000E-03 0. -1.
        -11    1    3    3    0    0  0.19287313006E+02  0.21305145575E+02 -0.13063365126E+02  0.31568357253E+02  0.51100000000E-03 0.  1.
         12    1    3    3    0    0 -0.53722509614E+01  0.15797334379E+00  0.18855774931E+02  0.19606791788E+02  0.00000000000E+00 0. -1.
</event>
<event>
 7    1  0.5662448E-012  0.5930193E+02  0.7816164E-02  0.1266605E+00
        -11   -1    0    0    0    0  0.00000000000E+00  0.00000000000E+00  0.45593999997E+02  0.45594000000E+02  0.51100000000E-03 0. -1.
         11   -1    0    0    0    0 -0.00000000000E+00 -0.00000000000E+00 -0.45593999997E+02  0.45594000000E+02  0.51100000000E-03 0.  1.
    9900012    2    1    2    0    0  0.25737523247E+02 -0.15143809046E+02 -0.11178842454E+02  0.59301928215E+02  0.49999971161E+02 0.  0.
         12    1    1    2    0    0 -0.25737523247E+02  0.15143809046E+02  0.11178842454E+02  0.31886071785E+02  0.00000000000E+00 0. -1.
         11    1    3    3    0    0  0.35937889239E+01 -0.15532729327E+01 -0.50238367872E+01  0.63692159610E+01  0.51100000000E-03 0. -1.
        -11    1    3    3    0    0  0.17813120145E+02 -0.30314210379E+02 -0.59230400355E+01  0.35655869135E+02  0.51100000000E-03 0.  1.
         12    1    3    3    0    0  0.43306141772E+01  0.16723674266E+02 -0.23196563112E+00  0.17276843119E+02  0.00000000000E+00 0. -1.
</event>
<event>
 7    1  0.5662448E-012  0.5930194E+02  0.7816164E-02  0.1266605E+00
        -11   -1    0    0    0    0  0.00000000000E+00  0.00000000000E+00  0.45593999997E+02  0.45594000000E+02  0.51100000000E-03 0. -1.
         11   -1    0    0    0    0 -0.00000000000E+00 -0.00000000000E+00 -0.45593999997E+02  0.45594000000E+02  0.51100000000E-03 0.  1.
    9900012    2    1    2    0    0 -0.28718101536E+02 -0.71566254163E+01 -0.11864842897E+02  0.59301935017E+02  0.49999983566E+02 0.  0.
         12    1    1    2    0    0  0.28718101536E+02  0.71566254163E+01  0.11864842897E+02  0.31886064983E+02  0.00000000000E+00 0. -1.
         11    1    3    3    0    0 -0.24322313954E+02  0.27777422867E+01 -0.20894224718E+02  0.32184770236E+02  0.51100000000E-03 0. -1.
        -11    1    3    3    0    0 -0.11747978997E+01  0.76226813439E+01  0.30161893207E+01  0.82814744614E+01  0.51100000000E-03 0.  1.
        -12    1    3    3    0    0 -0.32209896820E+01 -0.17557049047E+02  0.60131925007E+01  0.18835690320E+02  0.00000000000E+00 0.  1.
</event>
<event>
 7    1  0.5662448E-012  0.5930193E+02  0.7816164E-02  0.1266605E+00
        -11   -1    0    0    0    0  0.00000000000E+00  0.00000000000E+00  0.45593999997E+02  0.45594000000E+02  0.51100000000E-03 0. -1.
         11   -1    0    0    0    0 -0.00000000000E+00 -0.00000000000E+00 -0.45593999997E+02  0.45594000000E+02  0.51100000000E-03 0.  1.
    9900012    2    1    2    0    0 -0.19195141307E+02  0.17432940448E+01 -0.25401351547E+02  0.59301934324E+02  0.49999982302E+02 0.  0.
         12    1    1    2    0    0  0.19195141307E+02 -0.17432940448E+01  0.25401351547E+02  0.31886065676E+02  0.00000000000E+00 0. -1.
         11    1    3    3    0    0  0.38048949305E+01  0.90814402060E+01 -0.11825962316E+02  0.15388410139E+02  0.51100000000E-03 0. -1.
        -11    1    3    3    0    0  0.81495745494E+01 -0.86002566527E+00  0.20794695762E+01  0.84545492760E+01  0.51100000000E-03 0.  1.
        -12    1    3    3    0    0 -0.31149610787E+02 -0.64781204959E+01 -0.15654858807E+02  0.35458974909E+02  0.00000000000E+00 0.  1.
</event>
<event>
 7    1  0.5662448E-012  0.5930193E+02  0.7816164E-02  0.1266605E+00
        -11   -1    0    0    0    0  0.00000000000E+00  0.00000000000E+00  0.45593999997E+02  0.45594000000E+02  0.51100000000E-03 0.  1.
         11   -1    0    0    0    0 -0.00000000000E+00 -0.00000000000E+00 -0.45593999997E+02  0.45594000000E+02  0.51100000000E-03 0. -1.
    9900012    2    1    2    0    0  0.77528052281E+01 -0.29883555343E+02  0.79742365461E+01  0.59301932238E+02  0.49999978498E+02 0.  0.
         12    1    1    2    0    0 -0.77528052281E+01  0.29883555343E+02 -0.79742365461E+01  0.31886067762E+02  0.00000000000E+00 0. -1.
         11    1    3    3    0    0  0.39316310891E+00 -0.21494986643E+02 -0.20251944842E+01  0.21593759306E+02  0.51100000000E-03 0. -1.
        -11    1    3    3    0    0 -0.36233629907E+01 -0.96935467461E+01 -0.10293906810E+02  0.14596510732E+02  0.51100000000E-03 0.  1.
        -12    1    3    3    0    0  0.10983005110E+02  0.13049780457E+01  0.20293337840E+02  0.23111662200E+02  0.00000000000E+00 0.  1.
</event>
<event>
 7    1  0.5662448E-012  0.5930195E+02  0.7816164E-02  0.1266605E+00
        -11   -1    0    0    0    0  0.00000000000E+00  0.00000000000E+00  0.45593999997E+02  0.45594000000E+02  0.51100000000E-03 0. -1.
         11   -1    0    0    0    0 -0.00000000000E+00 -0.00000000000E+00 -0.45593999997E+02  0.45594000000E+02  0.51100000000E-03 0.  1.
    9900012    2    1    2    0    0  0.11046769306E+02 -0.27773361995E+02 -0.11105379729E+02  0.59301949641E+02  0.50000010237E+02 0.  0.
         12    1    1    2    0    0 -0.11046769306E+02  0.27773361995E+02  0.11105379729E+02  0.31886050359E+02  0.00000000000E+00 0. -1.
         11    1    3    3    0    0 -0.12928048871E+02 -0.10543127156E+02  0.58806641839E+01  0.17688250036E+02  0.51100000000E-03 0. -1.
        -11    1    3    3    0    0  0.13782523807E+02 -0.13370535254E+02  0.24224793023E+01  0.19354523546E+02  0.51100000000E-03 0.  1.
        -12    1    3    3    0    0  0.10192294370E+02 -0.38596995848E+01 -0.19408523215E+02  0.22259176058E+02  0.00000000000E+00 0.  1.
</event>
<event>
 7    1  0.5662448E-012  0.5930189E+02  0.7816164E-02  0.1266605E+00
        -11   -1    0    0    0    0  0.00000000000E+00  0.00000000000E+00  0.45593999997E+02  0.45594000000E+02  0.51100000000E-03 0.  1.
         11   -1    0    0    0    0 -0.00000000000E+00 -0.00000000000E+00 -0.45593999997E+02  0.45594000000E+02  0.51100000000E-03 0. -1.
    9900012    2    1    2    0    0  0.16983749352E+02 -0.25162016964E+02  0.97544301975E+01  0.59301894120E+02  0.49999908980E+02 0.  0.
         12    1    1    2    0    0 -0.16983749352E+02  0.25162016964E+02 -0.97544301975E+01  0.31886105880E+02  0.00000000000E+00 0. -1.
         11    1    3    3    0    0 -0.26701801851E+01 -0.45729756558E+01 -0.31755257672E+01  0.61746200473E+01  0.51100000000E-03 0. -1.
        -11    1    3    3    0    0 -0.64129840413E+01 -0.24219656952E+02  0.83781755903E+01  0.26418023652E+02  0.51100000000E-03 0.  1.
         12    1    3    3    0    0  0.26066913578E+02  0.36306156442E+01  0.45517803744E+01  0.26709250421E+02  0.00000000000E+00 0. -1.
</event>
<event>
 7    1  0.5662448E-012  0.5930197E+02  0.7816164E-02  0.1266605E+00
        -11   -1    0    0    0    0  0.00000000000E+00  0.00000000000E+00  0.45593999997E+02  0.45594000000E+02  0.51100000000E-03 0.  1.
         11   -1    0    0    0    0 -0.00000000000E+00 -0.00000000000E+00 -0.45593999997E+02  0.45594000000E+02  0.51100000000E-03 0. -1.
    9900012    2    1    2    0    0 -0.28348621659E+02  0.14003187597E+02  0.41213488224E+01  0.59301966553E+02  0.50000041082E+02 0.  0.
         12    1    1    2    0    0  0.28348621659E+02 -0.14003187597E+02 -0.41213488224E+01  0.31886033447E+02  0.00000000000E+00 0. -1.
         11    1    3    3    0    0 -0.47714733049E+01  0.20648486243E+01 -0.11903453940E+02  0.12989333058E+02  0.51100000000E-03 0. -1.
        -11    1    3    3    0    0 -0.12882693206E+02  0.22915549446E+02  0.16396284827E+02  0.30982645902E+02  0.51100000000E-03 0.  1.
         12    1    3    3    0    0 -0.10694455148E+02 -0.10977210474E+02 -0.37148206497E+00  0.15329987594E+02  0.00000000000E+00 0. -1.
</event>
<event>
 7    1  0.5662448E-012  0.5930195E+02  0.7816164E-02  0.1266605E+00
        -11   -1    0    0    0    0  0.00000000000E+00  0.00000000000E+00  0.45593999997E+02  0.45594000000E+02  0.51100000000E-03 0.  1.
         11   -1    0    0    0    0 -0.00000000000E+00 -0.00000000000E+00 -0.45593999997E+02  0.45594000000E+02  0.51100000000E-03 0. -1.
    9900012    2    1    2    0    0  0.85956368431E+01  0.77063799767E+01  0.29722836702E+02  0.59301948399E+02  0.50000007973E+02 0.  0.
         12    1    1    2    0    0 -0.85956368431E+01 -0.77063799767E+01 -0.29722836702E+02  0.31886051601E+02  0.00000000000E+00 0. -1.
         11    1    3    3    0    0  0.11675431269E+02  0.76300675675E+01  0.21907672528E+01  0.14118537028E+02  0.51100000000E-03 0.  1.
        -11    1    3    3    0    0 -0.57594767846E+01 -0.75470956180E+01  0.33703853102E+02  0.35015424306E+02  0.51100000000E-03 0. -1.
         12    1    3    3    0    0  0.26796823587E+01  0.76234080272E+01 -0.61717836535E+01  0.10167987065E+02  0.00000000000E+00 0. -1.
</event>
<event>
 7    1  0.5662448E-012  0.5930194E+02  0.7816164E-02  0.1266605E+00
        -11   -1    0    0    0    0  0.00000000000E+00  0.00000000000E+00  0.45593999997E+02  0.45594000000E+02  0.51100000000E-03 0. -1.
         11   -1    0    0    0    0 -0.00000000000E+00 -0.00000000000E+00 -0.45593999997E+02  0.45594000000E+02  0.51100000000E-03 0.  1.
    9900012    2    1    2    0    0 -0.19231845072E+02  0.17939715403E+02 -0.18028402578E+02  0.59301944221E+02  0.50000000353E+02 0.  0.
         12    1    1    2    0    0  0.19231845072E+02 -0.17939715403E+02  0.18028402578E+02  0.31886055779E+02  0.00000000000E+00 0. -1.
         11    1    3    3    0    0  0.81887403730E+01  0.18083831192E+02 -0.11188786996E+02  0.22787482840E+02  0.51100000000E-03 0. -1.
        -11    1    3    3    0    0 -0.18425622582E+02  0.81961560148E+01 -0.11706246924E+02  0.23317734844E+02  0.51100000000E-03 0.  1.
         12    1    3    3    0    0 -0.89949628630E+01 -0.83402718039E+01  0.48666313419E+01  0.13196726537E+02  0.00000000000E+00 0. -1.
</event>
<event>
 7    1  0.5662448E-012  0.5930194E+02  0.7816164E-02  0.1266605E+00
        -11   -1    0    0    0    0  0.00000000000E+00  0.00000000000E+00  0.45593999997E+02  0.45594000000E+02  0.51100000000E-03 0.  1.
         11   -1    0    0    0    0 -0.00000000000E+00 -0.00000000000E+00 -0.45593999997E+02  0.45594000000E+02  0.51100000000E-03 0. -1.
    9900012    2    1    2    0    0  0.54608281172E+00  0.28398917096E+02  0.14488752902E+02  0.59301942556E+02  0.49999997316E+02 0.  0.
         12    1    1    2    0    0 -0.54608281172E+00 -0.28398917096E+02 -0.14488752902E+02  0.31886057444E+02  0.00000000000E+00 0. -1.
         11    1    3    3    0    0  0.43371053577E+01 -0.51873585411E+01  0.79537233002E+01  0.10439391080E+02  0.51100000000E-03 0. -1.
        -11    1    3    3    0    0  0.79901114992E+01  0.19100227534E+02 -0.10828484071E+02  0.23364859108E+02  0.51100000000E-03 0.  1.
         12    1    3    3    0    0 -0.11781134045E+02  0.14486048103E+02  0.17363513673E+02  0.25497692368E+02  0.00000000000E+00 0. -1.
</event>
<event>
 7    1  0.5662448E-012  0.5930193E+02  0.7816164E-02  0.1266605E+00
        -11   -1    0    0    0    0  0.00000000000E+00  0.00000000000E+00  0.45593999997E+02  0.45594000000E+02  0.51100000000E-03 0.  1.
         11   -1    0    0    0    0 -0.00000000000E+00 -0.00000000000E+00 -0.45593999997E+02  0.45594000000E+02  0.51100000000E-03 0. -1.
    9900012    2    1    2    0    0 -0.24005897261E+02  0.13073793777E+02  0.16416888200E+02  0.59301930860E+02  0.49999975986E+02 0.  0.
         12    1    1    2    0    0  0.24005897261E+02 -0.13073793777E+02 -0.16416888200E+02  0.31886069140E+02  0.00000000000E+00 0. -1.
         11    1    3    3    0    0 -0.13311167615E+02  0.69549469554E+01  0.31723452833E+01  0.15349991703E+02  0.51100000000E-03 0. -1.
        -11    1    3    3    0    0 -0.62446286971E+01  0.22422579173E+02  0.14069511475E+01  0.23318382365E+02  0.51100000000E-03 0.  1.
        -12    1    3    3    0    0 -0.44501009495E+01 -0.16303732351E+02  0.11837591769E+02  0.20633556793E+02  0.00000000000E+00 0.  1.
</event>
<event>
 7    1  0.5662448E-012  0.5930197E+02  0.7816164E-02  0.1266605E+00
        -11   -1    0    0    0    0  0.00000000000E+00  0.00000000000E+00  0.45593999997E+02  0.45594000000E+02  0.51100000000E-03 0.  1.
         11   -1    0    0    0    0 -0.00000000000E+00 -0.00000000000E+00 -0.45593999997E+02  0.45594000000E+02  0.51100000000E-03 0. -1.
    9900012    2    1    2    0    0  0.57036393763E+01  0.15427541743E+02  0.27316262482E+02  0.59301972616E+02  0.50000052138E+02 0.  0.
         12    1    1    2    0    0 -0.57036393763E+01 -0.15427541743E+02 -0.27316262482E+02  0.31886027384E+02  0.00000000000E+00 0. -1.
         11    1    3    3    0    0 -0.17916903857E+01  0.16857369733E+02  0.14035591041E+02  0.22008609335E+02  0.51100000000E-03 0.  1.
        -11    1    3    3    0    0 -0.11778334719E+02 -0.65505456873E+01  0.26599341178E+00  0.13479969225E+02  0.51100000000E-03 0. -1.
         12    1    3    3    0    0  0.19273664481E+02  0.51207176982E+01  0.13014678028E+02  0.23813394056E+02  0.00000000000E+00 0. -1.
</event>
<event>
 7    1  0.5662448E-012  0.5930196E+02  0.7816164E-02  0.1266605E+00
        -11   -1    0    0    0    0  0.00000000000E+00  0.00000000000E+00  0.45593999997E+02  0.45594000000E+02  0.51100000000E-03 0.  1.
         11   -1    0    0    0    0 -0.00000000000E+00 -0.00000000000E+00 -0.45593999997E+02  0.45594000000E+02  0.51100000000E-03 0. -1.
    9900012    2    1    2    0    0  0.19007933487E+02 -0.25392616785E+02  0.32608427486E+01  0.59301958884E+02  0.50000027095E+02 0.  0.
         12    1    1    2    0    0 -0.19007933487E+02  0.25392616785E+02 -0.32608427486E+01  0.31886041116E+02  0.00000000000E+00 0. -1.
         11    1    3    3    0    0 -0.16470086317E+01  0.72280846643E+01  0.13523310256E+00  0.74145892402E+01  0.51100000000E-03 0. -1.
        -11    1    3    3    0    0 -0.44079238706E+01 -0.20485741300E+02  0.99803810393E+01  0.23209984821E+02  0.51100000000E-03 0.  1.
         12    1    3    3    0    0  0.25062865989E+02 -0.12134960149E+02 -0.68547713933E+01  0.28677384823E+02  0.00000000000E+00 0. -1.
</event>
<event>
 7    1  0.5890101E-012  0.5930195E+02  0.7816164E-02  0.1266605E+00
        -11   -1    0    0    0    0  0.00000000000E+00  0.00000000000E+00  0.45593999997E+02  0.45594000000E+02  0.51100000000E-03 0. -1.
         11   -1    0    0    0    0 -0.00000000000E+00 -0.00000000000E+00 -0.45593999997E+02  0.45594000000E+02  0.51100000000E-03 0.  1.
    9900012    2    1    2    0    0 -0.23331067911E+01  0.11048019134E+02 -0.29819764762E+02  0.59301945296E+02  0.50000002314E+02 0.  0.
         12    1    1    2    0    0  0.23331067911E+01 -0.11048019134E+02  0.29819764762E+02  0.31886054704E+02  0.00000000000E+00 0. -1.
         11    1    3    3    0    0  0.91949359314E+01 -0.21065890391E+01 -0.25151547679E+01  0.97627131439E+01  0.51100000000E-03 0. -1.
        -11    1    3    3    0    0 -0.84944884151E+01  0.94995138650E+01 -0.36788050461E+02  0.38932733709E+02  0.51100000000E-03 0.  1.
         12    1    3    3    0    0 -0.30335543074E+01  0.36550943086E+01  0.94834404665E+01  0.10606498443E+02  0.00000000000E+00 0. -1.
</event>
<event>
 7    1  0.5662448E-012  0.5930194E+02  0.7816164E-02  0.1266605E+00
        -11   -1    0    0    0    0  0.00000000000E+00  0.00000000000E+00  0.45593999997E+02  0.45594000000E+02  0.51100000000E-03 0. -1.
         11   -1    0    0    0    0 -0.00000000000E+00 -0.00000000000E+00 -0.45593999997E+02  0.45594000000E+02  0.51100000000E-03 0.  1.
    9900012    2    1    2    0    0  0.20012612113E+02  0.24290101282E+02 -0.51192637595E+01  0.59301944658E+02  0.50000001149E+02 0.  0.
         12    1    1    2    0    0 -0.20012612113E+02 -0.24290101282E+02  0.51192637595E+01  0.31886055342E+02  0.00000000000E+00 0. -1.
         11    1    3    3    0    0  0.80557492349E+00 -0.27389246207E+01  0.76360161117E+00  0.29552913083E+01  0.51100000000E-03 0. -1.
        -11    1    3    3    0    0  0.58839610159E+00  0.12393558119E+02 -0.23672507935E+02  0.26727029858E+02  0.51100000000E-03 0.  1.
         12    1    3    3    0    0  0.18618641088E+02  0.14635467783E+02  0.17789642565E+02  0.29619623491E+02  0.00000000000E+00 0. -1.
</event>
<event>
 7    1  0.5662448E-012  0.5930199E+02  0.7816164E-02  0.1266605E+00
        -11   -1    0    0    0    0  0.00000000000E+00  0.00000000000E+00  0.45593999997E+02  0.45594000000E+02  0.51100000000E-03 0. -1.
         11   -1    0    0    0    0 -0.00000000000E+00 -0.00000000000E+00 -0.45593999997E+02  0.45594000000E+02  0.51100000000E-03 0.  1.
    9900012    2    1    2    0    0  0.20044432302E+02  0.23152077823E+02 -0.88836621141E+01  0.59301993251E+02  0.50000089771E+02 0.  0.
         12    1    1    2    0    0 -0.20044432302E+02 -0.23152077823E+02  0.88836621141E+01  0.31886006749E+02  0.00000000000E+00 0. -1.
         11    1    3    3    0    0  0.45699126258E+01 -0.39027140945E+01 -0.12414733110E+01  0.61364920723E+01  0.51100000000E-03 0. -1.
        -11    1    3    3    0    0  0.18413755666E+02  0.25775528126E+01 -0.18498475368E+02  0.26227919617E+02  0.51100000000E-03 0.  1.
         12    1    3    3    0    0 -0.29392359898E+01  0.24477239105E+02  0.10856286565E+02  0.26937581562E+02  0.00000000000E+00 0. -1.
</event>
<event>
 7    1  0.5662448E-012  0.5930193E+02  0.7816164E-02  0.1266605E+00
        -11   -1    0    0    0    0  0.00000000000E+00  0.00000000000E+00  0.45593999997E+02  0.45594000000E+02  0.51100000000E-03 0. -1.
         11   -1    0    0    0    0 -0.00000000000E+00 -0.00000000000E+00 -0.45593999997E+02  0.45594000000E+02  0.51100000000E-03 0.  1.
    9900012    2    1    2    0    0  0.70396275234E+00  0.21929055112E+02 -0.23137472439E+02  0.59301926982E+02  0.49999968912E+02 0.  0.
         12    1    1    2    0    0 -0.70396275234E+00 -0.21929055112E+02  0.23137472439E+02  0.31886073018E+02  0.00000000000E+00 0. -1.
         11    1    3    3    0    0 -0.44317806970E+01  0.52973735291E+01  0.35886545678E+01  0.77833982502E+01  0.51100000000E-03 0. -1.
        -11    1    3    3    0    0  0.20580882491E+02  0.17306922702E+02 -0.98658528368E+01  0.28643277571E+02  0.51100000000E-03 0.  1.
         12    1    3    3    0    0 -0.15445139042E+02 -0.67524111924E+00 -0.16860274170E+02  0.22875251161E+02  0.00000000000E+00 0. -1.
</event>
<event>
 7    1  0.5662448E-012  0.5930195E+02  0.7816164E-02  0.1266605E+00
        -11   -1    0    0    0    0  0.00000000000E+00  0.00000000000E+00  0.45593999997E+02  0.45594000000E+02  0.51100000000E-03 0.  1.
         11   -1    0    0    0    0 -0.00000000000E+00 -0.00000000000E+00 -0.45593999997E+02  0.45594000000E+02  0.51100000000E-03 0. -1.
    9900012    2    1    2    0    0  0.19612839832E+02  0.25077360545E+02  0.17839346201E+01  0.59301954135E+02  0.50000018434E+02 0.  0.
         12    1    1    2    0    0 -0.19612839832E+02 -0.25077360545E+02 -0.17839346201E+01  0.31886045865E+02  0.00000000000E+00 0. -1.
         11    1    3    3    0    0 -0.40543672982E+01 -0.10852748651E+02 -0.12734196477E+01  0.11655112411E+02  0.51100000000E-03 0. -1.
        -11    1    3    3    0    0  0.69575703688E+01 -0.42189329661E+00  0.31237235333E+01  0.76382870046E+01  0.51100000000E-03 0.  1.
        -12    1    3    3    0    0  0.16709636761E+02  0.36352002492E+02 -0.66369265497E-01  0.40008554719E+02  0.00000000000E+00 0.  1.
</event>
<event>
 7    1  0.5662448E-012  0.5930195E+02  0.7816164E-02  0.1266605E+00
        -11   -1    0    0    0    0  0.00000000000E+00  0.00000000000E+00  0.45593999997E+02  0.45594000000E+02  0.51100000000E-03 0.  1.
         11   -1    0    0    0    0 -0.00000000000E+00 -0.00000000000E+00 -0.45593999997E+02  0.45594000000E+02  0.51100000000E-03 0. -1.
    9900012    2    1    2    0    0 -0.19884649931E+02  0.23699073977E+01  0.24813397905E+02  0.59301945376E+02  0.50000002458E+02 0.  0.
         12    1    1    2    0    0  0.19884649931E+02 -0.23699073977E+01 -0.24813397905E+02  0.31886054624E+02  0.00000000000E+00 0. -1.
         11    1    3    3    0    0  0.37754352382E+01 -0.21179508023E+00  0.73728459460E+01  0.82859897416E+01  0.51100000000E-03 0. -1.
        -11    1    3    3    0    0 -0.34909766569E+02 -0.10895609468E+01  0.17750012776E+02  0.39178334558E+02  0.51100000000E-03 0.  1.
         12    1    3    3    0    0  0.11249681400E+02  0.36712634247E+01 -0.30946081706E+00  0.11837621076E+02  0.00000000000E+00 0. -1.
</event>
<event>
 7    1  0.5662448E-012  0.5930194E+02  0.7816164E-02  0.1266605E+00
        -11   -1    0    0    0    0  0.00000000000E+00  0.00000000000E+00  0.45593999997E+02  0.45594000000E+02  0.51100000000E-03 0. -1.
         11   -1    0    0    0    0 -0.00000000000E+00 -0.00000000000E+00 -0.45593999997E+02  0.45594000000E+02  0.51100000000E-03 0.  1.
    9900012    2    1    2    0    0  0.26397451141E+02  0.14032870460E+02  0.11089360296E+02  0.59301940478E+02  0.49999993525E+02 0.  0.
         12    1    1    2    0    0 -0.26397451141E+02 -0.14032870460E+02 -0.11089360296E+02  0.31886059522E+02  0.00000000000E+00 0. -1.
         11    1    3    3    0    0  0.21159464400E+02  0.57789295008E+01  0.88943629559E+01  0.23669149806E+02  0.51100000000E-03 0. -1.
        -11    1    3    3    0    0  0.97030975946E+01  0.18213677007E+02  0.92721525152E+01  0.22624344091E+02  0.51100000000E-03 0.  1.
         12    1    3    3    0    0 -0.44651108532E+01 -0.99597360475E+01 -0.70771551754E+01  0.13008446581E+02  0.00000000000E+00 0. -1.
</event>
<event>
 7    1  0.5662448E-012  0.5930195E+02  0.7816164E-02  0.1266605E+00
        -11   -1    0    0    0    0  0.00000000000E+00  0.00000000000E+00  0.45593999997E+02  0.45594000000E+02  0.51100000000E-03 0. -1.
         11   -1    0    0    0    0 -0.00000000000E+00 -0.00000000000E+00 -0.45593999997E+02  0.45594000000E+02  0.51100000000E-03 0.  1.
    9900012    2    1    2    0    0  0.25964534789E+01  0.31693145675E+02  0.23501762411E+01  0.59301946908E+02  0.50000005253E+02 0.  0.
         12    1    1    2    0    0 -0.25964534789E+01 -0.31693145675E+02 -0.23501762411E+01  0.31886053092E+02  0.00000000000E+00 0. -1.
         11    1    3    3    0    0  0.12074191314E+02  0.31857934194E+02 -0.93182201111E+01  0.35320578893E+02  0.51100000000E-03 0. -1.
        -11    1    3    3    0    0  0.27788874261E+01  0.15678244716E+01  0.11144019794E+02  0.11591784432E+02  0.51100000000E-03 0.  1.
        -12    1    3    3    0    0 -0.12256625261E+02 -0.17326129910E+01  0.52437655832E+00  0.12389583583E+02  0.00000000000E+00 0.  1.
</event>
<event>
 7    1  0.5662448E-012  0.5930191E+02  0.7816164E-02  0.1266605E+00
        -11   -1    0    0    0    0  0.00000000000E+00  0.00000000000E+00  0.45593999997E+02  0.45594000000E+02  0.51100000000E-03 0.  1.
         11   -1    0    0    0    0 -0.00000000000E+00 -0.00000000000E+00 -0.45593999997E+02  0.45594000000E+02  0.51100000000E-03 0. -1.
    9900012    2    1    2    0    0  0.21925008982E+02  0.21822362740E+02  0.77331127963E+01  0.59301912627E+02  0.49999942732E+02 0.  0.
         12    1    1    2    0    0 -0.21925008982E+02 -0.21822362740E+02 -0.77331127963E+01  0.31886087373E+02  0.00000000000E+00 0. -1.
         11    1    3    3    0    0  0.84611913385E+01 -0.47859863658E+01  0.78799248471E+01  0.12513618190E+02  0.51100000000E-03 0. -1.
        -11    1    3    3    0    0  0.22659224086E+02  0.29254485022E+02  0.17021819002E+01  0.37042715256E+02  0.51100000000E-03 0.  1.
         12    1    3    3    0    0 -0.91954064424E+01 -0.26461359153E+01 -0.18489939510E+01  0.97455791800E+01  0.00000000000E+00 0. -1.
</event>
<event>
 7    1  0.5662448E-012  0.5930194E+02  0.7816164E-02  0.1266605E+00
        -11   -1    0    0    0    0  0.00000000000E+00  0.00000000000E+00  0.45593999997E+02  0.45594000000E+02  0.51100000000E-03 0.  1.
         11   -1    0    0    0    0 -0.00000000000E+00 -0.00000000000E+00 -0.45593999997E+02  0.45594000000E+02  0.51100000000E-03 0. -1.
    9900012    2    1    2    0    0 -0.17629312705E+02  0.96466519646E+01  0.24756216373E+02  0.59301940198E+02  0.49999993016E+02 0.  0.
         12    1    1    2    0    0  0.17629312705E+02 -0.96466519646E+01 -0.24756216373E+02  0.31886059802E+02  0.00000000000E+00 0. -1.
         11    1    3    3    0    0  0.50490337398E+00  0.12798781845E+02  0.15894480574E+01  0.12906978327E+02  0.51100000000E-03 0. -1.
        -11    1    3    3    0    0  0.75101557519E+01 -0.24793361404E+01  0.18769380735E+02  0.20367601738E+02  0.51100000000E-03 0.  1.
        -12    1    3    3    0    0 -0.25644371831E+02 -0.67279374020E+00  0.43973875804E+01  0.26027360134E+02  0.00000000000E+00 0.  1.
</event>
<event>
 7    1  0.5662448E-012  0.5930218E+02  0.7816164E-02  0.1266604E+00
        -11   -1    0    0    0    0  0.00000000000E+00  0.00000000000E+00  0.45593999997E+02  0.45594000000E+02  0.51100000000E-03 0. -1.
         11   -1    0    0    0    0 -0.00000000000E+00 -0.00000000000E+00 -0.45593999997E+02  0.45594000000E+02  0.51100000000E-03 0.  1.
    9900012    2    1    2    0    0  0.29815423179E+02  0.46172740070E+00 -0.11293038978E+02  0.59302182136E+02  0.50000434250E+02 0.  0.
         12    1    1    2    0    0 -0.29815423179E+02 -0.46172740070E+00  0.11293038978E+02  0.31885817864E+02  0.00000000000E+00 0. -1.
         11    1    3    3    0    0  0.73375417575E+01  0.23721065629E+01 -0.10140277091E+02  0.12739373153E+02  0.51100000000E-03 0. -1.
        -11    1    3    3    0    0  0.12580744178E+02 -0.21316891847E+02 -0.11301185690E+01  0.24778260034E+02  0.51100000000E-03 0.  1.
         12    1    3    3    0    0  0.98971372433E+01  0.19406512684E+02 -0.22643317639E-01  0.21784548949E+02  0.00000000000E+00 0. -1.
</event>
<event>
 7    1  0.5662448E-012  0.5930194E+02  0.7816164E-02  0.1266605E+00
        -11   -1    0    0    0    0  0.00000000000E+00  0.00000000000E+00  0.45593999997E+02  0.45594000000E+02  0.51100000000E-03 0.  1.
         11   -1    0    0    0    0 -0.00000000000E+00 -0.00000000000E+00 -0.45593999997E+02  0.45594000000E+02  0.51100000000E-03 0. -1.
    9900012    2    1    2    0    0 -0.13369454211E+02  0.49403249616E+01  0.28523180388E+02  0.59301938217E+02  0.49999989402E+02 0.  0.
         12    1    1    2    0    0  0.13369454211E+02 -0.49403249616E+01 -0.28523180388E+02  0.31886061783E+02  0.00000000000E+00 0. -1.
         11    1    3    3    0    0  0.53057374344E+01 -0.10555420079E+02 -0.29320527809E+01  0.12172291343E+02  0.51100000000E-03 0. -1.
        -11    1    3    3    0    0  0.22597101609E+01 -0.44819111402E+01  0.97166875151E+01  0.10936536655E+02  0.51100000000E-03 0.  1.
        -12    1    3    3    0    0 -0.20934901806E+02  0.19977656181E+02  0.21738545654E+02  0.36193110218E+02  0.00000000000E+00 0.  1.
</event>
<event>
 7    1  0.5662448E-012  0.5930175E+02  0.7816164E-02  0.1266605E+00
        -11   -1    0    0    0    0  0.00000000000E+00  0.00000000000E+00  0.45593999997E+02  0.45594000000E+02  0.51100000000E-03 0.  1.
         11   -1    0    0    0    0 -0.00000000000E+00 -0.00000000000E+00 -0.45593999997E+02  0.45594000000E+02  0.51100000000E-03 0. -1.
    9900012    2    1    2    0    0  0.12657580789E+01 -0.25944519276E+02  0.18493588816E+02  0.59301748240E+02  0.49999642929E+02 0.  0.
         12    1    1    2    0    0 -0.12657580789E+01  0.25944519276E+02 -0.18493588816E+02  0.31886251760E+02  0.00000000000E+00 0. -1.
         11    1    3    3    0    0 -0.74256282681E+01  0.15795474264E+01  0.25521056959E+01  0.80092552083E+01  0.51100000000E-03 0. -1.
        -11    1    3    3    0    0  0.60220119395E+01 -0.36792070737E+02  0.18047914518E+02  0.41420385266E+02  0.51100000000E-03 0.  1.
         12    1    3    3    0    0  0.26693744075E+01  0.92680040338E+01 -0.21064313985E+01  0.98721077655E+01  0.00000000000E+00 0. -1.
</event>
<event>
 7    1  0.5662448E-012  0.5930199E+02  0.7816164E-02  0.1266605E+00
        -11   -1    0    0    0    0  0.00000000000E+00  0.00000000000E+00  0.45593999997E+02  0.45594000000E+02  0.51100000000E-03 0. -1.
         11   -1    0    0    0    0 -0.00000000000E+00 -0.00000000000E+00 -0.45593999997E+02  0.45594000000E+02  0.51100000000E-03 0.  1.
    9900012    2    1    2    0    0  0.23791976835E+02 -0.21214058422E+02 -0.78941994713E+00  0.59301990210E+02  0.50000084226E+02 0.  0.
         12    1    1    2    0    0 -0.23791976835E+02  0.21214058422E+02  0.78941994713E+00  0.31886009790E+02  0.00000000000E+00 0. -1.
         11    1    3    3    0    0  0.12138327134E+02 -0.11811334849E+02 -0.18641650724E+02  0.25186459825E+02  0.51100000000E-03 0. -1.
        -11    1    3    3    0    0  0.45308155975E+01  0.83315702847E+01  0.31159540636E+01  0.99826110500E+01  0.51100000000E-03 0.  1.
         12    1    3    3    0    0  0.71228341033E+01 -0.17734293857E+02  0.14736276713E+02  0.24132919335E+02  0.00000000000E+00 0. -1.
</event>
<event>
 7    1  0.5662448E-012  0.5930195E+02  0.7816164E-02  0.1266605E+00
        -11   -1    0    0    0    0  0.00000000000E+00  0.00000000000E+00  0.45593999997E+02  0.45594000000E+02  0.51100000000E-03 0. -1.
         11   -1    0    0    0    0 -0.00000000000E+00 -0.00000000000E+00 -0.45593999997E+02  0.45594000000E+02  0.51100000000E-03 0.  1.
    9900012    2    1    2    0    0  0.18541446394E+02  0.13437804453E+02 -0.22189196561E+02  0.59301948709E+02  0.50000008538E+02 0.  0.
         12    1    1    2    0    0 -0.18541446394E+02 -0.13437804453E+02  0.22189196561E+02  0.31886051291E+02  0.00000000000E+00 0. -1.
         11    1    3    3    0    0  0.80692016705E+01  0.45849214793E+01  0.37095228458E+01  0.99947026257E+01  0.51100000000E-03 0. -1.
        -11    1    3    3    0    0 -0.28406176536E+01  0.14790737445E+02 -0.30504408332E+02  0.34019905214E+02  0.51100000000E-03 0.  1.
         12    1    3    3    0    0  0.13312862377E+02 -0.59378544714E+01  0.46056889254E+01  0.15287340870E+02  0.00000000000E+00 0. -1.
</event>
<event>
 7    1  0.5662448E-012  0.5930195E+02  0.7816164E-02  0.1266605E+00
        -11   -1    0    0    0    0  0.00000000000E+00  0.00000000000E+00  0.45593999997E+02  0.45594000000E+02  0.51100000000E-03 0. -1.
         11   -1    0    0    0    0 -0.00000000000E+00 -0.00000000000E+00 -0.45593999997E+02  0.45594000000E+02  0.51100000000E-03 0.  1.
    9900012    2    1    2    0    0 -0.36661907988E+01  0.25148371748E+02 -0.19257175121E+02  0.59301947404E+02  0.50000006158E+02 0.  0.
         12    1    1    2    0    0  0.36661907988E+01 -0.25148371748E+02  0.19257175121E+02  0.31886052596E+02  0.00000000000E+00 0. -1.
         11    1    3    3    0    0 -0.25913555659E+00 -0.35841501876E+01 -0.15132186584E+01  0.38991171787E+01  0.51100000000E-03 0. -1.
        -11    1    3    3    0    0 -0.18644968222E+02  0.14961752493E+02  0.53500146683E+01  0.24497174018E+02  0.51100000000E-03 0.  1.
         12    1    3    3    0    0  0.15237912980E+02  0.13770769443E+02 -0.23093971130E+02  0.30905656207E+02  0.00000000000E+00 0. -1.
</event>
<event>
 7    1  0.5662448E-012  0.5930192E+02  0.7816164E-02  0.1266605E+00
        -11   -1    0    0    0    0  0.00000000000E+00  0.00000000000E+00  0.45593999997E+02  0.45594000000E+02  0.51100000000E-03 0. -1.
         11   -1    0    0    0    0 -0.00000000000E+00 -0.00000000000E+00 -0.45593999997E+02  0.45594000000E+02  0.51100000000E-03 0.  1.
    9900012    2    1    2    0    0 -0.55935398668E+00  0.31477858018E+02 -0.50550496720E+01  0.59301922325E+02  0.49999960419E+02 0.  0.
         12    1    1    2    0    0  0.55935398668E+00 -0.31477858018E+02  0.50550496720E+01  0.31886077675E+02  0.00000000000E+00 0. -1.
         11    1    3    3    0    0 -0.45738435699E+00  0.89241637923E+01  0.21502223191E+01  0.91909388054E+01  0.51100000000E-03 0. -1.
        -11    1    3    3    0    0 -0.11937135660E+02  0.23477891872E+02 -0.19688936830E+02  0.32884051579E+02  0.51100000000E-03 0.  1.
         12    1    3    3    0    0  0.11835166030E+02 -0.92419764553E+00  0.12483664839E+02  0.17226931940E+02  0.00000000000E+00 0. -1.
</event>
<event>
 7    1  0.5662448E-012  0.5930194E+02  0.7816164E-02  0.1266605E+00
        -11   -1    0    0    0    0  0.00000000000E+00  0.00000000000E+00  0.45593999997E+02  0.45594000000E+02  0.51100000000E-03 0.  1.
         11   -1    0    0    0    0 -0.00000000000E+00 -0.00000000000E+00 -0.45593999997E+02  0.45594000000E+02  0.51100000000E-03 0. -1.
    9900012    2    1    2    0    0  0.69903879444E+01  0.15923335848E+02  0.26726438602E+02  0.59301942412E+02  0.49999997054E+02 0.  0.
         12    1    1    2    0    0 -0.69903879444E+01 -0.15923335848E+02 -0.26726438602E+02  0.31886057588E+02  0.00000000000E+00 0. -1.
         11    1    3    3    0    0 -0.10251049775E+02 -0.95784305031E+00  0.14307353139E+02  0.17626736479E+02  0.51100000000E-03 0. -1.
        -11    1    3    3    0    0 -0.67752693636E+01  0.12702831749E+02  0.92020940783E+01  0.17086390639E+02  0.51100000000E-03 0.  1.
         12    1    3    3    0    0  0.24016707083E+02  0.41783471493E+01  0.32169913852E+01  0.24588815295E+02  0.00000000000E+00 0. -1.
</event>
<event>
 7    1  0.5662448E-012  0.5930162E+02  0.7816164E-02  0.1266606E+00
        -11   -1    0    0    0    0  0.00000000000E+00  0.00000000000E+00  0.45593999997E+02  0.45594000000E+02  0.51100000000E-03 0.  1.
         11   -1    0    0    0    0 -0.00000000000E+00 -0.00000000000E+00 -0.45593999997E+02  0.45594000000E+02  0.51100000000E-03 0. -1.
    9900012    2    1    2    0    0 -0.48897560559E+01 -0.31286120207E+02  0.37430403115E+01  0.59301617598E+02  0.49999404667E+02 0.  0.
         12    1    1    2    0    0  0.48897560559E+01  0.31286120207E+02 -0.37430403115E+01  0.31886382402E+02  0.00000000000E+00 0. -1.
         11    1    3    3    0    0  0.98854132505E+01 -0.93018608297E+01 -0.62729516030E+01  0.14953124493E+02  0.51100000000E-03 0. -1.
        -11    1    3    3    0    0  0.21427315796E+01  0.76910560214E+01 -0.18349356185E+01  0.81921078076E+01  0.51100000000E-03 0.  1.
        -12    1    3    3    0    0 -0.16917900886E+02 -0.29675315399E+02  0.11850927533E+02  0.36156385298E+02  0.00000000000E+00 0.  1.
</event>
<event>
 7    1  0.5662448E-012  0.5930194E+02  0.7816164E-02  0.1266605E+00
        -11   -1    0    0    0    0  0.00000000000E+00  0.00000000000E+00  0.45593999997E+02  0.45594000000E+02  0.51100000000E-03 0. -1.
         11   -1    0    0    0    0 -0.00000000000E+00 -0.00000000000E+00 -0.45593999997E+02  0.45594000000E+02  0.51100000000E-03 0.  1.
    9900012    2    1    2    0    0  0.29051606558E+02  0.37544416976E+01 -0.12594800965E+02  0.59301942116E+02  0.49999996513E+02 0.  0.
         12    1    1    2    0    0 -0.29051606558E+02 -0.37544416976E+01  0.12594800965E+02  0.31886057884E+02  0.00000000000E+00 0. -1.
         11    1    3    3    0    0 -0.62276767224E+01 -0.46640519122E+01 -0.11654786849E+01  0.78673806584E+01  0.51100000000E-03 0. -1.
        -11    1    3    3    0    0  0.33395458863E+02  0.17608606482E+02 -0.15127180038E+01  0.37783700334E+02  0.51100000000E-03 0.  1.
         12    1    3    3    0    0  0.18838244171E+01 -0.91901128725E+01 -0.99166042758E+01  0.13650861123E+02  0.00000000000E+00 0. -1.
</event>
<event>
 7    1  0.5662448E-012  0.5930195E+02  0.7816164E-02  0.1266605E+00
        -11   -1    0    0    0    0  0.00000000000E+00  0.00000000000E+00  0.45593999997E+02  0.45594000000E+02  0.51100000000E-03 0.  1.
         11   -1    0    0    0    0 -0.00000000000E+00 -0.00000000000E+00 -0.45593999997E+02  0.45594000000E+02  0.51100000000E-03 0. -1.
    9900012    2    1    2    0    0  0.17793609873E+02 -0.24462656271E+02  0.10083954230E+02  0.59301949178E+02  0.50000009392E+02 0.  0.
         12    1    1    2    0    0 -0.17793609873E+02  0.24462656271E+02 -0.10083954230E+02  0.31886050822E+02  0.00000000000E+00 0. -1.
         11    1    3    3    0    0  0.17516152733E+02 -0.58125161012E+01  0.47282351003E+00  0.18461433106E+02  0.51100000000E-03 0. -1.
        -11    1    3    3    0    0  0.62603903423E+01  0.34477816003E+01  0.15614941374E+02  0.17172829690E+02  0.51100000000E-03 0.  1.
         12    1    3    3    0    0 -0.59829332024E+01 -0.22097921770E+02 -0.60038106543E+01  0.23667686381E+02  0.00000000000E+00 0. -1.
</event>
<event>
 7    1  0.5662448E-012  0.5930194E+02  0.7816164E-02  0.1266605E+00
        -11   -1    0    0    0    0  0.00000000000E+00  0.00000000000E+00  0.45593999997E+02  0.45594000000E+02  0.51100000000E-03 0.  1.
         11   -1    0    0    0    0 -0.00000000000E+00 -0.00000000000E+00 -0.45593999997E+02  0.45594000000E+02  0.51100000000E-03 0. -1.
    9900012    2    1    2    0    0  0.19209318355E+02  0.88825791830E+01  0.23850001161E+02  0.59301942232E+02  0.49999996725E+02 0.  0.
         12    1    1    2    0    0 -0.19209318355E+02 -0.88825791830E+01 -0.23850001161E+02  0.31886057768E+02  0.00000000000E+00 0. -1.
         11    1    3    3    0    0  0.14270261757E+01 -0.80440080469E+01  0.93879226983E+01  0.12444901045E+02  0.51100000000E-03 0. -1.
        -11    1    3    3    0    0  0.21084511678E+02 -0.17903558128E+00  0.19501856807E+02  0.28721265738E+02  0.51100000000E-03 0.  1.
         12    1    3    3    0    0 -0.33022194979E+01  0.17105622811E+02 -0.50397783446E+01  0.18135775449E+02  0.00000000000E+00 0. -1.
</event>
<event>
 7    1  0.5662448E-012  0.5930199E+02  0.7816164E-02  0.1266605E+00
        -11   -1    0    0    0    0  0.00000000000E+00  0.00000000000E+00  0.45593999997E+02  0.45594000000E+02  0.51100000000E-03 0. -1.
         11   -1    0    0    0    0 -0.00000000000E+00 -0.00000000000E+00 -0.45593999997E+02  0.45594000000E+02  0.51100000000E-03 0.  1.
    9900012    2    1    2    0    0 -0.97006073195E+01 -0.24290971462E+02 -0.18236351501E+02  0.59301990638E+02  0.50000085007E+02 0.  0.
         12    1    1    2    0    0  0.97006073195E+01  0.24290971462E+02  0.18236351501E+02  0.31886009362E+02  0.00000000000E+00 0. -1.
         11    1    3    3    0    0  0.12963165085E+02 -0.10450170069E+01  0.83813102107E+01  0.15471976948E+02  0.51100000000E-03 0. -1.
        -11    1    3    3    0    0 -0.22593415809E+01 -0.19098167027E+01  0.12691321847E+01  0.32191180439E+01  0.51100000000E-03 0.  1.
        -12    1    3    3    0    0 -0.20404430823E+02 -0.21336137753E+02 -0.27886793896E+02  0.40610895647E+02  0.00000000000E+00 0.  1.
</event>
<event>
 7    1  0.5662448E-012  0.5930193E+02  0.7816164E-02  0.1266605E+00
        -11   -1    0    0    0    0  0.00000000000E+00  0.00000000000E+00  0.45593999997E+02  0.45594000000E+02  0.51100000000E-03 0.  1.
         11   -1    0    0    0    0 -0.00000000000E+00 -0.00000000000E+00 -0.45593999997E+02  0.45594000000E+02  0.51100000000E-03 0. -1.
    9900012    2    1    2    0    0 -0.29240053186E+02 -0.11540727574E+02 -0.53434115572E+01  0.59301934856E+02  0.49999983274E+02 0.  0.
         12    1    1    2    0    0  0.29240053186E+02  0.11540727574E+02  0.53434115572E+01  0.31886065144E+02  0.00000000000E+00 0. -1.
         11    1    3    3    0    0 -0.12242351079E+02  0.17395258815E+02 -0.36085488524E+01  0.21575259310E+02  0.51100000000E-03 0. -1.
        -11    1    3    3    0    0 -0.10001878651E+02 -0.41378956481E+01  0.36138144701E+01  0.11411372057E+02  0.51100000000E-03 0.  1.
        -12    1    3    3    0    0 -0.69958234565E+01 -0.24798090741E+02 -0.53486771749E+01  0.26315303490E+02  0.00000000000E+00 0.  1.
</event>
<event>
 7    1  0.5662448E-012  0.5930171E+02  0.7816164E-02  0.1266606E+00
        -11   -1    0    0    0    0  0.00000000000E+00  0.00000000000E+00  0.45593999997E+02  0.45594000000E+02  0.51100000000E-03 0.  1.
         11   -1    0    0    0    0 -0.00000000000E+00 -0.00000000000E+00 -0.45593999997E+02  0.45594000000E+02  0.51100000000E-03 0. -1.
    9900012    2    1    2    0    0 -0.29612998626E+02 -0.11666522191E+02 -0.19230506795E+01  0.59301709034E+02  0.49999571426E+02 0.  0.
         12    1    1    2    0    0  0.29612998626E+02  0.11666522191E+02  0.19230506795E+01  0.31886290966E+02  0.00000000000E+00 0. -1.
         11    1    3    3    0    0 -0.44409605603E+01 -0.11909394852E+02  0.29247704121E+01  0.13042626218E+02  0.51100000000E-03 0. -1.
        -11    1    3    3    0    0  0.39794600438E+01 -0.66044477226E+01  0.10167414974E+02  0.12760531316E+02  0.51100000000E-03 0.  1.
        -12    1    3    3    0    0 -0.29151498109E+02  0.68473203834E+01 -0.15015236066E+02  0.33498551499E+02  0.00000000000E+00 0.  1.
</event>
<event>
 7    1  0.5662448E-012  0.5930195E+02  0.7816164E-02  0.1266605E+00
        -11   -1    0    0    0    0  0.00000000000E+00  0.00000000000E+00  0.45593999997E+02  0.45594000000E+02  0.51100000000E-03 0.  1.
         11   -1    0    0    0    0 -0.00000000000E+00 -0.00000000000E+00 -0.45593999997E+02  0.45594000000E+02  0.51100000000E-03 0. -1.
    9900012    2    1    2    0    0  0.10094468652E+02  0.29445493144E+02  0.69126450807E+01  0.59301952489E+02  0.50000015431E+02 0.  0.
         12    1    1    2    0    0 -0.10094468652E+02 -0.29445493144E+02 -0.69126450807E+01  0.31886047511E+02  0.00000000000E+00 0. -1.
         11    1    3    3    0    0 -0.36304034381E+01  0.47463561414E-01 -0.10126374484E+02  0.10757580693E+02  0.51100000000E-03 0. -1.
        -11    1    3    3    0    0  0.69078829486E+01 -0.53690703183E+01 -0.96680549117E+00  0.88022994742E+01  0.51100000000E-03 0.  1.
        -12    1    3    3    0    0  0.68169891415E+01  0.34767099901E+02  0.18005825056E+02  0.39742072322E+02  0.00000000000E+00 0.  1.
</event>
<event>
 7    1  0.5662448E-012  0.5930195E+02  0.7816164E-02  0.1266605E+00
        -11   -1    0    0    0    0  0.00000000000E+00  0.00000000000E+00  0.45593999997E+02  0.45594000000E+02  0.51100000000E-03 0. -1.
         11   -1    0    0    0    0 -0.00000000000E+00 -0.00000000000E+00 -0.45593999997E+02  0.45594000000E+02  0.51100000000E-03 0.  1.
    9900012    2    1    2    0    0 -0.26724479210E+02  0.47485422332E+01 -0.16732421300E+02  0.59301947172E+02  0.50000005735E+02 0.  0.
         12    1    1    2    0    0  0.26724479210E+02 -0.47485422332E+01  0.16732421300E+02  0.31886052828E+02  0.00000000000E+00 0. -1.
         11    1    3    3    0    0  0.10609714825E+02  0.34618337177E+01 -0.63583256627E+01  0.12844401382E+02  0.51100000000E-03 0. -1.
        -11    1    3    3    0    0 -0.73459580428E+01  0.97075636321E+01 -0.92497595786E+01  0.15289144638E+02  0.51100000000E-03 0.  1.
        -12    1    3    3    0    0 -0.29988235992E+02 -0.84208551167E+01 -0.11243360590E+01  0.31168401152E+02  0.00000000000E+00 0.  1.
</event>
<event>
 7    1  0.5662448E-012  0.5930195E+02  0.7816164E-02  0.1266605E+00
        -11   -1    0    0    0    0  0.00000000000E+00  0.00000000000E+00  0.45593999997E+02  0.45594000000E+02  0.51100000000E-03 0.  1.
         11   -1    0    0    0    0 -0.00000000000E+00 -0.00000000000E+00 -0.45593999997E+02  0.45594000000E+02  0.51100000000E-03 0. -1.
    9900012    2    1    2    0    0 -0.10642934283E+02 -0.60578727344E+01  0.29440624498E+02  0.59301949084E+02  0.50000009221E+02 0.  0.
         12    1    1    2    0    0  0.10642934283E+02  0.60578727344E+01 -0.29440624498E+02  0.31886050916E+02  0.00000000000E+00 0. -1.
         11    1    3    3    0    0 -0.15593559071E+02 -0.13278643649E+02 -0.14458260771E+01  0.20532215539E+02  0.51100000000E-03 0. -1.
        -11    1    3    3    0    0 -0.34350234909E+01  0.11570330743E+02  0.93991409772E+01  0.15297574685E+02  0.51100000000E-03 0.  1.
        -12    1    3    3    0    0  0.83856482783E+01 -0.43495598283E+01  0.21487309598E+02  0.23472158859E+02  0.00000000000E+00 0.  1.
</event>
<event>
 7    1  0.5662448E-012  0.5930198E+02  0.7816164E-02  0.1266605E+00
        -11   -1    0    0    0    0  0.00000000000E+00  0.00000000000E+00  0.45593999997E+02  0.45594000000E+02  0.51100000000E-03 0.  1.
         11   -1    0    0    0    0 -0.00000000000E+00 -0.00000000000E+00 -0.45593999997E+02  0.45594000000E+02  0.51100000000E-03 0. -1.
    9900012    2    1    2    0    0  0.52441774150E+01 -0.30389065965E+02  0.81068861881E+01  0.59301979072E+02  0.50000063912E+02 0.  0.
         12    1    1    2    0    0 -0.52441774150E+01  0.30389065965E+02 -0.81068861881E+01  0.31886020928E+02  0.00000000000E+00 0. -1.
         11    1    3    3    0    0  0.34362407533E+01  0.99998423430E+01  0.11056038746E+02  0.15298385222E+02  0.51100000000E-03 0. -1.
        -11    1    3    3    0    0 -0.44459291491E+01 -0.27748337189E+02 -0.76722096236E+01  0.29130727823E+02  0.51100000000E-03 0.  1.
        -12    1    3    3    0    0  0.62538658108E+01 -0.12640571119E+02  0.47230570661E+01  0.14872866026E+02  0.00000000000E+00 0.  1.
</event>
<event>
 7    1  0.5662448E-012  0.5930199E+02  0.7816164E-02  0.1266605E+00
        -11   -1    0    0    0    0  0.00000000000E+00  0.00000000000E+00  0.45593999997E+02  0.45594000000E+02  0.51100000000E-03 0.  1.
         11   -1    0    0    0    0 -0.00000000000E+00 -0.00000000000E+00 -0.45593999997E+02  0.45594000000E+02  0.51100000000E-03 0. -1.
    9900012    2    1    2    0    0  0.26817092553E+02 -0.16769973384E+02  0.40409539022E+01  0.59301987883E+02  0.50000079981E+02 0.  0.
         12    1    1    2    0    0 -0.26817092553E+02  0.16769973384E+02 -0.40409539022E+01  0.31886012117E+02  0.00000000000E+00 0. -1.
         11    1    3    3    0    0  0.95070864330E+01  0.77859283454E+01  0.91075900433E+00  0.12322128666E+02  0.51100000000E-03 0. -1.
        -11    1    3    3    0    0  0.27022589849E+02 -0.12361592214E+02 -0.37273627296E+01  0.29948665369E+02  0.51100000000E-03 0.  1.
         12    1    3    3    0    0 -0.97125837290E+01 -0.12194309515E+02  0.68575576275E+01  0.17031193847E+02  0.00000000000E+00 0. -1.
</event>
<event>
 7    1  0.5662448E-012  0.5930196E+02  0.7816164E-02  0.1266605E+00
        -11   -1    0    0    0    0  0.00000000000E+00  0.00000000000E+00  0.45593999997E+02  0.45594000000E+02  0.51100000000E-03 0. -1.
         11   -1    0    0    0    0 -0.00000000000E+00 -0.00000000000E+00 -0.45593999997E+02  0.45594000000E+02  0.51100000000E-03 0.  1.
    9900012    2    1    2    0    0 -0.30934020373E+02 -0.39875286761E+01 -0.66261378654E+01  0.59301957530E+02  0.50000024625E+02 0.  0.
         12    1    1    2    0    0  0.30934020373E+02  0.39875286761E+01  0.66261378654E+01  0.31886042470E+02  0.00000000000E+00 0. -1.
         11    1    3    3    0    0 -0.34875249532E+02 -0.30278430561E+01  0.72675275396E+01  0.35752871498E+02  0.51100000000E-03 0. -1.
        -11    1    3    3    0    0 -0.71560902724E+01 -0.27821296343E+01 -0.45255903765E+01  0.89123982073E+01  0.51100000000E-03 0.  1.
         12    1    3    3    0    0  0.11097319432E+02  0.18224440143E+01 -0.93680750284E+01  0.14636687825E+02  0.00000000000E+00 0. -1.
</event>
<event>
 7    1  0.5662448E-012  0.5930194E+02  0.7816164E-02  0.1266605E+00
        -11   -1    0    0    0    0  0.00000000000E+00  0.00000000000E+00  0.45593999997E+02  0.45594000000E+02  0.51100000000E-03 0.  1.
         11   -1    0    0    0    0 -0.00000000000E+00 -0.00000000000E+00 -0.45593999997E+02  0.45594000000E+02  0.51100000000E-03 0. -1.
    9900012    2    1    2    0    0 -0.16200401465E+02  0.13989557297E+02  0.23633881461E+02  0.59301936055E+02  0.49999985460E+02 0.  0.
         12    1    1    2    0    0  0.16200401465E+02 -0.13989557297E+02 -0.23633881461E+02  0.31886063945E+02  0.00000000000E+00 0. -1.
         11    1    3    3    0    0 -0.15537198808E+02 -0.92072471303E+01  0.22556428301E+02  0.28895854451E+02  0.51100000000E-03 0. -1.
        -11    1    3    3    0    0 -0.47497849311E-01  0.54337780157E+01  0.93399981120E+01  0.10805728322E+02  0.51100000000E-03 0.  1.
        -12    1    3    3    0    0 -0.61570480748E+00  0.17763026411E+02 -0.82625449517E+01  0.19600353282E+02  0.00000000000E+00 0.  1.
</event>
<event>
 7    1  0.5662448E-012  0.5930190E+02  0.7816164E-02  0.1266605E+00
        -11   -1    0    0    0    0  0.00000000000E+00  0.00000000000E+00  0.45593999997E+02  0.45594000000E+02  0.51100000000E-03 0. -1.
         11   -1    0    0    0    0 -0.00000000000E+00 -0.00000000000E+00 -0.45593999997E+02  0.45594000000E+02  0.51100000000E-03 0.  1.
    9900012    2    1    2    0    0 -0.10199282324E+02 -0.21441730413E+02  0.21282626662E+02  0.59301900197E+02  0.49999920063E+02 0.  0.
         12    1    1    2    0    0  0.10199282324E+02  0.21441730413E+02 -0.21282626662E+02  0.31886099803E+02  0.00000000000E+00 0. -1.
         11    1    3    3    0    0  0.57084655783E+01  0.39452975282E+01  0.12609702701E+02  0.14392934180E+02  0.51100000000E-03 0. -1.
        -11    1    3    3    0    0  0.38474114690E+01  0.49304951857E+01 -0.29327894242E+01  0.69075040250E+01  0.51100000000E-03 0.  1.
        -12    1    3    3    0    0 -0.19755159371E+02 -0.30317523127E+02  0.11605713385E+02  0.38001461992E+02  0.00000000000E+00 0.  1.
</event>
<event>
 7    1  0.5662448E-012  0.5930199E+02  0.7816164E-02  0.1266605E+00
        -11   -1    0    0    0    0  0.00000000000E+00  0.00000000000E+00  0.45593999997E+02  0.45594000000E+02  0.51100000000E-03 0.  1.
         11   -1    0    0    0    0 -0.00000000000E+00 -0.00000000000E+00 -0.45593999997E+02  0.45594000000E+02  0.51100000000E-03 0. -1.
    9900012    2    1    2    0    0  0.21168771658E+02  0.97612453712E+01  0.21755890227E+02  0.59301991089E+02  0.50000085828E+02 0.  0.
         12    1    1    2    0    0 -0.21168771658E+02 -0.97612453712E+01 -0.21755890227E+02  0.31886008911E+02  0.00000000000E+00 0. -1.
         11    1    3    3    0    0  0.10146522619E+02 -0.27090899912E+01  0.27386911285E+00  0.10505526850E+02  0.51100000000E-03 0. -1.
        -11    1    3    3    0    0 -0.70498133254E+01  0.40983598918E+01 -0.91514454169E+01  0.12257462021E+02  0.51100000000E-03 0.  1.
        -12    1    3    3    0    0  0.18072062365E+02  0.83719754707E+01  0.30633466531E+02  0.36539002218E+02  0.00000000000E+00 0.  1.
</event>
<event>
 7    1  0.5662448E-012  0.5930194E+02  0.7816164E-02  0.1266605E+00
        -11   -1    0    0    0    0  0.00000000000E+00  0.00000000000E+00  0.45593999997E+02  0.45594000000E+02  0.51100000000E-03 0.  1.
         11   -1    0    0    0    0 -0.00000000000E+00 -0.00000000000E+00 -0.45593999997E+02  0.45594000000E+02  0.51100000000E-03 0. -1.
    9900012    2    1    2    0    0  0.24638833321E+02 -0.87654770065E+01 -0.18243221886E+02  0.59301939733E+02  0.49999992168E+02 0.  0.
         12    1    1    2    0    0 -0.24638833321E+02  0.87654770065E+01  0.18243221886E+02  0.31886060267E+02  0.00000000000E+00 0. -1.
         11    1    3    3    0    0  0.12454881510E+02 -0.61790263233E+01  0.32777189046E+01  0.14284532937E+02  0.51100000000E-03 0. -1.
        -11    1    3    3    0    0  0.22643953052E+02 -0.90194901190E+01 -0.21848554389E+02  0.32733150489E+02  0.51100000000E-03 0.  1.
         12    1    3    3    0    0 -0.10460001241E+02  0.64330394358E+01  0.32761359867E+00  0.12284256307E+02  0.00000000000E+00 0. -1.
</event>
<event>
 7    1  0.5662448E-012  0.5930194E+02  0.7816164E-02  0.1266605E+00
        -11   -1    0    0    0    0  0.00000000000E+00  0.00000000000E+00  0.45593999997E+02  0.45594000000E+02  0.51100000000E-03 0. -1.
         11   -1    0    0    0    0 -0.00000000000E+00 -0.00000000000E+00 -0.45593999997E+02  0.45594000000E+02  0.51100000000E-03 0.  1.
    9900012    2    1    2    0    0 -0.24416307883E+02 -0.20206152810E+02 -0.35037625268E+01  0.59301936370E+02  0.49999986033E+02 0.  0.
         12    1    1    2    0    0  0.24416307883E+02  0.20206152810E+02  0.35037625268E+01  0.31886063630E+02  0.00000000000E+00 0. -1.
         11    1    3    3    0    0 -0.91092398633E+01  0.70854786406E+01 -0.10278671054E+02  0.15454233639E+02  0.51100000000E-03 0. -1.
        -11    1    3    3    0    0 -0.22434394845E+02 -0.10258092517E+02  0.58905919619E+01  0.25361971691E+02  0.51100000000E-03 0.  1.
         12    1    3    3    0    0  0.71273268256E+01 -0.17033538934E+02  0.88431656544E+00  0.18485731040E+02  0.00000000000E+00 0. -1.
</event>
<event>
 7    1  0.5662448E-012  0.5930197E+02  0.7816164E-02  0.1266605E+00
        -11   -1    0    0    0    0  0.00000000000E+00  0.00000000000E+00  0.45593999997E+02  0.45594000000E+02  0.51100000000E-03 0. -1.
         11   -1    0    0    0    0 -0.00000000000E+00 -0.00000000000E+00 -0.45593999997E+02  0.45594000000E+02  0.51100000000E-03 0.  1.
    9900012    2    1    2    0    0 -0.22573814593E+02  0.67736703103E+01 -0.21476949035E+02  0.59301967719E+02  0.50000043207E+02 0.  0.
         12    1    1    2    0    0  0.22573814593E+02 -0.67736703103E+01  0.21476949035E+02  0.31886032281E+02  0.00000000000E+00 0. -1.
         11    1    3    3    0    0  0.70308362429E+01  0.53357610230E+01 -0.23083645604E+02  0.24713512470E+02  0.51100000000E-03 0. -1.
        -11    1    3    3    0    0 -0.20869803672E+01  0.48033355525E+01 -0.36344106817E+01  0.63746733836E+01  0.51100000000E-03 0.  1.
         12    1    3    3    0    0 -0.27517670469E+02 -0.33654262652E+01  0.52411072499E+01  0.28213781866E+02  0.00000000000E+00 0. -1.
</event>
<event>
 7    1  0.5662448E-012  0.5930195E+02  0.7816164E-02  0.1266605E+00
        -11   -1    0    0    0    0  0.00000000000E+00  0.00000000000E+00  0.45593999997E+02  0.45594000000E+02  0.51100000000E-03 0. -1.
         11   -1    0    0    0    0 -0.00000000000E+00 -0.00000000000E+00 -0.45593999997E+02  0.45594000000E+02  0.51100000000E-03 0.  1.
    9900012    2    1    2    0    0  0.54806233921E+01  0.71968662484E+01 -0.30575942365E+02  0.59301947123E+02  0.50000005645E+02 0.  0.
         12    1    1    2    0    0 -0.54806233921E+01 -0.71968662484E+01  0.30575942365E+02  0.31886052877E+02  0.00000000000E+00 0. -1.
         11    1    3    3    0    0 -0.64325891179E+01  0.31758979620E+01 -0.20053001014E+01  0.74488763839E+01  0.51100000000E-03 0. -1.
        -11    1    3    3    0    0  0.97108570162E+01  0.19483203212E+02 -0.28960501023E+02  0.36229912657E+02  0.51100000000E-03 0.  1.
         12    1    3    3    0    0  0.22023554939E+01 -0.15462234925E+02  0.38985875889E+00  0.15623158082E+02  0.00000000000E+00 0. -1.
</event>
<event>
 7    1  0.5662448E-012  0.5930197E+02  0.7816164E-02  0.1266605E+00
        -11   -1    0    0    0    0  0.00000000000E+00  0.00000000000E+00  0.45593999997E+02  0.45594000000E+02  0.51100000000E-03 0.  1.
         11   -1    0    0    0    0 -0.00000000000E+00 -0.00000000000E+00 -0.45593999997E+02  0.45594000000E+02  0.51100000000E-03 0. -1.
    9900012    2    1    2    0    0  0.23347207801E+02  0.21440936655E+02  0.34515119545E+01  0.59301971531E+02  0.50000050160E+02 0.  0.
         12    1    1    2    0    0 -0.23347207801E+02 -0.21440936655E+02 -0.34515119545E+01  0.31886028469E+02  0.00000000000E+00 0. -1.
         11    1    3    3    0    0 -0.88430252747E+01 -0.16325393965E+01 -0.56862447825E+01  0.10639438936E+02  0.51100000000E-03 0. -1.
        -11    1    3    3    0    0  0.44351900291E+01  0.92321467309E+01  0.13918984455E+02  0.17281249155E+02  0.51100000000E-03 0.  1.
        -12    1    3    3    0    0  0.27755043046E+02  0.13841329320E+02 -0.47812277175E+01  0.31381283440E+02  0.00000000000E+00 0.  1.
</event>
<event>
 7    1  0.5662448E-012  0.5930198E+02  0.7816164E-02  0.1266605E+00
        -11   -1    0    0    0    0  0.00000000000E+00  0.00000000000E+00  0.45593999997E+02  0.45594000000E+02  0.51100000000E-03 0. -1.
         11   -1    0    0    0    0 -0.00000000000E+00 -0.00000000000E+00 -0.45593999997E+02  0.45594000000E+02  0.51100000000E-03 0.  1.
    9900012    2    1    2    0    0 -0.10512663342E+01  0.25873211133E+02 -0.18606182410E+02  0.59301980507E+02  0.50000066529E+02 0.  0.
         12    1    1    2    0    0  0.10512663342E+01 -0.25873211133E+02  0.18606182410E+02  0.31886019493E+02  0.00000000000E+00 0. -1.
         11    1    3    3    0    0  0.22348793641E+01  0.12859425862E+02  0.59154901924E+01  0.14330127137E+02  0.51100000000E-03 0. -1.
        -11    1    3    3    0    0  0.68669485708E+01  0.22095833210E+02 -0.20101023563E+02  0.30650154591E+02  0.51100000000E-03 0.  1.
        -12    1    3    3    0    0 -0.10153094269E+02 -0.90820479387E+01 -0.44206490398E+01  0.14321698780E+02  0.00000000000E+00 0.  1.
</event>
<event>
 7    1  0.5662448E-012  0.5930198E+02  0.7816164E-02  0.1266605E+00
        -11   -1    0    0    0    0  0.00000000000E+00  0.00000000000E+00  0.45593999997E+02  0.45594000000E+02  0.51100000000E-03 0. -1.
         11   -1    0    0    0    0 -0.00000000000E+00 -0.00000000000E+00 -0.45593999997E+02  0.45594000000E+02  0.51100000000E-03 0.  1.
    9900012    2    1    2    0    0 -0.33604741707E+01 -0.27496258607E+02 -0.15791808072E+02  0.59301980709E+02  0.50000066898E+02 0.  0.
         12    1    1    2    0    0  0.33604741707E+01  0.27496258607E+02  0.15791808072E+02  0.31886019291E+02  0.00000000000E+00 0. -1.
         11    1    3    3    0    0 -0.10011477720E+02 -0.50426654979E+01 -0.11775850985E+02  0.16258192647E+02  0.51100000000E-03 0.  1.
        -11    1    3    3    0    0  0.20911245375E+02 -0.82365165958E+01 -0.44097395843E+01  0.22903410057E+02  0.51100000000E-03 0. -1.
         12    1    3    3    0    0 -0.14260241825E+02 -0.14217076514E+02  0.39378249820E+00  0.20140378005E+02  0.00000000000E+00 0. -1.
</event>
<event>
 7    1  0.5662448E-012  0.5930199E+02  0.7816164E-02  0.1266605E+00
        -11   -1    0    0    0    0  0.00000000000E+00  0.00000000000E+00  0.45593999997E+02  0.45594000000E+02  0.51100000000E-03 0. -1.
         11   -1    0    0    0    0 -0.00000000000E+00 -0.00000000000E+00 -0.45593999997E+02  0.45594000000E+02  0.51100000000E-03 0.  1.
    9900012    2    1    2    0    0 -0.53774621627E+01  0.62275265272E+01 -0.30806138849E+02  0.59301994029E+02  0.50000091191E+02 0.  0.
         12    1    1    2    0    0  0.53774621627E+01 -0.62275265272E+01  0.30806138849E+02  0.31886005971E+02  0.00000000000E+00 0. -1.
         11    1    3    3    0    0  0.38293810693E+01 -0.50308990548E+01  0.53074582134E+01  0.82548905275E+01  0.51100000000E-03 0. -1.
        -11    1    3    3    0    0 -0.89647483281E+01 -0.41810964834E+00  0.35866246786E+01  0.96646471798E+01  0.51100000000E-03 0.  1.
        -12    1    3    3    0    0 -0.24209490388E+00  0.11676535230E+02 -0.39700221741E+02  0.41382456322E+02  0.00000000000E+00 0.  1.
</event>
<event>
 7    1  0.5662448E-012  0.5930203E+02  0.7816164E-02  0.1266604E+00
        -11   -1    0    0    0    0  0.00000000000E+00  0.00000000000E+00  0.45593999997E+02  0.45594000000E+02  0.51100000000E-03 0.  1.
         11   -1    0    0    0    0 -0.00000000000E+00 -0.00000000000E+00 -0.45593999997E+02  0.45594000000E+02  0.51100000000E-03 0. -1.
    9900012    2    1    2    0    0  0.23697502620E+02 -0.10992622066E+02  0.18284021367E+02  0.59302034315E+02  0.50000164662E+02 0.  0.
         12    1    1    2    0    0 -0.23697502620E+02  0.10992622066E+02 -0.18284021367E+02  0.31885965685E+02  0.00000000000E+00 0. -1.
         11    1    3    3    0    0  0.45014104797E+01  0.57168181210E+00 -0.13167467790E+01  0.47247580618E+01  0.51100000000E-03 0. -1.
        -11    1    3    3    0    0  0.33240865902E+02 -0.76213111659E+01  0.20790608284E+02  0.39941068374E+02  0.51100000000E-03 0.  1.
         12    1    3    3    0    0 -0.14044773761E+02 -0.39429927125E+01 -0.11898401384E+01  0.14636207879E+02  0.00000000000E+00 0. -1.
</event>
<event>
 7    1  0.5662448E-012  0.5930195E+02  0.7816164E-02  0.1266605E+00
        -11   -1    0    0    0    0  0.00000000000E+00  0.00000000000E+00  0.45593999997E+02  0.45594000000E+02  0.51100000000E-03 0.  1.
         11   -1    0    0    0    0 -0.00000000000E+00 -0.00000000000E+00 -0.45593999997E+02  0.45594000000E+02  0.51100000000E-03 0. -1.
    9900012    2    1    2    0    0 -0.50916471182E+01  0.11677892290E+01  0.31455230442E+02  0.59301950947E+02  0.50000012618E+02 0.  0.
         12    1    1    2    0    0  0.50916471182E+01 -0.11677892290E+01 -0.31455230442E+02  0.31886049053E+02  0.00000000000E+00 0. -1.
         11    1    3    3    0    0  0.13562219622E+02 -0.75590596740E+01  0.31735105633E+02  0.35329734135E+02  0.51100000000E-03 0. -1.
        -11    1    3    3    0    0 -0.89091550721E+01  0.51426304670E+01  0.59302323682E+01  0.11873809348E+02  0.51100000000E-03 0.  1.
        -12    1    3    3    0    0 -0.97447116676E+01  0.35842184360E+01 -0.62101075590E+01  0.12098407464E+02  0.00000000000E+00 0.  1.
</event>
<event>
 7    1  0.5662448E-012  0.5930195E+02  0.7816164E-02  0.1266605E+00
        -11   -1    0    0    0    0  0.00000000000E+00  0.00000000000E+00  0.45593999997E+02  0.45594000000E+02  0.51100000000E-03 0.  1.
         11   -1    0    0    0    0 -0.00000000000E+00 -0.00000000000E+00 -0.45593999997E+02  0.45594000000E+02  0.51100000000E-03 0. -1.
    9900012    2    1    2    0    0  0.21408720277E+02 -0.15617170783E+02  0.17733894085E+02  0.59301947774E+02  0.50000006832E+02 0.  0.
         12    1    1    2    0    0 -0.21408720277E+02  0.15617170783E+02 -0.17733894085E+02  0.31886052226E+02  0.00000000000E+00 0. -1.
         11    1    3    3    0    0 -0.38334861280E+01  0.21379934859E+01 -0.10689438964E+02  0.11555550081E+02  0.51100000000E-03 0. -1.
        -11    1    3    3    0    0 -0.20108922268E+01 -0.88787885247E+01  0.34655620555E+01  0.97409801271E+01  0.51100000000E-03 0.  1.
         12    1    3    3    0    0  0.27253098632E+02 -0.88763757442E+01  0.24957770994E+02  0.38005417566E+02  0.00000000000E+00 0. -1.
</event>
<event>
 7    1  0.5662448E-012  0.5930195E+02  0.7816164E-02  0.1266605E+00
        -11   -1    0    0    0    0  0.00000000000E+00  0.00000000000E+00  0.45593999997E+02  0.45594000000E+02  0.51100000000E-03 0. -1.
         11   -1    0    0    0    0 -0.00000000000E+00 -0.00000000000E+00 -0.45593999997E+02  0.45594000000E+02  0.51100000000E-03 0.  1.
    9900012    2    1    2    0    0 -0.42124567334E+01  0.56934441754E+01 -0.31089552378E+02  0.59301947165E+02  0.50000005722E+02 0.  0.
         12    1    1    2    0    0  0.42124567334E+01 -0.56934441754E+01  0.31089552378E+02  0.31886052835E+02  0.00000000000E+00 0. -1.
         11    1    3    3    0    0 -0.24850372243E+01 -0.72559775587E+01 -0.18411237442E+02  0.19944881166E+02  0.51100000000E-03 0. -1.
        -11    1    3    3    0    0 -0.38460792603E+01  0.14958165983E+02 -0.23515265488E+02  0.28133730049E+02  0.51100000000E-03 0.  1.
         12    1    3    3    0    0  0.21186597511E+01 -0.20087442489E+01  0.10836950551E+02  0.11223335950E+02  0.00000000000E+00 0. -1.
</event>
<event>
 7    1  0.5662448E-012  0.5930192E+02  0.7816164E-02  0.1266605E+00
        -11   -1    0    0    0    0  0.00000000000E+00  0.00000000000E+00  0.45593999997E+02  0.45594000000E+02  0.51100000000E-03 0.  1.
         11   -1    0    0    0    0 -0.00000000000E+00 -0.00000000000E+00 -0.45593999997E+02  0.45594000000E+02  0.51100000000E-03 0. -1.
    9900012    2    1    2    0    0 -0.21110501681E+02  0.20327986049E+02  0.12563512694E+02  0.59301919193E+02  0.49999954708E+02 0.  0.
         12    1    1    2    0    0  0.21110501681E+02 -0.20327986049E+02 -0.12563512694E+02  0.31886080807E+02  0.00000000000E+00 0. -1.
         11    1    3    3    0    0 -0.10186358871E+02  0.13051997462E+02  0.60503697403E+01  0.17627351447E+02  0.51100000000E-03 0.  1.
        -11    1    3    3    0    0  0.34470262215E+01  0.11322314680E+02  0.18883320834E+02  0.22285793804E+02  0.51100000000E-03 0. -1.
         12    1    3    3    0    0 -0.14371169031E+02 -0.40463260923E+01 -0.12370177881E+02  0.19388773942E+02  0.00000000000E+00 0. -1.
</event>
<event>
 7    1  0.5662448E-012  0.5930194E+02  0.7816164E-02  0.1266605E+00
        -11   -1    0    0    0    0  0.00000000000E+00  0.00000000000E+00  0.45593999997E+02  0.45594000000E+02  0.51100000000E-03 0.  1.
         11   -1    0    0    0    0 -0.00000000000E+00 -0.00000000000E+00 -0.45593999997E+02  0.45594000000E+02  0.51100000000E-03 0. -1.
    9900012    2    1    2    0    0  0.10359900056E+02 -0.30155692120E+02 -0.16547412233E+00  0.59301942261E+02  0.49999996778E+02 0.  0.
         12    1    1    2    0    0 -0.10359900056E+02  0.30155692120E+02  0.16547412233E+00  0.31886057739E+02  0.00000000000E+00 0. -1.
         11    1    3    3    0    0  0.18040116785E+01  0.59368175426E+01 -0.13162672603E+02  0.14551845621E+02  0.51100000000E-03 0. -1.
        -11    1    3    3    0    0  0.40226617488E+01 -0.73466326109E+01 -0.57261016748E+01  0.10146085891E+02  0.51100000000E-03 0.  1.
        -12    1    3    3    0    0  0.45332266292E+01 -0.28745877052E+02  0.18723300155E+02  0.34604010748E+02  0.00000000000E+00 0.  1.
</event>
<event>
 7    1  0.5662448E-012  0.5930194E+02  0.7816164E-02  0.1266605E+00
        -11   -1    0    0    0    0  0.00000000000E+00  0.00000000000E+00  0.45593999997E+02  0.45594000000E+02  0.51100000000E-03 0.  1.
         11   -1    0    0    0    0 -0.00000000000E+00 -0.00000000000E+00 -0.45593999997E+02  0.45594000000E+02  0.51100000000E-03 0. -1.
    9900012    2    1    2    0    0  0.29622910800E+02  0.61344195327E+01  0.10078346959E+02  0.59301936827E+02  0.49999986867E+02 0.  0.
         12    1    1    2    0    0 -0.29622910800E+02 -0.61344195327E+01 -0.10078346959E+02  0.31886063173E+02  0.00000000000E+00 0. -1.
         11    1    3    3    0    0  0.14792427013E+02  0.79535595554E+00 -0.16027378372E+02  0.21824879055E+02  0.51100000000E-03 0. -1.
        -11    1    3    3    0    0  0.90754784917E+01  0.11633341880E+02  0.65513309910E+01  0.16143695090E+02  0.51100000000E-03 0.  1.
        -12    1    3    3    0    0  0.57550052951E+01 -0.62942783032E+01  0.19554394340E+02  0.21333362682E+02  0.00000000000E+00 0.  1.
</event>
<event>
 7    1  0.5662448E-012  0.5930193E+02  0.7816164E-02  0.1266605E+00
        -11   -1    0    0    0    0  0.00000000000E+00  0.00000000000E+00  0.45593999997E+02  0.45594000000E+02  0.51100000000E-03 0.  1.
         11   -1    0    0    0    0 -0.00000000000E+00 -0.00000000000E+00 -0.45593999997E+02  0.45594000000E+02  0.51100000000E-03 0. -1.
    9900012    2    1    2    0    0 -0.21111884039E+02  0.11006147103E+02  0.21210242496E+02  0.59301932377E+02  0.49999978752E+02 0.  0.
         12    1    1    2    0    0  0.21111884039E+02 -0.11006147103E+02 -0.21210242496E+02  0.31886067623E+02  0.00000000000E+00 0. -1.
         11    1    3    3    0    0  0.75755632338E+01 -0.47378130237E+01 -0.85451011410E+01  0.12363445488E+02  0.51100000000E-03 0. -1.
        -11    1    3    3    0    0 -0.14558258454E+02 -0.51154289263E+00  0.14433150834E+02  0.20506594272E+02  0.51100000000E-03 0.  1.
        -12    1    3    3    0    0 -0.14129188819E+02  0.16255503019E+02  0.15322192803E+02  0.26431892618E+02  0.00000000000E+00 0.  1.
</event>
<event>
 7    1  0.5662448E-012  0.5930193E+02  0.7816164E-02  0.1266605E+00
        -11   -1    0    0    0    0  0.00000000000E+00  0.00000000000E+00  0.45593999997E+02  0.45594000000E+02  0.51100000000E-03 0. -1.
         11   -1    0    0    0    0 -0.00000000000E+00 -0.00000000000E+00 -0.45593999997E+02  0.45594000000E+02  0.51100000000E-03 0.  1.
    9900012    2    1    2    0    0  0.23228467912E+02  0.12361713581E+02 -0.18009659203E+02  0.59301929235E+02  0.49999973022E+02 0.  0.
         12    1    1    2    0    0 -0.23228467912E+02 -0.12361713581E+02  0.18009659203E+02  0.31886070765E+02  0.00000000000E+00 0. -1.
         11    1    3    3    0    0 -0.32792848036E+01  0.15233762546E+02 -0.45666829688E+01  0.16238097909E+02  0.51100000000E-03 0. -1.
        -11    1    3    3    0    0  0.13356026898E+01  0.57813597791E+01  0.72355789698E+01  0.93574333409E+01  0.51100000000E-03 0.  1.
        -12    1    3    3    0    0  0.25172150026E+02 -0.86534087435E+01 -0.20678555204E+02  0.33706397985E+02  0.00000000000E+00 0.  1.
</event>
<event>
 7    1  0.5662448E-012  0.5930193E+02  0.7816164E-02  0.1266605E+00
        -11   -1    0    0    0    0  0.00000000000E+00  0.00000000000E+00  0.45593999997E+02  0.45594000000E+02  0.51100000000E-03 0. -1.
         11   -1    0    0    0    0 -0.00000000000E+00 -0.00000000000E+00 -0.45593999997E+02  0.45594000000E+02  0.51100000000E-03 0.  1.
    9900012    2    1    2    0    0 -0.56616045026E+01  0.31316571742E+02  0.19848793061E+01  0.59301934438E+02  0.49999982510E+02 0.  0.
         12    1    1    2    0    0  0.56616045026E+01 -0.31316571742E+02 -0.19848793061E+01  0.31886065562E+02  0.00000000000E+00 0. -1.
         11    1    3    3    0    0 -0.12822030445E+02  0.66131702534E+01  0.28265768161E+01  0.14701293219E+02  0.51100000000E-03 0. -1.
        -11    1    3    3    0    0 -0.98293215300E+01  0.13106830526E+02 -0.12814838498E+02  0.20799631107E+02  0.51100000000E-03 0.  1.
        -12    1    3    3    0    0  0.16989747473E+02  0.11596570962E+02  0.11973140988E+02  0.23801010112E+02  0.00000000000E+00 0.  1.
</event>
<event>
 7    1  0.5662448E-012  0.5930199E+02  0.7816164E-02  0.1266605E+00
        -11   -1    0    0    0    0  0.00000000000E+00  0.00000000000E+00  0.45593999997E+02  0.45594000000E+02  0.51100000000E-03 0.  1.
         11   -1    0    0    0    0 -0.00000000000E+00 -0.00000000000E+00 -0.45593999997E+02  0.45594000000E+02  0.51100000000E-03 0. -1.
    9900012    2    1    2    0    0  0.28281478759E+02 -0.19268098946E+01  0.14600097923E+02  0.59301992151E+02  0.50000087765E+02 0.  0.
         12    1    1    2    0    0 -0.28281478759E+02  0.19268098946E+01 -0.14600097923E+02  0.31886007849E+02  0.00000000000E+00 0. -1.
         11    1    3    3    0    0  0.24564038119E+02 -0.84954024139E+01  0.11506363544E+02  0.28424641302E+02  0.51100000000E-03 0.  1.
        -11    1    3    3    0    0  0.14227572715E+02  0.10915222833E+02  0.63885066585E+01  0.19036253109E+02  0.51100000000E-03 0. -1.
         12    1    3    3    0    0 -0.10510132075E+02 -0.43466303135E+01 -0.32947722792E+01  0.11841097740E+02  0.00000000000E+00 0. -1.
</event>
<event>
 7    1  0.5759248E-012  0.5930194E+02  0.7816164E-02  0.1266605E+00
        -11   -1    0    0    0    0  0.00000000000E+00  0.00000000000E+00  0.45593999997E+02  0.45594000000E+02  0.51100000000E-03 0. -1.
         11   -1    0    0    0    0 -0.00000000000E+00 -0.00000000000E+00 -0.45593999997E+02  0.45594000000E+02  0.51100000000E-03 0.  1.
    9900012    2    1    2    0    0  0.11473939594E+02  0.44526447208E+01 -0.29415019327E+02  0.59301941968E+02  0.49999996244E+02 0.  0.
         12    1    1    2    0    0 -0.11473939594E+02 -0.44526447208E+01  0.29415019327E+02  0.31886058032E+02  0.00000000000E+00 0. -1.
         11    1    3    3    0    0 -0.42712103310E+01 -0.40447316270E+00  0.58424455496E+01  0.72485175376E+01  0.51100000000E-03 0. -1.
        -11    1    3    3    0    0 -0.10951073523E+02  0.34097137727E+01 -0.12248260155E+02  0.16780108355E+02  0.51100000000E-03 0.  1.
        -12    1    3    3    0    0  0.26696223448E+02  0.14474041108E+01 -0.23009204721E+02  0.35273316076E+02  0.00000000000E+00 0.  1.
</event>
<event>
 7    1  0.5662448E-012  0.5930196E+02  0.7816164E-02  0.1266605E+00
        -11   -1    0    0    0    0  0.00000000000E+00  0.00000000000E+00  0.45593999997E+02  0.45594000000E+02  0.51100000000E-03 0.  1.
         11   -1    0    0    0    0 -0.00000000000E+00 -0.00000000000E+00 -0.45593999997E+02  0.45594000000E+02  0.51100000000E-03 0. -1.
    9900012    2    1    2    0    0  0.29014739102E+02 -0.12461159564E+02  0.44253805479E+01  0.59301959546E+02  0.50000028302E+02 0.  0.
         12    1    1    2    0    0 -0.29014739102E+02  0.12461159564E+02 -0.44253805479E+01  0.31886040454E+02  0.00000000000E+00 0. -1.
         11    1    3    3    0    0 -0.49846252195E+00 -0.66900052090E+00  0.52485496929E+01  0.53144426540E+01  0.51100000000E-03 0. -1.
        -11    1    3    3    0    0  0.27337266874E+02  0.35886266722E+01  0.15354905567E+02  0.31559111629E+02  0.51100000000E-03 0.  1.
         12    1    3    3    0    0  0.21759347497E+01 -0.15380785715E+02 -0.16178074712E+02  0.22428405263E+02  0.00000000000E+00 0. -1.
</event>
<event>
 7    1  0.5662448E-012  0.5930194E+02  0.7816164E-02  0.1266605E+00
        -11   -1    0    0    0    0  0.00000000000E+00  0.00000000000E+00  0.45593999997E+02  0.45594000000E+02  0.51100000000E-03 0. -1.
         11   -1    0    0    0    0 -0.00000000000E+00 -0.00000000000E+00 -0.45593999997E+02  0.45594000000E+02  0.51100000000E-03 0.  1.
    9900012    2    1    2    0    0 -0.43182327942E+01 -0.29865367958E+02 -0.10302105551E+02  0.59301941659E+02  0.49999995680E+02 0.  0.
         12    1    1    2    0    0  0.43182327942E+01  0.29865367958E+02  0.10302105551E+02  0.31886058341E+02  0.00000000000E+00 0. -1.
         11    1    3    3    0    0 -0.38303844698E+01 -0.20350615610E+02 -0.54321390981E+01  0.21408585575E+02  0.51100000000E-03 0. -1.
        -11    1    3    3    0    0  0.48468093599E+01 -0.19832489040E+02 -0.12553394063E+02  0.23966787128E+02  0.51100000000E-03 0.  1.
         12    1    3    3    0    0 -0.53346576843E+01  0.10317736691E+02  0.76834276106E+01  0.13926568956E+02  0.00000000000E+00 0. -1.
</event>
<event>
 7    1  0.5662448E-012  0.5930179E+02  0.7816164E-02  0.1266605E+00
        -11   -1    0    0    0    0  0.00000000000E+00  0.00000000000E+00  0.45593999997E+02  0.45594000000E+02  0.51100000000E-03 0.  1.
         11   -1    0    0    0    0 -0.00000000000E+00 -0.00000000000E+00 -0.45593999997E+02  0.45594000000E+02  0.51100000000E-03 0. -1.
    9900012    2    1    2    0    0  0.44961362408E+01  0.82127603996E+01  0.30480582478E+02  0.59301786950E+02  0.49999713527E+02 0.  0.
         12    1    1    2    0    0 -0.44961362408E+01 -0.82127603996E+01 -0.30480582478E+02  0.31886213050E+02  0.00000000000E+00 0. -1.
         11    1    3    3    0    0  0.47941355012E+01  0.11104660857E+02  0.16967547560E+02  0.20837343843E+02  0.51100000000E-03 0. -1.
        -11    1    3    3    0    0 -0.87514263456E+01 -0.73969311525E+01  0.22550689881E+02  0.25294973175E+02  0.51100000000E-03 0.  1.
         12    1    3    3    0    0  0.84534270852E+01  0.45050306951E+01 -0.90376549634E+01  0.13169469932E+02  0.00000000000E+00 0. -1.
</event>
<event>
 7    1  0.5662448E-012  0.5930197E+02  0.7816164E-02  0.1266605E+00
        -11   -1    0    0    0    0  0.00000000000E+00  0.00000000000E+00  0.45593999997E+02  0.45594000000E+02  0.51100000000E-03 0. -1.
         11   -1    0    0    0    0 -0.00000000000E+00 -0.00000000000E+00 -0.45593999997E+02  0.45594000000E+02  0.51100000000E-03 0.  1.
    9900012    2    1    2    0    0  0.14328265114E+02  0.31541078335E+01 -0.28310266313E+02  0.59301972400E+02  0.50000051744E+02 0.  0.
         12    1    1    2    0    0 -0.14328265114E+02 -0.31541078335E+01  0.28310266313E+02  0.31886027600E+02  0.00000000000E+00 0. -1.
         11    1    3    3    0    0  0.52326320478E+01  0.53269517347E+01 -0.26850567389E+02  0.27869514210E+02  0.51100000000E-03 0.  1.
        -11    1    3    3    0    0  0.16042003243E+02  0.64968256920E+01 -0.74132858421E+01  0.18828473633E+02  0.51100000000E-03 0. -1.
         12    1    3    3    0    0 -0.69463701774E+01 -0.86696695931E+01  0.59535869180E+01  0.12603984556E+02  0.00000000000E+00 0. -1.
</event>
<event>
 7    1  0.5662448E-012  0.5930199E+02  0.7816164E-02  0.1266605E+00
        -11   -1    0    0    0    0  0.00000000000E+00  0.00000000000E+00  0.45593999997E+02  0.45594000000E+02  0.51100000000E-03 0.  1.
         11   -1    0    0    0    0 -0.00000000000E+00 -0.00000000000E+00 -0.45593999997E+02  0.45594000000E+02  0.51100000000E-03 0. -1.
    9900012    2    1    2    0    0  0.22404913428E+02 -0.90705079660E+01  0.20795750228E+02  0.59301992285E+02  0.50000088010E+02 0.  0.
         12    1    1    2    0    0 -0.22404913428E+02  0.90705079660E+01 -0.20795750228E+02  0.31886007715E+02  0.00000000000E+00 0. -1.
         11    1    3    3    0    0 -0.22259026725E+01 -0.72677855034E+00 -0.44240805610E+01  0.50055308250E+01  0.51100000000E-03 0. -1.
        -11    1    3    3    0    0 -0.77483137976E+00 -0.92523002968E+01  0.27255172265E+02  0.28793225590E+02  0.51100000000E-03 0.  1.
         12    1    3    3    0    0  0.25405647480E+02  0.90857088112E+00 -0.20353414760E+01  0.25503235870E+02  0.00000000000E+00 0. -1.
</event>
<event>
 7    1  0.5662448E-012  0.5930193E+02  0.7816164E-02  0.1266605E+00
        -11   -1    0    0    0    0  0.00000000000E+00  0.00000000000E+00  0.45593999997E+02  0.45594000000E+02  0.51100000000E-03 0.  1.
         11   -1    0    0    0    0 -0.00000000000E+00 -0.00000000000E+00 -0.45593999997E+02  0.45594000000E+02  0.51100000000E-03 0. -1.
    9900012    2    1    2    0    0  0.17106788366E+02 -0.19221627261E+02  0.18831040656E+02  0.59301933216E+02  0.49999980282E+02 0.  0.
         12    1    1    2    0    0 -0.17106788366E+02  0.19221627261E+02 -0.18831040656E+02  0.31886066784E+02  0.00000000000E+00 0. -1.
         11    1    3    3    0    0  0.56357167972E+01  0.78418881523E+00  0.35815321082E+01  0.67233643676E+01  0.51100000000E-03 0. -1.
        -11    1    3    3    0    0  0.16616401844E+02 -0.31991018275E+02  0.16156769235E+02  0.39504066283E+02  0.51100000000E-03 0.  1.
         12    1    3    3    0    0 -0.51453302755E+01  0.11985202198E+02 -0.90726068723E+00  0.13074502565E+02  0.00000000000E+00 0. -1.
</event>
<event>
 7    1  0.5662448E-012  0.5930203E+02  0.7816164E-02  0.1266604E+00
        -11   -1    0    0    0    0  0.00000000000E+00  0.00000000000E+00  0.45593999997E+02  0.45594000000E+02  0.51100000000E-03 0.  1.
         11   -1    0    0    0    0 -0.00000000000E+00 -0.00000000000E+00 -0.45593999997E+02  0.45594000000E+02  0.51100000000E-03 0. -1.
    9900012    2    1    2    0    0 -0.71447998007E+01  0.93869304636E+01  0.29623515352E+02  0.59302026759E+02  0.50000150882E+02 0.  0.
         12    1    1    2    0    0  0.71447998007E+01 -0.93869304636E+01 -0.29623515352E+02  0.31885973241E+02  0.00000000000E+00 0. -1.
         11    1    3    3    0    0  0.72110096646E+01 -0.60827025731E+01  0.14003968161E+01  0.95372450152E+01  0.51100000000E-03 0. -1.
        -11    1    3    3    0    0  0.76066394125E+01 -0.55861814590E+01  0.12056938099E+02  0.15311307685E+02  0.51100000000E-03 0.  1.
        -12    1    3    3    0    0 -0.21962448878E+02  0.21055814496E+02  0.16166180437E+02  0.34453474059E+02  0.00000000000E+00 0.  1.
</event>
<event>
 7    1  0.5662448E-012  0.5930189E+02  0.7816164E-02  0.1266605E+00
        -11   -1    0    0    0    0  0.00000000000E+00  0.00000000000E+00  0.45593999997E+02  0.45594000000E+02  0.51100000000E-03 0. -1.
         11   -1    0    0    0    0 -0.00000000000E+00 -0.00000000000E+00 -0.45593999997E+02  0.45594000000E+02  0.51100000000E-03 0.  1.
    9900012    2    1    2    0    0  0.55368833251E+01  0.19877344656E+02 -0.24309632695E+02  0.59301887830E+02  0.49999897509E+02 0.  0.
         12    1    1    2    0    0 -0.55368833251E+01 -0.19877344656E+02  0.24309632695E+02  0.31886112170E+02  0.00000000000E+00 0. -1.
         11    1    3    3    0    0 -0.90585047245E+01 -0.12304740705E+01 -0.68439825009E+01  0.11419749166E+02  0.51100000000E-03 0. -1.
        -11    1    3    3    0    0  0.19548979515E+02 -0.29178751388E+01 -0.10499588938E+02  0.22381196651E+02  0.51100000000E-03 0.  1.
         12    1    3    3    0    0 -0.49535914655E+01  0.24025693866E+02 -0.69660612564E+01  0.25500942013E+02  0.00000000000E+00 0. -1.
</event>
<event>
 7    1  0.5662448E-012  0.5930196E+02  0.7816164E-02  0.1266605E+00
        -11   -1    0    0    0    0  0.00000000000E+00  0.00000000000E+00  0.45593999997E+02  0.45594000000E+02  0.51100000000E-03 0. -1.
         11   -1    0    0    0    0 -0.00000000000E+00 -0.00000000000E+00 -0.45593999997E+02  0.45594000000E+02  0.51100000000E-03 0.  1.
    9900012    2    1    2    0    0  0.62903242244E+01 -0.23136441482E+02 -0.21020381787E+02  0.59301959892E+02  0.50000028932E+02 0.  0.
         12    1    1    2    0    0 -0.62903242244E+01  0.23136441482E+02  0.21020381787E+02  0.31886040108E+02  0.00000000000E+00 0. -1.
         11    1    3    3    0    0 -0.63086719924E+01 -0.32837540155E+01  0.74586910962E+00  0.71511330383E+01  0.51100000000E-03 0. -1.
        -11    1    3    3    0    0 -0.40938482364E+01 -0.21885572483E+02  0.27364682599E+01  0.22432702358E+02  0.51100000000E-03 0.  1.
        -12    1    3    3    0    0  0.16692844453E+02  0.20328850162E+01 -0.24502719157E+02  0.29718124495E+02  0.00000000000E+00 0.  1.
</event>
<event>
 7    1  0.5662448E-012  0.5930194E+02  0.7816164E-02  0.1266605E+00
        -11   -1    0    0    0    0  0.00000000000E+00  0.00000000000E+00  0.45593999997E+02  0.45594000000E+02  0.51100000000E-03 0. -1.
         11   -1    0    0    0    0 -0.00000000000E+00 -0.00000000000E+00 -0.45593999997E+02  0.45594000000E+02  0.51100000000E-03 0.  1.
    9900012    2    1    2    0    0 -0.31663767942E+01  0.25155603463E+02 -0.19336245081E+02  0.59301941896E+02  0.49999996112E+02 0.  0.
         12    1    1    2    0    0  0.31663767942E+01 -0.25155603463E+02  0.19336245081E+02  0.31886058104E+02  0.00000000000E+00 0. -1.
         11    1    3    3    0    0 -0.82764382655E+01  0.12560154740E+01  0.41637377292E+00  0.83815495353E+01  0.51100000000E-03 0. -1.
        -11    1    3    3    0    0 -0.83409729373E+01  0.20072338383E+02  0.51694488775E+01  0.22342645315E+02  0.51100000000E-03 0.  1.
         12    1    3    3    0    0  0.13451034409E+02  0.38272496060E+01 -0.24922067731E+02  0.28577747046E+02  0.00000000000E+00 0. -1.
</event>
<event>
 7    1  0.5662448E-012  0.5930197E+02  0.7816164E-02  0.1266605E+00
        -11   -1    0    0    0    0  0.00000000000E+00  0.00000000000E+00  0.45593999997E+02  0.45594000000E+02  0.51100000000E-03 0. -1.
         11   -1    0    0    0    0 -0.00000000000E+00 -0.00000000000E+00 -0.45593999997E+02  0.45594000000E+02  0.51100000000E-03 0.  1.
    9900012    2    1    2    0    0  0.15200826982E+02  0.21205325694E+02 -0.18329980881E+02  0.59301965787E+02  0.50000039683E+02 0.  0.
         12    1    1    2    0    0 -0.15200826982E+02 -0.21205325694E+02  0.18329980881E+02  0.31886034213E+02  0.00000000000E+00 0. -1.
         11    1    3    3    0    0  0.67916420226E+01  0.15163281659E+02 -0.22443218577E+02  0.27923996354E+02  0.51100000000E-03 0. -1.
        -11    1    3    3    0    0 -0.90132744976E+01 -0.34798626686E+01  0.60966829540E+01  0.11424452051E+02  0.51100000000E-03 0.  1.
         12    1    3    3    0    0  0.17422459457E+02  0.95219067032E+01 -0.19834452585E+01  0.19953517381E+02  0.00000000000E+00 0. -1.
</event>
<event>
 7    1  0.5662448E-012  0.5930191E+02  0.7816164E-02  0.1266605E+00
        -11   -1    0    0    0    0  0.00000000000E+00  0.00000000000E+00  0.45593999997E+02  0.45594000000E+02  0.51100000000E-03 0.  1.
         11   -1    0    0    0    0 -0.00000000000E+00 -0.00000000000E+00 -0.45593999997E+02  0.45594000000E+02  0.51100000000E-03 0. -1.
    9900012    2    1    2    0    0  0.25290465169E+02  0.13180065365E+01  0.19374668702E+02  0.59301912799E+02  0.49999943045E+02 0.  0.
         12    1    1    2    0    0 -0.25290465169E+02 -0.13180065365E+01 -0.19374668702E+02  0.31886087201E+02  0.00000000000E+00 0. -1.
         11    1    3    3    0    0 -0.49778120185E+01  0.46257536586E+01  0.72683065239E+01  0.99500999687E+01  0.51100000000E-03 0. -1.
        -11    1    3    3    0    0  0.27504301935E+02  0.12875119816E+02  0.28428769424E+01  0.30501430864E+02  0.51100000000E-03 0.  1.
         12    1    3    3    0    0  0.27639752527E+01 -0.16182866938E+02  0.92634852361E+01  0.18850381966E+02  0.00000000000E+00 0. -1.
</event>
<event>
 7    1  0.5662448E-012  0.5930195E+02  0.7816164E-02  0.1266605E+00
        -11   -1    0    0    0    0  0.00000000000E+00  0.00000000000E+00  0.45593999997E+02  0.45594000000E+02  0.51100000000E-03 0. -1.
         11   -1    0    0    0    0 -0.00000000000E+00 -0.00000000000E+00 -0.45593999997E+02  0.45594000000E+02  0.51100000000E-03 0.  1.
    9900012    2    1    2    0    0 -0.16287452021E+02  0.78500241892E+01 -0.26264353186E+02  0.59301949423E+02  0.50000009840E+02 0.  0.
         12    1    1    2    0    0  0.16287452021E+02 -0.78500241892E+01  0.26264353186E+02  0.31886050577E+02  0.00000000000E+00 0. -1.
         11    1    3    3    0    0  0.37181256226E+01 -0.53468400219E+01  0.17265905840E+01  0.67375271184E+01  0.51100000000E-03 0. -1.
        -11    1    3    3    0    0 -0.24939957240E+02 -0.11917190436E+00 -0.48407238060E+01  0.25405674097E+02  0.51100000000E-03 0.  1.
         12    1    3    3    0    0  0.49343795973E+01  0.13316036115E+02 -0.23150219964E+02  0.27158748208E+02  0.00000000000E+00 0. -1.
</event>
<event>
 7    1  0.5662448E-012  0.5930194E+02  0.7816164E-02  0.1266605E+00
        -11   -1    0    0    0    0  0.00000000000E+00  0.00000000000E+00  0.45593999997E+02  0.45594000000E+02  0.51100000000E-03 0.  1.
         11   -1    0    0    0    0 -0.00000000000E+00 -0.00000000000E+00 -0.45593999997E+02  0.45594000000E+02  0.51100000000E-03 0. -1.
    9900012    2    1    2    0    0  0.23554181197E+02  0.18696444103E+02  0.10600209977E+02  0.59301938382E+02  0.49999989704E+02 0.  0.
         12    1    1    2    0    0 -0.23554181197E+02 -0.18696444103E+02 -0.10600209977E+02  0.31886061618E+02  0.00000000000E+00 0. -1.
         11    1    3    3    0    0  0.16977287579E+02 -0.10634446449E+02  0.69738702670E+01  0.21212133593E+02  0.51100000000E-03 0. -1.
        -11    1    3    3    0    0  0.12790147500E+02  0.83417399982E+01  0.52321882572E+01  0.16141508402E+02  0.51100000000E-03 0.  1.
        -12    1    3    3    0    0 -0.62132538823E+01  0.20989150553E+02 -0.16058485471E+01  0.21948296387E+02  0.00000000000E+00 0.  1.
</event>
<event>
 7    1  0.5662448E-012  0.5930194E+02  0.7816164E-02  0.1266605E+00
        -11   -1    0    0    0    0  0.00000000000E+00  0.00000000000E+00  0.45593999997E+02  0.45594000000E+02  0.51100000000E-03 0.  1.
         11   -1    0    0    0    0 -0.00000000000E+00 -0.00000000000E+00 -0.45593999997E+02  0.45594000000E+02  0.51100000000E-03 0. -1.
    9900012    2    1    2    0    0 -0.74360058415E+01 -0.24984166296E+02  0.18363492564E+02  0.59301943368E+02  0.49999998796E+02 0.  0.
         12    1    1    2    0    0  0.74360058415E+01  0.24984166296E+02 -0.18363492564E+02  0.31886056632E+02  0.00000000000E+00 0. -1.
         11    1    3    3    0    0  0.56281409184E+01 -0.17414036383E+02 -0.94211817610E+01  0.20583568675E+02  0.51100000000E-03 0. -1.
        -11    1    3    3    0    0  0.59564705328E+01 -0.29895401892E+01  0.11373329594E+02  0.13182166668E+02  0.51100000000E-03 0.  1.
        -12    1    3    3    0    0 -0.19020617293E+02 -0.45805897240E+01  0.16411344732E+02  0.25536208025E+02  0.00000000000E+00 0.  1.
</event>
<event>
 7    1  0.5662448E-012  0.5930193E+02  0.7816164E-02  0.1266605E+00
        -11   -1    0    0    0    0  0.00000000000E+00  0.00000000000E+00  0.45593999997E+02  0.45594000000E+02  0.51100000000E-03 0.  1.
         11   -1    0    0    0    0 -0.00000000000E+00 -0.00000000000E+00 -0.45593999997E+02  0.45594000000E+02  0.51100000000E-03 0. -1.
    9900012    2    1    2    0    0 -0.13263185681E+02 -0.27458276273E+01  0.28866418227E+02  0.59301925218E+02  0.49999965695E+02 0.  0.
         12    1    1    2    0    0  0.13263185681E+02  0.27458276273E+01 -0.28866418227E+02  0.31886074782E+02  0.00000000000E+00 0. -1.
         11    1    3    3    0    0 -0.65310312207E+01  0.56905536406E+01 -0.12922006230E+02  0.15556831773E+02  0.51100000000E-03 0. -1.
        -11    1    3    3    0    0  0.10974445371E+01 -0.15580588607E+01  0.27944485231E+01  0.33824362130E+01  0.51100000000E-03 0.  1.
        -12    1    3    3    0    0 -0.78295989970E+01 -0.68783224071E+01  0.38993975935E+02  0.40362657231E+02  0.00000000000E+00 0.  1.
</event>
<event>
 7    1  0.5662448E-012  0.5930192E+02  0.7816164E-02  0.1266605E+00
        -11   -1    0    0    0    0  0.00000000000E+00  0.00000000000E+00  0.45593999997E+02  0.45594000000E+02  0.51100000000E-03 0. -1.
         11   -1    0    0    0    0 -0.00000000000E+00 -0.00000000000E+00 -0.45593999997E+02  0.45594000000E+02  0.51100000000E-03 0.  1.
    9900012    2    1    2    0    0 -0.15902501825E+02  0.18691630585E+02 -0.20358182051E+02  0.59301918481E+02  0.49999953408E+02 0.  0.
         12    1    1    2    0    0  0.15902501825E+02 -0.18691630585E+02  0.20358182051E+02  0.31886081519E+02  0.00000000000E+00 0. -1.
         11    1    3    3    0    0  0.16069081779E+01 -0.42483425619E+01 -0.13523040461E+02  0.14265454496E+02  0.51100000000E-03 0.  1.
        -11    1    3    3    0    0  0.36736657654E+01 -0.49239961906E+01  0.51739004803E+01  0.80318618689E+01  0.51100000000E-03 0. -1.
         12    1    3    3    0    0 -0.21183075768E+02  0.27863969338E+02 -0.12009042070E+02  0.37004602115E+02  0.00000000000E+00 0. -1.
</event>
<event>
 7    1  0.5662448E-012  0.5930196E+02  0.7816164E-02  0.1266605E+00
        -11   -1    0    0    0    0  0.00000000000E+00  0.00000000000E+00  0.45593999997E+02  0.45594000000E+02  0.51100000000E-03 0.  1.
         11   -1    0    0    0    0 -0.00000000000E+00 -0.00000000000E+00 -0.45593999997E+02  0.45594000000E+02  0.51100000000E-03 0. -1.
    9900012    2    1    2    0    0  0.48145112120E+01  0.29214434848E+02  0.11834572783E+02  0.59301955488E+02  0.50000020900E+02 0.  0.
         12    1    1    2    0    0 -0.48145112120E+01 -0.29214434848E+02 -0.11834572783E+02  0.31886044512E+02  0.00000000000E+00 0. -1.
         11    1    3    3    0    0  0.12531932154E+02  0.31014231861E+02  0.49448583288E+01  0.33813954599E+02  0.51100000000E-03 0. -1.
        -11    1    3    3    0    0  0.74238293764E+01  0.22093042514E+01  0.60037060894E+01  0.97999364770E+01  0.51100000000E-03 0.  1.
        -12    1    3    3    0    0 -0.15141250319E+02 -0.40091012648E+01  0.88600836433E+00  0.15688064412E+02  0.00000000000E+00 0.  1.
</event>
<event>
 7    1  0.5662448E-012  0.5930193E+02  0.7816164E-02  0.1266605E+00
        -11   -1    0    0    0    0  0.00000000000E+00  0.00000000000E+00  0.45593999997E+02  0.45594000000E+02  0.51100000000E-03 0. -1.
         11   -1    0    0    0    0 -0.00000000000E+00 -0.00000000000E+00 -0.45593999997E+02  0.45594000000E+02  0.51100000000E-03 0.  1.
    9900012    2    1    2    0    0 -0.20454568050E+02  0.12195076031E+02 -0.21204066821E+02  0.59301926500E+02  0.49999968033E+02 0.  0.
         12    1    1    2    0    0  0.20454568050E+02 -0.12195076031E+02  0.21204066821E+02  0.31886073500E+02  0.00000000000E+00 0. -1.
         11    1    3    3    0    0 -0.11963675819E+02  0.60845500538E+01 -0.21416672981E+02  0.25274991004E+02  0.51100000000E-03 0. -1.
        -11    1    3    3    0    0  0.11700967766E+02 -0.33773926972E+00 -0.40869222674E+01  0.12398776083E+02  0.51100000000E-03 0.  1.
         12    1    3    3    0    0 -0.20191859998E+02  0.64482652470E+01  0.42995284274E+01  0.21628159412E+02  0.00000000000E+00 0. -1.
</event>
<event>
 7    1  0.5662448E-012  0.5930193E+02  0.7816164E-02  0.1266605E+00
        -11   -1    0    0    0    0  0.00000000000E+00  0.00000000000E+00  0.45593999997E+02  0.45594000000E+02  0.51100000000E-03 0.  1.
         11   -1    0    0    0    0 -0.00000000000E+00 -0.00000000000E+00 -0.45593999997E+02  0.45594000000E+02  0.51100000000E-03 0. -1.
    9900012    2    1    2    0    0  0.19704414168E+02 -0.75725345924E+01  0.23898000087E+02  0.59301927397E+02  0.49999969670E+02 0.  0.
         12    1    1    2    0    0 -0.19704414168E+02  0.75725345924E+01 -0.23898000087E+02  0.31886072603E+02  0.00000000000E+00 0. -1.
         11    1    3    3    0    0 -0.11786939431E+02 -0.16081558899E+01 -0.58880377364E+00  0.11910700931E+02  0.51100000000E-03 0. -1.
        -11    1    3    3    0    0 -0.22969617371E+01 -0.11502113795E+01  0.99821337540E+01  0.10307376678E+02  0.51100000000E-03 0.  1.
         12    1    3    3    0    0  0.33788315336E+02 -0.48141673230E+01  0.14504670107E+02  0.37083849789E+02  0.00000000000E+00 0. -1.
</event>
<event>
 7    1  0.6253155E-012  0.5930195E+02  0.7816164E-02  0.1266605E+00
        -11   -1    0    0    0    0  0.00000000000E+00  0.00000000000E+00  0.45593999997E+02  0.45594000000E+02  0.51100000000E-03 0. -1.
         11   -1    0    0    0    0 -0.00000000000E+00 -0.00000000000E+00 -0.45593999997E+02  0.45594000000E+02  0.51100000000E-03 0.  1.
    9900012    2    1    2    0    0 -0.21172374148E+01 -0.25240280414E+02 -0.19369203466E+02  0.59301945171E+02  0.50000002085E+02 0.  0.
         12    1    1    2    0    0  0.21172374148E+01  0.25240280414E+02  0.19369203466E+02  0.31886054829E+02  0.00000000000E+00 0. -1.
         11    1    3    3    0    0  0.36678547970E+01 -0.12965783788E+02  0.12397750521E+02  0.18310350251E+02  0.51100000000E-03 0. -1.
        -11    1    3    3    0    0  0.63506669062E+01  0.43782130586E+00 -0.16593981639E+02  0.17773094399E+02  0.51100000000E-03 0.  1.
        -12    1    3    3    0    0 -0.12135759118E+02 -0.12712317931E+02 -0.15172972348E+02  0.23218500521E+02  0.00000000000E+00 0.  1.
</event>
<event>
 7    1  0.5662448E-012  0.5930196E+02  0.7816164E-02  0.1266605E+00
        -11   -1    0    0    0    0  0.00000000000E+00  0.00000000000E+00  0.45593999997E+02  0.45594000000E+02  0.51100000000E-03 0. -1.
         11   -1    0    0    0    0 -0.00000000000E+00 -0.00000000000E+00 -0.45593999997E+02  0.45594000000E+02  0.51100000000E-03 0.  1.
    9900012    2    1    2    0    0 -0.20702054686E+02  0.22205897686E+02 -0.97489730709E+01  0.59301961735E+02  0.50000032295E+02 0.  0.
         12    1    1    2    0    0  0.20702054686E+02 -0.22205897686E+02  0.97489730709E+01  0.31886038265E+02  0.00000000000E+00 0. -1.
         11    1    3    3    0    0  0.53013893115E+00  0.25023461983E+02  0.10423827765E+02  0.27112928327E+02  0.51100000000E-03 0. -1.
        -11    1    3    3    0    0 -0.89658607676E+01 -0.27074756131E+01 -0.98795155128E+00  0.94177031185E+01  0.51100000000E-03 0.  1.
        -12    1    3    3    0    0 -0.12266332850E+02 -0.11008868384E+00 -0.19184849285E+02  0.22771330290E+02  0.00000000000E+00 0.  1.
</event>
<event>
 7    1  0.5662448E-012  0.5930193E+02  0.7816164E-02  0.1266605E+00
        -11   -1    0    0    0    0  0.00000000000E+00  0.00000000000E+00  0.45593999997E+02  0.45594000000E+02  0.51100000000E-03 0.  1.
         11   -1    0    0    0    0 -0.00000000000E+00 -0.00000000000E+00 -0.45593999997E+02  0.45594000000E+02  0.51100000000E-03 0. -1.
    9900012    2    1    2    0    0 -0.11426417012E+02 -0.74492881511E+01  0.28821289117E+02  0.59301927711E+02  0.49999970242E+02 0.  0.
         12    1    1    2    0    0  0.11426417012E+02  0.74492881511E+01 -0.28821289117E+02  0.31886072289E+02  0.00000000000E+00 0. -1.
         11    1    3    3    0    0 -0.15040219852E+02 -0.16679064804E+02  0.29187589925E+02  0.36828179725E+02  0.51100000000E-03 0. -1.
        -11    1    3    3    0    0  0.25288674054E+01  0.11576850982E+01  0.93734388907E+01  0.97773596660E+01  0.51100000000E-03 0.  1.
         12    1    3    3    0    0  0.10849354338E+01  0.80720915549E+01 -0.97397396992E+01  0.12696388320E+02  0.00000000000E+00 0. -1.
</event>
<event>
 7    1  0.5662448E-012  0.5930196E+02  0.7816164E-02  0.1266605E+00
        -11   -1    0    0    0    0  0.00000000000E+00  0.00000000000E+00  0.45593999997E+02  0.45594000000E+02  0.51100000000E-03 0.  1.
         11   -1    0    0    0    0 -0.00000000000E+00 -0.00000000000E+00 -0.45593999997E+02  0.45594000000E+02  0.51100000000E-03 0. -1.
    9900012    2    1    2    0    0 -0.21855820719E+02 -0.21551150170E+02  0.86365979956E+01  0.59301956064E+02  0.50000021952E+02 0.  0.
         12    1    1    2    0    0  0.21855820719E+02  0.21551150170E+02 -0.86365979956E+01  0.31886043936E+02  0.00000000000E+00 0. -1.
         11    1    3    3    0    0 -0.11579490439E+02  0.85571243801E+01  0.62238334686E+00  0.14411673663E+02  0.51100000000E-03 0. -1.
        -11    1    3    3    0    0 -0.84555417286E+01 -0.26284729476E+02  0.18732289059E+02  0.33365878427E+02  0.51100000000E-03 0.  1.
         12    1    3    3    0    0 -0.18207885516E+01 -0.38235450735E+01 -0.10718074411E+02  0.11524403974E+02  0.00000000000E+00 0. -1.
</event>
<event>
 7    1  0.5662448E-012  0.5930193E+02  0.7816164E-02  0.1266605E+00
        -11   -1    0    0    0    0  0.00000000000E+00  0.00000000000E+00  0.45593999997E+02  0.45594000000E+02  0.51100000000E-03 0. -1.
         11   -1    0    0    0    0 -0.00000000000E+00 -0.00000000000E+00 -0.45593999997E+02  0.45594000000E+02  0.51100000000E-03 0.  1.
    9900012    2    1    2    0    0  0.17294887452E+02  0.20937822354E+02 -0.16709754539E+02  0.59301930414E+02  0.49999975172E+02 0.  0.
         12    1    1    2    0    0 -0.17294887452E+02 -0.20937822354E+02  0.16709754539E+02  0.31886069586E+02  0.00000000000E+00 0. -1.
         11    1    3    3    0    0 -0.53096154234E+01  0.10052304689E+02 -0.24450156504E+01  0.11628368213E+02  0.51100000000E-03 0. -1.
        -11    1    3    3    0    0  0.69960826512E+01  0.23534658913E+02 -0.12374051012E+02  0.27494408183E+02  0.51100000000E-03 0.  1.
         12    1    3    3    0    0  0.15608420224E+02 -0.12649141249E+02 -0.18906878769E+01  0.20179154018E+02  0.00000000000E+00 0. -1.
</event>
<event>
 7    1  0.5662448E-012  0.5930195E+02  0.7816164E-02  0.1266605E+00
        -11   -1    0    0    0    0  0.00000000000E+00  0.00000000000E+00  0.45593999997E+02  0.45594000000E+02  0.51100000000E-03 0.  1.
         11   -1    0    0    0    0 -0.00000000000E+00 -0.00000000000E+00 -0.45593999997E+02  0.45594000000E+02  0.51100000000E-03 0. -1.
    9900012    2    1    2    0    0 -0.68540181085E+01 -0.25859640857E+02  0.17349978278E+02  0.59301947630E+02  0.50000006570E+02 0.  0.
         12    1    1    2    0    0  0.68540181085E+01  0.25859640857E+02 -0.17349978278E+02  0.31886052370E+02  0.00000000000E+00 0. -1.
         11    1    3    3    0    0 -0.58695689581E+01 -0.57780299225E+01  0.21338413601E+02  0.22872808416E+02  0.51100000000E-03 0.  1.
        -11    1    3    3    0    0  0.84150434358E+01 -0.43473139397E+01  0.96971101818E+01  0.13555295668E+02  0.51100000000E-03 0. -1.
         12    1    3    3    0    0 -0.93994925862E+01 -0.15734296995E+02 -0.13685545505E+02  0.22873843546E+02  0.00000000000E+00 0. -1.
</event>
<event>
 7    1  0.5662448E-012  0.5930196E+02  0.7816164E-02  0.1266605E+00
        -11   -1    0    0    0    0  0.00000000000E+00  0.00000000000E+00  0.45593999997E+02  0.45594000000E+02  0.51100000000E-03 0.  1.
         11   -1    0    0    0    0 -0.00000000000E+00 -0.00000000000E+00 -0.45593999997E+02  0.45594000000E+02  0.51100000000E-03 0. -1.
    9900012    2    1    2    0    0  0.14745198262E+02  0.27368334449E+02 -0.70903526729E+01  0.59301957547E+02  0.50000024656E+02 0.  0.
         12    1    1    2    0    0 -0.14745198262E+02 -0.27368334449E+02  0.70903526729E+01  0.31886042453E+02  0.00000000000E+00 0. -1.
         11    1    3    3    0    0 -0.84803066042E+00 -0.32333515683E+01 -0.11336663603E+02  0.11819207261E+02  0.51100000000E-03 0. -1.
        -11    1    3    3    0    0 -0.74473764671E+01 -0.16757852307E+01  0.54318710891E+00  0.76528899691E+01  0.51100000000E-03 0.  1.
        -12    1    3    3    0    0  0.23040605389E+02  0.32277471248E+02  0.37031238212E+01  0.39829860317E+02  0.00000000000E+00 0.  1.
</event>
<event>
 7    1  0.5662448E-012  0.5930196E+02  0.7816164E-02  0.1266605E+00
        -11   -1    0    0    0    0  0.00000000000E+00  0.00000000000E+00  0.45593999997E+02  0.45594000000E+02  0.51100000000E-03 0. -1.
         11   -1    0    0    0    0 -0.00000000000E+00 -0.00000000000E+00 -0.45593999997E+02  0.45594000000E+02  0.51100000000E-03 0.  1.
    9900012    2    1    2    0    0  0.29458250332E+02  0.10081262052E+02  0.68774197221E+01  0.59301964510E+02  0.50000037355E+02 0.  0.
         12    1    1    2    0    0 -0.29458250332E+02 -0.10081262052E+02 -0.68774197221E+01  0.31886035490E+02  0.00000000000E+00 0. -1.
         11    1    3    3    0    0  0.23148597952E+02  0.12155489916E+02  0.11545624728E+02  0.28581724456E+02  0.51100000000E-03 0. -1.
        -11    1    3    3    0    0  0.15011377278E+02 -0.35000618774E+01 -0.11773456893E+02  0.19396034863E+02  0.51100000000E-03 0.  1.
        -12    1    3    3    0    0 -0.87017248977E+01  0.14258340140E+01  0.71052518877E+01  0.11324205191E+02  0.00000000000E+00 0.  1.
</event>
<event>
 7    1  0.5662448E-012  0.5930205E+02  0.7816164E-02  0.1266604E+00
        -11   -1    0    0    0    0  0.00000000000E+00  0.00000000000E+00  0.45593999997E+02  0.45594000000E+02  0.51100000000E-03 0.  1.
         11   -1    0    0    0    0 -0.00000000000E+00 -0.00000000000E+00 -0.45593999997E+02  0.45594000000E+02  0.51100000000E-03 0. -1.
    9900012    2    1    2    0    0  0.13082995943E+02 -0.88149116325E+01  0.27710043164E+02  0.59302047888E+02  0.50000189415E+02 0.  0.
         12    1    1    2    0    0 -0.13082995943E+02  0.88149116325E+01 -0.27710043164E+02  0.31885952112E+02  0.00000000000E+00 0. -1.
         11    1    3    3    0    0  0.85256477764E+01 -0.20094698344E+02 -0.35595919860E+01  0.22116832208E+02  0.51100000000E-03 0. -1.
        -11    1    3    3    0    0 -0.28504776684E+01  0.46175072640E+00 -0.39397066155E+00  0.29143866962E+01  0.51100000000E-03 0.  1.
        -12    1    3    3    0    0  0.74078258347E+01  0.10818035986E+02  0.31663605812E+02  0.34270828983E+02  0.00000000000E+00 0.  1.
</event>
<event>
 7    1  0.5662448E-012  0.5930195E+02  0.7816164E-02  0.1266605E+00
        -11   -1    0    0    0    0  0.00000000000E+00  0.00000000000E+00  0.45593999997E+02  0.45594000000E+02  0.51100000000E-03 0. -1.
         11   -1    0    0    0    0 -0.00000000000E+00 -0.00000000000E+00 -0.45593999997E+02  0.45594000000E+02  0.51100000000E-03 0.  1.
    9900012    2    1    2    0    0 -0.20940409686E+02 -0.14333525403E+02 -0.19307238749E+02  0.59301950129E+02  0.50000011127E+02 0.  0.
         12    1    1    2    0    0  0.20940409686E+02  0.14333525403E+02  0.19307238749E+02  0.31886049871E+02  0.00000000000E+00 0. -1.
         11    1    3    3    0    0 -0.96980907921E+00  0.33680701095E+00  0.28644276452E+01  0.30428464648E+01  0.51100000000E-03 0.  1.
        -11    1    3    3    0    0  0.79261510640E+01  0.11117216964E+02 -0.70960756196E+01  0.15387354327E+02  0.51100000000E-03 0. -1.
        -12    1    3    3    0    0 -0.27896751670E+02 -0.25787549378E+02 -0.15075590774E+02  0.40871749337E+02  0.00000000000E+00 0.  1.
</event>
<event>
 7    1  0.5662448E-012  0.5930195E+02  0.7816164E-02  0.1266605E+00
        -11   -1    0    0    0    0  0.00000000000E+00  0.00000000000E+00  0.45593999997E+02  0.45594000000E+02  0.51100000000E-03 0.  1.
         11   -1    0    0    0    0 -0.00000000000E+00 -0.00000000000E+00 -0.45593999997E+02  0.45594000000E+02  0.51100000000E-03 0. -1.
    9900012    2    1    2    0    0  0.65533130997E+01  0.24082471804E+02  0.19844621392E+02  0.59301947266E+02  0.50000005906E+02 0.  0.
         12    1    1    2    0    0 -0.65533130997E+01 -0.24082471804E+02 -0.19844621392E+02  0.31886052734E+02  0.00000000000E+00 0. -1.
         11    1    3    3    0    0  0.30869939428E+01 -0.10563804594E+01 -0.35594931768E+01  0.48286088280E+01  0.51100000000E-03 0. -1.
        -11    1    3    3    0    0  0.18884057417E+00  0.23963034911E+02 -0.61294192898E+01  0.24735247806E+02  0.51100000000E-03 0.  1.
         12    1    3    3    0    0  0.32774785827E+01  0.11758173520E+01  0.29533533858E+02  0.29738090633E+02  0.00000000000E+00 0. -1.
</event>
<event>
 7    1  0.5662448E-012  0.5930195E+02  0.7816164E-02  0.1266605E+00
        -11   -1    0    0    0    0  0.00000000000E+00  0.00000000000E+00  0.45593999997E+02  0.45594000000E+02  0.51100000000E-03 0.  1.
         11   -1    0    0    0    0 -0.00000000000E+00 -0.00000000000E+00 -0.45593999997E+02  0.45594000000E+02  0.51100000000E-03 0. -1.
    9900012    2    1    2    0    0 -0.24633276078E+02 -0.33463567842E+01  0.19968070509E+02  0.59301949226E+02  0.50000009481E+02 0.  0.
         12    1    1    2    0    0  0.24633276078E+02  0.33463567842E+01 -0.19968070509E+02  0.31886050774E+02  0.00000000000E+00 0. -1.
         11    1    3    3    0    0 -0.20512096648E+02 -0.82701588388E+01 -0.75875942417E+00  0.22129558338E+02  0.51100000000E-03 0. -1.
        -11    1    3    3    0    0 -0.78442413884E+01 -0.67156463186E+01  0.22564037507E+02  0.24814669397E+02  0.51100000000E-03 0.  1.
         12    1    3    3    0    0  0.37230619582E+01  0.11639448373E+02 -0.18372075730E+01  0.12357721491E+02  0.00000000000E+00 0. -1.
</event>
<event>
 7    1  0.5662448E-012  0.5930195E+02  0.7816164E-02  0.1266605E+00
        -11   -1    0    0    0    0  0.00000000000E+00  0.00000000000E+00  0.45593999997E+02  0.45594000000E+02  0.51100000000E-03 0.  1.
         11   -1    0    0    0    0 -0.00000000000E+00 -0.00000000000E+00 -0.45593999997E+02  0.45594000000E+02  0.51100000000E-03 0. -1.
    9900012    2    1    2    0    0 -0.21691378521E+02  0.40827375427E+01  0.23011644464E+02  0.59301946169E+02  0.50000003905E+02 0.  0.
         12    1    1    2    0    0  0.21691378521E+02 -0.40827375427E+01 -0.23011644464E+02  0.31886053831E+02  0.00000000000E+00 0. -1.
         11    1    3    3    0    0  0.84916458738E+01  0.71205903397E+01  0.77792547375E+01  0.13539854540E+02  0.51100000000E-03 0. -1.
        -11    1    3    3    0    0 -0.32437878114E+01  0.56886088870E+01  0.16152839315E+02  0.17429763298E+02  0.51100000000E-03 0.  1.
        -12    1    3    3    0    0 -0.26939236583E+02 -0.87264616841E+01 -0.92044958793E+00  0.28332328331E+02  0.00000000000E+00 0.  1.
</event>
<event>
 7    1  0.5662448E-012  0.5930195E+02  0.7816164E-02  0.1266605E+00
        -11   -1    0    0    0    0  0.00000000000E+00  0.00000000000E+00  0.45593999997E+02  0.45594000000E+02  0.51100000000E-03 0. -1.
         11   -1    0    0    0    0 -0.00000000000E+00 -0.00000000000E+00 -0.45593999997E+02  0.45594000000E+02  0.51100000000E-03 0.  1.
    9900012    2    1    2    0    0  0.23558612254E+02  0.61417773274E+01 -0.20591036583E+02  0.59301946189E+02  0.50000003941E+02 0.  0.
         12    1    1    2    0    0 -0.23558612254E+02 -0.61417773274E+01  0.20591036583E+02  0.31886053811E+02  0.00000000000E+00 0. -1.
         11    1    3    3    0    0  0.45984765714E+01 -0.30974364795E+01  0.51806333493E+01  0.75880868263E+01  0.51100000000E-03 0. -1.
        -11    1    3    3    0    0  0.28783666929E+02  0.11318094859E+02 -0.90790690697E+01  0.32233961105E+02  0.51100000000E-03 0.  1.
         12    1    3    3    0    0 -0.98235312456E+01 -0.20788810519E+01 -0.16692600863E+02  0.19479898257E+02  0.00000000000E+00 0. -1.
</event>
<event>
 7    1  0.5662448E-012  0.5930196E+02  0.7816164E-02  0.1266605E+00
        -11   -1    0    0    0    0  0.00000000000E+00  0.00000000000E+00  0.45593999997E+02  0.45594000000E+02  0.51100000000E-03 0.  1.
         11   -1    0    0    0    0 -0.00000000000E+00 -0.00000000000E+00 -0.45593999997E+02  0.45594000000E+02  0.51100000000E-03 0. -1.
    9900012    2    1    2    0    0  0.18735115090E+02  0.13581246762E+01  0.25765680334E+02  0.59301963509E+02  0.50000035529E+02 0.  0.
         12    1    1    2    0    0 -0.18735115090E+02 -0.13581246762E+01 -0.25765680334E+02  0.31886036491E+02  0.00000000000E+00 0. -1.
         11    1    3    3    0    0 -0.55814792492E+00  0.74195162214E+01  0.13261249016E+02  0.15205968426E+02  0.51100000000E-03 0. -1.
        -11    1    3    3    0    0  0.21041706464E+02 -0.34851792351E+01  0.24045892188E+02  0.32141947928E+02  0.51100000000E-03 0.  1.
         12    1    3    3    0    0 -0.17484434490E+01 -0.25762123102E+01 -0.11541460870E+02  0.11954047155E+02  0.00000000000E+00 0. -1.
</event>
<event>
 7    1  0.5662448E-012  0.5930196E+02  0.7816164E-02  0.1266605E+00
        -11   -1    0    0    0    0  0.00000000000E+00  0.00000000000E+00  0.45593999997E+02  0.45594000000E+02  0.51100000000E-03 0. -1.
         11   -1    0    0    0    0 -0.00000000000E+00 -0.00000000000E+00 -0.45593999997E+02  0.45594000000E+02  0.51100000000E-03 0.  1.
    9900012    2    1    2    0    0 -0.21792769785E+02 -0.19155089091E+02  0.13224126931E+02  0.59301956249E+02  0.50000022289E+02 0.  0.
         12    1    1    2    0    0  0.21792769785E+02  0.19155089091E+02 -0.13224126931E+02  0.31886043751E+02  0.00000000000E+00 0. -1.
         11    1    3    3    0    0 -0.14827819928E+02 -0.45473322468E+01  0.15324935074E+02  0.21803580203E+02  0.51100000000E-03 0.  1.
        -11    1    3    3    0    0  0.45847271422E+01  0.17441069344E+01  0.12031659522E+02  0.12993169862E+02  0.51100000000E-03 0. -1.
        -12    1    3    3    0    0 -0.11549676999E+02 -0.16351863779E+02 -0.14132467665E+02  0.24505206184E+02  0.00000000000E+00 0.  1.
</event>
<event>
 7    1  0.5662448E-012  0.5930196E+02  0.7816164E-02  0.1266605E+00
        -11   -1    0    0    0    0  0.00000000000E+00  0.00000000000E+00  0.45593999997E+02  0.45594000000E+02  0.51100000000E-03 0.  1.
         11   -1    0    0    0    0 -0.00000000000E+00 -0.00000000000E+00 -0.45593999997E+02  0.45594000000E+02  0.51100000000E-03 0. -1.
    9900012    2    1    2    0    0  0.77987414163E+01 -0.29365518792E+02 -0.96729390080E+01  0.59301955864E+02  0.50000021586E+02 0.  0.
         12    1    1    2    0    0 -0.77987414163E+01  0.29365518792E+02  0.96729390080E+01  0.31886044136E+02  0.00000000000E+00 0. -1.
         11    1    3    3    0    0  0.17970278430E+01 -0.11522578481E+02 -0.12521298141E+02  0.17110874651E+02  0.51100000000E-03 0. -1.
        -11    1    3    3    0    0 -0.14111409176E+02 -0.13680830786E+02  0.76623375323E+01  0.21095222603E+02  0.51100000000E-03 0.  1.
         12    1    3    3    0    0  0.20113122750E+02 -0.41621095250E+01 -0.48139783989E+01  0.21095858609E+02  0.00000000000E+00 0. -1.
</event>
<event>
 7    1  0.5662448E-012  0.5930198E+02  0.7816164E-02  0.1266605E+00
        -11   -1    0    0    0    0  0.00000000000E+00  0.00000000000E+00  0.45593999997E+02  0.45594000000E+02  0.51100000000E-03 0.  1.
         11   -1    0    0    0    0 -0.00000000000E+00 -0.00000000000E+00 -0.45593999997E+02  0.45594000000E+02  0.51100000000E-03 0. -1.
    9900012    2    1    2    0    0  0.29290168839E+02  0.12256265120E+02 -0.29305439967E+01  0.59301982478E+02  0.50000070124E+02 0.  0.
         12    1    1    2    0    0 -0.29290168839E+02 -0.12256265120E+02  0.29305439967E+01  0.31886017522E+02  0.00000000000E+00 0. -1.
         11    1    3    3    0    0 -0.23897382098E+01  0.35644554469E+01  0.87224863028E+00  0.43791562291E+01  0.51100000000E-03 0. -1.
        -11    1    3    3    0    0  0.18239178262E+02  0.14902785572E+02  0.17243013630E+02  0.29190446395E+02  0.51100000000E-03 0.  1.
        -12    1    3    3    0    0  0.13440728787E+02 -0.62109758983E+01 -0.21045806257E+02  0.25732379853E+02  0.00000000000E+00 0.  1.
</event>
<event>
 7    1  0.5662448E-012  0.5930202E+02  0.7816164E-02  0.1266605E+00
        -11   -1    0    0    0    0  0.00000000000E+00  0.00000000000E+00  0.45593999997E+02  0.45594000000E+02  0.51100000000E-03 0.  1.
         11   -1    0    0    0    0 -0.00000000000E+00 -0.00000000000E+00 -0.45593999997E+02  0.45594000000E+02  0.51100000000E-03 0. -1.
    9900012    2    1    2    0    0  0.29517403148E+02 -0.63699620215E+01 -0.10240228220E+02  0.59302019087E+02  0.50000136891E+02 0.  0.
         12    1    1    2    0    0 -0.29517403148E+02  0.63699620215E+01  0.10240228220E+02  0.31885980913E+02  0.00000000000E+00 0. -1.
         11    1    3    3    0    0  0.22951017489E+02  0.28078012829E+00 -0.95521512644E+01  0.24861046545E+02  0.51100000000E-03 0. -1.
        -11    1    3    3    0    0 -0.10449313817E+02 -0.76177671151E+01 -0.87233869750E+01  0.15598590181E+02  0.51100000000E-03 0.  1.
         12    1    3    3    0    0  0.17015699476E+02  0.96702496528E+00  0.80353100194E+01  0.18842382361E+02  0.00000000000E+00 0. -1.
</event>
<event>
 7    1  0.5662448E-012  0.5930195E+02  0.7816164E-02  0.1266605E+00
        -11   -1    0    0    0    0  0.00000000000E+00  0.00000000000E+00  0.45593999997E+02  0.45594000000E+02  0.51100000000E-03 0.  1.
         11   -1    0    0    0    0 -0.00000000000E+00 -0.00000000000E+00 -0.45593999997E+02  0.45594000000E+02  0.51100000000E-03 0. -1.
    9900012    2    1    2    0    0 -0.43800844942E+01  0.61763852627E+01  0.30973979537E+02  0.59301948450E+02  0.50000008066E+02 0.  0.
         12    1    1    2    0    0  0.43800844942E+01 -0.61763852627E+01 -0.30973979537E+02  0.31886051550E+02  0.00000000000E+00 0. -1.
         11    1    3    3    0    0 -0.15853759961E+01  0.28322295134E+01 -0.58746329771E+01  0.67116506124E+01  0.51100000000E-03 0. -1.
        -11    1    3    3    0    0  0.10425799799E+02  0.11383048739E+02  0.33317756201E+02  0.36719803629E+02  0.51100000000E-03 0.  1.
        -12    1    3    3    0    0 -0.13220508297E+02 -0.80388929893E+01  0.35308563125E+01  0.15870494209E+02  0.00000000000E+00 0.  1.
</event>
<event>
 7    1  0.5662448E-012  0.5930191E+02  0.7816164E-02  0.1266605E+00
        -11   -1    0    0    0    0  0.00000000000E+00  0.00000000000E+00  0.45593999997E+02  0.45594000000E+02  0.51100000000E-03 0. -1.
         11   -1    0    0    0    0 -0.00000000000E+00 -0.00000000000E+00 -0.45593999997E+02  0.45594000000E+02  0.51100000000E-03 0.  1.
    9900012    2    1    2    0    0 -0.91754673390E+01  0.83933279720E+01 -0.29361293896E+02  0.59301910015E+02  0.49999937968E+02 0.  0.
         12    1    1    2    0    0  0.91754673390E+01 -0.83933279720E+01  0.29361293896E+02  0.31886089985E+02  0.00000000000E+00 0. -1.
         11    1    3    3    0    0  0.39091036395E+00 -0.33693065051E+01  0.84935581889E+01  0.91457951107E+01  0.51100000000E-03 0. -1.
        -11    1    3    3    0    0  0.17452291671E+01  0.12246981881E+02 -0.19687988762E+01  0.12526394505E+02  0.51100000000E-03 0.  1.
         12    1    3    3    0    0 -0.11311606870E+02 -0.48434740355E+00 -0.35886053208E+02  0.37629720398E+02  0.00000000000E+00 0. -1.
</event>
<event>
 7    1  0.5662448E-012  0.5930194E+02  0.7816164E-02  0.1266605E+00
        -11   -1    0    0    0    0  0.00000000000E+00  0.00000000000E+00  0.45593999997E+02  0.45594000000E+02  0.51100000000E-03 0.  1.
         11   -1    0    0    0    0 -0.00000000000E+00 -0.00000000000E+00 -0.45593999997E+02  0.45594000000E+02  0.51100000000E-03 0. -1.
    9900012    2    1    2    0    0 -0.24560152232E+02 -0.18058371666E+02  0.93495938046E+01  0.59301940833E+02  0.49999994174E+02 0.  0.
         12    1    1    2    0    0  0.24560152232E+02  0.18058371666E+02 -0.93495938046E+01  0.31886059167E+02  0.00000000000E+00 0. -1.
         11    1    3    3    0    0 -0.88932106960E+01 -0.78547930565E-01  0.12285263869E+01  0.89780088887E+01  0.51100000000E-03 0. -1.
        -11    1    3    3    0    0 -0.15100029391E+02  0.78137076935E+01  0.16001324316E+02  0.23347532967E+02  0.51100000000E-03 0.  1.
         12    1    3    3    0    0 -0.56691214514E+00 -0.25793531429E+02 -0.78802568988E+01  0.26976398977E+02  0.00000000000E+00 0. -1.
</event>
<event>
 7    1  0.5662448E-012  0.5930194E+02  0.7816164E-02  0.1266605E+00
        -11   -1    0    0    0    0  0.00000000000E+00  0.00000000000E+00  0.45593999997E+02  0.45594000000E+02  0.51100000000E-03 0. -1.
         11   -1    0    0    0    0 -0.00000000000E+00 -0.00000000000E+00 -0.45593999997E+02  0.45594000000E+02  0.51100000000E-03 0.  1.
    9900012    2    1    2    0    0 -0.76958412262E+01 -0.12890545612E+02 -0.28130562903E+02  0.59301941799E+02  0.49999995936E+02 0.  0.
         12    1    1    2    0    0  0.76958412262E+01  0.12890545612E+02  0.28130562903E+02  0.31886058201E+02  0.00000000000E+00 0. -1.
         11    1    3    3    0    0 -0.60707096831E+01 -0.65928534929E+00 -0.62948407881E+01  0.87700167638E+01  0.51100000000E-03 0. -1.
        -11    1    3    3    0    0 -0.13036281207E+02 -0.21376537002E+02 -0.25202668351E+02  0.35525701319E+02  0.51100000000E-03 0.  1.
         12    1    3    3    0    0  0.11411149663E+02  0.91452767397E+01  0.33669462366E+01  0.15006223717E+02  0.00000000000E+00 0. -1.
</event>
<event>
 7    1  0.5662448E-012  0.5930199E+02  0.7816164E-02  0.1266605E+00
        -11   -1    0    0    0    0  0.00000000000E+00  0.00000000000E+00  0.45593999997E+02  0.45594000000E+02  0.51100000000E-03 0. -1.
         11   -1    0    0    0    0 -0.00000000000E+00 -0.00000000000E+00 -0.45593999997E+02  0.45594000000E+02  0.51100000000E-03 0.  1.
    9900012    2    1    2    0    0  0.29714787660E+02 -0.31324046652E+01  0.11132704747E+02  0.59301989280E+02  0.50000082530E+02 0.  0.
         12    1    1    2    0    0 -0.29714787660E+02  0.31324046652E+01 -0.11132704747E+02  0.31886010720E+02  0.00000000000E+00 0. -1.
         11    1    3    3    0    0 -0.29704318571E+01  0.24733077839E+01  0.11143798317E+02  0.11795124332E+02  0.51100000000E-03 0. -1.
        -11    1    3    3    0    0 -0.90273932342E+00  0.99205349923E+01 -0.29452555416E+01  0.10387804546E+02  0.51100000000E-03 0.  1.
        -12    1    3    3    0    0  0.33587958840E+02 -0.15526247441E+02  0.29341619708E+01  0.37119060402E+02  0.00000000000E+00 0.  1.
</event>
<event>
 7    1  0.5662448E-012  0.5930193E+02  0.7816164E-02  0.1266605E+00
        -11   -1    0    0    0    0  0.00000000000E+00  0.00000000000E+00  0.45593999997E+02  0.45594000000E+02  0.51100000000E-03 0.  1.
         11   -1    0    0    0    0 -0.00000000000E+00 -0.00000000000E+00 -0.45593999997E+02  0.45594000000E+02  0.51100000000E-03 0. -1.
    9900012    2    1    2    0    0  0.71437200135E+01  0.23588594206E+02  0.20230348516E+02  0.59301929165E+02  0.49999972893E+02 0.  0.
         12    1    1    2    0    0 -0.71437200135E+01 -0.23588594206E+02 -0.20230348516E+02  0.31886070835E+02  0.00000000000E+00 0. -1.
         11    1    3    3    0    0  0.57330056013E+01 -0.11572612087E+01  0.59423000003E+01  0.83377176903E+01  0.51100000000E-03 0. -1.
        -11    1    3    3    0    0  0.87068842048E+01  0.20697888326E+02  0.27398116977E+02  0.35424133410E+02  0.51100000000E-03 0.  1.
         12    1    3    3    0    0 -0.72961697925E+01  0.40479670883E+01 -0.13110068461E+02  0.15540078064E+02  0.00000000000E+00 0. -1.
</event>
<event>
 7    1  0.5662448E-012  0.5930195E+02  0.7816164E-02  0.1266605E+00
        -11   -1    0    0    0    0  0.00000000000E+00  0.00000000000E+00  0.45593999997E+02  0.45594000000E+02  0.51100000000E-03 0. -1.
         11   -1    0    0    0    0 -0.00000000000E+00 -0.00000000000E+00 -0.45593999997E+02  0.45594000000E+02  0.51100000000E-03 0.  1.
    9900012    2    1    2    0    0  0.31241474558E+02 -0.91113179939E+00 -0.63134790305E+01  0.59301954288E+02  0.50000018712E+02 0.  0.
         12    1    1    2    0    0 -0.31241474558E+02  0.91113179939E+00  0.63134790305E+01  0.31886045712E+02  0.00000000000E+00 0. -1.
         11    1    3    3    0    0  0.13057732847E+02 -0.10814153884E+01 -0.13534540329E+02  0.18837665156E+02  0.51100000000E-03 0. -1.
        -11    1    3    3    0    0  0.24696386830E+02 -0.13498655984E+01 -0.61743106869E+01  0.25492268873E+02  0.51100000000E-03 0.  1.
         12    1    3    3    0    0 -0.65126451200E+01  0.15201491874E+01  0.13395371985E+02  0.14972020259E+02  0.00000000000E+00 0. -1.
</event>
<event>
 7    1  0.5662448E-012  0.5930197E+02  0.7816164E-02  0.1266605E+00
        -11   -1    0    0    0    0  0.00000000000E+00  0.00000000000E+00  0.45593999997E+02  0.45594000000E+02  0.51100000000E-03 0. -1.
         11   -1    0    0    0    0 -0.00000000000E+00 -0.00000000000E+00 -0.45593999997E+02  0.45594000000E+02  0.51100000000E-03 0.  1.
    9900012    2    1    2    0    0 -0.69533361020E+01  0.11275062248E+02 -0.29004184491E+02  0.59301974383E+02  0.50000055361E+02 0.  0.
         12    1    1    2    0    0  0.69533361020E+01 -0.11275062248E+02  0.29004184491E+02  0.31886025617E+02  0.00000000000E+00 0. -1.
         11    1    3    3    0    0 -0.32252653717E+01  0.16863166321E+02 -0.20373084945E+02  0.26642659505E+02  0.51100000000E-03 0. -1.
        -11    1    3    3    0    0 -0.11615840696E+02  0.80277428076E+00 -0.16232741264E+02  0.19976838859E+02  0.51100000000E-03 0.  1.
         12    1    3    3    0    0  0.78877699652E+01 -0.63908783539E+01  0.76016417171E+01  0.12682476018E+02  0.00000000000E+00 0. -1.
</event>
<event>
 7    1  0.5662448E-012  0.5930191E+02  0.7816164E-02  0.1266605E+00
        -11   -1    0    0    0    0  0.00000000000E+00  0.00000000000E+00  0.45593999997E+02  0.45594000000E+02  0.51100000000E-03 0.  1.
         11   -1    0    0    0    0 -0.00000000000E+00 -0.00000000000E+00 -0.45593999997E+02  0.45594000000E+02  0.51100000000E-03 0. -1.
    9900012    2    1    2    0    0 -0.20009864743E+02  0.19974119925E+02 -0.14743229660E+02  0.59301906251E+02  0.49999931104E+02 0.  0.
         12    1    1    2    0    0  0.20009864743E+02 -0.19974119925E+02  0.14743229660E+02  0.31886093749E+02  0.00000000000E+00 0. -1.
         11    1    3    3    0    0 -0.26989283071E+01  0.11572081349E+02  0.13571832755E+02  0.18038623155E+02  0.51100000000E-03 0.  1.
        -11    1    3    3    0    0  0.25476256807E+01 -0.23603155099E+00 -0.16296006497E+02  0.16495633832E+02  0.51100000000E-03 0. -1.
        -12    1    3    3    0    0 -0.19858562116E+02  0.86380701274E+01 -0.12019055918E+02  0.24767649263E+02  0.00000000000E+00 0.  1.
</event>
<event>
 7    1  0.5662448E-012  0.5930197E+02  0.7816164E-02  0.1266605E+00
        -11   -1    0    0    0    0  0.00000000000E+00  0.00000000000E+00  0.45593999997E+02  0.45594000000E+02  0.51100000000E-03 0.  1.
         11   -1    0    0    0    0 -0.00000000000E+00 -0.00000000000E+00 -0.45593999997E+02  0.45594000000E+02  0.51100000000E-03 0. -1.
    9900012    2    1    2    0    0  0.89410255131E-01 -0.16880805965E+02  0.27050869364E+02  0.59301966419E+02  0.50000040836E+02 0.  0.
         12    1    1    2    0    0 -0.89410255131E-01  0.16880805965E+02 -0.27050869364E+02  0.31886033581E+02  0.00000000000E+00 0. -1.
         11    1    3    3    0    0  0.47151459461E+01  0.68012581658E+01 -0.71727759732E+01  0.10951640487E+02  0.51100000000E-03 0. -1.
        -11    1    3    3    0    0  0.39155296608E+01 -0.10546527890E+01 -0.22111803539E+01  0.46187643206E+01  0.51100000000E-03 0.  1.
        -12    1    3    3    0    0 -0.85412653518E+01 -0.22627411341E+02  0.36434825691E+02  0.43731561611E+02  0.00000000000E+00 0.  1.
</event>
<event>
 7    1  0.5662448E-012  0.5930194E+02  0.7816164E-02  0.1266605E+00
        -11   -1    0    0    0    0  0.00000000000E+00  0.00000000000E+00  0.45593999997E+02  0.45594000000E+02  0.51100000000E-03 0.  1.
         11   -1    0    0    0    0 -0.00000000000E+00 -0.00000000000E+00 -0.45593999997E+02  0.45594000000E+02  0.51100000000E-03 0. -1.
    9900012    2    1    2    0    0  0.10210188906E+01  0.65826137735E+01  0.31182486674E+02  0.59301940995E+02  0.49999994470E+02 0.  0.
         12    1    1    2    0    0 -0.10210188906E+01 -0.65826137735E+01 -0.31182486674E+02  0.31886059005E+02  0.00000000000E+00 0. -1.
         11    1    3    3    0    0 -0.72457949224E+00 -0.90648188589E+00 -0.14712497048E+01  0.18738465266E+01  0.51100000000E-03 0. -1.
        -11    1    3    3    0    0  0.36056198407E+01  0.27198405121E+02  0.19482857826E+02  0.33650192940E+02  0.51100000000E-03 0.  1.
         12    1    3    3    0    0 -0.18600214578E+01 -0.19709309461E+02  0.13170878553E+02  0.23777901529E+02  0.00000000000E+00 0. -1.
</event>
<event>
 7    1  0.5662448E-012  0.5930191E+02  0.7816164E-02  0.1266605E+00
        -11   -1    0    0    0    0  0.00000000000E+00  0.00000000000E+00  0.45593999997E+02  0.45594000000E+02  0.51100000000E-03 0.  1.
         11   -1    0    0    0    0 -0.00000000000E+00 -0.00000000000E+00 -0.45593999997E+02  0.45594000000E+02  0.51100000000E-03 0. -1.
    9900012    2    1    2    0    0 -0.12413783477E+02 -0.16309008124E+02  0.24426147423E+02  0.59301914568E+02  0.49999946273E+02 0.  0.
         12    1    1    2    0    0  0.12413783477E+02  0.16309008124E+02 -0.24426147423E+02  0.31886085432E+02  0.00000000000E+00 0. -1.
         11    1    3    3    0    0 -0.19132600405E+02  0.53333484101E+00  0.14586243454E+02  0.24064483012E+02  0.51100000000E-03 0. -1.
        -11    1    3    3    0    0  0.55411197104E+01  0.67544499427E+01  0.74664211047E+01  0.11492347282E+02  0.51100000000E-03 0.  1.
         12    1    3    3    0    0  0.11776972173E+01 -0.23596792908E+02  0.23734828646E+01  0.23745084274E+02  0.00000000000E+00 0. -1.
</event>
<event>
 7    1  0.5662448E-012  0.5930193E+02  0.7816164E-02  0.1266605E+00
        -11   -1    0    0    0    0  0.00000000000E+00  0.00000000000E+00  0.45593999997E+02  0.45594000000E+02  0.51100000000E-03 0. -1.
         11   -1    0    0    0    0 -0.00000000000E+00 -0.00000000000E+00 -0.45593999997E+02  0.45594000000E+02  0.51100000000E-03 0.  1.
    9900012    2    1    2    0    0 -0.25793622949E+02  0.18120819730E+02  0.48006922404E+01  0.59301925633E+02  0.49999966453E+02 0.  0.
         12    1    1    2    0    0  0.25793622949E+02 -0.18120819730E+02 -0.48006922404E+01  0.31886074367E+02  0.00000000000E+00 0. -1.
         11    1    3    3    0    0  0.53361219252E+01  0.15461758815E+02 -0.43872471132E-01  0.16356714460E+02  0.51100000000E-03 0. -1.
        -11    1    3    3    0    0 -0.76965962014E+01  0.11519234750E+02 -0.66671210192E+01  0.15374682607E+02  0.51100000000E-03 0.  1.
        -12    1    3    3    0    0 -0.23433148673E+02 -0.88601738349E+01  0.11511685731E+02  0.27570528567E+02  0.00000000000E+00 0.  1.
</event>
<event>
 7    1  0.5662448E-012  0.5930196E+02  0.7816164E-02  0.1266605E+00
        -11   -1    0    0    0    0  0.00000000000E+00  0.00000000000E+00  0.45593999997E+02  0.45594000000E+02  0.51100000000E-03 0.  1.
         11   -1    0    0    0    0 -0.00000000000E+00 -0.00000000000E+00 -0.45593999997E+02  0.45594000000E+02  0.51100000000E-03 0. -1.
    9900012    2    1    2    0    0  0.14249779063E+02  0.25527224207E+02  0.12728875944E+02  0.59301958197E+02  0.50000025841E+02 0.  0.
         12    1    1    2    0    0 -0.14249779063E+02 -0.25527224207E+02 -0.12728875944E+02  0.31886041803E+02  0.00000000000E+00 0. -1.
         11    1    3    3    0    0  0.11117625735E+02  0.12966230093E+01 -0.77730821036E+01  0.13627312239E+02  0.51100000000E-03 0. -1.
        -11    1    3    3    0    0 -0.11273524125E+02  0.23087908735E+01 -0.12801045216E+01  0.11578494261E+02  0.51100000000E-03 0.  1.
        -12    1    3    3    0    0  0.14405677453E+02  0.21921810325E+02  0.21782062569E+02  0.34096151697E+02  0.00000000000E+00 0.  1.
</event>
<event>
 7    1  0.5662448E-012  0.5930195E+02  0.7816164E-02  0.1266605E+00
        -11   -1    0    0    0    0  0.00000000000E+00  0.00000000000E+00  0.45593999997E+02  0.45594000000E+02  0.51100000000E-03 0. -1.
         11   -1    0    0    0    0 -0.00000000000E+00 -0.00000000000E+00 -0.45593999997E+02  0.45594000000E+02  0.51100000000E-03 0.  1.
    9900012    2    1    2    0    0 -0.10736935223E+02 -0.23437414215E+02 -0.18765015953E+02  0.59301953102E+02  0.50000016549E+02 0.  0.
         12    1    1    2    0    0  0.10736935223E+02  0.23437414215E+02  0.18765015953E+02  0.31886046898E+02  0.00000000000E+00 0. -1.
         11    1    3    3    0    0 -0.15592788397E+02  0.27617101025E+01 -0.81541210694E+01  0.17811563193E+02  0.51100000000E-03 0. -1.
        -11    1    3    3    0    0  0.12050191861E+01  0.63103171683E+01  0.15167501437E+01  0.66009624497E+01  0.51100000000E-03 0.  1.
        -12    1    3    3    0    0  0.36508339882E+01 -0.32509441486E+02 -0.12127645028E+02  0.34889427459E+02  0.00000000000E+00 0.  1.
</event>
<event>
 7    1  0.5662448E-012  0.5930195E+02  0.7816164E-02  0.1266605E+00
        -11   -1    0    0    0    0  0.00000000000E+00  0.00000000000E+00  0.45593999997E+02  0.45594000000E+02  0.51100000000E-03 0.  1.
         11   -1    0    0    0    0 -0.00000000000E+00 -0.00000000000E+00 -0.45593999997E+02  0.45594000000E+02  0.51100000000E-03 0. -1.
    9900012    2    1    2    0    0  0.16491549253E+02 -0.26194090517E+02 -0.76562884358E+01  0.59301947761E+02  0.50000006808E+02 0.  0.
         12    1    1    2    0    0 -0.16491549253E+02  0.26194090517E+02  0.76562884358E+01  0.31886052239E+02  0.00000000000E+00 0. -1.
         11    1    3    3    0    0  0.16620707812E+02 -0.36512167796E+01 -0.90644301569E+01  0.19280643311E+02  0.51100000000E-03 0. -1.
        -11    1    3    3    0    0 -0.76808788769E+01  0.64532529613E+01  0.48657406384E+00  0.10043760684E+02  0.51100000000E-03 0.  1.
         12    1    3    3    0    0  0.75517203177E+01 -0.28996126699E+02  0.92156765729E+00  0.29977543766E+02  0.00000000000E+00 0. -1.
</event>
<event>
 7    1  0.5662448E-012  0.5930232E+02  0.7816164E-02  0.1266603E+00
        -11   -1    0    0    0    0  0.00000000000E+00  0.00000000000E+00  0.45593999997E+02  0.45594000000E+02  0.51100000000E-03 0.  1.
         11   -1    0    0    0    0 -0.00000000000E+00 -0.00000000000E+00 -0.45593999997E+02  0.45594000000E+02  0.51100000000E-03 0. -1.
    9900012    2    1    2    0    0  0.92767644795E+01  0.11864762250E+02  0.28104544050E+02  0.59302323926E+02  0.50000692838E+02 0.  0.
         12    1    1    2    0    0 -0.92767644795E+01 -0.11864762250E+02 -0.28104544050E+02  0.31885676074E+02  0.00000000000E+00 0. -1.
         11    1    3    3    0    0 -0.66535304778E+01 -0.11723238804E+02  0.36242400933E+01  0.13958470991E+02  0.51100000000E-03 0. -1.
        -11    1    3    3    0    0  0.10350751563E+02 -0.12958176714E+01  0.66762904958E+00  0.10452890996E+02  0.51100000000E-03 0.  1.
        -12    1    3    3    0    0  0.55795433942E+01  0.24883818726E+02  0.23812674907E+02  0.34890961940E+02  0.00000000000E+00 0.  1.
</event>
<event>
 7    1  0.5662448E-012  0.5930189E+02  0.7816164E-02  0.1266605E+00
        -11   -1    0    0    0    0  0.00000000000E+00  0.00000000000E+00  0.45593999997E+02  0.45594000000E+02  0.51100000000E-03 0.  1.
         11   -1    0    0    0    0 -0.00000000000E+00 -0.00000000000E+00 -0.45593999997E+02  0.45594000000E+02  0.51100000000E-03 0. -1.
    9900012    2    1    2    0    0 -0.29060495619E+02 -0.77340261706E+00  0.13100121124E+02  0.59301894394E+02  0.49999909480E+02 0.  0.
         12    1    1    2    0    0  0.29060495619E+02  0.77340261706E+00 -0.13100121124E+02  0.31886105606E+02  0.00000000000E+00 0. -1.
         11    1    3    3    0    0 -0.15083319785E+02 -0.34911451087E+01  0.11769641075E+02  0.19447855439E+02  0.51100000000E-03 0. -1.
        -11    1    3    3    0    0 -0.95042939301E+01  0.15428732245E+02  0.12777707343E+02  0.22173118567E+02  0.51100000000E-03 0.  1.
         12    1    3    3    0    0 -0.44728819043E+01 -0.12710989753E+02 -0.11447227293E+02  0.17680920387E+02  0.00000000000E+00 0. -1.
</event>
<event>
 7    1  0.5662448E-012  0.5930192E+02  0.7816164E-02  0.1266605E+00
        -11   -1    0    0    0    0  0.00000000000E+00  0.00000000000E+00  0.45593999997E+02  0.45594000000E+02  0.51100000000E-03 0.  1.
         11   -1    0    0    0    0 -0.00000000000E+00 -0.00000000000E+00 -0.45593999997E+02  0.45594000000E+02  0.51100000000E-03 0. -1.
    9900012    2    1    2    0    0 -0.10350560681E+02  0.20935303605E+02  0.21709472918E+02  0.59301917490E+02  0.49999951602E+02 0.  0.
         12    1    1    2    0    0  0.10350560681E+02 -0.20935303605E+02 -0.21709472918E+02  0.31886082510E+02  0.00000000000E+00 0. -1.
         11    1    3    3    0    0  0.90775473823E+01  0.65438300563E+01 -0.73634567397E+01  0.13395673694E+02  0.51100000000E-03 0. -1.
        -11    1    3    3    0    0 -0.13294836706E+02 -0.90347242604E+00  0.10112623851E+01  0.13363816720E+02  0.51100000000E-03 0.  1.
        -12    1    3    3    0    0 -0.61332713580E+01  0.15294945975E+02  0.28061667272E+02  0.32542427076E+02  0.00000000000E+00 0.  1.
</event>
<event>
 7    1  0.5662448E-012  0.5930167E+02  0.7816164E-02  0.1266606E+00
        -11   -1    0    0    0    0  0.00000000000E+00  0.00000000000E+00  0.45593999997E+02  0.45594000000E+02  0.51100000000E-03 0. -1.
         11   -1    0    0    0    0 -0.00000000000E+00 -0.00000000000E+00 -0.45593999997E+02  0.45594000000E+02  0.51100000000E-03 0.  1.
    9900012    2    1    2    0    0  0.10262308698E+02  0.22623759362E+02 -0.19989709592E+02  0.59301671314E+02  0.49999502633E+02 0.  0.
         12    1    1    2    0    0 -0.10262308698E+02 -0.22623759362E+02  0.19989709592E+02  0.31886328686E+02  0.00000000000E+00 0. -1.
         11    1    3    3    0    0  0.14170110584E+02  0.93248358439E+01  0.12393671893E+01  0.17008251785E+02  0.51100000000E-03 0. -1.
        -11    1    3    3    0    0  0.72484391577E+01 -0.90462219711E+01 -0.62243569722E+01  0.13157379000E+02  0.51100000000E-03 0.  1.
        -12    1    3    3    0    0 -0.11156241044E+02  0.22345145489E+02 -0.15004719809E+02  0.29136040529E+02  0.00000000000E+00 0.  1.
</event>
<event>
 7    1  0.5662448E-012  0.5930195E+02  0.7816164E-02  0.1266605E+00
        -11   -1    0    0    0    0  0.00000000000E+00  0.00000000000E+00  0.45593999997E+02  0.45594000000E+02  0.51100000000E-03 0. -1.
         11   -1    0    0    0    0 -0.00000000000E+00 -0.00000000000E+00 -0.45593999997E+02  0.45594000000E+02  0.51100000000E-03 0.  1.
    9900012    2    1    2    0    0  0.14320806824E+02  0.17948461877E+02 -0.22124361901E+02  0.59301950050E+02  0.50000010984E+02 0.  0.
         12    1    1    2    0    0 -0.14320806824E+02 -0.17948461877E+02  0.22124361901E+02  0.31886049950E+02  0.00000000000E+00 0. -1.
         11    1    3    3    0    0  0.16311780845E+02 -0.10712947475E+02 -0.96787582248E+01  0.21783475365E+02  0.51100000000E-03 0. -1.
        -11    1    3    3    0    0 -0.95565463906E+01  0.73644069919E+01 -0.79420369589E+00  0.12091022663E+02  0.51100000000E-03 0.  1.
        -12    1    3    3    0    0  0.75655723694E+01  0.21297002361E+02 -0.11651399981E+02  0.25427452022E+02  0.00000000000E+00 0.  1.
</event>
<event>
 7    1  0.5662448E-012  0.5930194E+02  0.7816164E-02  0.1266605E+00
        -11   -1    0    0    0    0  0.00000000000E+00  0.00000000000E+00  0.45593999997E+02  0.45594000000E+02  0.51100000000E-03 0.  1.
         11   -1    0    0    0    0 -0.00000000000E+00 -0.00000000000E+00 -0.45593999997E+02  0.45594000000E+02  0.51100000000E-03 0. -1.
    9900012    2    1    2    0    0 -0.29858670881E+02  0.11111302709E+02 -0.13112084981E+01  0.59301944390E+02  0.50000000661E+02 0.  0.
         12    1    1    2    0    0  0.29858670881E+02 -0.11111302709E+02  0.13112084981E+01  0.31886055610E+02  0.00000000000E+00 0. -1.
         11    1    3    3    0    0  0.78221677498E+01  0.50485191808E+01  0.41438330960E+01  0.10190446860E+02  0.51100000000E-03 0. -1.
        -11    1    3    3    0    0 -0.13944137387E+02 -0.10758655976E+02  0.48161814653E+01  0.18258785557E+02  0.51100000000E-03 0.  1.
        -12    1    3    3    0    0 -0.23736701244E+02  0.16821439503E+02 -0.10271223059E+02  0.30852711972E+02  0.00000000000E+00 0.  1.
</event>
<event>
 7    1  0.5662448E-012  0.5930196E+02  0.7816164E-02  0.1266605E+00
        -11   -1    0    0    0    0  0.00000000000E+00  0.00000000000E+00  0.45593999997E+02  0.45594000000E+02  0.51100000000E-03 0.  1.
         11   -1    0    0    0    0 -0.00000000000E+00 -0.00000000000E+00 -0.45593999997E+02  0.45594000000E+02  0.51100000000E-03 0. -1.
    9900012    2    1    2    0    0 -0.10320972949E+02 -0.31647901617E+01  0.30003021293E+02  0.59301958131E+02  0.50000025720E+02 0.  0.
         12    1    1    2    0    0  0.10320972949E+02  0.31647901617E+01 -0.30003021293E+02  0.31886041869E+02  0.00000000000E+00 0. -1.
         11    1    3    3    0    0 -0.28348559776E+01  0.65399858690E+01  0.37865162162E+02  0.38530226179E+02  0.51100000000E-03 0.  1.
        -11    1    3    3    0    0 -0.10580721804E+02 -0.79013753417E+01 -0.12661326193E+01  0.13265990286E+02  0.51100000000E-03 0. -1.
        -12    1    3    3    0    0  0.30946048331E+01 -0.18034006891E+01 -0.65960082500E+01  0.75057416658E+01  0.00000000000E+00 0.  1.
</event>
<event>
 7    1  0.5662448E-012  0.5930192E+02  0.7816164E-02  0.1266605E+00
        -11   -1    0    0    0    0  0.00000000000E+00  0.00000000000E+00  0.45593999997E+02  0.45594000000E+02  0.51100000000E-03 0.  1.
         11   -1    0    0    0    0 -0.00000000000E+00 -0.00000000000E+00 -0.45593999997E+02  0.45594000000E+02  0.51100000000E-03 0. -1.
    9900012    2    1    2    0    0  0.32719540694E+01 -0.17929906035E+02  0.26163612593E+02  0.59301924077E+02  0.49999963615E+02 0.  0.
         12    1    1    2    0    0 -0.32719540694E+01  0.17929906035E+02 -0.26163612593E+02  0.31886075923E+02  0.00000000000E+00 0. -1.
         11    1    3    3    0    0 -0.39090394466E+01 -0.10565996454E+02  0.65900929409E+01  0.13051827293E+02  0.51100000000E-03 0. -1.
        -11    1    3    3    0    0  0.88974103840E+01 -0.13688143486E+02  0.29872811705E+02  0.34042826895E+02  0.51100000000E-03 0.  1.
         12    1    3    3    0    0 -0.17164168679E+01  0.63242339049E+01 -0.10299292052E+02  0.12207269888E+02  0.00000000000E+00 0. -1.
</event>
<event>
 7    1  0.5662448E-012  0.5930191E+02  0.7816164E-02  0.1266605E+00
        -11   -1    0    0    0    0  0.00000000000E+00  0.00000000000E+00  0.45593999997E+02  0.45594000000E+02  0.51100000000E-03 0.  1.
         11   -1    0    0    0    0 -0.00000000000E+00 -0.00000000000E+00 -0.45593999997E+02  0.45594000000E+02  0.51100000000E-03 0. -1.
    9900012    2    1    2    0    0  0.18191924834E+01 -0.15014867878E+02  0.28070746257E+02  0.59301913471E+02  0.49999944272E+02 0.  0.
         12    1    1    2    0    0 -0.18191924834E+01  0.15014867878E+02 -0.28070746257E+02  0.31886086529E+02  0.00000000000E+00 0. -1.
         11    1    3    3    0    0  0.15281802200E+02  0.89775830390E+01  0.13006438458E+02  0.21984037784E+02  0.51100000000E-03 0. -1.
        -11    1    3    3    0    0  0.77381276415E-01 -0.16378277730E+02  0.14336625645E+02  0.21766782133E+02  0.51100000000E-03 0.  1.
        -12    1    3    3    0    0 -0.13539990993E+02 -0.76141731866E+01  0.72768215411E+00  0.15551093554E+02  0.00000000000E+00 0.  1.
</event>
<event>
 7    1  0.5662448E-012  0.5930196E+02  0.7816164E-02  0.1266605E+00
        -11   -1    0    0    0    0  0.00000000000E+00  0.00000000000E+00  0.45593999997E+02  0.45594000000E+02  0.51100000000E-03 0. -1.
         11   -1    0    0    0    0 -0.00000000000E+00 -0.00000000000E+00 -0.45593999997E+02  0.45594000000E+02  0.51100000000E-03 0.  1.
    9900012    2    1    2    0    0 -0.70049261172E+01  0.22430733018E+02 -0.21552565342E+02  0.59301955303E+02  0.50000020563E+02 0.  0.
         12    1    1    2    0    0  0.70049261172E+01 -0.22430733018E+02  0.21552565342E+02  0.31886044697E+02  0.00000000000E+00 0. -1.
         11    1    3    3    0    0 -0.39255707375E+00  0.31602976003E+01 -0.17674169262E+02  0.17958781734E+02  0.51100000000E-03 0. -1.
        -11    1    3    3    0    0 -0.18486653333E+02  0.12890004830E+02 -0.12073992098E+02  0.25567359296E+02  0.51100000000E-03 0.  1.
         12    1    3    3    0    0  0.11874284289E+02  0.63804305879E+01  0.81955960185E+01  0.15775814273E+02  0.00000000000E+00 0. -1.
</event>
<event>
 7    1  0.5662448E-012  0.5930194E+02  0.7816164E-02  0.1266605E+00
        -11   -1    0    0    0    0  0.00000000000E+00  0.00000000000E+00  0.45593999997E+02  0.45594000000E+02  0.51100000000E-03 0.  1.
         11   -1    0    0    0    0 -0.00000000000E+00 -0.00000000000E+00 -0.45593999997E+02  0.45594000000E+02  0.51100000000E-03 0. -1.
    9900012    2    1    2    0    0 -0.30259442847E+02 -0.88964670408E+00  0.10014770326E+02  0.59301937569E+02  0.49999988220E+02 0.  0.
         12    1    1    2    0    0  0.30259442847E+02  0.88964670408E+00 -0.10014770326E+02  0.31886062431E+02  0.00000000000E+00 0. -1.
         11    1    3    3    0    0 -0.55664625163E+01 -0.64633094614E+01  0.65138482167E+01  0.10732664767E+02  0.51100000000E-03 0. -1.
        -11    1    3    3    0    0 -0.35489399117E+02 -0.57867883681E+00 -0.55286262895E+00  0.35498422165E+02  0.51100000000E-03 0.  1.
         12    1    3    3    0    0  0.10796418785E+02  0.61523415942E+01  0.40537847379E+01  0.13070850637E+02  0.00000000000E+00 0. -1.
</event>
<event>
 7    1  0.5662448E-012  0.5930194E+02  0.7816164E-02  0.1266605E+00
        -11   -1    0    0    0    0  0.00000000000E+00  0.00000000000E+00  0.45593999997E+02  0.45594000000E+02  0.51100000000E-03 0. -1.
         11   -1    0    0    0    0 -0.00000000000E+00 -0.00000000000E+00 -0.45593999997E+02  0.45594000000E+02  0.51100000000E-03 0.  1.
    9900012    2    1    2    0    0 -0.24316989393E+02 -0.18494482613E+02 -0.91301293446E+01  0.59301935299E+02  0.49999984081E+02 0.  0.
         12    1    1    2    0    0  0.24316989393E+02  0.18494482613E+02  0.91301293446E+01  0.31886064701E+02  0.00000000000E+00 0. -1.
         11    1    3    3    0    0 -0.12641653405E+02 -0.75194723605E+01 -0.15848819996E+02  0.21622649258E+02  0.51100000000E-03 0. -1.
        -11    1    3    3    0    0 -0.18135753340E+02 -0.19216440961E+02  0.31209855380E+01  0.26606722898E+02  0.51100000000E-03 0.  1.
         12    1    3    3    0    0  0.64604173521E+01  0.82414307084E+01  0.35977051131E+01  0.11072563143E+02  0.00000000000E+00 0. -1.
</event>
<event>
 7    1  0.5662448E-012  0.5930195E+02  0.7816164E-02  0.1266605E+00
        -11   -1    0    0    0    0  0.00000000000E+00  0.00000000000E+00  0.45593999997E+02  0.45594000000E+02  0.51100000000E-03 0. -1.
         11   -1    0    0    0    0 -0.00000000000E+00 -0.00000000000E+00 -0.45593999997E+02  0.45594000000E+02  0.51100000000E-03 0.  1.
    9900012    2    1    2    0    0 -0.19063003495E+02  0.19054228469E+02 -0.17036971046E+02  0.59301951214E+02  0.50000013105E+02 0.  0.
         12    1    1    2    0    0  0.19063003495E+02 -0.19054228469E+02  0.17036971046E+02  0.31886048786E+02  0.00000000000E+00 0. -1.
         11    1    3    3    0    0 -0.30560977959E+01  0.42258158450E+01 -0.10210551895E+02  0.11465279044E+02  0.51100000000E-03 0. -1.
        -11    1    3    3    0    0  0.63774893194E+01  0.20366167618E+02  0.50034140792E+01  0.21920020670E+02  0.51100000000E-03 0.  1.
         12    1    3    3    0    0 -0.22384395018E+02 -0.55377549935E+01 -0.11829833229E+02  0.25916651499E+02  0.00000000000E+00 0. -1.
</event>
<event>
 7    1  0.5662448E-012  0.5930190E+02  0.7816164E-02  0.1266605E+00
        -11   -1    0    0    0    0  0.00000000000E+00  0.00000000000E+00  0.45593999997E+02  0.45594000000E+02  0.51100000000E-03 0.  1.
         11   -1    0    0    0    0 -0.00000000000E+00 -0.00000000000E+00 -0.45593999997E+02  0.45594000000E+02  0.51100000000E-03 0. -1.
    9900012    2    1    2    0    0  0.29508037242E+01  0.25816713551E+02  0.18480088171E+02  0.59301896444E+02  0.49999913219E+02 0.  0.
         12    1    1    2    0    0 -0.29508037242E+01 -0.25816713551E+02 -0.18480088171E+02  0.31886103556E+02  0.00000000000E+00 0. -1.
         11    1    3    3    0    0 -0.18047717929E+02  0.20101528036E+02  0.98423818924E+01  0.28751765744E+02  0.51100000000E-03 0. -1.
        -11    1    3    3    0    0 -0.29533697106E+01 -0.14898591924E+01 -0.14092919247E+01  0.35955774294E+01  0.51100000000E-03 0.  1.
         12    1    3    3    0    0  0.23951891364E+02  0.72050447071E+01  0.10046998203E+02  0.26954553271E+02  0.00000000000E+00 0. -1.
</event>
<event>
 7    1  0.5662448E-012  0.5930194E+02  0.7816164E-02  0.1266605E+00
        -11   -1    0    0    0    0  0.00000000000E+00  0.00000000000E+00  0.45593999997E+02  0.45594000000E+02  0.51100000000E-03 0.  1.
         11   -1    0    0    0    0 -0.00000000000E+00 -0.00000000000E+00 -0.45593999997E+02  0.45594000000E+02  0.51100000000E-03 0. -1.
    9900012    2    1    2    0    0 -0.13066934691E+02 -0.21508155697E+02  0.19579963761E+02  0.59301944669E+02  0.50000001169E+02 0.  0.
         12    1    1    2    0    0  0.13066934691E+02  0.21508155697E+02 -0.19579963761E+02  0.31886055331E+02  0.00000000000E+00 0. -1.
         11    1    3    3    0    0 -0.28710579483E+02 -0.15391555194E+02  0.14632491963E+02  0.35711443080E+02  0.51100000000E-03 0. -1.
        -11    1    3    3    0    0 -0.10229099246E+01 -0.61487283112E+01  0.26228326464E+01  0.67625776085E+01  0.51100000000E-03 0.  1.
         12    1    3    3    0    0  0.16666554716E+02  0.32127808466E-01  0.23246391515E+01  0.16827923980E+02  0.00000000000E+00 0. -1.
</event>
<event>
 7    1  0.5662448E-012  0.5930197E+02  0.7816164E-02  0.1266605E+00
        -11   -1    0    0    0    0  0.00000000000E+00  0.00000000000E+00  0.45593999997E+02  0.45594000000E+02  0.51100000000E-03 0. -1.
         11   -1    0    0    0    0 -0.00000000000E+00 -0.00000000000E+00 -0.45593999997E+02  0.45594000000E+02  0.51100000000E-03 0.  1.
    9900012    2    1    2    0    0 -0.16888723821E+02 -0.55376874601E+01 -0.26473083157E+02  0.59301966904E+02  0.50000041722E+02 0.  0.
         12    1    1    2    0    0  0.16888723821E+02  0.55376874601E+01  0.26473083157E+02  0.31886033096E+02  0.00000000000E+00 0. -1.
         11    1    3    3    0    0  0.52721981131E+01  0.13396438180E+02 -0.56971642411E+01  0.15482839194E+02  0.51100000000E-03 0. -1.
        -11    1    3    3    0    0 -0.43130026204E+01 -0.62259136979E+01  0.56810388957E+01  0.94677450416E+01  0.51100000000E-03 0.  1.
        -12    1    3    3    0    0 -0.17847919314E+02 -0.12708211942E+02 -0.26456957812E+02  0.34351382669E+02  0.00000000000E+00 0.  1.
</event>
<event>
 7    1  0.5662448E-012  0.5930193E+02  0.7816164E-02  0.1266605E+00
        -11   -1    0    0    0    0  0.00000000000E+00  0.00000000000E+00  0.45593999997E+02  0.45594000000E+02  0.51100000000E-03 0.  1.
         11   -1    0    0    0    0 -0.00000000000E+00 -0.00000000000E+00 -0.45593999997E+02  0.45594000000E+02  0.51100000000E-03 0. -1.
    9900012    2    1    2    0    0 -0.57110924594E+01 -0.21394884907E+02  0.22942618455E+02  0.59301930646E+02  0.49999975595E+02 0.  0.
         12    1    1    2    0    0  0.57110924594E+01  0.21394884907E+02 -0.22942618455E+02  0.31886069354E+02  0.00000000000E+00 0. -1.
         11    1    3    3    0    0  0.62253567723E+00  0.80923657162E+01  0.42492354183E+01  0.91613282583E+01  0.51100000000E-03 0. -1.
        -11    1    3    3    0    0  0.14561608960E+02 -0.15976681028E+02  0.95271058918E+01  0.23623304999E+02  0.51100000000E-03 0.  1.
         12    1    3    3    0    0 -0.20895237096E+02 -0.13510569596E+02  0.91662771448E+01  0.26517297389E+02  0.00000000000E+00 0. -1.
</event>
<event>
 7    1  0.5662448E-012  0.5930184E+02  0.7816164E-02  0.1266605E+00
        -11   -1    0    0    0    0  0.00000000000E+00  0.00000000000E+00  0.45593999997E+02  0.45594000000E+02  0.51100000000E-03 0.  1.
         11   -1    0    0    0    0 -0.00000000000E+00 -0.00000000000E+00 -0.45593999997E+02  0.45594000000E+02  0.51100000000E-03 0. -1.
    9900012    2    1    2    0    0  0.23370896439E+02 -0.18376602624E+02  0.11525136806E+02  0.59301841518E+02  0.49999813047E+02 0.  0.
         12    1    1    2    0    0 -0.23370896439E+02  0.18376602624E+02 -0.11525136806E+02  0.31886158482E+02  0.00000000000E+00 0. -1.
         11    1    3    3    0    0 -0.59522941927E+00  0.90701273907E+01  0.32636740681E+01  0.96577987983E+01  0.51100000000E-03 0. -1.
        -11    1    3    3    0    0  0.17732913883E+02 -0.46052256229E+01 -0.89326229247E+01  0.20382740012E+02  0.51100000000E-03 0.  1.
        -12    1    3    3    0    0  0.62332119751E+01 -0.22841504391E+02  0.17194085663E+02  0.29261302708E+02  0.00000000000E+00 0.  1.
</event>
<event>
 7    1  0.5662448E-012  0.5930194E+02  0.7816164E-02  0.1266605E+00
        -11   -1    0    0    0    0  0.00000000000E+00  0.00000000000E+00  0.45593999997E+02  0.45594000000E+02  0.51100000000E-03 0.  1.
         11   -1    0    0    0    0 -0.00000000000E+00 -0.00000000000E+00 -0.45593999997E+02  0.45594000000E+02  0.51100000000E-03 0. -1.
    9900012    2    1    2    0    0  0.13115822697E+02  0.29057605710E+02 -0.59290414272E+00  0.59301940508E+02  0.49999993580E+02 0.  0.
         12    1    1    2    0    0 -0.13115822697E+02 -0.29057605710E+02  0.59290414272E+00  0.31886059492E+02  0.00000000000E+00 0. -1.
         11    1    3    3    0    0  0.31928064900E+01 -0.12609606581E+01  0.99248995944E+00  0.35733837808E+01  0.51100000000E-03 0. -1.
        -11    1    3    3    0    0 -0.14367754537E+02 -0.16330173876E+01 -0.53445178581E+01  0.15416322117E+02  0.51100000000E-03 0.  1.
         12    1    3    3    0    0  0.24290770743E+02  0.31951583756E+02  0.37591237560E+01  0.40312234610E+02  0.00000000000E+00 0. -1.
</event>
<event>
 7    1  0.5662448E-012  0.5930194E+02  0.7816164E-02  0.1266605E+00
        -11   -1    0    0    0    0  0.00000000000E+00  0.00000000000E+00  0.45593999997E+02  0.45594000000E+02  0.51100000000E-03 0.  1.
         11   -1    0    0    0    0 -0.00000000000E+00 -0.00000000000E+00 -0.45593999997E+02  0.45594000000E+02  0.51100000000E-03 0. -1.
    9900012    2    1    2    0    0 -0.24339112197E+02  0.98090817499E+01  0.18113812258E+02  0.59301942516E+02  0.49999997243E+02 0.  0.
         12    1    1    2    0    0  0.24339112197E+02 -0.98090817499E+01 -0.18113812258E+02  0.31886057484E+02  0.00000000000E+00 0. -1.
         11    1    3    3    0    0 -0.10069387236E+02  0.17045083745E+01  0.23035959592E+01  0.10469215000E+02  0.51100000000E-03 0. -1.
        -11    1    3    3    0    0 -0.19668660399E+01  0.52555991816E+01  0.29604050212E+02  0.30131207642E+02  0.51100000000E-03 0.  1.
         12    1    3    3    0    0 -0.12302858922E+02  0.28489741938E+01 -0.13793833913E+02  0.18701519874E+02  0.00000000000E+00 0. -1.
</event>
<event>
 7    1  0.5662448E-012  0.5930194E+02  0.7816164E-02  0.1266605E+00
        -11   -1    0    0    0    0  0.00000000000E+00  0.00000000000E+00  0.45593999997E+02  0.45594000000E+02  0.51100000000E-03 0.  1.
         11   -1    0    0    0    0 -0.00000000000E+00 -0.00000000000E+00 -0.45593999997E+02  0.45594000000E+02  0.51100000000E-03 0. -1.
    9900012    2    1    2    0    0 -0.28865842118E+02  0.13199510601E+01  0.13481160424E+02  0.59301940376E+02  0.49999993340E+02 0.  0.
         12    1    1    2    0    0  0.28865842118E+02 -0.13199510601E+01 -0.13481160424E+02  0.31886059624E+02  0.00000000000E+00 0. -1.
         11    1    3    3    0    0 -0.10200224686E+02  0.19483411228E+01  0.19425950038E+02  0.22027440884E+02  0.51100000000E-03 0.  1.
        -11    1    3    3    0    0 -0.18913042769E+02 -0.13883859447E+02 -0.49574013340E+01  0.23980003506E+02  0.51100000000E-03 0. -1.
         12    1    3    3    0    0  0.24742533760E+00  0.13255469384E+02 -0.98738827979E+00  0.13294495985E+02  0.00000000000E+00 0. -1.
</event>
<event>
 7    1  0.5662448E-012  0.5930201E+02  0.7816164E-02  0.1266605E+00
        -11   -1    0    0    0    0  0.00000000000E+00  0.00000000000E+00  0.45593999997E+02  0.45594000000E+02  0.51100000000E-03 0. -1.
         11   -1    0    0    0    0 -0.00000000000E+00 -0.00000000000E+00 -0.45593999997E+02  0.45594000000E+02  0.51100000000E-03 0.  1.
    9900012    2    1    2    0    0  0.25496232927E+02 -0.18996955375E+02 -0.24029868552E+01  0.59302006950E+02  0.50000114754E+02 0.  0.
         12    1    1    2    0    0 -0.25496232927E+02  0.18996955375E+02  0.24029868552E+01  0.31885993050E+02  0.00000000000E+00 0. -1.
         11    1    3    3    0    0 -0.67397821122E+01 -0.15933631991E+02  0.12152895186E+02  0.21142330832E+02  0.51100000000E-03 0. -1.
        -11    1    3    3    0    0  0.12264679900E+02 -0.18013636192E+01  0.15225408996E+01  0.12489412116E+02  0.51100000000E-03 0.  1.
        -12    1    3    3    0    0  0.19971335139E+02 -0.12619597643E+01 -0.16078422940E+02  0.25670264002E+02  0.00000000000E+00 0.  1.
</event>
<event>
 7    1  0.5662448E-012  0.5930194E+02  0.7816164E-02  0.1266605E+00
        -11   -1    0    0    0    0  0.00000000000E+00  0.00000000000E+00  0.45593999997E+02  0.45594000000E+02  0.51100000000E-03 0.  1.
         11   -1    0    0    0    0 -0.00000000000E+00 -0.00000000000E+00 -0.45593999997E+02  0.45594000000E+02  0.51100000000E-03 0. -1.
    9900012    2    1    2    0    0  0.56720809784E+01 -0.60991604290E+01  0.30779029270E+02  0.59301938730E+02  0.49999990337E+02 0.  0.
         12    1    1    2    0    0 -0.56720809784E+01  0.60991604290E+01 -0.30779029270E+02  0.31886061270E+02  0.00000000000E+00 0. -1.
         11    1    3    3    0    0 -0.11513205738E+02  0.40759950046E+01 -0.33205236779E+01  0.12656757855E+02  0.51100000000E-03 0. -1.
        -11    1    3    3    0    0  0.97411762422E+01  0.72401416364E+01  0.18411404176E+02  0.22051983346E+02  0.51100000000E-03 0.  1.
        -12    1    3    3    0    0  0.74441104745E+01 -0.17415297070E+02  0.15688148771E+02  0.24593197528E+02  0.00000000000E+00 0.  1.
</event>
<event>
 7    1  0.5662448E-012  0.5930196E+02  0.7816164E-02  0.1266605E+00
        -11   -1    0    0    0    0  0.00000000000E+00  0.00000000000E+00  0.45593999997E+02  0.45594000000E+02  0.51100000000E-03 0. -1.
         11   -1    0    0    0    0 -0.00000000000E+00 -0.00000000000E+00 -0.45593999997E+02  0.45594000000E+02  0.51100000000E-03 0.  1.
    9900012    2    1    2    0    0  0.11774416483E+02  0.57579880334E+01 -0.29067644188E+02  0.59301964681E+02  0.50000037667E+02 0.  0.
         12    1    1    2    0    0 -0.11774416483E+02 -0.57579880334E+01  0.29067644188E+02  0.31886035319E+02  0.00000000000E+00 0. -1.
         11    1    3    3    0    0  0.14922389531E+02 -0.11022422409E+01  0.14896415079E+01  0.15037010320E+02  0.51100000000E-03 0. -1.
        -11    1    3    3    0    0 -0.19287920454E+00  0.46291341249E+01  0.59663911925E+01  0.75540657434E+01  0.51100000000E-03 0.  1.
        -12    1    3    3    0    0 -0.29550938441E+01  0.22310961494E+01 -0.36523676889E+02  0.36710888618E+02  0.00000000000E+00 0.  1.
</event>
<event>
 7    1  0.5662448E-012  0.5930189E+02  0.7816164E-02  0.1266605E+00
        -11   -1    0    0    0    0  0.00000000000E+00  0.00000000000E+00  0.45593999997E+02  0.45594000000E+02  0.51100000000E-03 0.  1.
         11   -1    0    0    0    0 -0.00000000000E+00 -0.00000000000E+00 -0.45593999997E+02  0.45594000000E+02  0.51100000000E-03 0. -1.
    9900012    2    1    2    0    0  0.76328712759E+01  0.26037146638E+02  0.16749044619E+02  0.59301886650E+02  0.49999895356E+02 0.  0.
         12    1    1    2    0    0 -0.76328712759E+01 -0.26037146638E+02 -0.16749044619E+02  0.31886113350E+02  0.00000000000E+00 0. -1.
         11    1    3    3    0    0  0.51864136372E+01  0.26665635857E+02 -0.11004603220E+02  0.29309662475E+02  0.51100000000E-03 0. -1.
        -11    1    3    3    0    0 -0.14963459047E+01  0.41641951942E+01  0.17095493652E+02  0.17658863954E+02  0.51100000000E-03 0.  1.
        -12    1    3    3    0    0  0.39428035434E+01 -0.47926844140E+01  0.10658154187E+02  0.12333360221E+02  0.00000000000E+00 0.  1.
</event>
<event>
 7    1  0.5662448E-012  0.5930196E+02  0.7816164E-02  0.1266605E+00
        -11   -1    0    0    0    0  0.00000000000E+00  0.00000000000E+00  0.45593999997E+02  0.45594000000E+02  0.51100000000E-03 0.  1.
         11   -1    0    0    0    0 -0.00000000000E+00 -0.00000000000E+00 -0.45593999997E+02  0.45594000000E+02  0.51100000000E-03 0. -1.
    9900012    2    1    2    0    0 -0.11035839609E+02  0.29564694689E+02  0.45670907258E+01  0.59301964724E+02  0.50000037745E+02 0.  0.
         12    1    1    2    0    0  0.11035839609E+02 -0.29564694689E+02 -0.45670907258E+01  0.31886035276E+02  0.00000000000E+00 0. -1.
         11    1    3    3    0    0 -0.37168803736E+01 -0.30046420533E+01 -0.15257328204E+01  0.50170643289E+01  0.51100000000E-03 0. -1.
        -11    1    3    3    0    0 -0.12962993033E+02  0.12091356809E+02  0.21631087027E+02  0.27966837935E+02  0.51100000000E-03 0.  1.
         12    1    3    3    0    0  0.56440337981E+01  0.20477979933E+02 -0.15538263481E+02  0.26318062460E+02  0.00000000000E+00 0. -1.
</event>
<event>
 7    1  0.5662448E-012  0.5930195E+02  0.7816164E-02  0.1266605E+00
        -11   -1    0    0    0    0  0.00000000000E+00  0.00000000000E+00  0.45593999997E+02  0.45594000000E+02  0.51100000000E-03 0.  1.
         11   -1    0    0    0    0 -0.00000000000E+00 -0.00000000000E+00 -0.45593999997E+02  0.45594000000E+02  0.51100000000E-03 0. -1.
    9900012    2    1    2    0    0  0.15100801528E+02  0.24846194825E+02  0.13090165143E+02  0.59301952463E+02  0.50000015384E+02 0.  0.
         12    1    1    2    0    0 -0.15100801528E+02 -0.24846194825E+02 -0.13090165143E+02  0.31886047537E+02  0.00000000000E+00 0. -1.
         11    1    3    3    0    0 -0.29834887653E+01  0.21434105822E+02 -0.44380976448E+01  0.22091147742E+02  0.51100000000E-03 0. -1.
        -11    1    3    3    0    0 -0.26247320855E+01  0.10005164124E+02  0.20910123588E+01  0.10552955066E+02  0.51100000000E-03 0.  1.
        -12    1    3    3    0    0  0.20709022379E+02 -0.65930751211E+01  0.15437250429E+02  0.26657849655E+02  0.00000000000E+00 0.  1.
</event>
<event>
 7    1  0.5662448E-012  0.5930192E+02  0.7816164E-02  0.1266605E+00
        -11   -1    0    0    0    0  0.00000000000E+00  0.00000000000E+00  0.45593999997E+02  0.45594000000E+02  0.51100000000E-03 0.  1.
         11   -1    0    0    0    0 -0.00000000000E+00 -0.00000000000E+00 -0.45593999997E+02  0.45594000000E+02  0.51100000000E-03 0. -1.
    9900012    2    1    2    0    0  0.97901236769E+01  0.12947441308E+02  0.27445207021E+02  0.59301919237E+02  0.49999954787E+02 0.  0.
         12    1    1    2    0    0 -0.97901236769E+01 -0.12947441308E+02 -0.27445207021E+02  0.31886080763E+02  0.00000000000E+00 0. -1.
         11    1    3    3    0    0  0.74957203272E+00 -0.76482359064E+00  0.45437017117E+01  0.46681943900E+01  0.51100000000E-03 0. -1.
        -11    1    3    3    0    0 -0.18322920363E+02  0.11128492509E+02  0.56022037121E+01  0.22157559497E+02  0.51100000000E-03 0.  1.
         12    1    3    3    0    0  0.27363472007E+02  0.25837723889E+01  0.17299301597E+02  0.32476165350E+02  0.00000000000E+00 0. -1.
</event>
<event>
 7    1  0.5662448E-012  0.5930194E+02  0.7816164E-02  0.1266605E+00
        -11   -1    0    0    0    0  0.00000000000E+00  0.00000000000E+00  0.45593999997E+02  0.45594000000E+02  0.51100000000E-03 0.  1.
         11   -1    0    0    0    0 -0.00000000000E+00 -0.00000000000E+00 -0.45593999997E+02  0.45594000000E+02  0.51100000000E-03 0. -1.
    9900012    2    1    2    0    0 -0.39551455698E+01  0.30092145718E+02  0.97744929765E+01  0.59301935280E+02  0.49999984046E+02 0.  0.
         12    1    1    2    0    0  0.39551455698E+01 -0.30092145718E+02 -0.97744929765E+01  0.31886064720E+02  0.00000000000E+00 0. -1.
         11    1    3    3    0    0  0.60687812734E+00  0.94332312735E-01 -0.45844943754E+01  0.46254500955E+01  0.51100000000E-03 0. -1.
        -11    1    3    3    0    0  0.63912820011E+01  0.11097812638E+02 -0.13938307020E+02  0.18928453022E+02  0.51100000000E-03 0.  1.
        -12    1    3    3    0    0 -0.10953305698E+02  0.18900000767E+02  0.28297294372E+02  0.35748032162E+02  0.00000000000E+00 0.  1.
</event>
<event>
 7    1  0.5662448E-012  0.5930194E+02  0.7816164E-02  0.1266605E+00
        -11   -1    0    0    0    0  0.00000000000E+00  0.00000000000E+00  0.45593999997E+02  0.45594000000E+02  0.51100000000E-03 0. -1.
         11   -1    0    0    0    0 -0.00000000000E+00 -0.00000000000E+00 -0.45593999997E+02  0.45594000000E+02  0.51100000000E-03 0.  1.
    9900012    2    1    2    0    0 -0.15251370754E+02 -0.26856098015E+02 -0.79288513599E+01  0.59301937302E+02  0.49999987735E+02 0.  0.
         12    1    1    2    0    0  0.15251370754E+02  0.26856098015E+02  0.79288513599E+01  0.31886062698E+02  0.00000000000E+00 0. -1.
         11    1    3    3    0    0  0.46805024910E+00  0.29206464708E+01 -0.80893512636E+01  0.86131789120E+01  0.51100000000E-03 0. -1.
        -11    1    3    3    0    0 -0.78483107825E+00 -0.31951941420E+02 -0.87820732076E+01  0.33146151065E+02  0.51100000000E-03 0.  1.
        -12    1    3    3    0    0 -0.14934589925E+02  0.21751969343E+01  0.89425731113E+01  0.17542607325E+02  0.00000000000E+00 0.  1.
</event>
<event>
 7    1  0.5662448E-012  0.5930195E+02  0.7816164E-02  0.1266605E+00
        -11   -1    0    0    0    0  0.00000000000E+00  0.00000000000E+00  0.45593999997E+02  0.45594000000E+02  0.51100000000E-03 0. -1.
         11   -1    0    0    0    0 -0.00000000000E+00 -0.00000000000E+00 -0.45593999997E+02  0.45594000000E+02  0.51100000000E-03 0.  1.
    9900012    2    1    2    0    0 -0.11728543237E+02 -0.27685938159E+02 -0.10613677317E+02  0.59301952199E+02  0.50000014902E+02 0.  0.
         12    1    1    2    0    0  0.11728543237E+02  0.27685938159E+02  0.10613677317E+02  0.31886047801E+02  0.00000000000E+00 0. -1.
         11    1    3    3    0    0 -0.12064264090E+02 -0.26490098716E+02 -0.96178948609E+01  0.30655761283E+02  0.51100000000E-03 0. -1.
        -11    1    3    3    0    0  0.53861866967E+01 -0.13794767232E+02  0.13540611029E+01  0.14870779799E+02  0.51100000000E-03 0.  1.
         12    1    3    3    0    0 -0.50504658434E+01  0.12598927789E+02 -0.23498435586E+01  0.13775411116E+02  0.00000000000E+00 0. -1.
</event>
<event>
 7    1  0.5662448E-012  0.5930194E+02  0.7816164E-02  0.1266605E+00
        -11   -1    0    0    0    0  0.00000000000E+00  0.00000000000E+00  0.45593999997E+02  0.45594000000E+02  0.51100000000E-03 0. -1.
         11   -1    0    0    0    0 -0.00000000000E+00 -0.00000000000E+00 -0.45593999997E+02  0.45594000000E+02  0.51100000000E-03 0.  1.
    9900012    2    1    2    0    0  0.10727959138E+02 -0.22214736322E+02 -0.20202408061E+02  0.59301938647E+02  0.49999990187E+02 0.  0.
         12    1    1    2    0    0 -0.10727959138E+02  0.22214736322E+02  0.20202408061E+02  0.31886061353E+02  0.00000000000E+00 0. -1.
         11    1    3    3    0    0 -0.53710473815E+01  0.45698516940E+01 -0.14051486077E+02  0.15721830546E+02  0.51100000000E-03 0. -1.
        -11    1    3    3    0    0  0.17150335768E+02 -0.43341758573E+01 -0.10665658553E+02  0.20656121852E+02  0.51100000000E-03 0.  1.
        -12    1    3    3    0    0 -0.10513292482E+01 -0.22450412158E+02  0.45147365689E+01  0.22923986249E+02  0.00000000000E+00 0.  1.
</event>
<event>
 7    1  0.5662448E-012  0.5930195E+02  0.7816164E-02  0.1266605E+00
        -11   -1    0    0    0    0  0.00000000000E+00  0.00000000000E+00  0.45593999997E+02  0.45594000000E+02  0.51100000000E-03 0.  1.
         11   -1    0    0    0    0 -0.00000000000E+00 -0.00000000000E+00 -0.45593999997E+02  0.45594000000E+02  0.51100000000E-03 0. -1.
    9900012    2    1    2    0    0 -0.22054126277E+01  0.16724959097E+02  0.27057937204E+02  0.59301951838E+02  0.50000014243E+02 0.  0.
         12    1    1    2    0    0  0.22054126277E+01 -0.16724959097E+02 -0.27057937204E+02  0.31886048162E+02  0.00000000000E+00 0. -1.
         11    1    3    3    0    0 -0.12273644423E+01 -0.45146528359E+01  0.18676928308E+02  0.19253990885E+02  0.51100000000E-03 0. -1.
        -11    1    3    3    0    0 -0.92378452259E+01  0.57739474431E+01  0.17247968898E+02  0.20400212864E+02  0.51100000000E-03 0.  1.
         12    1    3    3    0    0  0.82597970405E+01  0.15465664490E+02 -0.88669600026E+01  0.19647748089E+02  0.00000000000E+00 0. -1.
</event>
<event>
 7    1  0.5662448E-012  0.5930194E+02  0.7816164E-02  0.1266605E+00
        -11   -1    0    0    0    0  0.00000000000E+00  0.00000000000E+00  0.45593999997E+02  0.45594000000E+02  0.51100000000E-03 0.  1.
         11   -1    0    0    0    0 -0.00000000000E+00 -0.00000000000E+00 -0.45593999997E+02  0.45594000000E+02  0.51100000000E-03 0. -1.
    9900012    2    1    2    0    0  0.21612570966E+02  0.15291394184E+02  0.17770500583E+02  0.59301942689E+02  0.49999997559E+02 0.  0.
         12    1    1    2    0    0 -0.21612570966E+02 -0.15291394184E+02 -0.17770500583E+02  0.31886057311E+02  0.00000000000E+00 0. -1.
         11    1    3    3    0    0  0.34190627620E+01  0.75482006653E+01 -0.83771907753E+01  0.11783151064E+02  0.51100000000E-03 0. -1.
        -11    1    3    3    0    0 -0.22209120158E+00  0.14941338556E+02  0.26167068227E+00  0.14945279996E+02  0.51100000000E-03 0.  1.
        -12    1    3    3    0    0  0.18415599406E+02 -0.71981450374E+01  0.25886020676E+02  0.32573511630E+02  0.00000000000E+00 0.  1.
</event>
<event>
 7    1  0.5662448E-012  0.5930196E+02  0.7816164E-02  0.1266605E+00
        -11   -1    0    0    0    0  0.00000000000E+00  0.00000000000E+00  0.45593999997E+02  0.45594000000E+02  0.51100000000E-03 0.  1.
         11   -1    0    0    0    0 -0.00000000000E+00 -0.00000000000E+00 -0.45593999997E+02  0.45594000000E+02  0.51100000000E-03 0. -1.
    9900012    2    1    2    0    0  0.11428892537E+02  0.46723379981E+01  0.29398461199E+02  0.59301955281E+02  0.50000020523E+02 0.  0.
         12    1    1    2    0    0 -0.11428892537E+02 -0.46723379981E+01 -0.29398461199E+02  0.31886044719E+02  0.00000000000E+00 0. -1.
         11    1    3    3    0    0  0.37919981138E+01 -0.56262767721E+01 -0.49624674669E+01  0.84059695236E+01  0.51100000000E-03 0. -1.
        -11    1    3    3    0    0 -0.72946850730E+00 -0.62471657331E+01 -0.45706183194E+01  0.77749441209E+01  0.51100000000E-03 0.  1.
        -12    1    3    3    0    0  0.83663629309E+01  0.16545780503E+02  0.38931546985E+02  0.43121041636E+02  0.00000000000E+00 0.  1.
</event>
<event>
 7    1  0.5662448E-012  0.5930195E+02  0.7816164E-02  0.1266605E+00
        -11   -1    0    0    0    0  0.00000000000E+00  0.00000000000E+00  0.45593999997E+02  0.45594000000E+02  0.51100000000E-03 0.  1.
         11   -1    0    0    0    0 -0.00000000000E+00 -0.00000000000E+00 -0.45593999997E+02  0.45594000000E+02  0.51100000000E-03 0. -1.
    9900012    2    1    2    0    0  0.31878479093E+02 -0.47849103920E+00  0.50388838153E+00  0.59301948403E+02  0.50000007979E+02 0.  0.
         12    1    1    2    0    0 -0.31878479093E+02  0.47849103920E+00 -0.50388838153E+00  0.31886051597E+02  0.00000000000E+00 0. -1.
         11    1    3    3    0    0  0.29291542517E+01 -0.16074528917E+02 -0.11408519328E+02  0.19927988812E+02  0.51100000000E-03 0. -1.
        -11    1    3    3    0    0 -0.21107967666E+01  0.31731598222E+01  0.27181827454E+01  0.46811242182E+01  0.51100000000E-03 0.  1.
        -12    1    3    3    0    0  0.31060121608E+02  0.12422878056E+02  0.91942249644E+01  0.34692835373E+02  0.00000000000E+00 0.  1.
</event>
<event>
 7    1  0.5662448E-012  0.5930192E+02  0.7816164E-02  0.1266605E+00
        -11   -1    0    0    0    0  0.00000000000E+00  0.00000000000E+00  0.45593999997E+02  0.45594000000E+02  0.51100000000E-03 0. -1.
         11   -1    0    0    0    0 -0.00000000000E+00 -0.00000000000E+00 -0.45593999997E+02  0.45594000000E+02  0.51100000000E-03 0.  1.
    9900012    2    1    2    0    0 -0.12790584417E+02 -0.10261549801E+02 -0.27346361231E+02  0.59301922684E+02  0.49999961074E+02 0.  0.
         12    1    1    2    0    0  0.12790584417E+02  0.10261549801E+02  0.27346361231E+02  0.31886077316E+02  0.00000000000E+00 0. -1.
         11    1    3    3    0    0  0.26623724424E+01  0.11156739153E+02 -0.48225708787E+01  0.12442598028E+02  0.51100000000E-03 0. -1.
        -11    1    3    3    0    0 -0.16620266501E+02 -0.59235618833E+01  0.20728076771E+01  0.17765651575E+02  0.51100000000E-03 0.  1.
         12    1    3    3    0    0  0.11673096419E+01 -0.15494727070E+02 -0.24596598029E+02  0.29093673082E+02  0.00000000000E+00 0. -1.
</event>
<event>
 7    1  0.5662448E-012  0.5930194E+02  0.7816164E-02  0.1266605E+00
        -11   -1    0    0    0    0  0.00000000000E+00  0.00000000000E+00  0.45593999997E+02  0.45594000000E+02  0.51100000000E-03 0.  1.
         11   -1    0    0    0    0 -0.00000000000E+00 -0.00000000000E+00 -0.45593999997E+02  0.45594000000E+02  0.51100000000E-03 0. -1.
    9900012    2    1    2    0    0 -0.14360744164E+02  0.26950316890E+02 -0.91744301855E+01  0.59301941564E+02  0.49999995506E+02 0.  0.
         12    1    1    2    0    0  0.14360744164E+02 -0.26950316890E+02  0.91744301855E+01  0.31886058436E+02  0.00000000000E+00 0. -1.
         11    1    3    3    0    0 -0.49631533147E+01 -0.37317289136E+01  0.32154921778E+01  0.69927163332E+01  0.51100000000E-03 0. -1.
        -11    1    3    3    0    0 -0.20283102991E+02  0.20187723405E+02  0.52297045012E+01  0.29091205761E+02  0.51100000000E-03 0.  1.
         12    1    3    3    0    0  0.10885512143E+02  0.10494322399E+02 -0.17619626865E+02  0.23218019469E+02  0.00000000000E+00 0. -1.
</event>
<event>
 7    1  0.5662448E-012  0.5930207E+02  0.7816164E-02  0.1266604E+00
        -11   -1    0    0    0    0  0.00000000000E+00  0.00000000000E+00  0.45593999997E+02  0.45594000000E+02  0.51100000000E-03 0.  1.
         11   -1    0    0    0    0 -0.00000000000E+00 -0.00000000000E+00 -0.45593999997E+02  0.45594000000E+02  0.51100000000E-03 0. -1.
    9900012    2    1    2    0    0 -0.15537863762E+02  0.26829094002E+02 -0.74489691988E+01  0.59302068347E+02  0.50000226728E+02 0.  0.
         12    1    1    2    0    0  0.15537863762E+02 -0.26829094002E+02  0.74489691988E+01  0.31885931653E+02  0.00000000000E+00 0. -1.
         11    1    3    3    0    0  0.84948250661E+00  0.56319034454E+00  0.78578411473E+01  0.79236652914E+01  0.51100000000E-03 0. -1.
        -11    1    3    3    0    0 -0.92689259429E+01  0.16426868195E+02  0.11400855930E+02  0.22039385269E+02  0.51100000000E-03 0.  1.
         12    1    3    3    0    0 -0.71184203258E+01  0.98390354623E+01 -0.26707666276E+02  0.29339017786E+02  0.00000000000E+00 0. -1.
</event>
<event>
 7    1  0.5662448E-012  0.5930191E+02  0.7816164E-02  0.1266605E+00
        -11   -1    0    0    0    0  0.00000000000E+00  0.00000000000E+00  0.45593999997E+02  0.45594000000E+02  0.51100000000E-03 0.  1.
         11   -1    0    0    0    0 -0.00000000000E+00 -0.00000000000E+00 -0.45593999997E+02  0.45594000000E+02  0.51100000000E-03 0. -1.
    9900012    2    1    2    0    0  0.14523740844E+02 -0.27193869940E+02  0.81410708911E+01  0.59301911408E+02  0.49999940510E+02 0.  0.
         12    1    1    2    0    0 -0.14523740844E+02  0.27193869940E+02 -0.81410708911E+01  0.31886088592E+02  0.00000000000E+00 0. -1.
         11    1    3    3    0    0 -0.15449320441E+01 -0.35576611489E+02  0.28729608837E+01  0.35725845051E+02  0.51100000000E-03 0. -1.
        -11    1    3    3    0    0  0.40632838006E+01 -0.27367912760E+01  0.52930579306E+01  0.72122648489E+01  0.51100000000E-03 0.  1.
        -12    1    3    3    0    0  0.12005389088E+02  0.11119532825E+02 -0.24947923297E-01  0.16363801508E+02  0.00000000000E+00 0.  1.
</event>
<event>
 7    1  0.5662448E-012  0.5930196E+02  0.7816164E-02  0.1266605E+00
        -11   -1    0    0    0    0  0.00000000000E+00  0.00000000000E+00  0.45593999997E+02  0.45594000000E+02  0.51100000000E-03 0.  1.
         11   -1    0    0    0    0 -0.00000000000E+00 -0.00000000000E+00 -0.45593999997E+02  0.45594000000E+02  0.51100000000E-03 0. -1.
    9900012    2    1    2    0    0 -0.19582781847E+02  0.16936969038E+02  0.18611098774E+02  0.59301964457E+02  0.50000037258E+02 0.  0.
         12    1    1    2    0    0  0.19582781847E+02 -0.16936969038E+02 -0.18611098774E+02  0.31886035543E+02  0.00000000000E+00 0. -1.
         11    1    3    3    0    0  0.13806141906E+00 -0.73808092872E+01  0.73122094226E+01  0.10390563680E+02  0.51100000000E-03 0. -1.
        -11    1    3    3    0    0 -0.29349457853E+02  0.16296485078E+02  0.26298403667E+01  0.33673166806E+02  0.51100000000E-03 0.  1.
         12    1    3    3    0    0  0.96286145871E+01  0.80212932480E+01  0.86690489849E+01  0.15238233971E+02  0.00000000000E+00 0. -1.
</event>
<event>
 7    1  0.5662448E-012  0.5930195E+02  0.7816164E-02  0.1266605E+00
        -11   -1    0    0    0    0  0.00000000000E+00  0.00000000000E+00  0.45593999997E+02  0.45594000000E+02  0.51100000000E-03 0.  1.
         11   -1    0    0    0    0 -0.00000000000E+00 -0.00000000000E+00 -0.45593999997E+02  0.45594000000E+02  0.51100000000E-03 0. -1.
    9900012    2    1    2    0    0  0.25186456418E+02 -0.83986425336E+01  0.17658571350E+02  0.59301954064E+02  0.50000018304E+02 0.  0.
         12    1    1    2    0    0 -0.25186456418E+02  0.83986425336E+01 -0.17658571350E+02  0.31886045936E+02  0.00000000000E+00 0. -1.
         11    1    3    3    0    0  0.19481132235E+02  0.57200875105E+01  0.94074982032E+01  0.22377107431E+02  0.51100000000E-03 0. -1.
        -11    1    3    3    0    0  0.11203217456E+02 -0.16658183062E+02  0.16985258816E+02  0.26296504741E+02  0.51100000000E-03 0.  1.
         12    1    3    3    0    0 -0.54978932725E+01  0.25394530175E+01 -0.87341856693E+01  0.10628341892E+02  0.00000000000E+00 0. -1.
</event>
<event>
 7    1  0.5662448E-012  0.5930190E+02  0.7816164E-02  0.1266605E+00
        -11   -1    0    0    0    0  0.00000000000E+00  0.00000000000E+00  0.45593999997E+02  0.45594000000E+02  0.51100000000E-03 0.  1.
         11   -1    0    0    0    0 -0.00000000000E+00 -0.00000000000E+00 -0.45593999997E+02  0.45594000000E+02  0.51100000000E-03 0. -1.
    9900012    2    1    2    0    0  0.92100235103E+01  0.85076233751E+01  0.29317556735E+02  0.59301900811E+02  0.49999921184E+02 0.  0.
         12    1    1    2    0    0 -0.92100235103E+01 -0.85076233751E+01 -0.29317556735E+02  0.31886099189E+02  0.00000000000E+00 0. -1.
         11    1    3    3    0    0  0.37680045146E+01 -0.27110761983E+01  0.30831135255E+02  0.31178625588E+02  0.51100000000E-03 0. -1.
        -11    1    3    3    0    0  0.12464107221E+02 -0.12770442469E+00  0.48055951061E+01  0.13359042698E+02  0.51100000000E-03 0.  1.
         12    1    3    3    0    0 -0.70220882250E+01  0.11346403998E+02 -0.63191736266E+01  0.14764232525E+02  0.00000000000E+00 0. -1.
</event>
<event>
 7    1  0.5662448E-012  0.5930195E+02  0.7816164E-02  0.1266605E+00
        -11   -1    0    0    0    0  0.00000000000E+00  0.00000000000E+00  0.45593999997E+02  0.45594000000E+02  0.51100000000E-03 0.  1.
         11   -1    0    0    0    0 -0.00000000000E+00 -0.00000000000E+00 -0.45593999997E+02  0.45594000000E+02  0.51100000000E-03 0. -1.
    9900012    2    1    2    0    0 -0.17053796571E+02 -0.26058635786E+02  0.68436816288E+01  0.59301945765E+02  0.50000003167E+02 0.  0.
         12    1    1    2    0    0  0.17053796571E+02  0.26058635786E+02 -0.68436816288E+01  0.31886054235E+02  0.00000000000E+00 0. -1.
         11    1    3    3    0    0 -0.80675836674E+01  0.83497452189E+01 -0.13504402719E+02  0.17809352726E+02  0.51100000000E-03 0. -1.
        -11    1    3    3    0    0 -0.71024277195E+01 -0.14679412510E+02  0.10089784089E+02  0.19176375423E+02  0.51100000000E-03 0.  1.
        -12    1    3    3    0    0 -0.18837851836E+01 -0.19728968494E+02  0.10258300259E+02  0.22316217616E+02  0.00000000000E+00 0.  1.
</event>
<event>
 7    1  0.5662448E-012  0.5930160E+02  0.7816164E-02  0.1266606E+00
        -11   -1    0    0    0    0  0.00000000000E+00  0.00000000000E+00  0.45593999997E+02  0.45594000000E+02  0.51100000000E-03 0. -1.
         11   -1    0    0    0    0 -0.00000000000E+00 -0.00000000000E+00 -0.45593999997E+02  0.45594000000E+02  0.51100000000E-03 0.  1.
    9900012    2    1    2    0    0 -0.22653039952E+02  0.21831993902E+02  0.51909903786E+01  0.59301599170E+02  0.49999371058E+02 0.  0.
         12    1    1    2    0    0  0.22653039952E+02 -0.21831993902E+02 -0.51909903786E+01  0.31886400830E+02  0.00000000000E+00 0. -1.
         11    1    3    3    0    0 -0.69123436504E+01  0.25277545798E+02 -0.42101278206E+01  0.26541665224E+02  0.51100000000E-03 0. -1.
        -11    1    3    3    0    0  0.81433672731E-01  0.46707630162E+01 -0.71012595568E+01  0.85000321265E+01  0.51100000000E-03 0.  1.
         12    1    3    3    0    0 -0.15822129974E+02 -0.81163149129E+01  0.16502377756E+02  0.24259901819E+02  0.00000000000E+00 0. -1.
</event>
<event>
 7    1  0.5662448E-012  0.5930194E+02  0.7816164E-02  0.1266605E+00
        -11   -1    0    0    0    0  0.00000000000E+00  0.00000000000E+00  0.45593999997E+02  0.45594000000E+02  0.51100000000E-03 0.  1.
         11   -1    0    0    0    0 -0.00000000000E+00 -0.00000000000E+00 -0.45593999997E+02  0.45594000000E+02  0.51100000000E-03 0. -1.
    9900012    2    1    2    0    0 -0.17299553687E+02 -0.74433269177E+01  0.25730198416E+02  0.59301940602E+02  0.49999993753E+02 0.  0.
         12    1    1    2    0    0  0.17299553687E+02  0.74433269177E+01 -0.25730198416E+02  0.31886059398E+02  0.00000000000E+00 0. -1.
         11    1    3    3    0    0 -0.10096306955E+02  0.82843158126E+01 -0.23690958194E+01  0.13273203000E+02  0.51100000000E-03 0. -1.
        -11    1    3    3    0    0 -0.16278868784E+02 -0.20519554852E+02  0.20048215372E+02  0.32984612171E+02  0.51100000000E-03 0.  1.
         12    1    3    3    0    0  0.90756220517E+01  0.47919121221E+01  0.80510788634E+01  0.13044125432E+02  0.00000000000E+00 0. -1.
</event>
<event>
 7    1  0.5662448E-012  0.5930196E+02  0.7816164E-02  0.1266605E+00
        -11   -1    0    0    0    0  0.00000000000E+00  0.00000000000E+00  0.45593999997E+02  0.45594000000E+02  0.51100000000E-03 0.  1.
         11   -1    0    0    0    0 -0.00000000000E+00 -0.00000000000E+00 -0.45593999997E+02  0.45594000000E+02  0.51100000000E-03 0. -1.
    9900012    2    1    2    0    0  0.13349043754E+02 -0.27971031347E+02 -0.74929165293E+01  0.59301962901E+02  0.50000034420E+02 0.  0.
         12    1    1    2    0    0 -0.13349043754E+02  0.27971031347E+02  0.74929165293E+01  0.31886037099E+02  0.00000000000E+00 0. -1.
         11    1    3    3    0    0  0.83748526119E+01  0.17199493281E+01  0.13180510144E+01  0.86506439472E+01  0.51100000000E-03 0. -1.
        -11    1    3    3    0    0  0.28941400630E+01 -0.20995352788E+01 -0.20357454598E+02  0.20669060285E+02  0.51100000000E-03 0.  1.
        -12    1    3    3    0    0  0.20800510789E+01 -0.27591445397E+02  0.11546487054E+02  0.29982258669E+02  0.00000000000E+00 0.  1.
</event>
<event>
 7    1  0.5662448E-012  0.5930194E+02  0.7816164E-02  0.1266605E+00
        -11   -1    0    0    0    0  0.00000000000E+00  0.00000000000E+00  0.45593999997E+02  0.45594000000E+02  0.51100000000E-03 0. -1.
         11   -1    0    0    0    0 -0.00000000000E+00 -0.00000000000E+00 -0.45593999997E+02  0.45594000000E+02  0.51100000000E-03 0.  1.
    9900012    2    1    2    0    0  0.84348836753E+01 -0.17665688945E+02 -0.25169361317E+02  0.59301943837E+02  0.49999999652E+02 0.  0.
         12    1    1    2    0    0 -0.84348836753E+01  0.17665688945E+02  0.25169361317E+02  0.31886056163E+02  0.00000000000E+00 0. -1.
         11    1    3    3    0    0  0.10061636114E+02  0.10852950925E+02  0.17395657693E+01  0.14901313848E+02  0.51100000000E-03 0. -1.
        -11    1    3    3    0    0  0.22787968208E+01 -0.13026997042E+02 -0.13875466628E+00  0.13225536662E+02  0.51100000000E-03 0.  1.
        -12    1    3    3    0    0 -0.39055492590E+01 -0.15491642828E+02 -0.26770172420E+02  0.31175093327E+02  0.00000000000E+00 0.  1.
</event>
<event>
 7    1  0.5662448E-012  0.5930194E+02  0.7816164E-02  0.1266605E+00
        -11   -1    0    0    0    0  0.00000000000E+00  0.00000000000E+00  0.45593999997E+02  0.45594000000E+02  0.51100000000E-03 0. -1.
         11   -1    0    0    0    0 -0.00000000000E+00 -0.00000000000E+00 -0.45593999997E+02  0.45594000000E+02  0.51100000000E-03 0.  1.
    9900012    2    1    2    0    0  0.26129113348E+02  0.14777639153E+02 -0.10752290042E+02  0.59301938398E+02  0.49999989733E+02 0.  0.
         12    1    1    2    0    0 -0.26129113348E+02 -0.14777639153E+02  0.10752290042E+02  0.31886061602E+02  0.00000000000E+00 0. -1.
         11    1    3    3    0    0  0.10421496181E+02 -0.12968795259E+02 -0.54940659891E+01  0.17520901645E+02  0.51100000000E-03 0. -1.
        -11    1    3    3    0    0  0.96618389212E+01  0.42337195970E+01 -0.12585700666E+02  0.16421795714E+02  0.51100000000E-03 0.  1.
         12    1    3    3    0    0  0.60457782466E+01  0.23512714815E+02  0.73274766125E+01  0.25359241039E+02  0.00000000000E+00 0. -1.
</event>
<event>
 7    1  0.5662448E-012  0.5930193E+02  0.7816164E-02  0.1266605E+00
        -11   -1    0    0    0    0  0.00000000000E+00  0.00000000000E+00  0.45593999997E+02  0.45594000000E+02  0.51100000000E-03 0.  1.
         11   -1    0    0    0    0 -0.00000000000E+00 -0.00000000000E+00 -0.45593999997E+02  0.45594000000E+02  0.51100000000E-03 0. -1.
    9900012    2    1    2    0    0 -0.23401645118E+02  0.99932585979E+01  0.19215077246E+02  0.59301930859E+02  0.49999975984E+02 0.  0.
         12    1    1    2    0    0  0.23401645118E+02 -0.99932585979E+01 -0.19215077246E+02  0.31886069141E+02  0.00000000000E+00 0. -1.
         11    1    3    3    0    0 -0.13268653695E+02  0.13410045544E+02 -0.12282138863E+01  0.18904893598E+02  0.51100000000E-03 0. -1.
        -11    1    3    3    0    0 -0.19642128264E+02  0.64381375414E+01  0.15504824304E+02  0.25839163971E+02  0.51100000000E-03 0.  1.
         12    1    3    3    0    0  0.95091368411E+01 -0.98549244872E+01  0.49384668289E+01  0.14557873290E+02  0.00000000000E+00 0. -1.
</event>
<event>
 7    1  0.5662448E-012  0.5930196E+02  0.7816164E-02  0.1266605E+00
        -11   -1    0    0    0    0  0.00000000000E+00  0.00000000000E+00  0.45593999997E+02  0.45594000000E+02  0.51100000000E-03 0.  1.
         11   -1    0    0    0    0 -0.00000000000E+00 -0.00000000000E+00 -0.45593999997E+02  0.45594000000E+02  0.51100000000E-03 0. -1.
    9900012    2    1    2    0    0  0.14983168105E+02 -0.60447661876E+01 -0.27489726439E+02  0.59301959412E+02  0.50000028057E+02 0.  0.
         12    1    1    2    0    0 -0.14983168105E+02  0.60447661876E+01  0.27489726439E+02  0.31886040588E+02  0.00000000000E+00 0. -1.
         11    1    3    3    0    0 -0.10223290128E+02 -0.25525337047E+01 -0.23819626199E+02  0.26046222027E+02  0.51100000000E-03 0. -1.
        -11    1    3    3    0    0 -0.58377579609E+00 -0.55716576172E+01 -0.47709434163E+01  0.73584009218E+01  0.51100000000E-03 0.  1.
         12    1    3    3    0    0  0.25790234029E+02  0.20794251343E+01  0.11008431769E+01  0.25897336462E+02  0.00000000000E+00 0. -1.
</event>
<event>
 7    1  0.5662448E-012  0.5930194E+02  0.7816164E-02  0.1266605E+00
        -11   -1    0    0    0    0  0.00000000000E+00  0.00000000000E+00  0.45593999997E+02  0.45594000000E+02  0.51100000000E-03 0. -1.
         11   -1    0    0    0    0 -0.00000000000E+00 -0.00000000000E+00 -0.45593999997E+02  0.45594000000E+02  0.51100000000E-03 0.  1.
    9900012    2    1    2    0    0  0.24494154507E+02 -0.51032653542E+01 -0.19766485512E+02  0.59301939224E+02  0.49999991239E+02 0.  0.
         12    1    1    2    0    0 -0.24494154507E+02  0.51032653542E+01  0.19766485512E+02  0.31886060776E+02  0.00000000000E+00 0. -1.
         11    1    3    3    0    0 -0.11741883556E+02  0.31172276828E+01 -0.17305433839E+02  0.21143958440E+02  0.51100000000E-03 0. -1.
        -11    1    3    3    0    0  0.12242924723E+02  0.55887925891E+00 -0.29447647463E+01  0.12604490925E+02  0.51100000000E-03 0.  1.
        -12    1    3    3    0    0  0.23993113340E+02 -0.87793722959E+01  0.48371307360E+00  0.25553489859E+02  0.00000000000E+00 0.  1.
</event>
<event>
 7    1  0.5662448E-012  0.5930193E+02  0.7816164E-02  0.1266605E+00
        -11   -1    0    0    0    0  0.00000000000E+00  0.00000000000E+00  0.45593999997E+02  0.45594000000E+02  0.51100000000E-03 0.  1.
         11   -1    0    0    0    0 -0.00000000000E+00 -0.00000000000E+00 -0.45593999997E+02  0.45594000000E+02  0.51100000000E-03 0. -1.
    9900012    2    1    2    0    0 -0.72470004471E+01  0.28432475392E+02  0.12481867561E+02  0.59301926391E+02  0.49999967835E+02 0.  0.
         12    1    1    2    0    0  0.72470004471E+01 -0.28432475392E+02 -0.12481867561E+02  0.31886073609E+02  0.00000000000E+00 0. -1.
         11    1    3    3    0    0 -0.11605524639E+01 -0.76549851416E+01 -0.11395516950E+02  0.13776918609E+02  0.51100000000E-03 0. -1.
        -11    1    3    3    0    0 -0.54531220991E+01  0.46915029372E+01  0.61518792871E+01  0.94653240547E+01  0.51100000000E-03 0.  1.
        -12    1    3    3    0    0 -0.63332588407E+00  0.31395957596E+02  0.17725505224E+02  0.36059683727E+02  0.00000000000E+00 0.  1.
</event>
<event>
 7    1  0.5662448E-012  0.5930193E+02  0.7816164E-02  0.1266605E+00
        -11   -1    0    0    0    0  0.00000000000E+00  0.00000000000E+00  0.45593999997E+02  0.45594000000E+02  0.51100000000E-03 0. -1.
         11   -1    0    0    0    0 -0.00000000000E+00 -0.00000000000E+00 -0.45593999997E+02  0.45594000000E+02  0.51100000000E-03 0.  1.
    9900012    2    1    2    0    0 -0.14039435802E+02  0.12529274674E+01 -0.28601502714E+02  0.59301928709E+02  0.49999972062E+02 0.  0.
         12    1    1    2    0    0  0.14039435802E+02 -0.12529274674E+01  0.28601502714E+02  0.31886071291E+02  0.00000000000E+00 0. -1.
         11    1    3    3    0    0 -0.26756191862E+02  0.15237840624E+02 -0.15833892854E+02  0.34623658863E+02  0.51100000000E-03 0. -1.
        -11    1    3    3    0    0  0.44080571972E+01 -0.28352927500E+01  0.73934555036E+00  0.52930601108E+01  0.51100000000E-03 0.  1.
        -12    1    3    3    0    0  0.83086988636E+01 -0.11149620407E+02 -0.13506955411E+02  0.19385209736E+02  0.00000000000E+00 0.  1.
</event>
<event>
 7    1  0.5662448E-012  0.5930192E+02  0.7816164E-02  0.1266605E+00
        -11   -1    0    0    0    0  0.00000000000E+00  0.00000000000E+00  0.45593999997E+02  0.45594000000E+02  0.51100000000E-03 0.  1.
         11   -1    0    0    0    0 -0.00000000000E+00 -0.00000000000E+00 -0.45593999997E+02  0.45594000000E+02  0.51100000000E-03 0. -1.
    9900012    2    1    2    0    0 -0.19771660779E+02  0.99307472388E+01  0.22960481589E+02  0.59301921133E+02  0.49999958246E+02 0.  0.
         12    1    1    2    0    0  0.19771660779E+02 -0.99307472388E+01 -0.22960481589E+02  0.31886078867E+02  0.00000000000E+00 0. -1.
         11    1    3    3    0    0 -0.72650717449E+01  0.26593886421E+02  0.15956779457E+02  0.31853333787E+02  0.51100000000E-03 0. -1.
        -11    1    3    3    0    0 -0.11112351080E+01  0.23537281674E+01 -0.22351435093E+01  0.34308521564E+01  0.51100000000E-03 0.  1.
        -12    1    3    3    0    0 -0.11395353927E+02 -0.19016867349E+02  0.92388456406E+01  0.24017735190E+02  0.00000000000E+00 0.  1.
</event>
<event>
 7    1  0.5662448E-012  0.5930196E+02  0.7816164E-02  0.1266605E+00
        -11   -1    0    0    0    0  0.00000000000E+00  0.00000000000E+00  0.45593999997E+02  0.45594000000E+02  0.51100000000E-03 0. -1.
         11   -1    0    0    0    0 -0.00000000000E+00 -0.00000000000E+00 -0.45593999997E+02  0.45594000000E+02  0.51100000000E-03 0.  1.
    9900012    2    1    2    0    0  0.60078412958E+01 -0.27998917263E+02 -0.14024490282E+02  0.59301955206E+02  0.50000020387E+02 0.  0.
         12    1    1    2    0    0 -0.60078412958E+01  0.27998917263E+02  0.14024490282E+02  0.31886044794E+02  0.00000000000E+00 0. -1.
         11    1    3    3    0    0 -0.58671120294E+01 -0.78213016518E+01 -0.45012672793E+01  0.10763696878E+02  0.51100000000E-03 0. -1.
        -11    1    3    3    0    0 -0.48580572453E+01 -0.24745983187E+02 -0.16176378505E+02  0.29960634605E+02  0.51100000000E-03 0.  1.
         12    1    3    3    0    0  0.16733010570E+02  0.45683675760E+01  0.66531555033E+01  0.18577623724E+02  0.00000000000E+00 0. -1.
</event>
<event>
 7    1  0.5662448E-012  0.5930193E+02  0.7816164E-02  0.1266605E+00
        -11   -1    0    0    0    0  0.00000000000E+00  0.00000000000E+00  0.45593999997E+02  0.45594000000E+02  0.51100000000E-03 0. -1.
         11   -1    0    0    0    0 -0.00000000000E+00 -0.00000000000E+00 -0.45593999997E+02  0.45594000000E+02  0.51100000000E-03 0.  1.
    9900012    2    1    2    0    0 -0.25904981640E+02 -0.18545855294E+02 -0.13057355000E+01  0.59301925178E+02  0.49999965623E+02 0.  0.
         12    1    1    2    0    0  0.25904981640E+02  0.18545855294E+02  0.13057355000E+01  0.31886074822E+02  0.00000000000E+00 0. -1.
         11    1    3    3    0    0  0.53867364071E+01 -0.93078459840E+01 -0.98511963091E+00  0.10799230849E+02  0.51100000000E-03 0. -1.
        -11    1    3    3    0    0 -0.94110406609E+01 -0.15771979841E+02  0.12592827117E+02  0.22268864576E+02  0.51100000000E-03 0.  1.
         12    1    3    3    0    0 -0.21880677386E+02  0.65339705313E+01 -0.12913442987E+02  0.26233829754E+02  0.00000000000E+00 0. -1.
</event>
<event>
 7    1  0.5662448E-012  0.5930198E+02  0.7816164E-02  0.1266605E+00
        -11   -1    0    0    0    0  0.00000000000E+00  0.00000000000E+00  0.45593999997E+02  0.45594000000E+02  0.51100000000E-03 0.  1.
         11   -1    0    0    0    0 -0.00000000000E+00 -0.00000000000E+00 -0.45593999997E+02  0.45594000000E+02  0.51100000000E-03 0. -1.
    9900012    2    1    2    0    0 -0.99114315395E+01 -0.25963394248E+02  0.15632781690E+02  0.59301981443E+02  0.50000068237E+02 0.  0.
         12    1    1    2    0    0  0.99114315395E+01  0.25963394248E+02 -0.15632781690E+02  0.31886018557E+02  0.00000000000E+00 0. -1.
         11    1    3    3    0    0  0.97280756507E+01 -0.19272733294E+01  0.61377476562E+01  0.11662837772E+02  0.51100000000E-03 0. -1.
        -11    1    3    3    0    0  0.10893941176E+01 -0.22729032734E+02 -0.36686082043E+01  0.23048956484E+02  0.51100000000E-03 0.  1.
        -12    1    3    3    0    0 -0.20728901308E+02 -0.13070881847E+01  0.13163642238E+02  0.24590187187E+02  0.00000000000E+00 0.  1.
</event>
<event>
 7    1  0.6057030E-012  0.5930195E+02  0.7816164E-02  0.1266605E+00
        -11   -1    0    0    0    0  0.00000000000E+00  0.00000000000E+00  0.45593999997E+02  0.45594000000E+02  0.51100000000E-03 0. -1.
         11   -1    0    0    0    0 -0.00000000000E+00 -0.00000000000E+00 -0.45593999997E+02  0.45594000000E+02  0.51100000000E-03 0.  1.
    9900012    2    1    2    0    0  0.88724807239E+00  0.89104762903E+01 -0.30602881482E+02  0.59301950514E+02  0.50000011829E+02 0.  0.
         12    1    1    2    0    0 -0.88724807239E+00 -0.89104762903E+01  0.30602881482E+02  0.31886049486E+02  0.00000000000E+00 0. -1.
         11    1    3    3    0    0  0.62093209101E+01 -0.99199991787E+01  0.64193531497E+01  0.13348038994E+02  0.51100000000E-03 0. -1.
        -11    1    3    3    0    0  0.85036624998E+00  0.78902643024E+01 -0.12417195531E+01  0.80325127595E+01  0.51100000000E-03 0.  1.
        -12    1    3    3    0    0 -0.61724390877E+01  0.10940211167E+02 -0.35780515078E+02  0.37921398760E+02  0.00000000000E+00 0.  1.
</event>
<event>
 7    1  0.5662448E-012  0.5930194E+02  0.7816164E-02  0.1266605E+00
        -11   -1    0    0    0    0  0.00000000000E+00  0.00000000000E+00  0.45593999997E+02  0.45594000000E+02  0.51100000000E-03 0.  1.
         11   -1    0    0    0    0 -0.00000000000E+00 -0.00000000000E+00 -0.45593999997E+02  0.45594000000E+02  0.51100000000E-03 0. -1.
    9900012    2    1    2    0    0  0.25060380439E+02  0.14114769858E+02  0.13764858117E+02  0.59301941685E+02  0.49999995728E+02 0.  0.
         12    1    1    2    0    0 -0.25060380439E+02 -0.14114769858E+02 -0.13764858117E+02  0.31886058315E+02  0.00000000000E+00 0. -1.
         11    1    3    3    0    0 -0.20312648583E+01 -0.70936374295E+00 -0.28552906004E+01  0.35751809071E+01  0.51100000000E-03 0. -1.
        -11    1    3    3    0    0  0.15126060210E+01  0.25160170231E+02  0.11333424098E+02  0.27636364541E+02  0.51100000000E-03 0.  1.
        -12    1    3    3    0    0  0.25579039276E+02 -0.10336036630E+02  0.52867246197E+01  0.28090396237E+02  0.00000000000E+00 0.  1.
</event>
<event>
 7    1  0.5662448E-012  0.5930187E+02  0.7816164E-02  0.1266605E+00
        -11   -1    0    0    0    0  0.00000000000E+00  0.00000000000E+00  0.45593999997E+02  0.45594000000E+02  0.51100000000E-03 0.  1.
         11   -1    0    0    0    0 -0.00000000000E+00 -0.00000000000E+00 -0.45593999997E+02  0.45594000000E+02  0.51100000000E-03 0. -1.
    9900012    2    1    2    0    0  0.28980315231E+02 -0.37844437695E+00  0.13293731766E+02  0.59301871428E+02  0.49999867595E+02 0.  0.
         12    1    1    2    0    0 -0.28980315231E+02  0.37844437695E+00 -0.13293731766E+02  0.31886128572E+02  0.00000000000E+00 0. -1.
         11    1    3    3    0    0  0.57266226058E+01 -0.30227495053E+01 -0.11100707474E+02  0.12851339531E+02  0.51100000000E-03 0. -1.
        -11    1    3    3    0    0  0.18805919151E+02 -0.36559798696E+01 -0.17067200239E+01  0.19233867979E+02  0.51100000000E-03 0.  1.
         12    1    3    3    0    0  0.44477734745E+01  0.63002849979E+01  0.26101159264E+02  0.27216663918E+02  0.00000000000E+00 0. -1.
</event>
<event>
 7    1  0.5662448E-012  0.5930193E+02  0.7816164E-02  0.1266605E+00
        -11   -1    0    0    0    0  0.00000000000E+00  0.00000000000E+00  0.45593999997E+02  0.45594000000E+02  0.51100000000E-03 0.  1.
         11   -1    0    0    0    0 -0.00000000000E+00 -0.00000000000E+00 -0.45593999997E+02  0.45594000000E+02  0.51100000000E-03 0. -1.
    9900012    2    1    2    0    0 -0.12366931468E+02 -0.14507332964E+02  0.25560084205E+02  0.59301927677E+02  0.49999970179E+02 0.  0.
         12    1    1    2    0    0  0.12366931468E+02  0.14507332964E+02 -0.25560084205E+02  0.31886072323E+02  0.00000000000E+00 0. -1.
         11    1    3    3    0    0  0.12261262837E+01 -0.77023421941E+01  0.11218572533E+01  0.78795954780E+01  0.51100000000E-03 0. -1.
        -11    1    3    3    0    0  0.15294867368E+02 -0.56926624087E+01  0.81871208289E+01  0.18258376730E+02  0.51100000000E-03 0.  1.
         12    1    3    3    0    0 -0.28887925120E+02 -0.11123283610E+01  0.16251106122E+02  0.33163955468E+02  0.00000000000E+00 0. -1.
</event>
<event>
 7    1  0.5662448E-012  0.5930183E+02  0.7816164E-02  0.1266605E+00
        -11   -1    0    0    0    0  0.00000000000E+00  0.00000000000E+00  0.45593999997E+02  0.45594000000E+02  0.51100000000E-03 0. -1.
         11   -1    0    0    0    0 -0.00000000000E+00 -0.00000000000E+00 -0.45593999997E+02  0.45594000000E+02  0.51100000000E-03 0.  1.
    9900012    2    1    2    0    0 -0.21785156674E+02 -0.34135791073E+01 -0.23032204021E+02  0.59301827516E+02  0.49999787510E+02 0.  0.
         12    1    1    2    0    0  0.21785156674E+02  0.34135791073E+01  0.23032204021E+02  0.31886172484E+02  0.00000000000E+00 0. -1.
         11    1    3    3    0    0 -0.20060344630E+01 -0.10696316877E+02  0.11995457479E+02  0.16196492503E+02  0.51100000000E-03 0. -1.
        -11    1    3    3    0    0  0.14458980571E+01  0.27974769782E+01 -0.68924247328E+01  0.75777316919E+01  0.51100000000E-03 0.  1.
        -12    1    3    3    0    0 -0.21225020268E+02  0.44852607917E+01 -0.28135236768E+02  0.35527603321E+02  0.00000000000E+00 0.  1.
</event>
<event>
 7    1  0.5662448E-012  0.5930195E+02  0.7816164E-02  0.1266605E+00
        -11   -1    0    0    0    0  0.00000000000E+00  0.00000000000E+00  0.45593999997E+02  0.45594000000E+02  0.51100000000E-03 0.  1.
         11   -1    0    0    0    0 -0.00000000000E+00 -0.00000000000E+00 -0.45593999997E+02  0.45594000000E+02  0.51100000000E-03 0. -1.
    9900012    2    1    2    0    0  0.26167775498E+02 -0.16936958085E+02  0.67162070634E+01  0.59301945666E+02  0.50000002988E+02 0.  0.
         12    1    1    2    0    0 -0.26167775498E+02  0.16936958085E+02 -0.67162070634E+01  0.31886054334E+02  0.00000000000E+00 0. -1.
         11    1    3    3    0    0  0.72563924239E+01  0.13533769142E+02 -0.52654320007E+01  0.16234004823E+02  0.51100000000E-03 0. -1.
        -11    1    3    3    0    0  0.18003320247E+02 -0.11042218958E+02  0.20219472602E+01  0.21216465549E+02  0.51100000000E-03 0.  1.
        -12    1    3    3    0    0  0.90806282702E+00 -0.19428508269E+02  0.99596918039E+01  0.21851475293E+02  0.00000000000E+00 0.  1.
</event>
<event>
 7    1  0.5662448E-012  0.5930199E+02  0.7816164E-02  0.1266605E+00
        -11   -1    0    0    0    0  0.00000000000E+00  0.00000000000E+00  0.45593999997E+02  0.45594000000E+02  0.51100000000E-03 0.  1.
         11   -1    0    0    0    0 -0.00000000000E+00 -0.00000000000E+00 -0.45593999997E+02  0.45594000000E+02  0.51100000000E-03 0. -1.
    9900012    2    1    2    0    0  0.41988211904E+01  0.30499718665E+02 -0.82978596317E+01  0.59301993469E+02  0.50000090169E+02 0.  0.
         12    1    1    2    0    0 -0.41988211904E+01 -0.30499718665E+02  0.82978596317E+01  0.31886006531E+02  0.00000000000E+00 0. -1.
         11    1    3    3    0    0  0.28809096571E+00  0.10093965764E+02  0.15970012878E+02  0.18894773162E+02  0.51100000000E-03 0. -1.
        -11    1    3    3    0    0  0.10662269431E+00  0.21378137550E+02 -0.66967363960E+01  0.22402732247E+02  0.51100000000E-03 0.  1.
         12    1    3    3    0    0  0.38041075304E+01 -0.97238464933E+00 -0.17571136114E+02  0.18004488061E+02  0.00000000000E+00 0. -1.
</event>
<event>
 7    1  0.5662448E-012  0.5930194E+02  0.7816164E-02  0.1266605E+00
        -11   -1    0    0    0    0  0.00000000000E+00  0.00000000000E+00  0.45593999997E+02  0.45594000000E+02  0.51100000000E-03 0.  1.
         11   -1    0    0    0    0 -0.00000000000E+00 -0.00000000000E+00 -0.45593999997E+02  0.45594000000E+02  0.51100000000E-03 0. -1.
    9900012    2    1    2    0    0 -0.24729531165E+02 -0.34698459494E+00  0.20125866087E+02  0.59301943554E+02  0.49999999136E+02 0.  0.
         12    1    1    2    0    0  0.24729531165E+02  0.34698459494E+00 -0.20125866087E+02  0.31886056446E+02  0.00000000000E+00 0. -1.
         11    1    3    3    0    0 -0.34301729048E+01 -0.75476041703E+01 -0.23588607700E+01  0.86195498294E+01  0.51100000000E-03 0. -1.
        -11    1    3    3    0    0  0.21172277323E+00 -0.60122598879E+01  0.24622801172E+02  0.25347079384E+02  0.51100000000E-03 0.  1.
        -12    1    3    3    0    0 -0.21511081033E+02  0.13212879463E+02 -0.21380743156E+01  0.25335314340E+02  0.00000000000E+00 0.  1.
</event>
<event>
 7    1  0.5662448E-012  0.5930195E+02  0.7816164E-02  0.1266605E+00
        -11   -1    0    0    0    0  0.00000000000E+00  0.00000000000E+00  0.45593999997E+02  0.45594000000E+02  0.51100000000E-03 0. -1.
         11   -1    0    0    0    0 -0.00000000000E+00 -0.00000000000E+00 -0.45593999997E+02  0.45594000000E+02  0.51100000000E-03 0.  1.
    9900012    2    1    2    0    0 -0.94446749046E+01 -0.15727972155E+02  0.26079668254E+02  0.59301951509E+02  0.50000013644E+02 0.  0.
         12    1    1    2    0    0  0.94446749046E+01  0.15727972155E+02 -0.26079668254E+02  0.31886048491E+02  0.00000000000E+00 0. -1.
         11    1    3    3    0    0  0.22633387512E+01  0.13162914148E+02  0.35504092549E+01  0.13819928267E+02  0.51100000000E-03 0. -1.
        -11    1    3    3    0    0 -0.12776634474E+02 -0.29013451809E+01  0.45830386010E+01  0.13880361502E+02  0.51100000000E-03 0.  1.
         12    1    3    3    0    0  0.10686208182E+01 -0.25989541122E+02  0.17946220398E+02  0.31601661740E+02  0.00000000000E+00 0. -1.
</event>
<event>
 7    1  0.5662448E-012  0.5930196E+02  0.7816164E-02  0.1266605E+00
        -11   -1    0    0    0    0  0.00000000000E+00  0.00000000000E+00  0.45593999997E+02  0.45594000000E+02  0.51100000000E-03 0. -1.
         11   -1    0    0    0    0 -0.00000000000E+00 -0.00000000000E+00 -0.45593999997E+02  0.45594000000E+02  0.51100000000E-03 0.  1.
    9900012    2    1    2    0    0 -0.36748327682E+01  0.25580011593E+02  0.18678275910E+02  0.59301962618E+02  0.50000033904E+02 0.  0.
         12    1    1    2    0    0  0.36748327682E+01 -0.25580011593E+02 -0.18678275910E+02  0.31886037382E+02  0.00000000000E+00 0. -1.
         11    1    3    3    0    0  0.60191571700E+01  0.99629543990E+01  0.29620665070E+01  0.12011017927E+02  0.51100000000E-03 0. -1.
        -11    1    3    3    0    0  0.68362093292E+01  0.17209144219E+02  0.22683509090E+02  0.29281905465E+02  0.51100000000E-03 0.  1.
        -12    1    3    3    0    0 -0.16530199267E+02 -0.15920870252E+01 -0.69672996874E+01  0.18009039226E+02  0.00000000000E+00 0.  1.
</event>
<event>
 7    1  0.5680053E-012  0.5930195E+02  0.7816164E-02  0.1266605E+00
        -11   -1    0    0    0    0  0.00000000000E+00  0.00000000000E+00  0.45593999997E+02  0.45594000000E+02  0.51100000000E-03 0. -1.
         11   -1    0    0    0    0 -0.00000000000E+00 -0.00000000000E+00 -0.45593999997E+02  0.45594000000E+02  0.51100000000E-03 0.  1.
    9900012    2    1    2    0    0 -0.20436307825E+01  0.15832275575E+02 -0.27602222384E+02  0.59301951997E+02  0.50000014535E+02 0.  0.
         12    1    1    2    0    0  0.20436307825E+01 -0.15832275575E+02  0.27602222384E+02  0.31886048003E+02  0.00000000000E+00 0. -1.
         11    1    3    3    0    0 -0.16691576931E-01  0.12572014380E+02  0.94252647989E+00  0.12607306635E+02  0.51100000000E-03 0. -1.
        -11    1    3    3    0    0 -0.95700102820E+01  0.15992043772E+02 -0.25502721186E+02  0.31586695758E+02  0.51100000000E-03 0.  1.
        -12    1    3    3    0    0  0.75430710764E+01 -0.12731782576E+02 -0.30420276787E+01  0.15107949604E+02  0.00000000000E+00 0.  1.
</event>
<event>
 7    1  0.5662448E-012  0.5930196E+02  0.7816164E-02  0.1266605E+00
        -11   -1    0    0    0    0  0.00000000000E+00  0.00000000000E+00  0.45593999997E+02  0.45594000000E+02  0.51100000000E-03 0. -1.
         11   -1    0    0    0    0 -0.00000000000E+00 -0.00000000000E+00 -0.45593999997E+02  0.45594000000E+02  0.51100000000E-03 0.  1.
    9900012    2    1    2    0    0 -0.19652027197E+02  0.23121112063E+02 -0.97944686734E+01  0.59301958970E+02  0.50000027252E+02 0.  0.
         12    1    1    2    0    0  0.19652027197E+02 -0.23121112063E+02  0.97944686734E+01  0.31886041030E+02  0.00000000000E+00 0. -1.
         11    1    3    3    0    0  0.23181470473E+00 -0.45029500406E+01 -0.11535116746E+02  0.12385039997E+02  0.51100000000E-03 0. -1.
        -11    1    3    3    0    0 -0.84563986827E+01  0.30746553656E+01  0.14435383001E+02  0.17010128363E+02  0.51100000000E-03 0.  1.
        -12    1    3    3    0    0 -0.11427443219E+02  0.24549406738E+02 -0.12694734928E+02  0.29906790610E+02  0.00000000000E+00 0.  1.
</event>
<event>
 7    1  0.5662448E-012  0.5930196E+02  0.7816164E-02  0.1266605E+00
        -11   -1    0    0    0    0  0.00000000000E+00  0.00000000000E+00  0.45593999997E+02  0.45594000000E+02  0.51100000000E-03 0.  1.
         11   -1    0    0    0    0 -0.00000000000E+00 -0.00000000000E+00 -0.45593999997E+02  0.45594000000E+02  0.51100000000E-03 0. -1.
    9900012    2    1    2    0    0 -0.14353701934E+01 -0.15600880299E+02  0.27771781749E+02  0.59301958929E+02  0.50000027176E+02 0.  0.
         12    1    1    2    0    0  0.14353701934E+01  0.15600880299E+02 -0.27771781749E+02  0.31886041071E+02  0.00000000000E+00 0. -1.
         11    1    3    3    0    0  0.84580492725E+01  0.31606293035E+01 -0.35584066137E+01  0.97051755770E+01  0.51100000000E-03 0. -1.
        -11    1    3    3    0    0 -0.13133605358E+02 -0.30813999830E+01 -0.99149806643E+00  0.13526628710E+02  0.51100000000E-03 0.  1.
        -12    1    3    3    0    0  0.32401858926E+01 -0.15680109620E+02  0.32321686429E+02  0.36070154642E+02  0.00000000000E+00 0.  1.
</event>
<event>
 7    1  0.5662448E-012  0.5930189E+02  0.7816164E-02  0.1266605E+00
        -11   -1    0    0    0    0  0.00000000000E+00  0.00000000000E+00  0.45593999997E+02  0.45594000000E+02  0.51100000000E-03 0. -1.
         11   -1    0    0    0    0 -0.00000000000E+00 -0.00000000000E+00 -0.45593999997E+02  0.45594000000E+02  0.51100000000E-03 0.  1.
    9900012    2    1    2    0    0 -0.27129814196E+02  0.15547089437E+02 -0.62438074226E+01  0.59301891122E+02  0.49999903512E+02 0.  0.
         12    1    1    2    0    0  0.27129814196E+02 -0.15547089437E+02  0.62438074226E+01  0.31886108878E+02  0.00000000000E+00 0. -1.
         11    1    3    3    0    0  0.79089060653E+01 -0.26096835262E+01 -0.30120634066E+01  0.88562841804E+01  0.51100000000E-03 0. -1.
        -11    1    3    3    0    0 -0.56527342928E+01  0.18301649239E+02  0.52472933364E+01  0.19860459649E+02  0.51100000000E-03 0.  1.
        -12    1    3    3    0    0 -0.29385985968E+02 -0.14487627593E+00 -0.84790373524E+01  0.30585147292E+02  0.00000000000E+00 0.  1.
</event>
<event>
 7    1  0.5662448E-012  0.5930192E+02  0.7816164E-02  0.1266605E+00
        -11   -1    0    0    0    0  0.00000000000E+00  0.00000000000E+00  0.45593999997E+02  0.45594000000E+02  0.51100000000E-03 0.  1.
         11   -1    0    0    0    0 -0.00000000000E+00 -0.00000000000E+00 -0.45593999997E+02  0.45594000000E+02  0.51100000000E-03 0. -1.
    9900012    2    1    2    0    0 -0.20154231162E+02 -0.24606274697E+02  0.22494952743E+01  0.59301921264E+02  0.49999958484E+02 0.  0.
         12    1    1    2    0    0  0.20154231162E+02  0.24606274697E+02 -0.22494952743E+01  0.31886078736E+02  0.00000000000E+00 0. -1.
         11    1    3    3    0    0 -0.26039188708E+02 -0.90670592946E+01 -0.29983454837E+01  0.27735194045E+02  0.51100000000E-03 0. -1.
        -11    1    3    3    0    0 -0.69842269403E+01 -0.14939053701E+01  0.96592717646E+01  0.12013022538E+02  0.51100000000E-03 0.  1.
         12    1    3    3    0    0  0.12869184486E+02 -0.14045310032E+02 -0.44114310066E+01  0.19553704681E+02  0.00000000000E+00 0. -1.
</event>
<event>
 7    1  0.5662448E-012  0.5930193E+02  0.7816164E-02  0.1266605E+00
        -11   -1    0    0    0    0  0.00000000000E+00  0.00000000000E+00  0.45593999997E+02  0.45594000000E+02  0.51100000000E-03 0. -1.
         11   -1    0    0    0    0 -0.00000000000E+00 -0.00000000000E+00 -0.45593999997E+02  0.45594000000E+02  0.51100000000E-03 0.  1.
    9900012    2    1    2    0    0  0.22167366007E+02 -0.13390863917E+02 -0.18601453317E+02  0.59301930665E+02  0.49999975630E+02 0.  0.
         12    1    1    2    0    0 -0.22167366007E+02  0.13390863917E+02  0.18601453317E+02  0.31886069335E+02  0.00000000000E+00 0. -1.
         11    1    3    3    0    0 -0.49018122431E+01  0.10337582972E+01 -0.10853123185E+02  0.11953522602E+02  0.51100000000E-03 0. -1.
        -11    1    3    3    0    0  0.27737936891E+02 -0.51312397006E+01 -0.18025775248E+02  0.33476130861E+02  0.51100000000E-03 0.  1.
        -12    1    3    3    0    0 -0.66875864176E+00 -0.92933825135E+01  0.10277445116E+02  0.13872277202E+02  0.00000000000E+00 0.  1.
</event>
<event>
 7    1  0.5662448E-012  0.5930189E+02  0.7816164E-02  0.1266605E+00
        -11   -1    0    0    0    0  0.00000000000E+00  0.00000000000E+00  0.45593999997E+02  0.45594000000E+02  0.51100000000E-03 0. -1.
         11   -1    0    0    0    0 -0.00000000000E+00 -0.00000000000E+00 -0.45593999997E+02  0.45594000000E+02  0.51100000000E-03 0.  1.
    9900012    2    1    2    0    0  0.11941810588E+02  0.26626933945E+02  0.12850034711E+02  0.59301892625E+02  0.49999906254E+02 0.  0.
         12    1    1    2    0    0 -0.11941810588E+02 -0.26626933945E+02 -0.12850034711E+02  0.31886107375E+02  0.00000000000E+00 0. -1.
         11    1    3    3    0    0 -0.10478650774E+02  0.25036698562E+02  0.18291833998E+02  0.32729643875E+02  0.51100000000E-03 0. -1.
        -11    1    3    3    0    0 -0.51383613888E+00  0.11259287182E+01 -0.33107021978E+01  0.35344720058E+01  0.51100000000E-03 0.  1.
        -12    1    3    3    0    0  0.22934297501E+02  0.46430666523E+00 -0.21310970893E+01  0.23037776745E+02  0.00000000000E+00 0.  1.
</event>
<event>
 7    1  0.5662448E-012  0.5930194E+02  0.7816164E-02  0.1266605E+00
        -11   -1    0    0    0    0  0.00000000000E+00  0.00000000000E+00  0.45593999997E+02  0.45594000000E+02  0.51100000000E-03 0.  1.
         11   -1    0    0    0    0 -0.00000000000E+00 -0.00000000000E+00 -0.45593999997E+02  0.45594000000E+02  0.51100000000E-03 0. -1.
    9900012    2    1    2    0    0  0.22935457603E+02 -0.21786755223E+02  0.40028252718E+01  0.59301944604E+02  0.50000001050E+02 0.  0.
         12    1    1    2    0    0 -0.22935457603E+02  0.21786755223E+02 -0.40028252718E+01  0.31886055396E+02  0.00000000000E+00 0. -1.
         11    1    3    3    0    0 -0.42341464853E+00 -0.17901549324E+01 -0.35601175557E+01  0.40072898470E+01  0.51100000000E-03 0. -1.
        -11    1    3    3    0    0  0.29917142287E+02 -0.27636681333E+02  0.14315437603E+02  0.43171209293E+02  0.51100000000E-03 0.  1.
         12    1    3    3    0    0 -0.65582700361E+01  0.76400810431E+01 -0.67524947759E+01  0.12123445464E+02  0.00000000000E+00 0. -1.
</event>
<event>
 7    1  0.5662448E-012  0.5930197E+02  0.7816164E-02  0.1266605E+00
        -11   -1    0    0    0    0  0.00000000000E+00  0.00000000000E+00  0.45593999997E+02  0.45594000000E+02  0.51100000000E-03 0.  1.
         11   -1    0    0    0    0 -0.00000000000E+00 -0.00000000000E+00 -0.45593999997E+02  0.45594000000E+02  0.51100000000E-03 0. -1.
    9900012    2    1    2    0    0 -0.20069604898E+02 -0.24771125077E+02  0.56694627440E+00  0.59301966907E+02  0.50000041727E+02 0.  0.
         12    1    1    2    0    0  0.20069604898E+02  0.24771125077E+02 -0.56694627440E+00  0.31886033093E+02  0.00000000000E+00 0. -1.
         11    1    3    3    0    0  0.94821414737E+01 -0.92172308541E+01 -0.31440215150E+01  0.13592395782E+02  0.51100000000E-03 0. -1.
        -11    1    3    3    0    0 -0.96357861624E+01  0.28312938713E+00  0.15033675005E+02  0.17858889149E+02  0.51100000000E-03 0.  1.
        -12    1    3    3    0    0 -0.19915960209E+02 -0.15837023610E+02 -0.11322707215E+02  0.27850681976E+02  0.00000000000E+00 0.  1.
</event>
<event>
 7    1  0.5662448E-012  0.5930195E+02  0.7816164E-02  0.1266605E+00
        -11   -1    0    0    0    0  0.00000000000E+00  0.00000000000E+00  0.45593999997E+02  0.45594000000E+02  0.51100000000E-03 0. -1.
         11   -1    0    0    0    0 -0.00000000000E+00 -0.00000000000E+00 -0.45593999997E+02  0.45594000000E+02  0.51100000000E-03 0.  1.
    9900012    2    1    2    0    0  0.28038950316E+02 -0.80079898489E+01 -0.12899986865E+02  0.59301948232E+02  0.50000007667E+02 0.  0.
         12    1    1    2    0    0 -0.28038950316E+02  0.80079898489E+01  0.12899986865E+02  0.31886051768E+02  0.00000000000E+00 0. -1.
         11    1    3    3    0    0  0.32148955256E+02 -0.69245245513E+00 -0.10946743815E+02  0.33968603369E+02  0.51100000000E-03 0. -1.
        -11    1    3    3    0    0  0.94772146545E+01 -0.62413656873E+01 -0.27642902067E+01  0.11679620878E+02  0.51100000000E-03 0.  1.
         12    1    3    3    0    0 -0.13587219594E+02 -0.10741717066E+01  0.81104715625E+00  0.13653723985E+02  0.00000000000E+00 0. -1.
</event>
<event>
 7    1  0.5662448E-012  0.5930196E+02  0.7816164E-02  0.1266605E+00
        -11   -1    0    0    0    0  0.00000000000E+00  0.00000000000E+00  0.45593999997E+02  0.45594000000E+02  0.51100000000E-03 0.  1.
         11   -1    0    0    0    0 -0.00000000000E+00 -0.00000000000E+00 -0.45593999997E+02  0.45594000000E+02  0.51100000000E-03 0. -1.
    9900012    2    1    2    0    0  0.11295412960E+00 -0.84441919240E+01  0.30747401646E+02  0.59301955343E+02  0.50000020637E+02 0.  0.
         12    1    1    2    0    0 -0.11295412960E+00  0.84441919240E+01 -0.30747401646E+02  0.31886044657E+02  0.00000000000E+00 0. -1.
         11    1    3    3    0    0  0.71510888759E+01  0.17903647413E+02  0.14216695961E+02  0.23953978941E+02  0.51100000000E-03 0. -1.
        -11    1    3    3    0    0  0.14839014305E+01 -0.18572563311E+02  0.14557266355E+02  0.23644366674E+02  0.51100000000E-03 0.  1.
        -12    1    3    3    0    0 -0.85220361768E+01 -0.77752760259E+01  0.19734393296E+01  0.11703609728E+02  0.00000000000E+00 0.  1.
</event>
<event>
 7    1  0.5662448E-012  0.5930195E+02  0.7816164E-02  0.1266605E+00
        -11   -1    0    0    0    0  0.00000000000E+00  0.00000000000E+00  0.45593999997E+02  0.45594000000E+02  0.51100000000E-03 0.  1.
         11   -1    0    0    0    0 -0.00000000000E+00 -0.00000000000E+00 -0.45593999997E+02  0.45594000000E+02  0.51100000000E-03 0. -1.
    9900012    2    1    2    0    0  0.30686997097E+02 -0.63968323596E+00  0.86382365246E+01  0.59301951080E+02  0.50000012862E+02 0.  0.
         12    1    1    2    0    0 -0.30686997097E+02  0.63968323596E+00 -0.86382365246E+01  0.31886048920E+02  0.00000000000E+00 0. -1.
         11    1    3    3    0    0  0.20817638485E+02  0.78634588756E+01  0.19822417172E+01  0.22341381785E+02  0.51100000000E-03 0. -1.
        -11    1    3    3    0    0  0.13419528055E+02 -0.31310737162E+01  0.18744145470E+02  0.23264357835E+02  0.51100000000E-03 0.  1.
         12    1    3    3    0    0 -0.35501694431E+01 -0.53720683954E+01 -0.12088150663E+02  0.13696211460E+02  0.00000000000E+00 0. -1.
</event>
<event>
 7    1  0.5662448E-012  0.5930195E+02  0.7816164E-02  0.1266605E+00
        -11   -1    0    0    0    0  0.00000000000E+00  0.00000000000E+00  0.45593999997E+02  0.45594000000E+02  0.51100000000E-03 0.  1.
         11   -1    0    0    0    0 -0.00000000000E+00 -0.00000000000E+00 -0.45593999997E+02  0.45594000000E+02  0.51100000000E-03 0. -1.
    9900012    2    1    2    0    0 -0.22473356495E+02  0.16019527693E+02  0.15970076329E+02  0.59301947287E+02  0.50000005945E+02 0.  0.
         12    1    1    2    0    0  0.22473356495E+02 -0.16019527693E+02 -0.15970076329E+02  0.31886052713E+02  0.00000000000E+00 0. -1.
         11    1    3    3    0    0  0.12303254173E+02  0.18605464595E+01 -0.52398341885E+01  0.13501391000E+02  0.51100000000E-03 0. -1.
        -11    1    3    3    0    0 -0.52584093987E+01 -0.30712698494E+01  0.54126476519E+01  0.81474120282E+01  0.51100000000E-03 0.  1.
        -12    1    3    3    0    0 -0.29518201269E+02  0.17230251083E+02  0.15797262865E+02  0.37653144259E+02  0.00000000000E+00 0.  1.
</event>
<event>
 7    1  0.5662448E-012  0.5930191E+02  0.7816164E-02  0.1266605E+00
        -11   -1    0    0    0    0  0.00000000000E+00  0.00000000000E+00  0.45593999997E+02  0.45594000000E+02  0.51100000000E-03 0. -1.
         11   -1    0    0    0    0 -0.00000000000E+00 -0.00000000000E+00 -0.45593999997E+02  0.45594000000E+02  0.51100000000E-03 0.  1.
    9900012    2    1    2    0    0 -0.24781321774E+02  0.19456937052E+02 -0.49027112604E+01  0.59301907640E+02  0.49999933637E+02 0.  0.
         12    1    1    2    0    0  0.24781321774E+02 -0.19456937052E+02  0.49027112604E+01  0.31886092360E+02  0.00000000000E+00 0. -1.
         11    1    3    3    0    0 -0.14189080582E+02  0.35573753557E+01 -0.25718593041E+01  0.14852588587E+02  0.51100000000E-03 0. -1.
        -11    1    3    3    0    0 -0.20932819854E+02 -0.44045813215E+01 -0.32939668601E+01  0.21643324642E+02  0.51100000000E-03 0.  1.
         12    1    3    3    0    0  0.10340578662E+02  0.20304143018E+02  0.96311490383E+00  0.22805994411E+02  0.00000000000E+00 0. -1.
</event>
<event>
 7    1  0.5662448E-012  0.5930195E+02  0.7816164E-02  0.1266605E+00
        -11   -1    0    0    0    0  0.00000000000E+00  0.00000000000E+00  0.45593999997E+02  0.45594000000E+02  0.51100000000E-03 0.  1.
         11   -1    0    0    0    0 -0.00000000000E+00 -0.00000000000E+00 -0.45593999997E+02  0.45594000000E+02  0.51100000000E-03 0. -1.
    9900012    2    1    2    0    0 -0.11273722808E+02 -0.89987766676E+00  0.29812977751E+02  0.59301949003E+02  0.50000009074E+02 0.  0.
         12    1    1    2    0    0  0.11273722808E+02  0.89987766676E+00 -0.29812977751E+02  0.31886050997E+02  0.00000000000E+00 0. -1.
         11    1    3    3    0    0 -0.14431620059E+02  0.98980445109E+01  0.98292384431E+01  0.20071294709E+02  0.51100000000E-03 0. -1.
        -11    1    3    3    0    0 -0.10977798700E+01  0.53722472821E+01  0.21737243641E+02  0.22418160560E+02  0.51100000000E-03 0.  1.
         12    1    3    3    0    0  0.42556771207E+01 -0.16170169460E+02 -0.17535043330E+01  0.16812493734E+02  0.00000000000E+00 0. -1.
</event>
<event>
 7    1  0.5662448E-012  0.5930195E+02  0.7816164E-02  0.1266605E+00
        -11   -1    0    0    0    0  0.00000000000E+00  0.00000000000E+00  0.45593999997E+02  0.45594000000E+02  0.51100000000E-03 0.  1.
         11   -1    0    0    0    0 -0.00000000000E+00 -0.00000000000E+00 -0.45593999997E+02  0.45594000000E+02  0.51100000000E-03 0. -1.
    9900012    2    1    2    0    0  0.25866223739E+01 -0.21599002046E+02  0.23313363092E+02  0.59301946570E+02  0.50000004636E+02 0.  0.
         12    1    1    2    0    0 -0.25866223739E+01  0.21599002046E+02 -0.23313363092E+02  0.31886053430E+02  0.00000000000E+00 0. -1.
         11    1    3    3    0    0 -0.12962169454E+00 -0.53156393486E+01 -0.91322358715E+01  0.10567429003E+02  0.51100000000E-03 0. -1.
        -11    1    3    3    0    0 -0.31155905161E+01  0.52172044083E+01 -0.30716270553E+01  0.68088926508E+01  0.51100000000E-03 0.  1.
        -12    1    3    3    0    0  0.58318345845E+01 -0.21500567105E+02  0.35517226019E+02  0.41925624916E+02  0.00000000000E+00 0.  1.
</event>
<event>
 7    1  0.5662448E-012  0.5930195E+02  0.7816164E-02  0.1266605E+00
        -11   -1    0    0    0    0  0.00000000000E+00  0.00000000000E+00  0.45593999997E+02  0.45594000000E+02  0.51100000000E-03 0.  1.
         11   -1    0    0    0    0 -0.00000000000E+00 -0.00000000000E+00 -0.45593999997E+02  0.45594000000E+02  0.51100000000E-03 0. -1.
    9900012    2    1    2    0    0  0.10755108480E+02  0.70916830354E+01 -0.29167722167E+02  0.59301947515E+02  0.50000006360E+02 0.  0.
         12    1    1    2    0    0 -0.10755108480E+02 -0.70916830354E+01  0.29167722167E+02  0.31886052485E+02  0.00000000000E+00 0. -1.
         11    1    3    3    0    0  0.18135189770E+02 -0.48918471994E+01 -0.20425948644E+02  0.27749498288E+02  0.51100000000E-03 0. -1.
        -11    1    3    3    0    0 -0.17143055776E+01  0.18779501014E+02 -0.11736333920E+02  0.22211484329E+02  0.51100000000E-03 0.  1.
         12    1    3    3    0    0 -0.56657757122E+01 -0.67959707793E+01  0.29945603966E+01  0.93409648978E+01  0.00000000000E+00 0. -1.
</event>
<event>
 7    1  0.5662448E-012  0.5930193E+02  0.7816164E-02  0.1266605E+00
        -11   -1    0    0    0    0  0.00000000000E+00  0.00000000000E+00  0.45593999997E+02  0.45594000000E+02  0.51100000000E-03 0.  1.
         11   -1    0    0    0    0 -0.00000000000E+00 -0.00000000000E+00 -0.45593999997E+02  0.45594000000E+02  0.51100000000E-03 0. -1.
    9900012    2    1    2    0    0 -0.11733956430E+02  0.99931700956E+01  0.27913651892E+02  0.59301934956E+02  0.49999983456E+02 0.  0.
         12    1    1    2    0    0  0.11733956430E+02 -0.99931700956E+01 -0.27913651892E+02  0.31886065044E+02  0.00000000000E+00 0. -1.
         11    1    3    3    0    0  0.15248291324E+01  0.20475460906E+01 -0.11025140019E+02  0.11316857407E+02  0.51100000000E-03 0. -1.
        -11    1    3    3    0    0 -0.92440131360E+01  0.45203546033E+01  0.17671743361E+01  0.10440703520E+02  0.51100000000E-03 0.  1.
         12    1    3    3    0    0 -0.40147724261E+01  0.34252694017E+01  0.37171617575E+02  0.37544374029E+02  0.00000000000E+00 0. -1.
</event>
<event>
 7    1  0.5662448E-012  0.5930189E+02  0.7816164E-02  0.1266605E+00
        -11   -1    0    0    0    0  0.00000000000E+00  0.00000000000E+00  0.45593999997E+02  0.45594000000E+02  0.51100000000E-03 0.  1.
         11   -1    0    0    0    0 -0.00000000000E+00 -0.00000000000E+00 -0.45593999997E+02  0.45594000000E+02  0.51100000000E-03 0. -1.
    9900012    2    1    2    0    0  0.49743992289E+01 -0.10023873707E+02  0.29858014256E+02  0.59301894764E+02  0.49999910155E+02 0.  0.
         12    1    1    2    0    0 -0.49743992289E+01  0.10023873707E+02 -0.29858014256E+02  0.31886105236E+02  0.00000000000E+00 0. -1.
         11    1    3    3    0    0  0.10671333650E+02 -0.11194972111E+02  0.24223389487E+02  0.28739821866E+02  0.51100000000E-03 0. -1.
        -11    1    3    3    0    0  0.31665946094E+01 -0.12481447084E+02  0.61637739511E+01  0.14276062213E+02  0.51100000000E-03 0.  1.
         12    1    3    3    0    0 -0.88635290301E+01  0.13652545488E+02 -0.52914918140E+00  0.16286010685E+02  0.00000000000E+00 0. -1.
</event>
<event>
 7    1  0.5662448E-012  0.5930194E+02  0.7816164E-02  0.1266605E+00
        -11   -1    0    0    0    0  0.00000000000E+00  0.00000000000E+00  0.45593999997E+02  0.45594000000E+02  0.51100000000E-03 0.  1.
         11   -1    0    0    0    0 -0.00000000000E+00 -0.00000000000E+00 -0.45593999997E+02  0.45594000000E+02  0.51100000000E-03 0. -1.
    9900012    2    1    2    0    0 -0.29440971830E+02 -0.93504861003E+01  0.79068495034E+01  0.59301942205E+02  0.49999996676E+02 0.  0.
         12    1    1    2    0    0  0.29440971830E+02  0.93504861003E+01 -0.79068495034E+01  0.31886057795E+02  0.00000000000E+00 0. -1.
         11    1    3    3    0    0 -0.59879627430E+01 -0.12320864356E+02 -0.72484800002E+01  0.15498382460E+02  0.51100000000E-03 0. -1.
        -11    1    3    3    0    0 -0.12749121315E+02 -0.15281861249E+02  0.82783632095E+01  0.21554736724E+02  0.51100000000E-03 0.  1.
         12    1    3    3    0    0 -0.10703887772E+02  0.18252239506E+02  0.68769662942E+01  0.22248823021E+02  0.00000000000E+00 0. -1.
</event>
<event>
 7    1  0.5662448E-012  0.5930196E+02  0.7816164E-02  0.1266605E+00
        -11   -1    0    0    0    0  0.00000000000E+00  0.00000000000E+00  0.45593999997E+02  0.45594000000E+02  0.51100000000E-03 0. -1.
         11   -1    0    0    0    0 -0.00000000000E+00 -0.00000000000E+00 -0.45593999997E+02  0.45594000000E+02  0.51100000000E-03 0.  1.
    9900012    2    1    2    0    0  0.27615918694E+01 -0.25118489998E+02 -0.19446205182E+02  0.59301955633E+02  0.50000021165E+02 0.  0.
         12    1    1    2    0    0 -0.27615918694E+01  0.25118489998E+02  0.19446205182E+02  0.31886044367E+02  0.00000000000E+00 0. -1.
         11    1    3    3    0    0 -0.80581418316E+01 -0.95086806712E+01 -0.25445221737E+01  0.12720976819E+02  0.51100000000E-03 0. -1.
        -11    1    3    3    0    0 -0.99013963483E+01  0.38025418236E+01 -0.14665929288E+02  0.18099349605E+02  0.51100000000E-03 0.  1.
         12    1    3    3    0    0  0.20721130049E+02 -0.19412351150E+02 -0.22357537202E+01  0.28481629209E+02  0.00000000000E+00 0. -1.
</event>
<event>
 7    1  0.5662448E-012  0.5930193E+02  0.7816164E-02  0.1266605E+00
        -11   -1    0    0    0    0  0.00000000000E+00  0.00000000000E+00  0.45593999997E+02  0.45594000000E+02  0.51100000000E-03 0.  1.
         11   -1    0    0    0    0 -0.00000000000E+00 -0.00000000000E+00 -0.45593999997E+02  0.45594000000E+02  0.51100000000E-03 0. -1.
    9900012    2    1    2    0    0  0.20390673334E+02 -0.24244445047E+02 -0.36261259821E+01  0.59301929934E+02  0.49999974296E+02 0.  0.
         12    1    1    2    0    0 -0.20390673334E+02  0.24244445047E+02  0.36261259821E+01  0.31886070066E+02  0.00000000000E+00 0. -1.
         11    1    3    3    0    0  0.16158341161E+02 -0.11056117182E+01 -0.15448118645E+02  0.22382107503E+02  0.51100000000E-03 0. -1.
        -11    1    3    3    0    0  0.77643245732E+01 -0.19196126218E+02 -0.32362613696E+01  0.20958277261E+02  0.51100000000E-03 0.  1.
        -12    1    3    3    0    0 -0.35319924007E+01 -0.39427071111E+01  0.15058254033E+02  0.15961545169E+02  0.00000000000E+00 0.  1.
</event>
<event>
 7    1  0.5662448E-012  0.5930199E+02  0.7816164E-02  0.1266605E+00
        -11   -1    0    0    0    0  0.00000000000E+00  0.00000000000E+00  0.45593999997E+02  0.45594000000E+02  0.51100000000E-03 0.  1.
         11   -1    0    0    0    0 -0.00000000000E+00 -0.00000000000E+00 -0.45593999997E+02  0.45594000000E+02  0.51100000000E-03 0. -1.
    9900012    2    1    2    0    0 -0.31029660953E+02 -0.50271499177E+01  0.53484162674E+01  0.59301989718E+02  0.50000083328E+02 0.  0.
         12    1    1    2    0    0  0.31029660953E+02  0.50271499177E+01 -0.53484162674E+01  0.31886010282E+02  0.00000000000E+00 0. -1.
         11    1    3    3    0    0 -0.21776013807E+02 -0.10266837080E+02 -0.45957117610E+01  0.24509657031E+02  0.51100000000E-03 0. -1.
        -11    1    3    3    0    0 -0.10944108340E+02  0.16760218650E+02  0.87987327275E+00  0.20036282434E+02  0.51100000000E-03 0.  1.
         12    1    3    3    0    0  0.16904611934E+01 -0.11520531487E+02  0.90642547556E+01  0.14756050253E+02  0.00000000000E+00 0. -1.
</event>
<event>
 7    1  0.5662448E-012  0.5930176E+02  0.7816164E-02  0.1266605E+00
        -11   -1    0    0    0    0  0.00000000000E+00  0.00000000000E+00  0.45593999997E+02  0.45594000000E+02  0.51100000000E-03 0.  1.
         11   -1    0    0    0    0 -0.00000000000E+00 -0.00000000000E+00 -0.45593999997E+02  0.45594000000E+02  0.51100000000E-03 0. -1.
    9900012    2    1    2    0    0  0.70365131363E+01 -0.10848349771E+02  0.29146753737E+02  0.59301757461E+02  0.49999659746E+02 0.  0.
         12    1    1    2    0    0 -0.70365131363E+01  0.10848349771E+02 -0.29146753737E+02  0.31886242539E+02  0.00000000000E+00 0. -1.
         11    1    3    3    0    0  0.77668834949E+01 -0.11533652527E+02 -0.97510594506E+00  0.13939169692E+02  0.51100000000E-03 0. -1.
        -11    1    3    3    0    0 -0.12914062750E+02 -0.10829104629E+02  0.18114304087E+02  0.24742080280E+02  0.51100000000E-03 0.  1.
         12    1    3    3    0    0  0.12183692392E+02  0.11514407385E+02  0.12007555595E+02  0.20620507488E+02  0.00000000000E+00 0. -1.
</event>
<event>
 7    1  0.5662448E-012  0.5930194E+02  0.7816164E-02  0.1266605E+00
        -11   -1    0    0    0    0  0.00000000000E+00  0.00000000000E+00  0.45593999997E+02  0.45594000000E+02  0.51100000000E-03 0. -1.
         11   -1    0    0    0    0 -0.00000000000E+00 -0.00000000000E+00 -0.45593999997E+02  0.45594000000E+02  0.51100000000E-03 0.  1.
    9900012    2    1    2    0    0 -0.13259609896E+02  0.81522370505E+00 -0.28986872449E+02  0.59301943193E+02  0.49999998478E+02 0.  0.
         12    1    1    2    0    0  0.13259609896E+02 -0.81522370505E+00  0.28986872449E+02  0.31886056807E+02  0.00000000000E+00 0. -1.
         11    1    3    3    0    0  0.29156035900E+01 -0.79629196669E+01 -0.61213846420E+00  0.85019731637E+01  0.51100000000E-03 0. -1.
        -11    1    3    3    0    0  0.70867435210E+01 -0.90006944268E+01 -0.24966852640E+01  0.11724669354E+02  0.51100000000E-03 0.  1.
        -12    1    3    3    0    0 -0.23261957007E+02  0.17778837799E+02 -0.25878048721E+02  0.39075300675E+02  0.00000000000E+00 0.  1.
</event>
<event>
 7    1  0.5662448E-012  0.5930193E+02  0.7816164E-02  0.1266605E+00
        -11   -1    0    0    0    0  0.00000000000E+00  0.00000000000E+00  0.45593999997E+02  0.45594000000E+02  0.51100000000E-03 0.  1.
         11   -1    0    0    0    0 -0.00000000000E+00 -0.00000000000E+00 -0.45593999997E+02  0.45594000000E+02  0.51100000000E-03 0. -1.
    9900012    2    1    2    0    0 -0.23182544526E+02  0.21877111589E+02  0.82643760099E+00  0.59301931235E+02  0.49999976669E+02 0.  0.
         12    1    1    2    0    0  0.23182544526E+02 -0.21877111589E+02 -0.82643760099E+00  0.31886068765E+02  0.00000000000E+00 0. -1.
         11    1    3    3    0    0 -0.33931564619E+01 -0.27298801798E+01 -0.14127622754E+02  0.14783622070E+02  0.51100000000E-03 0. -1.
        -11    1    3    3    0    0 -0.24037973724E+02  0.88621520270E+01  0.94375473204E+01  0.27302549679E+02  0.51100000000E-03 0.  1.
        -12    1    3    3    0    0  0.42485856603E+01  0.15744839742E+02  0.55165130343E+01  0.17215759486E+02  0.00000000000E+00 0.  1.
</event>
<event>
 7    1  0.5662448E-012  0.5930194E+02  0.7816164E-02  0.1266605E+00
        -11   -1    0    0    0    0  0.00000000000E+00  0.00000000000E+00  0.45593999997E+02  0.45594000000E+02  0.51100000000E-03 0.  1.
         11   -1    0    0    0    0 -0.00000000000E+00 -0.00000000000E+00 -0.45593999997E+02  0.45594000000E+02  0.51100000000E-03 0. -1.
    9900012    2    1    2    0    0  0.46008112080E+01  0.10446227383E+02  0.29772969844E+02  0.59301939352E+02  0.49999991472E+02 0.  0.
         12    1    1    2    0    0 -0.46008112080E+01 -0.10446227383E+02 -0.29772969844E+02  0.31886060648E+02  0.00000000000E+00 0. -1.
         11    1    3    3    0    0  0.54991471491E+01 -0.48529393897E+01  0.76090609561E+01  0.10568322903E+02  0.51100000000E-03 0. -1.
        -11    1    3    3    0    0  0.80849329883E+01 -0.97771248075E+01 -0.19100684860E+01  0.12829913203E+02  0.51100000000E-03 0.  1.
        -12    1    3    3    0    0 -0.89832689293E+01  0.25076291581E+02  0.24073977374E+02  0.35903703245E+02  0.00000000000E+00 0.  1.
</event>
<event>
 7    1  0.5662448E-012  0.5930195E+02  0.7816164E-02  0.1266605E+00
        -11   -1    0    0    0    0  0.00000000000E+00  0.00000000000E+00  0.45593999997E+02  0.45594000000E+02  0.51100000000E-03 0.  1.
         11   -1    0    0    0    0 -0.00000000000E+00 -0.00000000000E+00 -0.45593999997E+02  0.45594000000E+02  0.51100000000E-03 0. -1.
    9900012    2    1    2    0    0  0.60758087126E+01 -0.18928624198E+02  0.24930136072E+02  0.59301953677E+02  0.50000017598E+02 0.  0.
         12    1    1    2    0    0 -0.60758087126E+01  0.18928624198E+02 -0.24930136072E+02  0.31886046323E+02  0.00000000000E+00 0. -1.
         11    1    3    3    0    0  0.26076825282E+01 -0.24504440447E+01 -0.41341814379E+01  0.54677363330E+01  0.51100000000E-03 0. -1.
        -11    1    3    3    0    0 -0.10144102882E+02  0.45190083446E+01 -0.44883194961E+01  0.11977865914E+02  0.51100000000E-03 0.  1.
        -12    1    3    3    0    0  0.13612229067E+02 -0.20997188498E+02  0.33552637006E+02  0.41856351430E+02  0.00000000000E+00 0.  1.
</event>
<event>
 7    1  0.5662448E-012  0.5930196E+02  0.7816164E-02  0.1266605E+00
        -11   -1    0    0    0    0  0.00000000000E+00  0.00000000000E+00  0.45593999997E+02  0.45594000000E+02  0.51100000000E-03 0. -1.
         11   -1    0    0    0    0 -0.00000000000E+00 -0.00000000000E+00 -0.45593999997E+02  0.45594000000E+02  0.51100000000E-03 0.  1.
    9900012    2    1    2    0    0  0.16572788247E+02 -0.24059174409E+01 -0.27134369939E+02  0.59301956329E+02  0.50000022435E+02 0.  0.
         12    1    1    2    0    0 -0.16572788247E+02  0.24059174409E+01  0.27134369939E+02  0.31886043671E+02  0.00000000000E+00 0. -1.
         11    1    3    3    0    0 -0.40903896134E+01 -0.20085486089E+00  0.13070387262E+01  0.42988347674E+01  0.51100000000E-03 0. -1.
        -11    1    3    3    0    0 -0.89999904051E+01  0.18905835057E+01 -0.22728377292E+02  0.24518427108E+02  0.51100000000E-03 0.  1.
        -12    1    3    3    0    0  0.29663168266E+02 -0.40956460857E+01 -0.57130313728E+01  0.30484694453E+02  0.00000000000E+00 0.  1.
</event>
<event>
 7    1  0.5662448E-012  0.5930193E+02  0.7816164E-02  0.1266605E+00
        -11   -1    0    0    0    0  0.00000000000E+00  0.00000000000E+00  0.45593999997E+02  0.45594000000E+02  0.51100000000E-03 0.  1.
         11   -1    0    0    0    0 -0.00000000000E+00 -0.00000000000E+00 -0.45593999997E+02  0.45594000000E+02  0.51100000000E-03 0. -1.
    9900012    2    1    2    0    0  0.25298539665E+02 -0.62172227153E+00  0.19398934909E+02  0.59301932143E+02  0.49999978324E+02 0.  0.
         12    1    1    2    0    0 -0.25298539665E+02  0.62172227153E+00 -0.19398934909E+02  0.31886067857E+02  0.00000000000E+00 0. -1.
         11    1    3    3    0    0 -0.12450472342E+02 -0.71399387477E+01  0.19951207522E+01  0.14490462171E+02  0.51100000000E-03 0. -1.
        -11    1    3    3    0    0  0.12254978791E+02 -0.14355528300E+01  0.12676977940E+02  0.17690423597E+02  0.51100000000E-03 0.  1.
        -12    1    3    3    0    0  0.25494033216E+02  0.79537693061E+01  0.47268362173E+01  0.27121046374E+02  0.00000000000E+00 0.  1.
</event>
<event>
 7    1  0.5662448E-012  0.5930191E+02  0.7816164E-02  0.1266605E+00
        -11   -1    0    0    0    0  0.00000000000E+00  0.00000000000E+00  0.45593999997E+02  0.45594000000E+02  0.51100000000E-03 0. -1.
         11   -1    0    0    0    0 -0.00000000000E+00 -0.00000000000E+00 -0.45593999997E+02  0.45594000000E+02  0.51100000000E-03 0.  1.
    9900012    2    1    2    0    0  0.21069721659E+02 -0.20830377332E+02  0.11784954650E+02  0.59301906688E+02  0.49999931902E+02 0.  0.
         12    1    1    2    0    0 -0.21069721659E+02  0.20830377332E+02 -0.11784954650E+02  0.31886093312E+02  0.00000000000E+00 0. -1.
         11    1    3    3    0    0  0.12552442496E+02 -0.56211036821E+01  0.14686239014E+02  0.20120791134E+02  0.51100000000E-03 0. -1.
        -11    1    3    3    0    0  0.12322892517E+02 -0.24407112081E+02 -0.72987594818E+01  0.28298987444E+02  0.51100000000E-03 0.  1.
        -12    1    3    3    0    0 -0.38056133536E+01  0.91978384312E+01  0.43974751181E+01  0.10882128111E+02  0.00000000000E+00 0.  1.
</event>
<event>
 7    1  0.5662448E-012  0.5930190E+02  0.7816164E-02  0.1266605E+00
        -11   -1    0    0    0    0  0.00000000000E+00  0.00000000000E+00  0.45593999997E+02  0.45594000000E+02  0.51100000000E-03 0. -1.
         11   -1    0    0    0    0 -0.00000000000E+00 -0.00000000000E+00 -0.45593999997E+02  0.45594000000E+02  0.51100000000E-03 0.  1.
    9900012    2    1    2    0    0  0.29151665281E+02 -0.10225636903E+02 -0.78955640336E+01  0.59301903184E+02  0.49999925511E+02 0.  0.
         12    1    1    2    0    0 -0.29151665281E+02  0.10225636903E+02  0.78955640336E+01  0.31886096816E+02  0.00000000000E+00 0. -1.
         11    1    3    3    0    0  0.48923358527E+01  0.13700624278E+02 -0.18046639654E+02  0.23180234225E+02  0.51100000000E-03 0.  1.
        -11    1    3    3    0    0  0.99743845653E+01 -0.88361592247E+01  0.84011993706E+00  0.13351848526E+02  0.51100000000E-03 0. -1.
        -12    1    3    3    0    0  0.14284944863E+02 -0.15090101956E+02  0.93109556829E+01  0.22769820432E+02  0.00000000000E+00 0.  1.
</event>
<event>
 7    1  0.5662448E-012  0.5930194E+02  0.7816164E-02  0.1266605E+00
        -11   -1    0    0    0    0  0.00000000000E+00  0.00000000000E+00  0.45593999997E+02  0.45594000000E+02  0.51100000000E-03 0.  1.
         11   -1    0    0    0    0 -0.00000000000E+00 -0.00000000000E+00 -0.45593999997E+02  0.45594000000E+02  0.51100000000E-03 0. -1.
    9900012    2    1    2    0    0 -0.26332023404E+02  0.55444866492E+01  0.17105668127E+02  0.59301942376E+02  0.49999996988E+02 0.  0.
         12    1    1    2    0    0  0.26332023404E+02 -0.55444866492E+01 -0.17105668127E+02  0.31886057624E+02  0.00000000000E+00 0. -1.
         11    1    3    3    0    0 -0.29391458808E+02 -0.74611892850E+01  0.18855000763E+02  0.35707677752E+02  0.51100000000E-03 0. -1.
        -11    1    3    3    0    0 -0.57703668840E+01  0.44192972484E+01  0.56679044735E+01  0.92169660696E+01  0.51100000000E-03 0.  1.
         12    1    3    3    0    0  0.88298022886E+01  0.85863786858E+01 -0.74172371093E+01  0.14377298555E+02  0.00000000000E+00 0. -1.
</event>
<event>
 7    1  0.5662448E-012  0.5930199E+02  0.7816164E-02  0.1266605E+00
        -11   -1    0    0    0    0  0.00000000000E+00  0.00000000000E+00  0.45593999997E+02  0.45594000000E+02  0.51100000000E-03 0.  1.
         11   -1    0    0    0    0 -0.00000000000E+00 -0.00000000000E+00 -0.45593999997E+02  0.45594000000E+02  0.51100000000E-03 0. -1.
    9900012    2    1    2    0    0 -0.44775323065E+01  0.80962636947E+01  0.30514261705E+02  0.59301985060E+02  0.50000074833E+02 0.  0.
         12    1    1    2    0    0  0.44775323065E+01 -0.80962636947E+01 -0.30514261705E+02  0.31886014940E+02  0.00000000000E+00 0. -1.
         11    1    3    3    0    0 -0.16543202224E+00  0.40396549872E+01 -0.56978354873E+01  0.69865234324E+01  0.51100000000E-03 0. -1.
        -11    1    3    3    0    0 -0.49361348818E+01 -0.11888552610E+02  0.14213671081E+00  0.12873356743E+02  0.51100000000E-03 0.  1.
         12    1    3    3    0    0  0.62403459755E+00  0.15945161317E+02  0.36069960481E+02  0.39442104885E+02  0.00000000000E+00 0. -1.
</event>
<event>
 7    1  0.5662448E-012  0.5930193E+02  0.7816164E-02  0.1266605E+00
        -11   -1    0    0    0    0  0.00000000000E+00  0.00000000000E+00  0.45593999997E+02  0.45594000000E+02  0.51100000000E-03 0. -1.
         11   -1    0    0    0    0 -0.00000000000E+00 -0.00000000000E+00 -0.45593999997E+02  0.45594000000E+02  0.51100000000E-03 0.  1.
    9900012    2    1    2    0    0  0.41826741666E+00  0.23506482112E+02  0.21540473941E+02  0.59301926763E+02  0.49999968513E+02 0.  0.
         12    1    1    2    0    0 -0.41826741666E+00 -0.23506482112E+02 -0.21540473941E+02  0.31886073237E+02  0.00000000000E+00 0. -1.
         11    1    3    3    0    0 -0.13262490100E+02 -0.39274915538E+01  0.30819882519E+01  0.14171008624E+02  0.51100000000E-03 0. -1.
        -11    1    3    3    0    0  0.11575399323E+02 -0.19288208587E+01  0.57200362636E+01  0.13054847165E+02  0.51100000000E-03 0.  1.
        -12    1    3    3    0    0  0.21053581942E+01  0.29362794524E+02  0.12738449425E+02  0.32076070974E+02  0.00000000000E+00 0.  1.
</event>
<event>
 7    1  0.5662448E-012  0.5930195E+02  0.7816164E-02  0.1266605E+00
        -11   -1    0    0    0    0  0.00000000000E+00  0.00000000000E+00  0.45593999997E+02  0.45594000000E+02  0.51100000000E-03 0.  1.
         11   -1    0    0    0    0 -0.00000000000E+00 -0.00000000000E+00 -0.45593999997E+02  0.45594000000E+02  0.51100000000E-03 0. -1.
    9900012    2    1    2    0    0 -0.30872980306E+01  0.24865277496E+02  0.19720713586E+02  0.59301953233E+02  0.50000016788E+02 0.  0.
         12    1    1    2    0    0  0.30872980306E+01 -0.24865277496E+02 -0.19720713586E+02  0.31886046767E+02  0.00000000000E+00 0. -1.
         11    1    3    3    0    0 -0.41855508221E+01  0.26495103034E+02 -0.40004214467E+01  0.27120337248E+02  0.51100000000E-03 0. -1.
        -11    1    3    3    0    0  0.70245749859E+01  0.72829882646E+01  0.16198644127E+02  0.19099283851E+02  0.51100000000E-03 0.  1.
        -12    1    3    3    0    0 -0.59263221944E+01 -0.89128138027E+01  0.75224909059E+01  0.13082332134E+02  0.00000000000E+00 0.  1.
</event>
<event>
 7    1  0.5662448E-012  0.5930195E+02  0.7816164E-02  0.1266605E+00
        -11   -1    0    0    0    0  0.00000000000E+00  0.00000000000E+00  0.45593999997E+02  0.45594000000E+02  0.51100000000E-03 0.  1.
         11   -1    0    0    0    0 -0.00000000000E+00 -0.00000000000E+00 -0.45593999997E+02  0.45594000000E+02  0.51100000000E-03 0. -1.
    9900012    2    1    2    0    0 -0.76846526340E+01 -0.86843435532E+01  0.29702672828E+02  0.59301945334E+02  0.50000002382E+02 0.  0.
         12    1    1    2    0    0  0.76846526340E+01  0.86843435532E+01 -0.29702672828E+02  0.31886054666E+02  0.00000000000E+00 0. -1.
         11    1    3    3    0    0  0.14635875412E+02 -0.13980624036E+02  0.20351520772E+02  0.28702806405E+02  0.51100000000E-03 0. -1.
        -11    1    3    3    0    0 -0.36731141188E+00 -0.23484319166E+00  0.79014727293E+01  0.79134910470E+01  0.51100000000E-03 0.  1.
         12    1    3    3    0    0 -0.21953216634E+02  0.55311236749E+01  0.14496793262E+01  0.22685647882E+02  0.00000000000E+00 0. -1.
</event>
<event>
 7    1  0.5662448E-012  0.5930194E+02  0.7816164E-02  0.1266605E+00
        -11   -1    0    0    0    0  0.00000000000E+00  0.00000000000E+00  0.45593999997E+02  0.45594000000E+02  0.51100000000E-03 0. -1.
         11   -1    0    0    0    0 -0.00000000000E+00 -0.00000000000E+00 -0.45593999997E+02  0.45594000000E+02  0.51100000000E-03 0.  1.
    9900012    2    1    2    0    0  0.73724334486E+01 -0.27526649579E+02 -0.14305649685E+02  0.59301939960E+02  0.49999992582E+02 0.  0.
         12    1    1    2    0    0 -0.73724334486E+01  0.27526649579E+02  0.14305649685E+02  0.31886060040E+02  0.00000000000E+00 0. -1.
         11    1    3    3    0    0  0.14458789675E+02 -0.13819430377E+02 -0.67857248709E+01  0.21120589886E+02  0.51100000000E-03 0. -1.
        -11    1    3    3    0    0 -0.51658785167E+01 -0.25178652873E+02 -0.64572248075E+01  0.26501822840E+02  0.51100000000E-03 0.  1.
         12    1    3    3    0    0 -0.19204777102E+01  0.11471433672E+02 -0.10627000061E+01  0.11679527235E+02  0.00000000000E+00 0. -1.
</event>
<event>
 7    1  0.5662448E-012  0.5930192E+02  0.7816164E-02  0.1266605E+00
        -11   -1    0    0    0    0  0.00000000000E+00  0.00000000000E+00  0.45593999997E+02  0.45594000000E+02  0.51100000000E-03 0.  1.
         11   -1    0    0    0    0 -0.00000000000E+00 -0.00000000000E+00 -0.45593999997E+02  0.45594000000E+02  0.51100000000E-03 0. -1.
    9900012    2    1    2    0    0 -0.28954564722E+01  0.33869310762E+01  0.31573198508E+02  0.59301924131E+02  0.49999963713E+02 0.  0.
         12    1    1    2    0    0  0.28954564722E+01 -0.33869310762E+01 -0.31573198508E+02  0.31886075869E+02  0.00000000000E+00 0. -1.
         11    1    3    3    0    0  0.73669712140E+00  0.12086978255E+02  0.30436544419E+02  0.32756999289E+02  0.51100000000E-03 0. -1.
        -11    1    3    3    0    0 -0.61056412939E+01  0.44888170055E+01  0.83780506374E+01  0.11296905172E+02  0.51100000000E-03 0.  1.
         12    1    3    3    0    0  0.24734877003E+01 -0.13188864185E+02 -0.72413965483E+01  0.15248019670E+02  0.00000000000E+00 0. -1.
</event>
<event>
 7    1  0.5662448E-012  0.5930195E+02  0.7816164E-02  0.1266605E+00
        -11   -1    0    0    0    0  0.00000000000E+00  0.00000000000E+00  0.45593999997E+02  0.45594000000E+02  0.51100000000E-03 0.  1.
         11   -1    0    0    0    0 -0.00000000000E+00 -0.00000000000E+00 -0.45593999997E+02  0.45594000000E+02  0.51100000000E-03 0. -1.
    9900012    2    1    2    0    0 -0.32025441674E+01  0.97580183726E+00  0.31709801870E+02  0.59301952691E+02  0.50000015800E+02 0.  0.
         12    1    1    2    0    0  0.32025441674E+01 -0.97580183726E+00 -0.31709801870E+02  0.31886047309E+02  0.00000000000E+00 0. -1.
         11    1    3    3    0    0 -0.10039022605E+02  0.68050458634E+01  0.25709933683E+00  0.12130817137E+02  0.51100000000E-03 0. -1.
        -11    1    3    3    0    0  0.16847802841E+02  0.75225068110E+01  0.15816315493E+02  0.24302107014E+02  0.51100000000E-03 0.  1.
         12    1    3    3    0    0 -0.10011324403E+02 -0.13351750837E+02  0.15636387040E+02  0.22869028540E+02  0.00000000000E+00 0. -1.
</event>
<event>
 7    1  0.5662448E-012  0.5930195E+02  0.7816164E-02  0.1266605E+00
        -11   -1    0    0    0    0  0.00000000000E+00  0.00000000000E+00  0.45593999997E+02  0.45594000000E+02  0.51100000000E-03 0.  1.
         11   -1    0    0    0    0 -0.00000000000E+00 -0.00000000000E+00 -0.45593999997E+02  0.45594000000E+02  0.51100000000E-03 0. -1.
    9900012    2    1    2    0    0 -0.20547580813E+02  0.12458469955E+02  0.20959577525E+02  0.59301945981E+02  0.50000003563E+02 0.  0.
         12    1    1    2    0    0  0.20547580813E+02 -0.12458469955E+02 -0.20959577525E+02  0.31886054019E+02  0.00000000000E+00 0. -1.
         11    1    3    3    0    0  0.55711785354E+01  0.10870037620E+02  0.47559428453E+01  0.13107812203E+02  0.51100000000E-03 0. -1.
        -11    1    3    3    0    0 -0.68558384797E+01  0.16714334710E+02  0.28215719157E+01  0.18284768918E+02  0.51100000000E-03 0.  1.
        -12    1    3    3    0    0 -0.19262920869E+02 -0.15125902376E+02  0.13382062764E+02  0.27909364860E+02  0.00000000000E+00 0.  1.
</event>
<event>
 7    1  0.5662448E-012  0.5930196E+02  0.7816164E-02  0.1266605E+00
        -11   -1    0    0    0    0  0.00000000000E+00  0.00000000000E+00  0.45593999997E+02  0.45594000000E+02  0.51100000000E-03 0. -1.
         11   -1    0    0    0    0 -0.00000000000E+00 -0.00000000000E+00 -0.45593999997E+02  0.45594000000E+02  0.51100000000E-03 0.  1.
    9900012    2    1    2    0    0 -0.13064619020E+02  0.27832430185E+02 -0.84493132464E+01  0.59301963330E+02  0.50000035203E+02 0.  0.
         12    1    1    2    0    0  0.13064619020E+02 -0.27832430185E+02  0.84493132464E+01  0.31886036670E+02  0.00000000000E+00 0. -1.
         11    1    3    3    0    0 -0.33163226798E+01  0.41491647926E+01  0.12148009813E+02  0.13258495664E+02  0.51100000000E-03 0. -1.
        -11    1    3    3    0    0  0.11724166163E+02  0.52718148372E+01 -0.55088330873E+01  0.13985540610E+02  0.51100000000E-03 0.  1.
         12    1    3    3    0    0 -0.21472462504E+02  0.18411450556E+02 -0.15088489972E+02  0.32057927057E+02  0.00000000000E+00 0. -1.
</event>
<event>
 7    1  0.5662448E-012  0.5930194E+02  0.7816164E-02  0.1266605E+00
        -11   -1    0    0    0    0  0.00000000000E+00  0.00000000000E+00  0.45593999997E+02  0.45594000000E+02  0.51100000000E-03 0. -1.
         11   -1    0    0    0    0 -0.00000000000E+00 -0.00000000000E+00 -0.45593999997E+02  0.45594000000E+02  0.51100000000E-03 0.  1.
    9900012    2    1    2    0    0  0.24441785620E+02  0.17764675571E+02 -0.10185083349E+02  0.59301944972E+02  0.50000001722E+02 0.  0.
         12    1    1    2    0    0 -0.24441785620E+02 -0.17764675571E+02  0.10185083349E+02  0.31886055028E+02  0.00000000000E+00 0. -1.
         11    1    3    3    0    0 -0.76217478199E+01 -0.22570126632E+01 -0.40272070522E+01  0.89108665625E+01  0.51100000000E-03 0. -1.
        -11    1    3    3    0    0  0.22700278221E+02  0.28991494168E+02 -0.66422242172E+01  0.37415618506E+02  0.51100000000E-03 0.  1.
         12    1    3    3    0    0  0.93632552194E+01 -0.89698059338E+01  0.48434792058E+00  0.12975459903E+02  0.00000000000E+00 0. -1.
</event>
<event>
 7    1  0.5662448E-012  0.5930194E+02  0.7816164E-02  0.1266605E+00
        -11   -1    0    0    0    0  0.00000000000E+00  0.00000000000E+00  0.45593999997E+02  0.45594000000E+02  0.51100000000E-03 0.  1.
         11   -1    0    0    0    0 -0.00000000000E+00 -0.00000000000E+00 -0.45593999997E+02  0.45594000000E+02  0.51100000000E-03 0. -1.
    9900012    2    1    2    0    0  0.11523036359E+02 -0.29677847295E+02 -0.17792231222E+01  0.59301943143E+02  0.49999998386E+02 0.  0.
         12    1    1    2    0    0 -0.11523036359E+02  0.29677847295E+02  0.17792231222E+01  0.31886056857E+02  0.00000000000E+00 0. -1.
         11    1    3    3    0    0  0.11190618758E+02 -0.58253698100E+01 -0.89405060593E+01  0.15462778873E+02  0.51100000000E-03 0. -1.
        -11    1    3    3    0    0  0.15884737938E+02 -0.47224198279E+01  0.94533328148E+01  0.19078565197E+02  0.51100000000E-03 0.  1.
         12    1    3    3    0    0 -0.15552320337E+02 -0.19130057657E+02 -0.22920498777E+01  0.24760599073E+02  0.00000000000E+00 0. -1.
</event>
<event>
 7    1  0.5662448E-012  0.5930194E+02  0.7816164E-02  0.1266605E+00
        -11   -1    0    0    0    0  0.00000000000E+00  0.00000000000E+00  0.45593999997E+02  0.45594000000E+02  0.51100000000E-03 0.  1.
         11   -1    0    0    0    0 -0.00000000000E+00 -0.00000000000E+00 -0.45593999997E+02  0.45594000000E+02  0.51100000000E-03 0. -1.
    9900012    2    1    2    0    0  0.31134304163E+02 -0.23272589667E+01  0.64776546382E+01  0.59301936593E+02  0.49999986440E+02 0.  0.
         12    1    1    2    0    0 -0.31134304163E+02  0.23272589667E+01 -0.64776546382E+01  0.31886063407E+02  0.00000000000E+00 0. -1.
         11    1    3    3    0    0 -0.14989053406E+01  0.80409360054E+01  0.64705923487E+00  0.82050018268E+01  0.51100000000E-03 0. -1.
        -11    1    3    3    0    0 -0.52239065362E+01 -0.98523524954E+01  0.70913072388E+01  0.13215320193E+02  0.51100000000E-03 0.  1.
        -12    1    3    3    0    0  0.37857116040E+02 -0.51584247668E+00 -0.12607118355E+01  0.37881614573E+02  0.00000000000E+00 0.  1.
</event>
<event>
 7    1  0.5662448E-012  0.5930194E+02  0.7816164E-02  0.1266605E+00
        -11   -1    0    0    0    0  0.00000000000E+00  0.00000000000E+00  0.45593999997E+02  0.45594000000E+02  0.51100000000E-03 0. -1.
         11   -1    0    0    0    0 -0.00000000000E+00 -0.00000000000E+00 -0.45593999997E+02  0.45594000000E+02  0.51100000000E-03 0.  1.
    9900012    2    1    2    0    0 -0.29811233115E+02 -0.10740029464E+02 -0.35584893413E+01  0.59301941932E+02  0.49999996178E+02 0.  0.
         12    1    1    2    0    0  0.29811233115E+02  0.10740029464E+02  0.35584893413E+01  0.31886058068E+02  0.00000000000E+00 0. -1.
         11    1    3    3    0    0 -0.23120474909E+02 -0.23355309377E+02  0.14006208729E+01  0.32893594744E+02  0.51100000000E-03 0. -1.
        -11    1    3    3    0    0 -0.12708887223E+02  0.52347167256E+01  0.29162111368E+01  0.14050706790E+02  0.51100000000E-03 0.  1.
        -12    1    3    3    0    0  0.60181290167E+01  0.73805631875E+01 -0.78753213510E+01  0.12357640398E+02  0.00000000000E+00 0.  1.
</event>
<event>
 7    1  0.5662448E-012  0.5930194E+02  0.7816164E-02  0.1266605E+00
        -11   -1    0    0    0    0  0.00000000000E+00  0.00000000000E+00  0.45593999997E+02  0.45594000000E+02  0.51100000000E-03 0. -1.
         11   -1    0    0    0    0 -0.00000000000E+00 -0.00000000000E+00 -0.45593999997E+02  0.45594000000E+02  0.51100000000E-03 0.  1.
    9900012    2    1    2    0    0 -0.30200239594E+02  0.92125618102E+01 -0.44491574535E+01  0.59301940841E+02  0.49999994188E+02 0.  0.
         12    1    1    2    0    0  0.30200239594E+02 -0.92125618102E+01  0.44491574535E+01  0.31886059159E+02  0.00000000000E+00 0. -1.
         11    1    3    3    0    0 -0.28238479913E+01  0.15582385958E+02 -0.38644588304E+01  0.16300886845E+02  0.51100000000E-03 0. -1.
        -11    1    3    3    0    0 -0.22835776435E+02  0.10640752708E+02  0.16834115932E+01  0.25249399565E+02  0.51100000000E-03 0.  1.
         12    1    3    3    0    0 -0.45406151683E+01 -0.17010576856E+02 -0.22681102163E+01  0.17751654430E+02  0.00000000000E+00 0. -1.
</event>
<event>
 7    1  0.5662448E-012  0.5930195E+02  0.7816164E-02  0.1266605E+00
        -11   -1    0    0    0    0  0.00000000000E+00  0.00000000000E+00  0.45593999997E+02  0.45594000000E+02  0.51100000000E-03 0.  1.
         11   -1    0    0    0    0 -0.00000000000E+00 -0.00000000000E+00 -0.45593999997E+02  0.45594000000E+02  0.51100000000E-03 0. -1.
    9900012    2    1    2    0    0  0.11907190747E+01 -0.31855191233E+02  0.74099309157E+00  0.59301951465E+02  0.50000013563E+02 0.  0.
         12    1    1    2    0    0 -0.11907190747E+01  0.31855191233E+02 -0.74099309157E+00  0.31886048535E+02  0.00000000000E+00 0. -1.
         11    1    3    3    0    0  0.33093566169E+01 -0.21888085656E+02  0.15493307471E+01  0.22191001800E+02  0.51100000000E-03 0. -1.
        -11    1    3    3    0    0 -0.25632670154E+01 -0.20469011645E+02  0.92087526664E+01  0.22590969467E+02  0.51100000000E-03 0.  1.
         12    1    3    3    0    0  0.44462947316E+00  0.10501906067E+02 -0.10017090322E+02  0.14519980197E+02  0.00000000000E+00 0. -1.
</event>
<event>
 7    1  0.5662448E-012  0.5930194E+02  0.7816164E-02  0.1266605E+00
        -11   -1    0    0    0    0  0.00000000000E+00  0.00000000000E+00  0.45593999997E+02  0.45594000000E+02  0.51100000000E-03 0.  1.
         11   -1    0    0    0    0 -0.00000000000E+00 -0.00000000000E+00 -0.45593999997E+02  0.45594000000E+02  0.51100000000E-03 0. -1.
    9900012    2    1    2    0    0  0.29939195911E+01 -0.27659967154E+02  0.15578302676E+02  0.59301939538E+02  0.49999991813E+02 0.  0.
         12    1    1    2    0    0 -0.29939195911E+01  0.27659967154E+02 -0.15578302676E+02  0.31886060462E+02  0.00000000000E+00 0. -1.
         11    1    3    3    0    0 -0.31275960674E+01 -0.21635725904E+02  0.75241038845E+01  0.23119226459E+02  0.51100000000E-03 0. -1.
        -11    1    3    3    0    0  0.49389771130E+01 -0.11309798466E+02  0.19752785693E+02  0.23291148086E+02  0.51100000000E-03 0.  1.
        -12    1    3    3    0    0  0.11825385456E+01  0.52855572157E+01 -0.11698586901E+02  0.12891564993E+02  0.00000000000E+00 0.  1.
</event>
<event>
 7    1  0.5662448E-012  0.5930195E+02  0.7816164E-02  0.1266605E+00
        -11   -1    0    0    0    0  0.00000000000E+00  0.00000000000E+00  0.45593999997E+02  0.45594000000E+02  0.51100000000E-03 0.  1.
         11   -1    0    0    0    0 -0.00000000000E+00 -0.00000000000E+00 -0.45593999997E+02  0.45594000000E+02  0.51100000000E-03 0. -1.
    9900012    2    1    2    0    0 -0.15894826837E+02  0.65574722390E+01  0.26852829790E+02  0.59301946151E+02  0.50000003872E+02 0.  0.
         12    1    1    2    0    0  0.15894826837E+02 -0.65574722390E+01 -0.26852829790E+02  0.31886053849E+02  0.00000000000E+00 0. -1.
         11    1    3    3    0    0  0.85511337216E+01 -0.12278633142E+02  0.77633070217E+01  0.16856917154E+02  0.51100000000E-03 0. -1.
        -11    1    3    3    0    0  0.36583180724E+00 -0.40859879434E+01  0.25886518283E+01  0.48507987935E+01  0.51100000000E-03 0.  1.
         12    1    3    3    0    0 -0.24811792366E+02  0.22922093325E+02  0.16500870940E+02  0.37594230203E+02  0.00000000000E+00 0. -1.
</event>
<event>
 7    1  0.5662448E-012  0.5930197E+02  0.7816164E-02  0.1266605E+00
        -11   -1    0    0    0    0  0.00000000000E+00  0.00000000000E+00  0.45593999997E+02  0.45594000000E+02  0.51100000000E-03 0.  1.
         11   -1    0    0    0    0 -0.00000000000E+00 -0.00000000000E+00 -0.45593999997E+02  0.45594000000E+02  0.51100000000E-03 0. -1.
    9900012    2    1    2    0    0 -0.29731484769E+02  0.59067335289E+01 -0.98928404726E+01  0.59301968887E+02  0.50000045337E+02 0.  0.
         12    1    1    2    0    0  0.29731484769E+02 -0.59067335289E+01  0.98928404726E+01  0.31886031113E+02  0.00000000000E+00 0. -1.
         11    1    3    3    0    0 -0.33452919948E+02 -0.75726452135E+01 -0.70088596329E+01  0.35008097951E+02  0.51100000000E-03 0. -1.
        -11    1    3    3    0    0 -0.79806115063E+01  0.35088841006E+01 -0.45759694775E+00  0.87299383087E+01  0.51100000000E-03 0.  1.
         12    1    3    3    0    0  0.11702046685E+02  0.99704946418E+01 -0.24263838919E+01  0.15563932627E+02  0.00000000000E+00 0. -1.
</event>
<event>
 7    1  0.5662448E-012  0.5930203E+02  0.7816164E-02  0.1266604E+00
        -11   -1    0    0    0    0  0.00000000000E+00  0.00000000000E+00  0.45593999997E+02  0.45594000000E+02  0.51100000000E-03 0. -1.
         11   -1    0    0    0    0 -0.00000000000E+00 -0.00000000000E+00 -0.45593999997E+02  0.45594000000E+02  0.51100000000E-03 0.  1.
    9900012    2    1    2    0    0 -0.58151748288E+01 -0.26576172013E+02 -0.16631466734E+02  0.59302033449E+02  0.50000163083E+02 0.  0.
         12    1    1    2    0    0  0.58151748288E+01  0.26576172013E+02  0.16631466734E+02  0.31885966551E+02  0.00000000000E+00 0. -1.
         11    1    3    3    0    0  0.18783685539E+02 -0.67169876889E+01 -0.43340758328E+01  0.20413940815E+02  0.51100000000E-03 0. -1.
        -11    1    3    3    0    0 -0.39495701742E+00 -0.28486199135E+01  0.41429316143E+01  0.50432637328E+01  0.51100000000E-03 0.  1.
        -12    1    3    3    0    0 -0.24203903350E+02 -0.17010564411E+02 -0.16440322515E+02  0.33844828901E+02  0.00000000000E+00 0.  1.
</event>
<event>
 7    1  0.5662448E-012  0.5930194E+02  0.7816164E-02  0.1266605E+00
        -11   -1    0    0    0    0  0.00000000000E+00  0.00000000000E+00  0.45593999997E+02  0.45594000000E+02  0.51100000000E-03 0.  1.
         11   -1    0    0    0    0 -0.00000000000E+00 -0.00000000000E+00 -0.45593999997E+02  0.45594000000E+02  0.51100000000E-03 0. -1.
    9900012    2    1    2    0    0 -0.10458344292E+02  0.11147624850E+02  0.27983463325E+02  0.59301941529E+02  0.49999995443E+02 0.  0.
         12    1    1    2    0    0  0.10458344292E+02 -0.11147624850E+02 -0.27983463325E+02  0.31886058471E+02  0.00000000000E+00 0. -1.
         11    1    3    3    0    0 -0.84859046641E+01 -0.16142539764E+01 -0.57967309468E+01  0.10402811341E+02  0.51100000000E-03 0. -1.
        -11    1    3    3    0    0  0.91808499992E+01  0.19381928775E+02  0.15396865661E+02  0.26400959115E+02  0.51100000000E-03 0.  1.
         12    1    3    3    0    0 -0.11153289627E+02 -0.66200499479E+01  0.18383328611E+02  0.22498171073E+02  0.00000000000E+00 0. -1.
</event>
<event>
 7    1  0.5662448E-012  0.5930195E+02  0.7816164E-02  0.1266605E+00
        -11   -1    0    0    0    0  0.00000000000E+00  0.00000000000E+00  0.45593999997E+02  0.45594000000E+02  0.51100000000E-03 0.  1.
         11   -1    0    0    0    0 -0.00000000000E+00 -0.00000000000E+00 -0.45593999997E+02  0.45594000000E+02  0.51100000000E-03 0. -1.
    9900012    2    1    2    0    0  0.14364893268E+02 -0.20071063812E+02  0.20187187521E+02  0.59301948173E+02  0.50000007559E+02 0.  0.
         12    1    1    2    0    0 -0.14364893268E+02  0.20071063812E+02 -0.20187187521E+02  0.31886051827E+02  0.00000000000E+00 0. -1.
         11    1    3    3    0    0 -0.35698793223E+01 -0.10292419363E+02  0.90526188358E+01  0.14164315824E+02  0.51100000000E-03 0. -1.
        -11    1    3    3    0    0 -0.32677093857E+01  0.87724741506E+01  0.13976767498E+02  0.16822135932E+02  0.51100000000E-03 0.  1.
        -12    1    3    3    0    0  0.21202481976E+02 -0.18551118600E+02 -0.28421988129E+01  0.28315496417E+02  0.00000000000E+00 0.  1.
</event>
<event>
 7    1  0.5662448E-012  0.5930198E+02  0.7816164E-02  0.1266605E+00
        -11   -1    0    0    0    0  0.00000000000E+00  0.00000000000E+00  0.45593999997E+02  0.45594000000E+02  0.51100000000E-03 0.  1.
         11   -1    0    0    0    0 -0.00000000000E+00 -0.00000000000E+00 -0.45593999997E+02  0.45594000000E+02  0.51100000000E-03 0. -1.
    9900012    2    1    2    0    0 -0.58952000674E+01  0.14331892016E+02  0.27866860720E+02  0.59301977373E+02  0.50000060813E+02 0.  0.
         12    1    1    2    0    0  0.58952000674E+01 -0.14331892016E+02 -0.27866860720E+02  0.31886022627E+02  0.00000000000E+00 0. -1.
         11    1    3    3    0    0  0.35484666470E+01  0.35678227998E+01  0.99167926645E+01  0.11120420500E+02  0.51100000000E-03 0.  1.
        -11    1    3    3    0    0  0.76547171834E+01  0.18756031015E+02 -0.24314109100E+01  0.20403312326E+02  0.51100000000E-03 0. -1.
        -12    1    3    3    0    0 -0.17098383898E+02 -0.79919617988E+01  0.20381478966E+02  0.27778244548E+02  0.00000000000E+00 0.  1.
</event>
<event>
 7    1  0.5662448E-012  0.5930196E+02  0.7816164E-02  0.1266605E+00
        -11   -1    0    0    0    0  0.00000000000E+00  0.00000000000E+00  0.45593999997E+02  0.45594000000E+02  0.51100000000E-03 0. -1.
         11   -1    0    0    0    0 -0.00000000000E+00 -0.00000000000E+00 -0.45593999997E+02  0.45594000000E+02  0.51100000000E-03 0.  1.
    9900012    2    1    2    0    0  0.24474656303E+02 -0.60311153261E+01 -0.19527831651E+02  0.59301962896E+02  0.50000034411E+02 0.  0.
         12    1    1    2    0    0 -0.24474656303E+02  0.60311153261E+01  0.19527831651E+02  0.31886037104E+02  0.00000000000E+00 0. -1.
         11    1    3    3    0    0  0.70244016571E+01 -0.66664812320E+01 -0.19196898268E+02  0.21501281218E+02  0.51100000000E-03 0. -1.
        -11    1    3    3    0    0  0.62875012007E+01  0.10919256516E+02 -0.12945488163E+02  0.18065118274E+02  0.51100000000E-03 0.  1.
         12    1    3    3    0    0  0.11162753445E+02 -0.10283890610E+02  0.12614554781E+02  0.19735563404E+02  0.00000000000E+00 0. -1.
</event>
<event>
 7    1  0.5662448E-012  0.5930194E+02  0.7816164E-02  0.1266605E+00
        -11   -1    0    0    0    0  0.00000000000E+00  0.00000000000E+00  0.45593999997E+02  0.45594000000E+02  0.51100000000E-03 0.  1.
         11   -1    0    0    0    0 -0.00000000000E+00 -0.00000000000E+00 -0.45593999997E+02  0.45594000000E+02  0.51100000000E-03 0. -1.
    9900012    2    1    2    0    0 -0.22567332238E+02 -0.35571116103E+00  0.22523534652E+02  0.59301943047E+02  0.49999998212E+02 0.  0.
         12    1    1    2    0    0  0.22567332238E+02  0.35571116103E+00 -0.22523534652E+02  0.31886056953E+02  0.00000000000E+00 0. -1.
         11    1    3    3    0    0  0.54963046952E+01 -0.28662175235E+01 -0.81517441773E+01  0.10240874064E+02  0.51100000000E-03 0. -1.
        -11    1    3    3    0    0 -0.32204987993E+01  0.76514700787E+01 -0.11288278389E+01  0.83779985338E+01  0.51100000000E-03 0.  1.
        -12    1    3    3    0    0 -0.24843138133E+02 -0.51409637163E+01  0.31804106669E+02  0.40683070450E+02  0.00000000000E+00 0.  1.
</event>
<event>
 7    1  0.5662448E-012  0.5930194E+02  0.7816164E-02  0.1266605E+00
        -11   -1    0    0    0    0  0.00000000000E+00  0.00000000000E+00  0.45593999997E+02  0.45594000000E+02  0.51100000000E-03 0.  1.
         11   -1    0    0    0    0 -0.00000000000E+00 -0.00000000000E+00 -0.45593999997E+02  0.45594000000E+02  0.51100000000E-03 0. -1.
    9900012    2    1    2    0    0 -0.28069119728E+02  0.80095889056E+01  0.12833228893E+02  0.59301940968E+02  0.49999994420E+02 0.  0.
         12    1    1    2    0    0  0.28069119728E+02 -0.80095889056E+01 -0.12833228893E+02  0.31886059032E+02  0.00000000000E+00 0. -1.
         11    1    3    3    0    0 -0.17430431815E+02 -0.95896400076E+00 -0.79995039031E+01  0.19202386002E+02  0.51100000000E-03 0. -1.
        -11    1    3    3    0    0 -0.12004011461E+02 -0.76270557441E+01  0.10778632844E+01  0.14262891012E+02  0.51100000000E-03 0.  1.
        -12    1    3    3    0    0  0.13653235477E+01  0.16595608650E+02  0.19754869512E+02  0.25836663955E+02  0.00000000000E+00 0.  1.
</event>
<event>
 7    1  0.5662448E-012  0.5930191E+02  0.7816164E-02  0.1266605E+00
        -11   -1    0    0    0    0  0.00000000000E+00  0.00000000000E+00  0.45593999997E+02  0.45594000000E+02  0.51100000000E-03 0. -1.
         11   -1    0    0    0    0 -0.00000000000E+00 -0.00000000000E+00 -0.45593999997E+02  0.45594000000E+02  0.51100000000E-03 0.  1.
    9900012    2    1    2    0    0 -0.15076201306E+02  0.20672638417E+02 -0.19028216936E+02  0.59301907973E+02  0.49999934246E+02 0.  0.
         12    1    1    2    0    0  0.15076201306E+02 -0.20672638417E+02  0.19028216936E+02  0.31886092027E+02  0.00000000000E+00 0. -1.
         11    1    3    3    0    0  0.81876261876E+01  0.10923931519E+02 -0.24741696031E+02  0.28258114325E+02  0.51100000000E-03 0.  1.
        -11    1    3    3    0    0 -0.32840470580E+01  0.80087084860E+01  0.67274121734E+01  0.10962775721E+02  0.51100000000E-03 0. -1.
        -12    1    3    3    0    0 -0.19979780436E+02  0.17399984126E+01 -0.10139330780E+01  0.20081017928E+02  0.00000000000E+00 0.  1.
</event>
<event>
 7    1  0.5662448E-012  0.5930194E+02  0.7816164E-02  0.1266605E+00
        -11   -1    0    0    0    0  0.00000000000E+00  0.00000000000E+00  0.45593999997E+02  0.45594000000E+02  0.51100000000E-03 0.  1.
         11   -1    0    0    0    0 -0.00000000000E+00 -0.00000000000E+00 -0.45593999997E+02  0.45594000000E+02  0.51100000000E-03 0. -1.
    9900012    2    1    2    0    0 -0.11660463113E+02 -0.23689385155E+02  0.17876443720E+02  0.59301943343E+02  0.49999998751E+02 0.  0.
         12    1    1    2    0    0  0.11660463113E+02  0.23689385155E+02 -0.17876443720E+02  0.31886056657E+02  0.00000000000E+00 0. -1.
         11    1    3    3    0    0  0.27093050859E+00  0.43980755777E+01  0.62239117048E+01  0.76258474478E+01  0.51100000000E-03 0. -1.
        -11    1    3    3    0    0  0.59660834166E+01 -0.65403763204E+01  0.20476665099E+02  0.22308395003E+02  0.51100000000E-03 0.  1.
         12    1    3    3    0    0 -0.17897477039E+02 -0.21547084413E+02 -0.88241330838E+01  0.29367700892E+02  0.00000000000E+00 0. -1.
</event>
<event>
 7    1  0.5662448E-012  0.5930195E+02  0.7816164E-02  0.1266605E+00
        -11   -1    0    0    0    0  0.00000000000E+00  0.00000000000E+00  0.45593999997E+02  0.45594000000E+02  0.51100000000E-03 0.  1.
         11   -1    0    0    0    0 -0.00000000000E+00 -0.00000000000E+00 -0.45593999997E+02  0.45594000000E+02  0.51100000000E-03 0. -1.
    9900012    2    1    2    0    0 -0.25786556502E+02  0.17551959630E+02  0.66107723625E+01  0.59301951416E+02  0.50000013474E+02 0.  0.
         12    1    1    2    0    0  0.25786556502E+02 -0.17551959630E+02 -0.66107723625E+01  0.31886048584E+02  0.00000000000E+00 0. -1.
         11    1    3    3    0    0 -0.21376405419E+01 -0.12219446927E+02  0.28302989286E+01  0.12723795919E+02  0.51100000000E-03 0. -1.
        -11    1    3    3    0    0 -0.22099638248E+02  0.10813942593E+02  0.10012071896E+02  0.26562698451E+02  0.51100000000E-03 0.  1.
        -12    1    3    3    0    0 -0.15492777129E+01  0.18957463964E+02 -0.62315984617E+01  0.20015457046E+02  0.00000000000E+00 0.  1.
</event>
<event>
 7    1  0.5662448E-012  0.5930197E+02  0.7816164E-02  0.1266605E+00
        -11   -1    0    0    0    0  0.00000000000E+00  0.00000000000E+00  0.45593999997E+02  0.45594000000E+02  0.51100000000E-03 0.  1.
         11   -1    0    0    0    0 -0.00000000000E+00 -0.00000000000E+00 -0.45593999997E+02  0.45594000000E+02  0.51100000000E-03 0. -1.
    9900012    2    1    2    0    0  0.87587455100E+01  0.27505937246E+02  0.13543515502E+02  0.59301968280E+02  0.50000044230E+02 0.  0.
         12    1    1    2    0    0 -0.87587455100E+01 -0.27505937246E+02 -0.13543515502E+02  0.31886031720E+02  0.00000000000E+00 0. -1.
         11    1    3    3    0    0 -0.45084022404E+01  0.10100642786E+02 -0.88645260698E+01  0.14174924979E+02  0.51100000000E-03 0. -1.
        -11    1    3    3    0    0  0.13515100031E+02  0.26258901919E+02  0.20806974817E+02  0.36126417760E+02  0.51100000000E-03 0.  1.
         12    1    3    3    0    0 -0.24795228079E+00 -0.88536074592E+01  0.16010667548E+01  0.90006255410E+01  0.00000000000E+00 0. -1.
</event>
<event>
 7    1  0.5662448E-012  0.5930199E+02  0.7816164E-02  0.1266605E+00
        -11   -1    0    0    0    0  0.00000000000E+00  0.00000000000E+00  0.45593999997E+02  0.45594000000E+02  0.51100000000E-03 0.  1.
         11   -1    0    0    0    0 -0.00000000000E+00 -0.00000000000E+00 -0.45593999997E+02  0.45594000000E+02  0.51100000000E-03 0. -1.
    9900012    2    1    2    0    0  0.10607337061E+02 -0.15039073834E+01  0.30032321528E+02  0.59301989379E+02  0.50000082710E+02 0.  0.
         12    1    1    2    0    0 -0.10607337061E+02  0.15039073834E+01 -0.30032321528E+02  0.31886010621E+02  0.00000000000E+00 0. -1.
         11    1    3    3    0    0  0.18773567322E+02  0.56043274443E+01  0.37513561706E+01  0.19948132481E+02  0.51100000000E-03 0. -1.
        -11    1    3    3    0    0  0.88888585957E+01 -0.20939439231E+01  0.17005897681E+02  0.19302770902E+02  0.51100000000E-03 0.  1.
        -12    1    3    3    0    0 -0.17055088857E+02 -0.50142909046E+01  0.92750676770E+01  0.20051085996E+02  0.00000000000E+00 0.  1.
</event>
<event>
 7    1  0.5662448E-012  0.5930194E+02  0.7816164E-02  0.1266605E+00
        -11   -1    0    0    0    0  0.00000000000E+00  0.00000000000E+00  0.45593999997E+02  0.45594000000E+02  0.51100000000E-03 0.  1.
         11   -1    0    0    0    0 -0.00000000000E+00 -0.00000000000E+00 -0.45593999997E+02  0.45594000000E+02  0.51100000000E-03 0. -1.
    9900012    2    1    2    0    0  0.22404045417E+02 -0.22255986957E+02 -0.44102967049E+01  0.59301938413E+02  0.49999989761E+02 0.  0.
         12    1    1    2    0    0 -0.22404045417E+02  0.22255986957E+02  0.44102967049E+01  0.31886061587E+02  0.00000000000E+00 0. -1.
         11    1    3    3    0    0 -0.94503029252E+01  0.90111649343E+01 -0.13656215428E+01  0.13129137112E+02  0.51100000000E-03 0. -1.
        -11    1    3    3    0    0  0.82429518381E+01 -0.73837581269E+01  0.41631257734E+01  0.11823610089E+02  0.51100000000E-03 0.  1.
        -12    1    3    3    0    0  0.23611396504E+02 -0.23883393765E+02 -0.72078009355E+01  0.34349191212E+02  0.00000000000E+00 0.  1.
</event>
<event>
 7    1  0.5662448E-012  0.5930208E+02  0.7816164E-02  0.1266604E+00
        -11   -1    0    0    0    0  0.00000000000E+00  0.00000000000E+00  0.45593999997E+02  0.45594000000E+02  0.51100000000E-03 0. -1.
         11   -1    0    0    0    0 -0.00000000000E+00 -0.00000000000E+00 -0.45593999997E+02  0.45594000000E+02  0.51100000000E-03 0.  1.
    9900012    2    1    2    0    0 -0.82944614359E+01 -0.25621852407E+02 -0.17071458078E+02  0.59302076896E+02  0.50000242319E+02 0.  0.
         12    1    1    2    0    0  0.82944614359E+01  0.25621852407E+02  0.17071458078E+02  0.31885923104E+02  0.00000000000E+00 0. -1.
         11    1    3    3    0    0 -0.14870959090E+02 -0.26336038620E+02 -0.64377866423E-01  0.30244611077E+02  0.51100000000E-03 0. -1.
        -11    1    3    3    0    0  0.12252752235E+02 -0.62636839612E+01 -0.64785663113E+01  0.15209717151E+02  0.51100000000E-03 0.  1.
        -12    1    3    3    0    0 -0.56762545812E+01  0.69778701736E+01 -0.10528513900E+02  0.13847748668E+02  0.00000000000E+00 0.  1.
</event>
<event>
 7    1  0.5662448E-012  0.5930194E+02  0.7816164E-02  0.1266605E+00
        -11   -1    0    0    0    0  0.00000000000E+00  0.00000000000E+00  0.45593999997E+02  0.45594000000E+02  0.51100000000E-03 0.  1.
         11   -1    0    0    0    0 -0.00000000000E+00 -0.00000000000E+00 -0.45593999997E+02  0.45594000000E+02  0.51100000000E-03 0. -1.
    9900012    2    1    2    0    0  0.19083909087E+02  0.21963846189E+02  0.13042790536E+02  0.59301944891E+02  0.50000001575E+02 0.  0.
         12    1    1    2    0    0 -0.19083909087E+02 -0.21963846189E+02 -0.13042790536E+02  0.31886055109E+02  0.00000000000E+00 0. -1.
         11    1    3    3    0    0  0.15606020853E+01  0.12158134855E+02 -0.61705678355E+01  0.13723397163E+02  0.51100000000E-03 0. -1.
        -11    1    3    3    0    0  0.23678689076E+02  0.28829332071E+01 -0.43329991924E+00  0.23857480364E+02  0.51100000000E-03 0.  1.
         12    1    3    3    0    0 -0.61553820745E+01  0.69227781266E+01  0.19646658290E+02  0.21721067365E+02  0.00000000000E+00 0. -1.
</event>
<event>
 7    1  0.5662448E-012  0.5930194E+02  0.7816164E-02  0.1266605E+00
        -11   -1    0    0    0    0  0.00000000000E+00  0.00000000000E+00  0.45593999997E+02  0.45594000000E+02  0.51100000000E-03 0.  1.
         11   -1    0    0    0    0 -0.00000000000E+00 -0.00000000000E+00 -0.45593999997E+02  0.45594000000E+02  0.51100000000E-03 0. -1.
    9900012    2    1    2    0    0 -0.26970263390E+02  0.41907064454E+01  0.16485262011E+02  0.59301937349E+02  0.49999987819E+02 0.  0.
         12    1    1    2    0    0  0.26970263390E+02 -0.41907064454E+01 -0.16485262011E+02  0.31886062651E+02  0.00000000000E+00 0. -1.
         11    1    3    3    0    0 -0.11338341872E+01 -0.12833715043E+02  0.11249368979E+01  0.12932722260E+02  0.51100000000E-03 0. -1.
        -11    1    3    3    0    0 -0.15868553250E+02 -0.35280651704E+01 -0.36389613303E+01  0.16658339231E+02  0.51100000000E-03 0.  1.
         12    1    3    3    0    0 -0.99678759527E+01  0.20552486659E+02  0.18999286444E+02  0.29710875858E+02  0.00000000000E+00 0. -1.
</event>
<event>
 7    1  0.5662448E-012  0.5930193E+02  0.7816164E-02  0.1266605E+00
        -11   -1    0    0    0    0  0.00000000000E+00  0.00000000000E+00  0.45593999997E+02  0.45594000000E+02  0.51100000000E-03 0.  1.
         11   -1    0    0    0    0 -0.00000000000E+00 -0.00000000000E+00 -0.45593999997E+02  0.45594000000E+02  0.51100000000E-03 0. -1.
    9900012    2    1    2    0    0 -0.24400816570E+02  0.18459036020E+02  0.89769387956E+01  0.59301932663E+02  0.49999979274E+02 0.  0.
         12    1    1    2    0    0  0.24400816570E+02 -0.18459036020E+02 -0.89769387956E+01  0.31886067337E+02  0.00000000000E+00 0. -1.
         11    1    3    3    0    0 -0.90013341287E+01  0.49522034098E+01  0.59299607662E+01  0.11862241342E+02  0.51100000000E-03 0. -1.
        -11    1    3    3    0    0 -0.98086985381E+01 -0.23318975600E+01  0.20729523613E+02  0.23051278983E+02  0.51100000000E-03 0.  1.
         12    1    3    3    0    0 -0.55907839035E+01  0.15838730170E+02 -0.17682545584E+02  0.24388412338E+02  0.00000000000E+00 0. -1.
</event>
<event>
 7    1  0.5662448E-012  0.5930194E+02  0.7816164E-02  0.1266605E+00
        -11   -1    0    0    0    0  0.00000000000E+00  0.00000000000E+00  0.45593999997E+02  0.45594000000E+02  0.51100000000E-03 0.  1.
         11   -1    0    0    0    0 -0.00000000000E+00 -0.00000000000E+00 -0.45593999997E+02  0.45594000000E+02  0.51100000000E-03 0. -1.
    9900012    2    1    2    0    0  0.24262503918E+02 -0.67511629247E+01  0.19556926253E+02  0.59301942520E+02  0.49999997250E+02 0.  0.
         12    1    1    2    0    0 -0.24262503918E+02  0.67511629247E+01 -0.19556926253E+02  0.31886057480E+02  0.00000000000E+00 0. -1.
         11    1    3    3    0    0  0.91877026267E+01 -0.70991286623E+01 -0.42382129285E+01  0.12360176229E+02  0.51100000000E-03 0.  1.
        -11    1    3    3    0    0  0.30629813485E+01 -0.10721581422E+02  0.27945669483E+02  0.30088114033E+02  0.51100000000E-03 0. -1.
         12    1    3    3    0    0  0.12011819942E+02  0.11069547160E+02 -0.41505303018E+01  0.16853652258E+02  0.00000000000E+00 0. -1.
</event>
<event>
 7    1  0.5662448E-012  0.5930190E+02  0.7816164E-02  0.1266605E+00
        -11   -1    0    0    0    0  0.00000000000E+00  0.00000000000E+00  0.45593999997E+02  0.45594000000E+02  0.51100000000E-03 0. -1.
         11   -1    0    0    0    0 -0.00000000000E+00 -0.00000000000E+00 -0.45593999997E+02  0.45594000000E+02  0.51100000000E-03 0.  1.
    9900012    2    1    2    0    0 -0.11091932857E+02  0.25558522339E+02 -0.15506587581E+02  0.59301901194E+02  0.49999921882E+02 0.  0.
         12    1    1    2    0    0  0.11091932857E+02 -0.25558522339E+02  0.15506587581E+02  0.31886098806E+02  0.00000000000E+00 0. -1.
         11    1    3    3    0    0  0.69026950167E+01  0.25673584035E+02 -0.18479076624E+00  0.26585978703E+02  0.51100000000E-03 0. -1.
        -11    1    3    3    0    0 -0.11840112150E+02  0.10364072862E+02 -0.43069221676E+01  0.16314160746E+02  0.51100000000E-03 0.  1.
         12    1    3    3    0    0 -0.61545157233E+01 -0.10479134558E+02 -0.11014874647E+02  0.16401761746E+02  0.00000000000E+00 0. -1.
</event>
<event>
 7    1  0.5662448E-012  0.5930191E+02  0.7816164E-02  0.1266605E+00
        -11   -1    0    0    0    0  0.00000000000E+00  0.00000000000E+00  0.45593999997E+02  0.45594000000E+02  0.51100000000E-03 0. -1.
         11   -1    0    0    0    0 -0.00000000000E+00 -0.00000000000E+00 -0.45593999997E+02  0.45594000000E+02  0.51100000000E-03 0.  1.
    9900012    2    1    2    0    0  0.13893139885E+02  0.23230073186E+02 -0.16854284908E+02  0.59301912817E+02  0.49999943079E+02 0.  0.
         12    1    1    2    0    0 -0.13893139885E+02 -0.23230073186E+02  0.16854284908E+02  0.31886087183E+02  0.00000000000E+00 0. -1.
         11    1    3    3    0    0  0.13997639554E+02  0.90737615704E+01 -0.21412811605E+02  0.27143609989E+02  0.51100000000E-03 0. -1.
        -11    1    3    3    0    0  0.12336294029E+02 -0.30873426239E+00 -0.72417698963E+00  0.12361387454E+02  0.51100000000E-03 0.  1.
         12    1    3    3    0    0 -0.12440793698E+02  0.14465045878E+02  0.52827036868E+01  0.19796915375E+02  0.00000000000E+00 0. -1.
</event>
<event>
 7    1  0.5662448E-012  0.5930195E+02  0.7816164E-02  0.1266605E+00
        -11   -1    0    0    0    0  0.00000000000E+00  0.00000000000E+00  0.45593999997E+02  0.45594000000E+02  0.51100000000E-03 0.  1.
         11   -1    0    0    0    0 -0.00000000000E+00 -0.00000000000E+00 -0.45593999997E+02  0.45594000000E+02  0.51100000000E-03 0. -1.
    9900012    2    1    2    0    0  0.23458703532E+02 -0.15868866446E+02 -0.14648848752E+02  0.59301945627E+02  0.50000002917E+02 0.  0.
         12    1    1    2    0    0 -0.23458703532E+02  0.15868866446E+02  0.14648848752E+02  0.31886054373E+02  0.00000000000E+00 0. -1.
         11    1    3    3    0    0  0.44495151246E+01  0.67106535366E-01 -0.15224528719E+02  0.15861556137E+02  0.51100000000E-03 0. -1.
        -11    1    3    3    0    0  0.38009861838E+00 -0.14703212712E+02 -0.13573893302E+02  0.20014482722E+02  0.51100000000E-03 0.  1.
         12    1    3    3    0    0  0.18629089789E+02 -0.12327602700E+01  0.14149573268E+02  0.23425906768E+02  0.00000000000E+00 0. -1.
</event>
<event>
 7    1  0.5662448E-012  0.5930194E+02  0.7816164E-02  0.1266605E+00
        -11   -1    0    0    0    0  0.00000000000E+00  0.00000000000E+00  0.45593999997E+02  0.45594000000E+02  0.51100000000E-03 0.  1.
         11   -1    0    0    0    0 -0.00000000000E+00 -0.00000000000E+00 -0.45593999997E+02  0.45594000000E+02  0.51100000000E-03 0. -1.
    9900012    2    1    2    0    0  0.21903479516E+02 -0.61845383210E+01  0.22331820193E+02  0.59301935297E+02  0.49999984077E+02 0.  0.
         12    1    1    2    0    0 -0.21903479516E+02  0.61845383210E+01 -0.22331820193E+02  0.31886064703E+02  0.00000000000E+00 0. -1.
         11    1    3    3    0    0  0.93784149626E+01 -0.15741488435E+02  0.63904408457E+01  0.19405846022E+02  0.51100000000E-03 0. -1.
        -11    1    3    3    0    0 -0.86844152954E+01  0.26808456796E+01 -0.40495665048E+01  0.99501252112E+01  0.51100000000E-03 0.  1.
        -12    1    3    3    0    0  0.21209479849E+02  0.68761044344E+01  0.19990945852E+02  0.29945964064E+02  0.00000000000E+00 0.  1.
</event>
<event>
 7    1  0.5662448E-012  0.5930194E+02  0.7816164E-02  0.1266605E+00
        -11   -1    0    0    0    0  0.00000000000E+00  0.00000000000E+00  0.45593999997E+02  0.45594000000E+02  0.51100000000E-03 0. -1.
         11   -1    0    0    0    0 -0.00000000000E+00 -0.00000000000E+00 -0.45593999997E+02  0.45594000000E+02  0.51100000000E-03 0.  1.
    9900012    2    1    2    0    0  0.26556919107E+02  0.17125159397E+01 -0.17564684498E+02  0.59301940274E+02  0.49999993155E+02 0.  0.
         12    1    1    2    0    0 -0.26556919107E+02 -0.17125159397E+01  0.17564684498E+02  0.31886059726E+02  0.00000000000E+00 0. -1.
         11    1    3    3    0    0  0.58446932720E+00  0.51298129813E+01  0.15385866892E+01  0.53873773656E+01  0.51100000000E-03 0. -1.
        -11    1    3    3    0    0  0.29484393345E+02  0.33346348551E+01  0.36744470325E+01  0.29899010047E+02  0.51100000000E-03 0.  1.
        -12    1    3    3    0    0 -0.35119435652E+01 -0.67519318967E+01 -0.22777718220E+02  0.24015552861E+02  0.00000000000E+00 0.  1.
</event>
<event>
 7    1  0.5662448E-012  0.5930193E+02  0.7816164E-02  0.1266605E+00
        -11   -1    0    0    0    0  0.00000000000E+00  0.00000000000E+00  0.45593999997E+02  0.45594000000E+02  0.51100000000E-03 0.  1.
         11   -1    0    0    0    0 -0.00000000000E+00 -0.00000000000E+00 -0.45593999997E+02  0.45594000000E+02  0.51100000000E-03 0. -1.
    9900012    2    1    2    0    0 -0.94866475514E+00  0.85625000655E+01  0.30700246127E+02  0.59301929617E+02  0.49999973719E+02 0.  0.
         12    1    1    2    0    0  0.94866475514E+00 -0.85625000655E+01 -0.30700246127E+02  0.31886070383E+02  0.00000000000E+00 0. -1.
         11    1    3    3    0    0 -0.79825731656E+01 -0.14856873123E+02  0.18361288505E+01  0.16965244553E+02  0.51100000000E-03 0. -1.
        -11    1    3    3    0    0 -0.44968366333E+01 -0.18425218015E+00  0.60701628365E+01  0.75566107280E+01  0.51100000000E-03 0.  1.
        -12    1    3    3    0    0  0.11530745044E+02  0.23603625369E+02  0.22793954440E+02  0.34780074336E+02  0.00000000000E+00 0.  1.
</event>
<event>
 7    1  0.5662448E-012  0.5930199E+02  0.7816164E-02  0.1266605E+00
        -11   -1    0    0    0    0  0.00000000000E+00  0.00000000000E+00  0.45593999997E+02  0.45594000000E+02  0.51100000000E-03 0.  1.
         11   -1    0    0    0    0 -0.00000000000E+00 -0.00000000000E+00 -0.45593999997E+02  0.45594000000E+02  0.51100000000E-03 0. -1.
    9900012    2    1    2    0    0  0.21728111724E+02  0.11662245612E+02 -0.20213831747E+02  0.59301987303E+02  0.50000078924E+02 0.  0.
         12    1    1    2    0    0 -0.21728111724E+02 -0.11662245612E+02  0.20213831747E+02  0.31886012697E+02  0.00000000000E+00 0. -1.
         11    1    3    3    0    0  0.12990985159E+00 -0.12891347213E+02 -0.59358600949E+01  0.14192890645E+02  0.51100000000E-03 0. -1.
        -11    1    3    3    0    0 -0.39909652019E+00  0.17588937113E+02 -0.13228192388E+02  0.22011702817E+02  0.51100000000E-03 0.  1.
        -12    1    3    3    0    0  0.21997298393E+02  0.69646557117E+01 -0.10497792639E+01  0.23097393841E+02  0.00000000000E+00 0.  1.
</event>
<event>
 7    1  0.5662448E-012  0.5930190E+02  0.7816164E-02  0.1266605E+00
        -11   -1    0    0    0    0  0.00000000000E+00  0.00000000000E+00  0.45593999997E+02  0.45594000000E+02  0.51100000000E-03 0. -1.
         11   -1    0    0    0    0 -0.00000000000E+00 -0.00000000000E+00 -0.45593999997E+02  0.45594000000E+02  0.51100000000E-03 0.  1.
    9900012    2    1    2    0    0  0.32211831803E+01 -0.31667703219E+02 -0.18718093540E+01  0.59301903994E+02  0.49999926988E+02 0.  0.
         12    1    1    2    0    0 -0.32211831803E+01  0.31667703219E+02  0.18718093540E+01  0.31886096006E+02  0.00000000000E+00 0. -1.
         11    1    3    3    0    0  0.75239811095E+01 -0.31107533627E+02 -0.16473229144E+01  0.32046881489E+02  0.51100000000E-03 0. -1.
        -11    1    3    3    0    0  0.59614339236E+01 -0.85341759474E+01 -0.70514297297E+01  0.12573524368E+02  0.51100000000E-03 0.  1.
        -12    1    3    3    0    0 -0.10264231853E+02  0.79740063558E+01  0.68269432901E+01  0.14681498138E+02  0.00000000000E+00 0.  1.
</event>
<event>
 7    1  0.5662448E-012  0.5930195E+02  0.7816164E-02  0.1266605E+00
        -11   -1    0    0    0    0  0.00000000000E+00  0.00000000000E+00  0.45593999997E+02  0.45594000000E+02  0.51100000000E-03 0.  1.
         11   -1    0    0    0    0 -0.00000000000E+00 -0.00000000000E+00 -0.45593999997E+02  0.45594000000E+02  0.51100000000E-03 0. -1.
    9900012    2    1    2    0    0 -0.80257773922E+01 -0.11214445122E+02 -0.28749664755E+02  0.59301951237E+02  0.50000013149E+02 0.  0.
         12    1    1    2    0    0  0.80257773922E+01  0.11214445122E+02  0.28749664755E+02  0.31886048763E+02  0.00000000000E+00 0. -1.
         11    1    3    3    0    0 -0.49001387569E+01 -0.74202402641E+01 -0.26896390133E+02  0.28328203753E+02  0.51100000000E-03 0. -1.
        -11    1    3    3    0    0  0.59291085772E+01 -0.54649046556E+01 -0.13744033480E+02  0.15934803669E+02  0.51100000000E-03 0.  1.
        -12    1    3    3    0    0 -0.90547472124E+01  0.16706997975E+01  0.11890758857E+02  0.15038943816E+02  0.00000000000E+00 0.  1.
</event>
<event>
 7    1  0.5662448E-012  0.5930193E+02  0.7816164E-02  0.1266605E+00
        -11   -1    0    0    0    0  0.00000000000E+00  0.00000000000E+00  0.45593999997E+02  0.45594000000E+02  0.51100000000E-03 0. -1.
         11   -1    0    0    0    0 -0.00000000000E+00 -0.00000000000E+00 -0.45593999997E+02  0.45594000000E+02  0.51100000000E-03 0.  1.
    9900012    2    1    2    0    0  0.23467555969E+02 -0.34064281779E+01 -0.21316466185E+02  0.59301926759E+02  0.49999968506E+02 0.  0.
         12    1    1    2    0    0 -0.23467555969E+02  0.34064281779E+01  0.21316466185E+02  0.31886073241E+02  0.00000000000E+00 0. -1.
         11    1    3    3    0    0  0.16229092292E+01  0.24865184378E+01 -0.27841871020E+01  0.40704184537E+01  0.51100000000E-03 0. -1.
        -11    1    3    3    0    0  0.16719567153E+02  0.17703339379E+01 -0.33597371752E+02  0.37569421035E+02  0.51100000000E-03 0.  1.
         12    1    3    3    0    0  0.51250795868E+01 -0.76632805536E+01  0.15065092669E+02  0.17662087270E+02  0.00000000000E+00 0. -1.
</event>
<event>
 7    1  0.5662448E-012  0.5930198E+02  0.7816164E-02  0.1266605E+00
        -11   -1    0    0    0    0  0.00000000000E+00  0.00000000000E+00  0.45593999997E+02  0.45594000000E+02  0.51100000000E-03 0. -1.
         11   -1    0    0    0    0 -0.00000000000E+00 -0.00000000000E+00 -0.45593999997E+02  0.45594000000E+02  0.51100000000E-03 0.  1.
    9900012    2    1    2    0    0  0.15864847312E+02  0.26892885400E+02 -0.64651212402E+01  0.59301977074E+02  0.50000060269E+02 0.  0.
         12    1    1    2    0    0 -0.15864847312E+02 -0.26892885400E+02  0.64651212402E+01  0.31886022926E+02  0.00000000000E+00 0. -1.
         11    1    3    3    0    0  0.17386836295E+02 -0.23971545658E+01  0.74584888864E+01  0.19070329916E+02  0.51100000000E-03 0. -1.
        -11    1    3    3    0    0  0.80013161172E+01  0.10315598833E+02  0.26217467337E+01  0.13315637239E+02  0.51100000000E-03 0.  1.
        -12    1    3    3    0    0 -0.95233051000E+01  0.18974441133E+02 -0.16545356860E+02  0.26916009919E+02  0.00000000000E+00 0.  1.
</event>
<event>
 7    1  0.5662448E-012  0.5930192E+02  0.7816164E-02  0.1266605E+00
        -11   -1    0    0    0    0  0.00000000000E+00  0.00000000000E+00  0.45593999997E+02  0.45594000000E+02  0.51100000000E-03 0.  1.
         11   -1    0    0    0    0 -0.00000000000E+00 -0.00000000000E+00 -0.45593999997E+02  0.45594000000E+02  0.51100000000E-03 0. -1.
    9900012    2    1    2    0    0 -0.23602805037E+02  0.19889909657E+02 -0.80013125355E+01  0.59301922880E+02  0.49999961432E+02 0.  0.
         12    1    1    2    0    0  0.23602805037E+02 -0.19889909657E+02  0.80013125355E+01  0.31886077120E+02  0.00000000000E+00 0. -1.
         11    1    3    3    0    0 -0.72200714482E+01  0.14831458492E+02 -0.12622656225E+02  0.20770966351E+02  0.51100000000E-03 0. -1.
        -11    1    3    3    0    0 -0.59333881753E+01  0.13359929420E+01 -0.14891464540E+02  0.16085573934E+02  0.51100000000E-03 0.  1.
        -12    1    3    3    0    0 -0.10449345414E+02  0.37224582228E+01  0.19512808230E+02  0.22445382595E+02  0.00000000000E+00 0.  1.
</event>
<event>
 7    1  0.5662448E-012  0.5930193E+02  0.7816164E-02  0.1266605E+00
        -11   -1    0    0    0    0  0.00000000000E+00  0.00000000000E+00  0.45593999997E+02  0.45594000000E+02  0.51100000000E-03 0.  1.
         11   -1    0    0    0    0 -0.00000000000E+00 -0.00000000000E+00 -0.45593999997E+02  0.45594000000E+02  0.51100000000E-03 0. -1.
    9900012    2    1    2    0    0  0.73756152071E+01 -0.15887358439E+02  0.26644202482E+02  0.59301931196E+02  0.49999976598E+02 0.  0.
         12    1    1    2    0    0 -0.73756152071E+01  0.15887358439E+02 -0.26644202482E+02  0.31886068804E+02  0.00000000000E+00 0. -1.
         11    1    3    3    0    0 -0.43192168114E+01  0.57147480886E+01  0.33091165587E+01  0.78907687991E+01  0.51100000000E-03 0. -1.
        -11    1    3    3    0    0 -0.10883502235E+02  0.38425320976E+01  0.83139357483E+01  0.14224528172E+02  0.51100000000E-03 0.  1.
        -12    1    3    3    0    0  0.22578334253E+02 -0.25444638625E+02  0.15021150175E+02  0.37186634225E+02  0.00000000000E+00 0.  1.
</event>
<event>
 7    1  0.5662448E-012  0.5930195E+02  0.7816164E-02  0.1266605E+00
        -11   -1    0    0    0    0  0.00000000000E+00  0.00000000000E+00  0.45593999997E+02  0.45594000000E+02  0.51100000000E-03 0.  1.
         11   -1    0    0    0    0 -0.00000000000E+00 -0.00000000000E+00 -0.45593999997E+02  0.45594000000E+02  0.51100000000E-03 0. -1.
    9900012    2    1    2    0    0 -0.23994968654E+02 -0.80686253615E+01  0.19387082949E+02  0.59301949426E+02  0.50000009845E+02 0.  0.
         12    1    1    2    0    0  0.23994968654E+02  0.80686253615E+01 -0.19387082949E+02  0.31886050574E+02  0.00000000000E+00 0. -1.
         11    1    3    3    0    0 -0.78503809313E+01 -0.73236255343E+01 -0.91930911359E+01  0.14134245527E+02  0.51100000000E-03 0. -1.
        -11    1    3    3    0    0 -0.81333250357E+01 -0.15720875676E+02  0.17488879227E+02  0.24882881767E+02  0.51100000000E-03 0.  1.
         12    1    3    3    0    0 -0.80112626870E+01  0.14975875849E+02  0.11091294858E+02  0.20284822132E+02  0.00000000000E+00 0. -1.
</event>
<event>
 7    1  0.5662448E-012  0.5930194E+02  0.7816164E-02  0.1266605E+00
        -11   -1    0    0    0    0  0.00000000000E+00  0.00000000000E+00  0.45593999997E+02  0.45594000000E+02  0.51100000000E-03 0.  1.
         11   -1    0    0    0    0 -0.00000000000E+00 -0.00000000000E+00 -0.45593999997E+02  0.45594000000E+02  0.51100000000E-03 0. -1.
    9900012    2    1    2    0    0  0.25147557807E+02  0.18186836383E+02  0.73184778833E+01  0.59301940353E+02  0.49999993299E+02 0.  0.
         12    1    1    2    0    0 -0.25147557807E+02 -0.18186836383E+02 -0.73184778833E+01  0.31886059647E+02  0.00000000000E+00 0. -1.
         11    1    3    3    0    0  0.12002476546E+02  0.67459210048E+01  0.13200582381E+02  0.19074125639E+02  0.51100000000E-03 0. -1.
        -11    1    3    3    0    0  0.20828444621E+02  0.14460407189E+02  0.57153952405E+01  0.25992176215E+02  0.51100000000E-03 0.  1.
         12    1    3    3    0    0 -0.76833633601E+01 -0.30194918107E+01 -0.11597499738E+02  0.14235638499E+02  0.00000000000E+00 0. -1.
</event>
<event>
 7    1  0.5662448E-012  0.5930193E+02  0.7816164E-02  0.1266605E+00
        -11   -1    0    0    0    0  0.00000000000E+00  0.00000000000E+00  0.45593999997E+02  0.45594000000E+02  0.51100000000E-03 0. -1.
         11   -1    0    0    0    0 -0.00000000000E+00 -0.00000000000E+00 -0.45593999997E+02  0.45594000000E+02  0.51100000000E-03 0.  1.
    9900012    2    1    2    0    0  0.18612213593E+02  0.25820504456E+02  0.18995720428E+01  0.59301932209E+02  0.49999978446E+02 0.  0.
         12    1    1    2    0    0 -0.18612213593E+02 -0.25820504456E+02 -0.18995720428E+01  0.31886067791E+02  0.00000000000E+00 0. -1.
         11    1    3    3    0    0  0.13268125961E+02  0.74167561291E+01  0.52788642854E+01  0.16090924349E+02  0.51100000000E-03 0. -1.
        -11    1    3    3    0    0  0.13870841163E+02  0.24758409168E+02 -0.10668650357E+02  0.30318297443E+02  0.51100000000E-03 0.  1.
        -12    1    3    3    0    0 -0.85267535316E+01 -0.63546608410E+01  0.72893581144E+01  0.12892710418E+02  0.00000000000E+00 0.  1.
</event>
<event>
 7    1  0.5662448E-012  0.5930193E+02  0.7816164E-02  0.1266605E+00
        -11   -1    0    0    0    0  0.00000000000E+00  0.00000000000E+00  0.45593999997E+02  0.45594000000E+02  0.51100000000E-03 0. -1.
         11   -1    0    0    0    0 -0.00000000000E+00 -0.00000000000E+00 -0.45593999997E+02  0.45594000000E+02  0.51100000000E-03 0.  1.
    9900012    2    1    2    0    0  0.38055116787E+01  0.30290789840E+02 -0.92036692323E+01  0.59301931010E+02  0.49999976259E+02 0.  0.
         12    1    1    2    0    0 -0.38055116787E+01 -0.30290789840E+02  0.92036692323E+01  0.31886068990E+02  0.00000000000E+00 0. -1.
         11    1    3    3    0    0  0.34790476034E+01  0.88071967211E+01 -0.56903114579E+01  0.11047630111E+02  0.51100000000E-03 0. -1.
        -11    1    3    3    0    0  0.83909408850E+01 -0.36790570703E+01 -0.16453545668E+02  0.18832485634E+02  0.51100000000E-03 0.  1.
         12    1    3    3    0    0 -0.80644768097E+01  0.25162650190E+02  0.12940187893E+02  0.29421815265E+02  0.00000000000E+00 0. -1.
</event>
<event>
 7    1  0.5662448E-012  0.5930196E+02  0.7816164E-02  0.1266605E+00
        -11   -1    0    0    0    0  0.00000000000E+00  0.00000000000E+00  0.45593999997E+02  0.45594000000E+02  0.51100000000E-03 0. -1.
         11   -1    0    0    0    0 -0.00000000000E+00 -0.00000000000E+00 -0.45593999997E+02  0.45594000000E+02  0.51100000000E-03 0.  1.
    9900012    2    1    2    0    0  0.49939184900E+01 -0.28943391611E+02 -0.12412118777E+02  0.59301955523E+02  0.50000020965E+02 0.  0.
         12    1    1    2    0    0 -0.49939184900E+01  0.28943391611E+02  0.12412118777E+02  0.31886044477E+02  0.00000000000E+00 0. -1.
         11    1    3    3    0    0  0.65047846372E+01 -0.19517402245E+01  0.87546520224E+01  0.11079956921E+02  0.51100000000E-03 0. -1.
        -11    1    3    3    0    0  0.32277291994E+01 -0.34313626324E+01 -0.23601342091E+02  0.24066903292E+02  0.51100000000E-03 0.  1.
         12    1    3    3    0    0 -0.47385953466E+01 -0.23560288754E+02  0.24345712915E+01  0.24155095310E+02  0.00000000000E+00 0. -1.
</event>
<event>
 7    1  0.5662448E-012  0.5930195E+02  0.7816164E-02  0.1266605E+00
        -11   -1    0    0    0    0  0.00000000000E+00  0.00000000000E+00  0.45593999997E+02  0.45594000000E+02  0.51100000000E-03 0.  1.
         11   -1    0    0    0    0 -0.00000000000E+00 -0.00000000000E+00 -0.45593999997E+02  0.45594000000E+02  0.51100000000E-03 0. -1.
    9900012    2    1    2    0    0  0.20120392388E+02 -0.19325901191E+02  0.15440190718E+02  0.59301950760E+02  0.50000012279E+02 0.  0.
         12    1    1    2    0    0 -0.20120392388E+02  0.19325901191E+02 -0.15440190718E+02  0.31886049240E+02  0.00000000000E+00 0. -1.
         11    1    3    3    0    0 -0.15720631985E+01 -0.30106499449E+01 -0.22093836872E+01  0.40517616328E+01  0.51100000000E-03 0. -1.
        -11    1    3    3    0    0  0.21773830740E+02 -0.29862080354E+02  0.61191574780E+01  0.37460480998E+02  0.51100000000E-03 0.  1.
         12    1    3    3    0    0 -0.81375152947E-01  0.13546829108E+02  0.11530416928E+02  0.17789708129E+02  0.00000000000E+00 0. -1.
</event>
<event>
 7    1  0.5662448E-012  0.5930194E+02  0.7816164E-02  0.1266605E+00
        -11   -1    0    0    0    0  0.00000000000E+00  0.00000000000E+00  0.45593999997E+02  0.45594000000E+02  0.51100000000E-03 0.  1.
         11   -1    0    0    0    0 -0.00000000000E+00 -0.00000000000E+00 -0.45593999997E+02  0.45594000000E+02  0.51100000000E-03 0. -1.
    9900012    2    1    2    0    0 -0.17336266552E+02 -0.65003563984E+01  0.25959975894E+02  0.59301935337E+02  0.49999984150E+02 0.  0.
         12    1    1    2    0    0  0.17336266552E+02  0.65003563984E+01 -0.25959975894E+02  0.31886064663E+02  0.00000000000E+00 0. -1.
         11    1    3    3    0    0  0.30059182105E+01 -0.15033140995E+02  0.78325106350E+01  0.17215664250E+02  0.51100000000E-03 0. -1.
        -11    1    3    3    0    0 -0.73779137977E+00 -0.82631647401E+01 -0.29025668914E+01  0.87891479941E+01  0.51100000000E-03 0.  1.
        -12    1    3    3    0    0 -0.19604393383E+02  0.16795949337E+02  0.21030032151E+02  0.33297123093E+02  0.00000000000E+00 0.  1.
</event>
<event>
 7    1  0.5662448E-012  0.5930194E+02  0.7816164E-02  0.1266605E+00
        -11   -1    0    0    0    0  0.00000000000E+00  0.00000000000E+00  0.45593999997E+02  0.45594000000E+02  0.51100000000E-03 0.  1.
         11   -1    0    0    0    0 -0.00000000000E+00 -0.00000000000E+00 -0.45593999997E+02  0.45594000000E+02  0.51100000000E-03 0. -1.
    9900012    2    1    2    0    0  0.18894141927E+02 -0.15808869509E+02  0.20243804851E+02  0.59301943656E+02  0.49999999323E+02 0.  0.
         12    1    1    2    0    0 -0.18894141927E+02  0.15808869509E+02 -0.20243804851E+02  0.31886056344E+02  0.00000000000E+00 0. -1.
         11    1    3    3    0    0  0.20881068438E+02 -0.40559458011E+01  0.48805103011E+00  0.21276933743E+02  0.51100000000E-03 0.  1.
        -11    1    3    3    0    0  0.19728057317E+01  0.51829223977E+00 -0.75538512616E+01  0.78244014751E+01  0.51100000000E-03 0. -1.
        -12    1    3    3    0    0 -0.39597322423E+01 -0.12271215947E+02  0.27309605082E+02  0.30200608438E+02  0.00000000000E+00 0.  1.
</event>
<event>
 7    1  0.5662448E-012  0.5930195E+02  0.7816164E-02  0.1266605E+00
        -11   -1    0    0    0    0  0.00000000000E+00  0.00000000000E+00  0.45593999997E+02  0.45594000000E+02  0.51100000000E-03 0.  1.
         11   -1    0    0    0    0 -0.00000000000E+00 -0.00000000000E+00 -0.45593999997E+02  0.45594000000E+02  0.51100000000E-03 0. -1.
    9900012    2    1    2    0    0  0.24470830598E+02  0.20307668794E+02  0.23446653657E+01  0.59301946345E+02  0.50000004226E+02 0.  0.
         12    1    1    2    0    0 -0.24470830598E+02 -0.20307668794E+02 -0.23446653657E+01  0.31886053655E+02  0.00000000000E+00 0. -1.
         11    1    3    3    0    0  0.29882518835E+01 -0.11104949142E+02 -0.23845958824E+01  0.11744609084E+02  0.51100000000E-03 0. -1.
        -11    1    3    3    0    0  0.38209705396E+01  0.13221278800E+01  0.11345777325E+02  0.12044687682E+02  0.51100000000E-03 0.  1.
         12    1    3    3    0    0  0.17661608175E+02  0.30090490055E+02 -0.66165160765E+01  0.35512649579E+02  0.00000000000E+00 0. -1.
</event>
<event>
 7    1  0.5662448E-012  0.5930194E+02  0.7816164E-02  0.1266605E+00
        -11   -1    0    0    0    0  0.00000000000E+00  0.00000000000E+00  0.45593999997E+02  0.45594000000E+02  0.51100000000E-03 0.  1.
         11   -1    0    0    0    0 -0.00000000000E+00 -0.00000000000E+00 -0.45593999997E+02  0.45594000000E+02  0.51100000000E-03 0. -1.
    9900012    2    1    2    0    0 -0.92967051074E+01  0.19969774955E+01  0.30435240574E+02  0.59301944838E+02  0.50000001478E+02 0.  0.
         12    1    1    2    0    0  0.92967051074E+01 -0.19969774955E+01 -0.30435240574E+02  0.31886055162E+02  0.00000000000E+00 0. -1.
         11    1    3    3    0    0  0.10350853381E+02 -0.79940952811E+01  0.87031485754E+01  0.15709567800E+02  0.51100000000E-03 0. -1.
        -11    1    3    3    0    0  0.26840789648E+01 -0.39606863243E+01 -0.43960677559E+01  0.64974401132E+01  0.51100000000E-03 0.  1.
        -12    1    3    3    0    0 -0.22331637453E+02  0.13951759101E+02  0.26128159755E+02  0.37094936925E+02  0.00000000000E+00 0.  1.
</event>
<event>
 7    1  0.5662448E-012  0.5930198E+02  0.7816164E-02  0.1266605E+00
        -11   -1    0    0    0    0  0.00000000000E+00  0.00000000000E+00  0.45593999997E+02  0.45594000000E+02  0.51100000000E-03 0.  1.
         11   -1    0    0    0    0 -0.00000000000E+00 -0.00000000000E+00 -0.45593999997E+02  0.45594000000E+02  0.51100000000E-03 0. -1.
    9900012    2    1    2    0    0 -0.29512390171E+02  0.11915283042E+02  0.19398841424E+01  0.59301979645E+02  0.50000064958E+02 0.  0.
         12    1    1    2    0    0  0.29512390171E+02 -0.11915283042E+02 -0.19398841424E+01  0.31886020355E+02  0.00000000000E+00 0. -1.
         11    1    3    3    0    0 -0.49721339863E+00 -0.26872600378E+00  0.13954508813E+02  0.13965949710E+02  0.51100000000E-03 0. -1.
        -11    1    3    3    0    0 -0.20051572600E+02 -0.74939587547E+01 -0.19793614534E+01  0.21497508078E+02  0.51100000000E-03 0.  1.
         12    1    3    3    0    0 -0.89636041725E+01  0.19677967801E+02 -0.10035263217E+02  0.23838521858E+02  0.00000000000E+00 0. -1.
</event>
<event>
 7    1  0.5662448E-012  0.5930194E+02  0.7816164E-02  0.1266605E+00
        -11   -1    0    0    0    0  0.00000000000E+00  0.00000000000E+00  0.45593999997E+02  0.45594000000E+02  0.51100000000E-03 0.  1.
         11   -1    0    0    0    0 -0.00000000000E+00 -0.00000000000E+00 -0.45593999997E+02  0.45594000000E+02  0.51100000000E-03 0. -1.
    9900012    2    1    2    0    0  0.29179732821E+02  0.11940597239E+02 -0.47630207394E+01  0.59301936642E+02  0.49999986530E+02 0.  0.
         12    1    1    2    0    0 -0.29179732821E+02 -0.11940597239E+02  0.47630207394E+01  0.31886063358E+02  0.00000000000E+00 0. -1.
         11    1    3    3    0    0  0.85122648085E+01 -0.14994535881E+02 -0.25139750022E+01  0.17424546738E+02  0.51100000000E-03 0. -1.
        -11    1    3    3    0    0 -0.45328690013E+01  0.34023806632E+01 -0.46259280599E+01  0.73158940832E+01  0.51100000000E-03 0.  1.
        -12    1    3    3    0    0  0.25200337013E+02  0.23532752457E+02  0.23768823228E+01  0.34561495821E+02  0.00000000000E+00 0.  1.
</event>
<event>
 7    1  0.5662448E-012  0.5930158E+02  0.7816164E-02  0.1266606E+00
        -11   -1    0    0    0    0  0.00000000000E+00  0.00000000000E+00  0.45593999997E+02  0.45594000000E+02  0.51100000000E-03 0.  1.
         11   -1    0    0    0    0 -0.00000000000E+00 -0.00000000000E+00 -0.45593999997E+02  0.45594000000E+02  0.51100000000E-03 0. -1.
    9900012    2    1    2    0    0 -0.10797769062E+02  0.24550388997E+02  0.17246171988E+02  0.59301578676E+02  0.49999333682E+02 0.  0.
         12    1    1    2    0    0  0.10797769062E+02 -0.24550388997E+02 -0.17246171988E+02  0.31886421324E+02  0.00000000000E+00 0. -1.
         11    1    3    3    0    0 -0.59165419955E+01  0.25133433376E+02  0.81436827651E+01  0.27074240741E+02  0.51100000000E-03 0.  1.
        -11    1    3    3    0    0 -0.10795443303E+02  0.11846710591E+02  0.91632288894E+01  0.18462148084E+02  0.51100000000E-03 0. -1.
         12    1    3    3    0    0  0.59142162368E+01 -0.12429754970E+02 -0.60739666899E-01  0.13765189851E+02  0.00000000000E+00 0. -1.
</event>
<event>
 7    1  0.5662448E-012  0.5930191E+02  0.7816164E-02  0.1266605E+00
        -11   -1    0    0    0    0  0.00000000000E+00  0.00000000000E+00  0.45593999997E+02  0.45594000000E+02  0.51100000000E-03 0.  1.
         11   -1    0    0    0    0 -0.00000000000E+00 -0.00000000000E+00 -0.45593999997E+02  0.45594000000E+02  0.51100000000E-03 0. -1.
    9900012    2    1    2    0    0 -0.20252247570E+02  0.24600226012E+02 -0.11825107411E+01  0.59301906117E+02  0.49999930859E+02 0.  0.
         12    1    1    2    0    0  0.20252247570E+02 -0.24600226012E+02  0.11825107411E+01  0.31886093883E+02  0.00000000000E+00 0. -1.
         11    1    3    3    0    0 -0.13847819157E+02  0.21784118886E+02  0.45420151872E+01  0.26209537067E+02  0.51100000000E-03 0.  1.
        -11    1    3    3    0    0  0.49952970653E+01  0.14010724488E+02  0.25626792230E+01  0.15093731100E+02  0.51100000000E-03 0. -1.
         12    1    3    3    0    0 -0.11399725478E+02 -0.11194617361E+02 -0.82872051513E+01  0.17998637950E+02  0.00000000000E+00 0. -1.
</event>
<event>
 7    1  0.5662448E-012  0.5930194E+02  0.7816164E-02  0.1266605E+00
        -11   -1    0    0    0    0  0.00000000000E+00  0.00000000000E+00  0.45593999997E+02  0.45594000000E+02  0.51100000000E-03 0.  1.
         11   -1    0    0    0    0 -0.00000000000E+00 -0.00000000000E+00 -0.45593999997E+02  0.45594000000E+02  0.51100000000E-03 0. -1.
    9900012    2    1    2    0    0  0.11389208930E+01  0.71769058999E+00  0.31857626115E+02  0.59301944078E+02  0.50000000092E+02 0.  0.
         12    1    1    2    0    0 -0.11389208930E+01 -0.71769058999E+00 -0.31857626115E+02  0.31886055922E+02  0.00000000000E+00 0. -1.
         11    1    3    3    0    0  0.65039319174E+01 -0.14583237078E+02  0.14271705396E+02  0.21416197357E+02  0.51100000000E-03 0. -1.
        -11    1    3    3    0    0  0.65601220231E+01  0.15594974946E+02  0.19486816199E+02  0.25806480782E+02  0.51100000000E-03 0.  1.
        -12    1    3    3    0    0 -0.11925133047E+02 -0.29404727833E+00 -0.19008954802E+01  0.12079265939E+02  0.00000000000E+00 0.  1.
</event>
<event>
 7    1  0.5662448E-012  0.5930195E+02  0.7816164E-02  0.1266605E+00
        -11   -1    0    0    0    0  0.00000000000E+00  0.00000000000E+00  0.45593999997E+02  0.45594000000E+02  0.51100000000E-03 0.  1.
         11   -1    0    0    0    0 -0.00000000000E+00 -0.00000000000E+00 -0.45593999997E+02  0.45594000000E+02  0.51100000000E-03 0. -1.
    9900012    2    1    2    0    0  0.16883610341E+02 -0.58057216222E+00  0.27043051168E+02  0.59301953230E+02  0.50000016782E+02 0.  0.
         12    1    1    2    0    0 -0.16883610341E+02  0.58057216222E+00 -0.27043051168E+02  0.31886046770E+02  0.00000000000E+00 0. -1.
         11    1    3    3    0    0 -0.44871535247E+01  0.24027612050E+01 -0.41586217959E+01  0.65728185480E+01  0.51100000000E-03 0. -1.
        -11    1    3    3    0    0 -0.50341084825E+01 -0.12447240223E+02  0.15781471125E+02  0.20720300878E+02  0.51100000000E-03 0.  1.
         12    1    3    3    0    0  0.26404872348E+02  0.94639068555E+01  0.15420201839E+02  0.32008833803E+02  0.00000000000E+00 0. -1.
</event>
<event>
 7    1  0.5662448E-012  0.5930231E+02  0.7816164E-02  0.1266604E+00
        -11   -1    0    0    0    0  0.00000000000E+00  0.00000000000E+00  0.45593999997E+02  0.45594000000E+02  0.51100000000E-03 0.  1.
         11   -1    0    0    0    0 -0.00000000000E+00 -0.00000000000E+00 -0.45593999997E+02  0.45594000000E+02  0.51100000000E-03 0. -1.
    9900012    2    1    2    0    0 -0.30773992333E+02 -0.77375352103E+01  0.31288150325E+01  0.59302305107E+02  0.50000658518E+02 0.  0.
         12    1    1    2    0    0  0.30773992333E+02  0.77375352103E+01 -0.31288150325E+01  0.31885694893E+02  0.00000000000E+00 0. -1.
         11    1    3    3    0    0 -0.55884935417E+01 -0.62015807203E+01  0.60349571846E+01  0.10301047130E+02  0.51100000000E-03 0. -1.
        -11    1    3    3    0    0 -0.10201033896E+02  0.99481823234E+01  0.16585475488E+02  0.21865621910E+02  0.51100000000E-03 0.  1.
         12    1    3    3    0    0 -0.14984464896E+02 -0.11484136813E+02 -0.19491617640E+02  0.27135636067E+02  0.00000000000E+00 0. -1.
</event>
<event>
 7    1  0.5662448E-012  0.5930194E+02  0.7816164E-02  0.1266605E+00
        -11   -1    0    0    0    0  0.00000000000E+00  0.00000000000E+00  0.45593999997E+02  0.45594000000E+02  0.51100000000E-03 0. -1.
         11   -1    0    0    0    0 -0.00000000000E+00 -0.00000000000E+00 -0.45593999997E+02  0.45594000000E+02  0.51100000000E-03 0.  1.
    9900012    2    1    2    0    0  0.20920327265E+02 -0.22827975685E+02 -0.76121074347E+01  0.59301941191E+02  0.49999994827E+02 0.  0.
         12    1    1    2    0    0 -0.20920327265E+02  0.22827975685E+02  0.76121074347E+01  0.31886058809E+02  0.00000000000E+00 0. -1.
         11    1    3    3    0    0  0.14091847141E+02  0.35937387112E+01 -0.30669457322E+01  0.14862747732E+02  0.51100000000E-03 0.  1.
        -11    1    3    3    0    0 -0.12359306967E+01  0.44108087142E+01 -0.11005984243E+02  0.11921176436E+02  0.51100000000E-03 0. -1.
         12    1    3    3    0    0  0.80644108214E+01 -0.30832523110E+02  0.64608225403E+01  0.32518017023E+02  0.00000000000E+00 0. -1.
</event>
<event>
 7    1  0.5662448E-012  0.5930193E+02  0.7816164E-02  0.1266605E+00
        -11   -1    0    0    0    0  0.00000000000E+00  0.00000000000E+00  0.45593999997E+02  0.45594000000E+02  0.51100000000E-03 0.  1.
         11   -1    0    0    0    0 -0.00000000000E+00 -0.00000000000E+00 -0.45593999997E+02  0.45594000000E+02  0.51100000000E-03 0. -1.
    9900012    2    1    2    0    0  0.43146648648E+01 -0.18453908464E+02  0.25642896133E+02  0.59301934194E+02  0.49999982065E+02 0.  0.
         12    1    1    2    0    0 -0.43146648648E+01  0.18453908464E+02 -0.25642896133E+02  0.31886065806E+02  0.00000000000E+00 0. -1.
         11    1    3    3    0    0  0.10484160874E+02 -0.16390426779E+02  0.88460070276E+01  0.21373244018E+02  0.51100000000E-03 0. -1.
        -11    1    3    3    0    0  0.98751199709E+01  0.97895634547E+01  0.51420981626E+01  0.14825475400E+02  0.51100000000E-03 0.  1.
        -12    1    3    3    0    0 -0.16044615981E+02 -0.11853045140E+02  0.11654790943E+02  0.23103214776E+02  0.00000000000E+00 0.  1.
</event>
<event>
 7    1  0.5662448E-012  0.5930194E+02  0.7816164E-02  0.1266605E+00
        -11   -1    0    0    0    0  0.00000000000E+00  0.00000000000E+00  0.45593999997E+02  0.45594000000E+02  0.51100000000E-03 0.  1.
         11   -1    0    0    0    0 -0.00000000000E+00 -0.00000000000E+00 -0.45593999997E+02  0.45594000000E+02  0.51100000000E-03 0. -1.
    9900012    2    1    2    0    0 -0.12152504435E+02  0.25667122562E+02  0.14499524952E+02  0.59301940844E+02  0.49999994194E+02 0.  0.
         12    1    1    2    0    0  0.12152504435E+02 -0.25667122562E+02 -0.14499524952E+02  0.31886059156E+02  0.00000000000E+00 0. -1.
         11    1    3    3    0    0 -0.10547525143E+02 -0.51289682781E+01  0.12139720892E+02  0.16879852661E+02  0.51100000000E-03 0. -1.
        -11    1    3    3    0    0 -0.14261220817E+02  0.15728393055E+02 -0.42721186066E+01  0.21656771803E+02  0.51100000000E-03 0.  1.
         12    1    3    3    0    0  0.12656241526E+02  0.15067697786E+02  0.66319226663E+01  0.20765316380E+02  0.00000000000E+00 0. -1.
</event>
<event>
 7    1  0.5662448E-012  0.5930194E+02  0.7816164E-02  0.1266605E+00
        -11   -1    0    0    0    0  0.00000000000E+00  0.00000000000E+00  0.45593999997E+02  0.45594000000E+02  0.51100000000E-03 0. -1.
         11   -1    0    0    0    0 -0.00000000000E+00 -0.00000000000E+00 -0.45593999997E+02  0.45594000000E+02  0.51100000000E-03 0.  1.
    9900012    2    1    2    0    0 -0.16035003051E+02 -0.25196687837E+01 -0.27445413860E+02  0.59301940420E+02  0.49999993420E+02 0.  0.
         12    1    1    2    0    0  0.16035003051E+02  0.25196687837E+01  0.27445413860E+02  0.31886059580E+02  0.00000000000E+00 0. -1.
         11    1    3    3    0    0  0.34675504429E+01  0.48991956070E+00  0.14145376245E+00  0.35048447438E+01  0.51100000000E-03 0.  1.
        -11    1    3    3    0    0 -0.10301763917E+01 -0.12685636870E+02  0.76518638318E+01  0.14850510649E+02  0.51100000000E-03 0. -1.
        -12    1    3    3    0    0 -0.18472377102E+02  0.96760485252E+01 -0.35238731454E+02  0.40946585027E+02  0.00000000000E+00 0.  1.
</event>
<event>
 7    1  0.5662448E-012  0.5930189E+02  0.7816164E-02  0.1266605E+00
        -11   -1    0    0    0    0  0.00000000000E+00  0.00000000000E+00  0.45593999997E+02  0.45594000000E+02  0.51100000000E-03 0.  1.
         11   -1    0    0    0    0 -0.00000000000E+00 -0.00000000000E+00 -0.45593999997E+02  0.45594000000E+02  0.51100000000E-03 0. -1.
    9900012    2    1    2    0    0 -0.22050816429E+02 -0.22259139706E+02  0.59174651912E+01  0.59301887037E+02  0.49999896062E+02 0.  0.
         12    1    1    2    0    0  0.22050816429E+02  0.22259139706E+02 -0.59174651912E+01  0.31886112963E+02  0.00000000000E+00 0. -1.
         11    1    3    3    0    0 -0.15611369389E+02 -0.21583163912E+01 -0.13297078339E+01  0.15815856190E+02  0.51100000000E-03 0. -1.
        -11    1    3    3    0    0 -0.19189278442E+02 -0.20343530102E+02  0.11215111360E+02  0.30130820553E+02  0.51100000000E-03 0.  1.
         12    1    3    3    0    0  0.12749831402E+02  0.24270678720E+00 -0.39679383350E+01  0.13355210294E+02  0.00000000000E+00 0. -1.
</event>
<event>
 7    1  0.5662448E-012  0.5930195E+02  0.7816164E-02  0.1266605E+00
        -11   -1    0    0    0    0  0.00000000000E+00  0.00000000000E+00  0.45593999997E+02  0.45594000000E+02  0.51100000000E-03 0. -1.
         11   -1    0    0    0    0 -0.00000000000E+00 -0.00000000000E+00 -0.45593999997E+02  0.45594000000E+02  0.51100000000E-03 0.  1.
    9900012    2    1    2    0    0 -0.11500635180E+02  0.19171261125E+02 -0.22735841208E+02  0.59301947593E+02  0.50000006503E+02 0.  0.
         12    1    1    2    0    0  0.11500635180E+02 -0.19171261125E+02  0.22735841208E+02  0.31886052407E+02  0.00000000000E+00 0. -1.
         11    1    3    3    0    0 -0.51485267617E+01 -0.76960035115E+01  0.42233940996E+01  0.10177075014E+02  0.51100000000E-03 0. -1.
        -11    1    3    3    0    0  0.10343616010E+02  0.17863655086E+02 -0.75334226568E+01  0.21973916864E+02  0.51100000000E-03 0.  1.
        -12    1    3    3    0    0 -0.16695724427E+02  0.90036095506E+01 -0.19425812651E+02  0.27150955715E+02  0.00000000000E+00 0.  1.
</event>
<event>
 7    1  0.5662448E-012  0.5930191E+02  0.7816164E-02  0.1266605E+00
        -11   -1    0    0    0    0  0.00000000000E+00  0.00000000000E+00  0.45593999997E+02  0.45594000000E+02  0.51100000000E-03 0.  1.
         11   -1    0    0    0    0 -0.00000000000E+00 -0.00000000000E+00 -0.45593999997E+02  0.45594000000E+02  0.51100000000E-03 0. -1.
    9900012    2    1    2    0    0  0.29931658873E+02 -0.10831758199E+02 -0.18686004835E+01  0.59301908105E+02  0.49999934485E+02 0.  0.
         12    1    1    2    0    0 -0.29931658873E+02  0.10831758199E+02  0.18686004835E+01  0.31886091895E+02  0.00000000000E+00 0. -1.
         11    1    3    3    0    0  0.37053828348E+01 -0.13116779535E+01  0.11126131108E+02  0.11800048928E+02  0.51100000000E-03 0. -1.
        -11    1    3    3    0    0  0.11826130958E+02 -0.12249862879E+02  0.10358554111E+02  0.19930282425E+02  0.51100000000E-03 0.  1.
         12    1    3    3    0    0  0.14400145080E+02  0.27297826335E+01 -0.23353285702E+02  0.27571576753E+02  0.00000000000E+00 0. -1.
</event>
<event>
 7    1  0.5662448E-012  0.5930195E+02  0.7816164E-02  0.1266605E+00
        -11   -1    0    0    0    0  0.00000000000E+00  0.00000000000E+00  0.45593999997E+02  0.45594000000E+02  0.51100000000E-03 0.  1.
         11   -1    0    0    0    0 -0.00000000000E+00 -0.00000000000E+00 -0.45593999997E+02  0.45594000000E+02  0.51100000000E-03 0. -1.
    9900012    2    1    2    0    0 -0.14578200504E+02  0.81212630922E+00  0.28346728117E+02  0.59301945461E+02  0.50000002614E+02 0.  0.
         12    1    1    2    0    0  0.14578200504E+02 -0.81212630922E+00 -0.28346728117E+02  0.31886054539E+02  0.00000000000E+00 0. -1.
         11    1    3    3    0    0  0.12989014015E+02 -0.10235483303E+02  0.14361043226E+02  0.21902492240E+02  0.51100000000E-03 0. -1.
        -11    1    3    3    0    0 -0.62483105395E+01  0.75928096767E+01  0.12284770946E+02  0.15735556579E+02  0.51100000000E-03 0.  1.
        -12    1    3    3    0    0 -0.21318903980E+02  0.34547999358E+01  0.17009139456E+01  0.21663896643E+02  0.00000000000E+00 0.  1.
</event>
<event>
 7    1  0.5662448E-012  0.5930191E+02  0.7816164E-02  0.1266605E+00
        -11   -1    0    0    0    0  0.00000000000E+00  0.00000000000E+00  0.45593999997E+02  0.45594000000E+02  0.51100000000E-03 0.  1.
         11   -1    0    0    0    0 -0.00000000000E+00 -0.00000000000E+00 -0.45593999997E+02  0.45594000000E+02  0.51100000000E-03 0. -1.
    9900012    2    1    2    0    0  0.30049804935E+02  0.93756692186E+01  0.50821931755E+01  0.59301911538E+02  0.49999940747E+02 0.  0.
         12    1    1    2    0    0 -0.30049804935E+02 -0.93756692186E+01 -0.50821931755E+01  0.31886088462E+02  0.00000000000E+00 0. -1.
         11    1    3    3    0    0  0.31779545940E+01  0.27153231173E+01 -0.27638477742E+01  0.50111106367E+01  0.51100000000E-03 0. -1.
        -11    1    3    3    0    0  0.25617073342E+02  0.13830129471E+02 -0.13241842911E+02  0.31982078290E+02  0.51100000000E-03 0.  1.
         12    1    3    3    0    0  0.12547769983E+01 -0.71697833695E+01  0.21087883860E+02  0.22308722612E+02  0.00000000000E+00 0. -1.
</event>
<event>
 7    1  0.5662448E-012  0.5930192E+02  0.7816164E-02  0.1266605E+00
        -11   -1    0    0    0    0  0.00000000000E+00  0.00000000000E+00  0.45593999997E+02  0.45594000000E+02  0.51100000000E-03 0. -1.
         11   -1    0    0    0    0 -0.00000000000E+00 -0.00000000000E+00 -0.45593999997E+02  0.45594000000E+02  0.51100000000E-03 0.  1.
    9900012    2    1    2    0    0 -0.69672815263E+01  0.30848023641E+02  0.40716488937E+01  0.59301923115E+02  0.49999961860E+02 0.  0.
         12    1    1    2    0    0  0.69672815263E+01 -0.30848023641E+02 -0.40716488937E+01  0.31886076885E+02  0.00000000000E+00 0. -1.
         11    1    3    3    0    0  0.74411284246E+01  0.37154118775E+02  0.25406015850E+01  0.37977013980E+02  0.51100000000E-03 0. -1.
        -11    1    3    3    0    0 -0.10976012259E+01 -0.49289821468E+01 -0.43904376515E+01  0.66914524946E+01  0.51100000000E-03 0.  1.
        -12    1    3    3    0    0 -0.13310808725E+02 -0.13771129878E+01  0.59214849602E+01  0.14633456640E+02  0.00000000000E+00 0.  1.
</event>
<event>
 7    1  0.5662448E-012  0.5930195E+02  0.7816164E-02  0.1266605E+00
        -11   -1    0    0    0    0  0.00000000000E+00  0.00000000000E+00  0.45593999997E+02  0.45594000000E+02  0.51100000000E-03 0.  1.
         11   -1    0    0    0    0 -0.00000000000E+00 -0.00000000000E+00 -0.45593999997E+02  0.45594000000E+02  0.51100000000E-03 0. -1.
    9900012    2    1    2    0    0 -0.25459324376E+02 -0.18045867325E+02  0.65490421073E+01  0.59301945404E+02  0.50000002510E+02 0.  0.
         12    1    1    2    0    0  0.25459324376E+02  0.18045867325E+02 -0.65490421073E+01  0.31886054596E+02  0.00000000000E+00 0. -1.
         11    1    3    3    0    0 -0.80647860191E+01  0.47024647596E+01  0.11722316008E+02  0.14985547745E+02  0.51100000000E-03 0.  1.
        -11    1    3    3    0    0 -0.22566035420E+02 -0.22141143125E+02 -0.13596271984E+02  0.34413874899E+02  0.51100000000E-03 0. -1.
         12    1    3    3    0    0  0.51714970638E+01 -0.60718895910E+00  0.84229980828E+01  0.99025227602E+01  0.00000000000E+00 0. -1.
</event>
<event>
 7    1  0.5662448E-012  0.5930195E+02  0.7816164E-02  0.1266605E+00
        -11   -1    0    0    0    0  0.00000000000E+00  0.00000000000E+00  0.45593999997E+02  0.45594000000E+02  0.51100000000E-03 0. -1.
         11   -1    0    0    0    0 -0.00000000000E+00 -0.00000000000E+00 -0.45593999997E+02  0.45594000000E+02  0.51100000000E-03 0.  1.
    9900012    2    1    2    0    0 -0.16912594507E+02 -0.26428758413E+02  0.56749488578E+01  0.59301950249E+02  0.50000011345E+02 0.  0.
         12    1    1    2    0    0  0.16912594507E+02  0.26428758413E+02 -0.56749488578E+01  0.31886049751E+02  0.00000000000E+00 0. -1.
         11    1    3    3    0    0 -0.42862042034E+01  0.36218749085E+01  0.12592500975E+02  0.13786246965E+02  0.51100000000E-03 0. -1.
        -11    1    3    3    0    0 -0.65167647689E+01 -0.31679678058E+02  0.43111594038E+01  0.32629071708E+02  0.51100000000E-03 0.  1.
        -12    1    3    3    0    0 -0.61096255344E+01  0.16290447358E+01 -0.11228711521E+02  0.12886631575E+02  0.00000000000E+00 0.  1.
</event>
<event>
 7    1  0.5662448E-012  0.5930224E+02  0.7816164E-02  0.1266604E+00
        -11   -1    0    0    0    0  0.00000000000E+00  0.00000000000E+00  0.45593999997E+02  0.45594000000E+02  0.51100000000E-03 0. -1.
         11   -1    0    0    0    0 -0.00000000000E+00 -0.00000000000E+00 -0.45593999997E+02  0.45594000000E+02  0.51100000000E-03 0.  1.
    9900012    2    1    2    0    0 -0.22008547343E+02 -0.67574373965E+01 -0.22060432209E+02  0.59302238514E+02  0.50000537069E+02 0.  0.
         12    1    1    2    0    0  0.22008547343E+02  0.67574373965E+01  0.22060432209E+02  0.31885761486E+02  0.00000000000E+00 0. -1.
         11    1    3    3    0    0  0.45902496142E+01  0.13561186116E+01  0.38607262925E+01  0.61493623227E+01  0.51100000000E-03 0. -1.
        -11    1    3    3    0    0  0.44733809528E+01 -0.12160280685E+02 -0.15340337832E+02  0.20080077902E+02  0.51100000000E-03 0.  1.
        -12    1    3    3    0    0 -0.31072177910E+02  0.40467246766E+01 -0.10580820669E+02  0.33072798290E+02  0.00000000000E+00 0.  1.
</event>
<event>
 7    1  0.5662448E-012  0.5930196E+02  0.7816164E-02  0.1266605E+00
        -11   -1    0    0    0    0  0.00000000000E+00  0.00000000000E+00  0.45593999997E+02  0.45594000000E+02  0.51100000000E-03 0. -1.
         11   -1    0    0    0    0 -0.00000000000E+00 -0.00000000000E+00 -0.45593999997E+02  0.45594000000E+02  0.51100000000E-03 0.  1.
    9900012    2    1    2    0    0 -0.20527368528E+02 -0.94750329377E+00 -0.24381321886E+02  0.59301961079E+02  0.50000031097E+02 0.  0.
         12    1    1    2    0    0  0.20527368528E+02  0.94750329377E+00  0.24381321886E+02  0.31886038921E+02  0.00000000000E+00 0. -1.
         11    1    3    3    0    0 -0.12433374439E+00 -0.15189356892E+02 -0.93670385674E+01  0.17845823978E+02  0.51100000000E-03 0.  1.
        -11    1    3    3    0    0 -0.25183726920E+02  0.13820077270E+02 -0.34468239385E+01  0.28932598101E+02  0.51100000000E-03 0. -1.
         12    1    3    3    0    0  0.47806921368E+01  0.42177632828E+00 -0.11567459380E+02  0.12523539000E+02  0.00000000000E+00 0. -1.
</event>
<event>
 7    1  0.5662448E-012  0.5930195E+02  0.7816164E-02  0.1266605E+00
        -11   -1    0    0    0    0  0.00000000000E+00  0.00000000000E+00  0.45593999997E+02  0.45594000000E+02  0.51100000000E-03 0.  1.
         11   -1    0    0    0    0 -0.00000000000E+00 -0.00000000000E+00 -0.45593999997E+02  0.45594000000E+02  0.51100000000E-03 0. -1.
    9900012    2    1    2    0    0 -0.27977897819E+02 -0.14639885618E+02  0.44307349141E+01  0.59301946166E+02  0.50000003899E+02 0.  0.
         12    1    1    2    0    0  0.27977897819E+02  0.14639885618E+02 -0.44307349141E+01  0.31886053834E+02  0.00000000000E+00 0. -1.
         11    1    3    3    0    0  0.51172128297E+01 -0.28913213374E+01  0.80065705086E+00  0.59318343027E+01  0.51100000000E-03 0. -1.
        -11    1    3    3    0    0  0.14406494589E+00 -0.64595886565E+01 -0.13967813542E+02  0.15389829620E+02  0.51100000000E-03 0.  1.
        -12    1    3    3    0    0 -0.33239175594E+02 -0.52889756238E+01  0.17597891405E+02  0.37980282243E+02  0.00000000000E+00 0.  1.
</event>
<event>
 7    1  0.5662448E-012  0.5930194E+02  0.7816164E-02  0.1266605E+00
        -11   -1    0    0    0    0  0.00000000000E+00  0.00000000000E+00  0.45593999997E+02  0.45594000000E+02  0.51100000000E-03 0. -1.
         11   -1    0    0    0    0 -0.00000000000E+00 -0.00000000000E+00 -0.45593999997E+02  0.45594000000E+02  0.51100000000E-03 0.  1.
    9900012    2    1    2    0    0  0.18483189144E+02 -0.25221868559E+02 -0.62409838412E+01  0.59301940133E+02  0.49999992897E+02 0.  0.
         12    1    1    2    0    0 -0.18483189144E+02  0.25221868559E+02  0.62409838412E+01  0.31886059867E+02  0.00000000000E+00 0. -1.
         11    1    3    3    0    0  0.28829252035E+01  0.10211870600E+02  0.37846118903E+01  0.11265737717E+02  0.51100000000E-03 0. -1.
        -11    1    3    3    0    0 -0.44181021223E+01 -0.89907164877E+01  0.54869721269E+01  0.11421885690E+02  0.51100000000E-03 0.  1.
         12    1    3    3    0    0  0.20018366062E+02 -0.26443022671E+02 -0.15512567858E+02  0.36614316727E+02  0.00000000000E+00 0. -1.
</event>
<event>
 7    1  0.5662448E-012  0.5930193E+02  0.7816164E-02  0.1266605E+00
        -11   -1    0    0    0    0  0.00000000000E+00  0.00000000000E+00  0.45593999997E+02  0.45594000000E+02  0.51100000000E-03 0.  1.
         11   -1    0    0    0    0 -0.00000000000E+00 -0.00000000000E+00 -0.45593999997E+02  0.45594000000E+02  0.51100000000E-03 0. -1.
    9900012    2    1    2    0    0  0.12236468192E+02  0.19179540280E+02  0.22341344232E+02  0.59301928099E+02  0.49999970949E+02 0.  0.
         12    1    1    2    0    0 -0.12236468192E+02 -0.19179540280E+02 -0.22341344232E+02  0.31886071901E+02  0.00000000000E+00 0. -1.
         11    1    3    3    0    0  0.93107773419E+01  0.86051489964E+00  0.88874438035E+01  0.12900299153E+02  0.51100000000E-03 0. -1.
        -11    1    3    3    0    0  0.17904021917E+02  0.17071832485E+02 -0.20309108223E+01  0.24821886799E+02  0.51100000000E-03 0.  1.
         12    1    3    3    0    0 -0.14978331067E+02  0.12471928954E+01  0.15484811251E+02  0.21579742147E+02  0.00000000000E+00 0. -1.
</event>
<event>
 7    1  0.5662448E-012  0.5930192E+02  0.7816164E-02  0.1266605E+00
        -11   -1    0    0    0    0  0.00000000000E+00  0.00000000000E+00  0.45593999997E+02  0.45594000000E+02  0.51100000000E-03 0. -1.
         11   -1    0    0    0    0 -0.00000000000E+00 -0.00000000000E+00 -0.45593999997E+02  0.45594000000E+02  0.51100000000E-03 0.  1.
    9900012    2    1    2    0    0 -0.85012861204E+01  0.27818946155E+02 -0.13059723702E+02  0.59301921313E+02  0.49999958573E+02 0.  0.
         12    1    1    2    0    0  0.85012861204E+01 -0.27818946155E+02  0.13059723702E+02  0.31886078687E+02  0.00000000000E+00 0. -1.
         11    1    3    3    0    0  0.86622483376E+01  0.90837268639E+01  0.79379900658E+01  0.14851273567E+02  0.51100000000E-03 0. -1.
        -11    1    3    3    0    0 -0.32503991857E+01 -0.69577520011E+01 -0.11304974893E+02  0.13666669871E+02  0.51100000000E-03 0.  1.
         12    1    3    3    0    0 -0.13913135272E+02  0.25692971292E+02 -0.96927388749E+01  0.30783977875E+02  0.00000000000E+00 0. -1.
</event>
<event>
 7    1  0.5662448E-012  0.5930185E+02  0.7816164E-02  0.1266605E+00
        -11   -1    0    0    0    0  0.00000000000E+00  0.00000000000E+00  0.45593999997E+02  0.45594000000E+02  0.51100000000E-03 0. -1.
         11   -1    0    0    0    0 -0.00000000000E+00 -0.00000000000E+00 -0.45593999997E+02  0.45594000000E+02  0.51100000000E-03 0.  1.
    9900012    2    1    2    0    0 -0.19285596862E+02 -0.24126934789E+02 -0.79172928748E+01  0.59301846969E+02  0.49999822988E+02 0.  0.
         12    1    1    2    0    0  0.19285596862E+02  0.24126934789E+02  0.79172928748E+01  0.31886153031E+02  0.00000000000E+00 0. -1.
         11    1    3    3    0    0 -0.71433688778E+01 -0.97208756285E+01  0.15330084645E+02  0.19507297030E+02  0.51100000000E-03 0. -1.
        -11    1    3    3    0    0  0.25278076024E+01  0.26724616007E+01  0.33306856889E+01  0.49623915305E+01  0.51100000000E-03 0.  1.
         12    1    3    3    0    0 -0.14670035587E+02 -0.17078520761E+02 -0.26578063209E+02  0.34832158409E+02  0.00000000000E+00 0. -1.
</event>
<event>
 7    1  0.5662448E-012  0.5930195E+02  0.7816164E-02  0.1266605E+00
        -11   -1    0    0    0    0  0.00000000000E+00  0.00000000000E+00  0.45593999997E+02  0.45594000000E+02  0.51100000000E-03 0. -1.
         11   -1    0    0    0    0 -0.00000000000E+00 -0.00000000000E+00 -0.45593999997E+02  0.45594000000E+02  0.51100000000E-03 0.  1.
    9900012    2    1    2    0    0  0.17147660937E+02  0.54689354085E+01 -0.26320497563E+02  0.59301950981E+02  0.50000012681E+02 0.  0.
         12    1    1    2    0    0 -0.17147660937E+02 -0.54689354085E+01  0.26320497563E+02  0.31886049019E+02  0.00000000000E+00 0. -1.
         11    1    3    3    0    0  0.25572697942E+01 -0.15203467690E+02  0.99819903513E+00  0.15449319085E+02  0.51100000000E-03 0. -1.
        -11    1    3    3    0    0  0.57683273600E+01 -0.46642081313E+01 -0.49015785107E+01  0.88912265848E+01  0.51100000000E-03 0.  1.
         12    1    3    3    0    0  0.88220637827E+01  0.25336611230E+02 -0.22417118087E+02  0.34961405311E+02  0.00000000000E+00 0. -1.
</event>
<event>
 7    1  0.5662448E-012  0.5930193E+02  0.7816164E-02  0.1266605E+00
        -11   -1    0    0    0    0  0.00000000000E+00  0.00000000000E+00  0.45593999997E+02  0.45594000000E+02  0.51100000000E-03 0.  1.
         11   -1    0    0    0    0 -0.00000000000E+00 -0.00000000000E+00 -0.45593999997E+02  0.45594000000E+02  0.51100000000E-03 0. -1.
    9900012    2    1    2    0    0 -0.17530744385E+02 -0.43273642889E+01  0.26280565463E+02  0.59301934055E+02  0.49999981812E+02 0.  0.
         12    1    1    2    0    0  0.17530744385E+02  0.43273642889E+01 -0.26280565463E+02  0.31886065945E+02  0.00000000000E+00 0. -1.
         11    1    3    3    0    0 -0.21417946257E+02  0.37607529672E+00  0.12223959880E+02  0.24663638213E+02  0.51100000000E-03 0.  1.
        -11    1    3    3    0    0 -0.92164445758E+01  0.13818837039E+01 -0.51161178450E+01  0.10631421131E+02  0.51100000000E-03 0. -1.
         12    1    3    3    0    0  0.13103646448E+02 -0.60853232895E+01  0.19172723428E+02  0.24006874711E+02  0.00000000000E+00 0. -1.
</event>
<event>
 7    1  0.5662448E-012  0.5930175E+02  0.7816164E-02  0.1266605E+00
        -11   -1    0    0    0    0  0.00000000000E+00  0.00000000000E+00  0.45593999997E+02  0.45594000000E+02  0.51100000000E-03 0.  1.
         11   -1    0    0    0    0 -0.00000000000E+00 -0.00000000000E+00 -0.45593999997E+02  0.45594000000E+02  0.51100000000E-03 0. -1.
    9900012    2    1    2    0    0 -0.53730297921E+01  0.31405236549E+02  0.12548838065E+01  0.59301748022E+02  0.49999642531E+02 0.  0.
         12    1    1    2    0    0  0.53730297921E+01 -0.31405236549E+02 -0.12548838065E+01  0.31886251978E+02  0.00000000000E+00 0. -1.
         11    1    3    3    0    0  0.12825968225E+02 -0.20319911154E+01  0.31474023609E+01  0.13361908198E+02  0.51100000000E-03 0. -1.
        -11    1    3    3    0    0  0.37319892347E+01  0.33005846969E+01 -0.67106879315E+01  0.83579265230E+01  0.51100000000E-03 0.  1.
        -12    1    3    3    0    0 -0.21930987252E+02  0.30136642967E+02  0.48181693771E+01  0.37581913301E+02  0.00000000000E+00 0.  1.
</event>
<event>
 7    1  0.5662448E-012  0.5930197E+02  0.7816164E-02  0.1266605E+00
        -11   -1    0    0    0    0  0.00000000000E+00  0.00000000000E+00  0.45593999997E+02  0.45594000000E+02  0.51100000000E-03 0. -1.
         11   -1    0    0    0    0 -0.00000000000E+00 -0.00000000000E+00 -0.45593999997E+02  0.45594000000E+02  0.51100000000E-03 0.  1.
    9900012    2    1    2    0    0 -0.57352705207E+01 -0.28154507010E+02 -0.13825682062E+02  0.59301967362E+02  0.50000042556E+02 0.  0.
         12    1    1    2    0    0  0.57352705207E+01  0.28154507010E+02  0.13825682062E+02  0.31886032638E+02  0.00000000000E+00 0. -1.
         11    1    3    3    0    0  0.23602323301E+01  0.75446124154E+01 -0.39089207092E-01  0.79052768059E+01  0.51100000000E-03 0. -1.
        -11    1    3    3    0    0 -0.70004170567E+01  0.48448732944E+01 -0.50801661744E+01  0.99139661502E+01  0.51100000000E-03 0.  1.
         12    1    3    3    0    0 -0.10950857941E+01 -0.40543992720E+02 -0.87064266802E+01  0.41482724406E+02  0.00000000000E+00 0. -1.
</event>
<event>
 7    1  0.5662448E-012  0.5930188E+02  0.7816164E-02  0.1266605E+00
        -11   -1    0    0    0    0  0.00000000000E+00  0.00000000000E+00  0.45593999997E+02  0.45594000000E+02  0.51100000000E-03 0. -1.
         11   -1    0    0    0    0 -0.00000000000E+00 -0.00000000000E+00 -0.45593999997E+02  0.45594000000E+02  0.51100000000E-03 0.  1.
    9900012    2    1    2    0    0  0.16072236675E+02  0.20456969486E+02 -0.18436924665E+02  0.59301881023E+02  0.49999885095E+02 0.  0.
         12    1    1    2    0    0 -0.16072236675E+02 -0.20456969486E+02  0.18436924665E+02  0.31886118977E+02  0.00000000000E+00 0. -1.
         11    1    3    3    0    0  0.22726211566E+01  0.22730074987E+02 -0.17968344718E+02  0.29063422510E+02  0.51100000000E-03 0. -1.
        -11    1    3    3    0    0 -0.41379677155E+01 -0.19228133459E+01 -0.92121531999E+01  0.10280260445E+02  0.51100000000E-03 0.  1.
         12    1    3    3    0    0  0.17937583234E+02 -0.35029215526E+00  0.87435732536E+01  0.19958198068E+02  0.00000000000E+00 0. -1.
</event>
<event>
 7    1  0.5662448E-012  0.5930193E+02  0.7816164E-02  0.1266605E+00
        -11   -1    0    0    0    0  0.00000000000E+00  0.00000000000E+00  0.45593999997E+02  0.45594000000E+02  0.51100000000E-03 0. -1.
         11   -1    0    0    0    0 -0.00000000000E+00 -0.00000000000E+00 -0.45593999997E+02  0.45594000000E+02  0.51100000000E-03 0.  1.
    9900012    2    1    2    0    0 -0.11667369046E+02  0.18608122381E+02 -0.23115620808E+02  0.59301927110E+02  0.49999969146E+02 0.  0.
         12    1    1    2    0    0  0.11667369046E+02 -0.18608122381E+02  0.23115620808E+02  0.31886072890E+02  0.00000000000E+00 0. -1.
         11    1    3    3    0    0 -0.11145288059E+02  0.98065589672E+01 -0.12119587702E+02  0.19164301475E+02  0.51100000000E-03 0. -1.
        -11    1    3    3    0    0 -0.12739875770E+02 -0.77751759321E+01 -0.12530541268E+02  0.19487746410E+02  0.51100000000E-03 0.  1.
        -12    1    3    3    0    0  0.12217794782E+02  0.16576739346E+02  0.15345081628E+01  0.20649879225E+02  0.00000000000E+00 0.  1.
</event>
<event>
 7    1  0.5662448E-012  0.5930197E+02  0.7816164E-02  0.1266605E+00
        -11   -1    0    0    0    0  0.00000000000E+00  0.00000000000E+00  0.45593999997E+02  0.45594000000E+02  0.51100000000E-03 0.  1.
         11   -1    0    0    0    0 -0.00000000000E+00 -0.00000000000E+00 -0.45593999997E+02  0.45594000000E+02  0.51100000000E-03 0. -1.
    9900012    2    1    2    0    0  0.26433511047E+02 -0.17515422323E+02 -0.33464003721E+01  0.59301969816E+02  0.50000047032E+02 0.  0.
         12    1    1    2    0    0 -0.26433511047E+02  0.17515422323E+02  0.33464003721E+01  0.31886030184E+02  0.00000000000E+00 0. -1.
         11    1    3    3    0    0  0.26999413571E+02 -0.42398749719E+01 -0.16846208322E+02  0.32105133672E+02  0.51100000000E-03 0.  1.
        -11    1    3    3    0    0  0.56635473133E+01 -0.15664760640E+02  0.76760166843E+01  0.18340712268E+02  0.51100000000E-03 0. -1.
        -12    1    3    3    0    0 -0.62294498378E+01  0.23892132896E+01  0.58237912655E+01  0.88561238772E+01  0.00000000000E+00 0.  1.
</event>
<event>
 7    1  0.5662448E-012  0.5930194E+02  0.7816164E-02  0.1266605E+00
        -11   -1    0    0    0    0  0.00000000000E+00  0.00000000000E+00  0.45593999997E+02  0.45594000000E+02  0.51100000000E-03 0.  1.
         11   -1    0    0    0    0 -0.00000000000E+00 -0.00000000000E+00 -0.45593999997E+02  0.45594000000E+02  0.51100000000E-03 0. -1.
    9900012    2    1    2    0    0 -0.20162370588E+02 -0.16793101616E+02  0.18116045263E+02  0.59301944340E+02  0.50000000569E+02 0.  0.
         12    1    1    2    0    0  0.20162370588E+02  0.16793101616E+02 -0.18116045263E+02  0.31886055660E+02  0.00000000000E+00 0. -1.
         11    1    3    3    0    0  0.47310152228E+01 -0.30131070605E+01 -0.49290886337E+01  0.74670766847E+01  0.51100000000E-03 0. -1.
        -11    1    3    3    0    0  0.82807592694E+01 -0.21974314294E+01 -0.18585431153E+01  0.87666334323E+01  0.51100000000E-03 0.  1.
        -12    1    3    3    0    0 -0.33174145080E+02 -0.11582563126E+02  0.24903677012E+02  0.43068234223E+02  0.00000000000E+00 0.  1.
</event>
<event>
 7    1  0.5662448E-012  0.5930169E+02  0.7816164E-02  0.1266606E+00
        -11   -1    0    0    0    0  0.00000000000E+00  0.00000000000E+00  0.45593999997E+02  0.45594000000E+02  0.51100000000E-03 0.  1.
         11   -1    0    0    0    0 -0.00000000000E+00 -0.00000000000E+00 -0.45593999997E+02  0.45594000000E+02  0.51100000000E-03 0. -1.
    9900012    2    1    2    0    0 -0.63267917812E+01 -0.68105054534E+00  0.31244909566E+02  0.59301694196E+02  0.49999544364E+02 0.  0.
         12    1    1    2    0    0  0.63267917812E+01  0.68105054534E+00 -0.31244909566E+02  0.31886305804E+02  0.00000000000E+00 0. -1.
         11    1    3    3    0    0 -0.65549182331E+01  0.10257086287E+02  0.53838417364E+01  0.13310166199E+02  0.51100000000E-03 0. -1.
        -11    1    3    3    0    0 -0.17853516948E+02 -0.46578361991E+01  0.92131968307E+01  0.20623445434E+02  0.51100000000E-03 0.  1.
        -12    1    3    3    0    0  0.18081643400E+02 -0.62803006333E+01  0.16647870999E+02  0.25368082562E+02  0.00000000000E+00 0.  1.
</event>
<event>
 7    1  0.5662448E-012  0.5930196E+02  0.7816164E-02  0.1266605E+00
        -11   -1    0    0    0    0  0.00000000000E+00  0.00000000000E+00  0.45593999997E+02  0.45594000000E+02  0.51100000000E-03 0.  1.
         11   -1    0    0    0    0 -0.00000000000E+00 -0.00000000000E+00 -0.45593999997E+02  0.45594000000E+02  0.51100000000E-03 0. -1.
    9900012    2    1    2    0    0 -0.24565611789E+02  0.20321171361E+02 -0.54804509739E+00  0.59301958517E+02  0.50000026424E+02 0.  0.
         12    1    1    2    0    0  0.24565611789E+02 -0.20321171361E+02  0.54804509739E+00  0.31886041483E+02  0.00000000000E+00 0. -1.
         11    1    3    3    0    0 -0.14402201785E+02  0.11976573817E+02  0.48227768985E+01  0.19342205508E+02  0.51100000000E-03 0. -1.
        -11    1    3    3    0    0 -0.24424298752E+02  0.59042875926E+01 -0.32593592000E+01  0.25338318890E+02  0.51100000000E-03 0.  1.
         12    1    3    3    0    0  0.14260888748E+02  0.24403099520E+01 -0.21114627958E+01  0.14621434119E+02  0.00000000000E+00 0. -1.
</event>
<event>
 7    1  0.5662448E-012  0.5930194E+02  0.7816164E-02  0.1266605E+00
        -11   -1    0    0    0    0  0.00000000000E+00  0.00000000000E+00  0.45593999997E+02  0.45594000000E+02  0.51100000000E-03 0. -1.
         11   -1    0    0    0    0 -0.00000000000E+00 -0.00000000000E+00 -0.45593999997E+02  0.45594000000E+02  0.51100000000E-03 0.  1.
    9900012    2    1    2    0    0  0.86775057205E+01 -0.27176560588E+02 -0.14242770347E+02  0.59301936303E+02  0.49999985911E+02 0.  0.
         12    1    1    2    0    0 -0.86775057205E+01  0.27176560588E+02  0.14242770347E+02  0.31886063697E+02  0.00000000000E+00 0. -1.
         11    1    3    3    0    0 -0.10008033480E+02 -0.13081708649E+02  0.64375998867E+01  0.17684301736E+02  0.51100000000E-03 0. -1.
        -11    1    3    3    0    0 -0.12611049069E+01 -0.15870470356E+02 -0.11172607341E+02  0.19449662464E+02  0.51100000000E-03 0.  1.
         12    1    3    3    0    0  0.19946644108E+02  0.17756184170E+01 -0.95077628928E+01  0.22167972103E+02  0.00000000000E+00 0. -1.
</event>
<event>
 7    1  0.5662448E-012  0.5930193E+02  0.7816164E-02  0.1266605E+00
        -11   -1    0    0    0    0  0.00000000000E+00  0.00000000000E+00  0.45593999997E+02  0.45594000000E+02  0.51100000000E-03 0.  1.
         11   -1    0    0    0    0 -0.00000000000E+00 -0.00000000000E+00 -0.45593999997E+02  0.45594000000E+02  0.51100000000E-03 0. -1.
    9900012    2    1    2    0    0  0.23410231913E+02  0.18962610416E+02  0.10445189343E+02  0.59301928865E+02  0.49999972347E+02 0.  0.
         12    1    1    2    0    0 -0.23410231913E+02 -0.18962610416E+02 -0.10445189343E+02  0.31886071135E+02  0.00000000000E+00 0. -1.
         11    1    3    3    0    0  0.57024436102E+01  0.50858263825E+01  0.50206693950E+01  0.91427903047E+01  0.51100000000E-03 0. -1.
        -11    1    3    3    0    0  0.11696226310E+02  0.29518146920E+02 -0.20368345854E+01  0.31816212894E+02  0.51100000000E-03 0.  1.
         12    1    3    3    0    0  0.60115619926E+01 -0.15641362887E+02  0.74613545332E+01  0.18342925667E+02  0.00000000000E+00 0. -1.
</event>
<event>
 7    1  0.5662448E-012  0.5930192E+02  0.7816164E-02  0.1266605E+00
        -11   -1    0    0    0    0  0.00000000000E+00  0.00000000000E+00  0.45593999997E+02  0.45594000000E+02  0.51100000000E-03 0.  1.
         11   -1    0    0    0    0 -0.00000000000E+00 -0.00000000000E+00 -0.45593999997E+02  0.45594000000E+02  0.51100000000E-03 0. -1.
    9900012    2    1    2    0    0 -0.20620397881E+02  0.30328887684E+01  0.24131366867E+02  0.59301920123E+02  0.49999956403E+02 0.  0.
         12    1    1    2    0    0  0.20620397881E+02 -0.30328887684E+01 -0.24131366867E+02  0.31886079877E+02  0.00000000000E+00 0. -1.
         11    1    3    3    0    0 -0.11392627080E+02 -0.21134210668E+02  0.14333529433E+02  0.27962419041E+02  0.51100000000E-03 0. -1.
        -11    1    3    3    0    0 -0.46770524034E+01  0.31223208055E+00  0.44694897405E+01  0.64767775056E+01  0.51100000000E-03 0.  1.
         12    1    3    3    0    0 -0.45507183980E+01  0.23854867356E+02  0.53283476936E+01  0.24862723576E+02  0.00000000000E+00 0. -1.
</event>
<event>
 7    1  0.5662448E-012  0.5930195E+02  0.7816164E-02  0.1266605E+00
        -11   -1    0    0    0    0  0.00000000000E+00  0.00000000000E+00  0.45593999997E+02  0.45594000000E+02  0.51100000000E-03 0. -1.
         11   -1    0    0    0    0 -0.00000000000E+00 -0.00000000000E+00 -0.45593999997E+02  0.45594000000E+02  0.51100000000E-03 0.  1.
    9900012    2    1    2    0    0 -0.71816487119E+01  0.16580703426E+02 -0.26272120207E+02  0.59301951256E+02  0.50000013183E+02 0.  0.
         12    1    1    2    0    0  0.71816487119E+01 -0.16580703426E+02  0.26272120207E+02  0.31886048744E+02  0.00000000000E+00 0. -1.
         11    1    3    3    0    0  0.19738309842E+01  0.16883119874E+02 -0.13185317681E+02  0.21512516079E+02  0.51100000000E-03 0.  1.
        -11    1    3    3    0    0  0.35311422994E+01  0.97807240945E+01  0.65803355849E+01  0.12305785079E+02  0.51100000000E-03 0. -1.
         12    1    3    3    0    0 -0.12686621995E+02 -0.10083140542E+02 -0.19667138111E+02  0.25483650098E+02  0.00000000000E+00 0. -1.
</event>
<event>
 7    1  0.5662448E-012  0.5930196E+02  0.7816164E-02  0.1266605E+00
        -11   -1    0    0    0    0  0.00000000000E+00  0.00000000000E+00  0.45593999997E+02  0.45594000000E+02  0.51100000000E-03 0.  1.
         11   -1    0    0    0    0 -0.00000000000E+00 -0.00000000000E+00 -0.45593999997E+02  0.45594000000E+02  0.51100000000E-03 0. -1.
    9900012    2    1    2    0    0  0.10782780495E+02  0.22476706029E+02  0.19880868423E+02  0.59301959192E+02  0.50000027657E+02 0.  0.
         12    1    1    2    0    0 -0.10782780495E+02 -0.22476706029E+02 -0.19880868423E+02  0.31886040808E+02  0.00000000000E+00 0. -1.
         11    1    3    3    0    0  0.10651866548E+02 -0.28637372828E+00  0.10814012932E+01  0.10710448164E+02  0.51100000000E-03 0. -1.
        -11    1    3    3    0    0  0.15675294217E+02  0.24166688116E+02  0.90692371111E+01  0.30199250411E+02  0.51100000000E-03 0.  1.
         12    1    3    3    0    0 -0.15544380270E+02 -0.14036083592E+01  0.97302300187E+01  0.18392260617E+02  0.00000000000E+00 0. -1.
</event>
<event>
 7    1  0.5662448E-012  0.5930188E+02  0.7816164E-02  0.1266605E+00
        -11   -1    0    0    0    0  0.00000000000E+00  0.00000000000E+00  0.45593999997E+02  0.45594000000E+02  0.51100000000E-03 0. -1.
         11   -1    0    0    0    0 -0.00000000000E+00 -0.00000000000E+00 -0.45593999997E+02  0.45594000000E+02  0.51100000000E-03 0.  1.
    9900012    2    1    2    0    0  0.92715301035E+01  0.15550616555E+02 -0.26247693118E+02  0.59301884844E+02  0.49999892064E+02 0.  0.
         12    1    1    2    0    0 -0.92715301035E+01 -0.15550616555E+02  0.26247693118E+02  0.31886115156E+02  0.00000000000E+00 0. -1.
         11    1    3    3    0    0  0.11398415673E+00 -0.53890127281E+01  0.19971789079E+00  0.53939167651E+01  0.51100000000E-03 0. -1.
        -11    1    3    3    0    0 -0.37948143347E+01  0.43559982419E+01 -0.31698225550E+02  0.32220379262E+02  0.51100000000E-03 0.  1.
         12    1    3    3    0    0  0.12952360281E+02  0.16583631041E+02  0.52508145410E+01  0.21687588817E+02  0.00000000000E+00 0. -1.
</event>
<event>
 7    1  0.5662448E-012  0.5930193E+02  0.7816164E-02  0.1266605E+00
        -11   -1    0    0    0    0  0.00000000000E+00  0.00000000000E+00  0.45593999997E+02  0.45594000000E+02  0.51100000000E-03 0. -1.
         11   -1    0    0    0    0 -0.00000000000E+00 -0.00000000000E+00 -0.45593999997E+02  0.45594000000E+02  0.51100000000E-03 0.  1.
    9900012    2    1    2    0    0 -0.47782221007E+01 -0.11555246064E+02 -0.29332000424E+02  0.59301931461E+02  0.49999977080E+02 0.  0.
         12    1    1    2    0    0  0.47782221007E+01  0.11555246064E+02  0.29332000424E+02  0.31886068539E+02  0.00000000000E+00 0. -1.
         11    1    3    3    0    0 -0.13314612135E+02 -0.13558918687E+02 -0.55476095828E+01  0.19796442726E+02  0.51100000000E-03 0. -1.
        -11    1    3    3    0    0  0.15337478803E+02 -0.50550128907E+01 -0.28618316944E+01  0.16400655239E+02  0.51100000000E-03 0.  1.
         12    1    3    3    0    0 -0.68010887693E+01  0.70586855135E+01 -0.20922559147E+02  0.23104833496E+02  0.00000000000E+00 0. -1.
</event>
<event>
 7    1  0.5662448E-012  0.5930195E+02  0.7816164E-02  0.1266605E+00
        -11   -1    0    0    0    0  0.00000000000E+00  0.00000000000E+00  0.45593999997E+02  0.45594000000E+02  0.51100000000E-03 0. -1.
         11   -1    0    0    0    0 -0.00000000000E+00 -0.00000000000E+00 -0.45593999997E+02  0.45594000000E+02  0.51100000000E-03 0.  1.
    9900012    2    1    2    0    0  0.64287490504E+01 -0.13029222292E+02 -0.28383635484E+02  0.59301949584E+02  0.50000010133E+02 0.  0.
         12    1    1    2    0    0 -0.64287490504E+01  0.13029222292E+02  0.28383635484E+02  0.31886050416E+02  0.00000000000E+00 0. -1.
         11    1    3    3    0    0 -0.21600260403E+01 -0.18315281311E+02 -0.29749041365E+01  0.18680612861E+02  0.51100000000E-03 0. -1.
        -11    1    3    3    0    0 -0.40380358421E+01 -0.82709252627E+01 -0.35210955951E-01  0.92040848668E+01  0.51100000000E-03 0.  1.
        -12    1    3    3    0    0  0.12626810933E+02  0.13556984282E+02 -0.25373520391E+02  0.31417251856E+02  0.00000000000E+00 0.  1.
</event>
<event>
 7    1  0.5662448E-012  0.5930196E+02  0.7816164E-02  0.1266605E+00
        -11   -1    0    0    0    0  0.00000000000E+00  0.00000000000E+00  0.45593999997E+02  0.45594000000E+02  0.51100000000E-03 0. -1.
         11   -1    0    0    0    0 -0.00000000000E+00 -0.00000000000E+00 -0.45593999997E+02  0.45594000000E+02  0.51100000000E-03 0.  1.
    9900012    2    1    2    0    0 -0.34097120299E+01 -0.12363189920E+02 -0.29193230225E+02  0.59301963995E+02  0.50000036415E+02 0.  0.
         12    1    1    2    0    0  0.34097120299E+01  0.12363189920E+02  0.29193230225E+02  0.31886036005E+02  0.00000000000E+00 0. -1.
         11    1    3    3    0    0  0.63417415113E+01 -0.40140324249E+01  0.44595468985E+01  0.87302749387E+01  0.51100000000E-03 0. -1.
        -11    1    3    3    0    0  0.12635975543E+02 -0.69426283371E+01 -0.79765402486E+01  0.16477049516E+02  0.51100000000E-03 0.  1.
         12    1    3    3    0    0 -0.22387429084E+02 -0.14065291581E+01 -0.25676236875E+02  0.34094639540E+02  0.00000000000E+00 0. -1.
</event>
<event>
 7    1  0.5662448E-012  0.5930193E+02  0.7816164E-02  0.1266605E+00
        -11   -1    0    0    0    0  0.00000000000E+00  0.00000000000E+00  0.45593999997E+02  0.45594000000E+02  0.51100000000E-03 0. -1.
         11   -1    0    0    0    0 -0.00000000000E+00 -0.00000000000E+00 -0.45593999997E+02  0.45594000000E+02  0.51100000000E-03 0.  1.
    9900012    2    1    2    0    0 -0.21517782091E+02  0.15769445908E+02 -0.17465142429E+02  0.59301928269E+02  0.49999971260E+02 0.  0.
         12    1    1    2    0    0  0.21517782091E+02 -0.15769445908E+02  0.17465142429E+02  0.31886071731E+02  0.00000000000E+00 0. -1.
         11    1    3    3    0    0 -0.21995114978E+02  0.19378233245E+02 -0.17859244715E+02  0.34325699245E+02  0.51100000000E-03 0. -1.
        -11    1    3    3    0    0  0.76237286869E+01  0.48626513587E+01  0.75530911013E+01  0.11782011830E+02  0.51100000000E-03 0.  1.
         12    1    3    3    0    0 -0.71463958000E+01 -0.84714386951E+01 -0.71589888151E+01  0.13194217194E+02  0.00000000000E+00 0. -1.
</event>
<event>
 7    1  0.5662448E-012  0.5930196E+02  0.7816164E-02  0.1266605E+00
        -11   -1    0    0    0    0  0.00000000000E+00  0.00000000000E+00  0.45593999997E+02  0.45594000000E+02  0.51100000000E-03 0. -1.
         11   -1    0    0    0    0 -0.00000000000E+00 -0.00000000000E+00 -0.45593999997E+02  0.45594000000E+02  0.51100000000E-03 0.  1.
    9900012    2    1    2    0    0 -0.21679173039E+02  0.22311968445E+02 -0.69935140186E+01  0.59301957319E+02  0.50000024240E+02 0.  0.
         12    1    1    2    0    0  0.21679173039E+02 -0.22311968445E+02  0.69935140186E+01  0.31886042681E+02  0.00000000000E+00 0. -1.
         11    1    3    3    0    0 -0.93724610263E+01  0.81347130476E+01  0.74817025357E+01  0.14491116422E+02  0.51100000000E-03 0. -1.
        -11    1    3    3    0    0 -0.12000221950E+02 -0.63122212030E+01  0.68881102608E+01  0.15208403157E+02  0.51100000000E-03 0.  1.
        -12    1    3    3    0    0 -0.30649006206E+00  0.20489476601E+02 -0.21363326815E+02  0.29602437740E+02  0.00000000000E+00 0.  1.
</event>
<event>
 7    1  0.5662448E-012  0.5930164E+02  0.7816164E-02  0.1266606E+00
        -11   -1    0    0    0    0  0.00000000000E+00  0.00000000000E+00  0.45593999997E+02  0.45594000000E+02  0.51100000000E-03 0. -1.
         11   -1    0    0    0    0 -0.00000000000E+00 -0.00000000000E+00 -0.45593999997E+02  0.45594000000E+02  0.51100000000E-03 0.  1.
    9900012    2    1    2    0    0  0.23116383513E+02 -0.15219206686E+02 -0.15835038085E+02  0.59301641317E+02  0.49999447926E+02 0.  0.
         12    1    1    2    0    0 -0.23116383513E+02  0.15219206686E+02  0.15835038085E+02  0.31886358683E+02  0.00000000000E+00 0. -1.
         11    1    3    3    0    0  0.13828400471E+02 -0.11597338608E+02  0.90710388967E+01  0.20199174966E+02  0.51100000000E-03 0. -1.
        -11    1    3    3    0    0  0.18110279160E+02 -0.83004636266E+01 -0.14217510120E+02  0.24474834054E+02  0.51100000000E-03 0.  1.
        -12    1    3    3    0    0 -0.88222961179E+01  0.46785955482E+01 -0.10688566862E+02  0.14627632298E+02  0.00000000000E+00 0.  1.
</event>
<event>
 7    1  0.5662448E-012  0.5930197E+02  0.7816164E-02  0.1266605E+00
        -11   -1    0    0    0    0  0.00000000000E+00  0.00000000000E+00  0.45593999997E+02  0.45594000000E+02  0.51100000000E-03 0.  1.
         11   -1    0    0    0    0 -0.00000000000E+00 -0.00000000000E+00 -0.45593999997E+02  0.45594000000E+02  0.51100000000E-03 0. -1.
    9900012    2    1    2    0    0 -0.15278399404E+01  0.16123910026E+02  0.27466423590E+02  0.59301965529E+02  0.50000039214E+02 0.  0.
         12    1    1    2    0    0  0.15278399404E+01 -0.16123910026E+02 -0.27466423590E+02  0.31886034471E+02  0.00000000000E+00 0. -1.
         11    1    3    3    0    0 -0.12401376466E+02  0.61554651608E+01  0.63458918784E+01  0.15230043782E+02  0.51100000000E-03 0. -1.
        -11    1    3    3    0    0  0.72959165583E+00  0.40481637276E+01  0.29409887572E+02  0.29696151617E+02  0.51100000000E-03 0.  1.
         12    1    3    3    0    0  0.10143944870E+02  0.59202811378E+01 -0.82893558606E+01  0.14375770131E+02  0.00000000000E+00 0. -1.
</event>
<event>
 7    1  0.5662448E-012  0.5930199E+02  0.7816164E-02  0.1266605E+00
        -11   -1    0    0    0    0  0.00000000000E+00  0.00000000000E+00  0.45593999997E+02  0.45594000000E+02  0.51100000000E-03 0.  1.
         11   -1    0    0    0    0 -0.00000000000E+00 -0.00000000000E+00 -0.45593999997E+02  0.45594000000E+02  0.51100000000E-03 0. -1.
    9900012    2    1    2    0    0 -0.22295129593E+02 -0.21325948900E+02  0.80528536752E+01  0.59301994412E+02  0.50000091889E+02 0.  0.
         12    1    1    2    0    0  0.22295129593E+02  0.21325948900E+02 -0.80528536752E+01  0.31886005588E+02  0.00000000000E+00 0. -1.
         11    1    3    3    0    0 -0.23423736193E+01  0.63613455072E+01 -0.32819709850E+01  0.75315844708E+01  0.51100000000E-03 0. -1.
        -11    1    3    3    0    0  0.70843104261E+01 -0.58373538798E+01  0.14179940019E+02  0.16891798416E+02  0.51100000000E-03 0.  1.
         12    1    3    3    0    0 -0.27037066399E+02 -0.21849940527E+02 -0.28451153589E+01  0.34878611525E+02  0.00000000000E+00 0. -1.
</event>
<event>
 7    1  0.5662448E-012  0.5930192E+02  0.7816164E-02  0.1266605E+00
        -11   -1    0    0    0    0  0.00000000000E+00  0.00000000000E+00  0.45593999997E+02  0.45594000000E+02  0.51100000000E-03 0.  1.
         11   -1    0    0    0    0 -0.00000000000E+00 -0.00000000000E+00 -0.45593999997E+02  0.45594000000E+02  0.51100000000E-03 0. -1.
    9900012    2    1    2    0    0  0.31451723726E+02  0.17081430959E+01  0.49591457387E+01  0.59301924597E+02  0.49999964563E+02 0.  0.
         12    1    1    2    0    0 -0.31451723726E+02 -0.17081430959E+01 -0.49591457387E+01  0.31886075403E+02  0.00000000000E+00 0. -1.
         11    1    3    3    0    0  0.30199959684E+02 -0.76630169335E+01 -0.15416559085E+02  0.34762475281E+02  0.51100000000E-03 0. -1.
        -11    1    3    3    0    0  0.37303971618E+01  0.11061336000E+01  0.23256849767E+01  0.45330128389E+01  0.51100000000E-03 0.  1.
        -12    1    3    3    0    0 -0.24786331195E+01  0.82650264294E+01  0.18050019847E+02  0.20006436476E+02  0.00000000000E+00 0.  1.
</event>
<event>
 7    1  0.5662448E-012  0.5930195E+02  0.7816164E-02  0.1266605E+00
        -11   -1    0    0    0    0  0.00000000000E+00  0.00000000000E+00  0.45593999997E+02  0.45594000000E+02  0.51100000000E-03 0.  1.
         11   -1    0    0    0    0 -0.00000000000E+00 -0.00000000000E+00 -0.45593999997E+02  0.45594000000E+02  0.51100000000E-03 0. -1.
    9900012    2    1    2    0    0 -0.28909934921E+02 -0.12354825707E+02  0.53192358263E+01  0.59301947796E+02  0.50000006872E+02 0.  0.
         12    1    1    2    0    0  0.28909934921E+02  0.12354825707E+02 -0.53192358263E+01  0.31886052204E+02  0.00000000000E+00 0. -1.
         11    1    3    3    0    0 -0.44821483288E+01 -0.52204659207E+01  0.73695996611E+01  0.10082356743E+02  0.51100000000E-03 0. -1.
        -11    1    3    3    0    0 -0.29340896743E+02 -0.37216159577E+01  0.13534776391E+02  0.32525817733E+02  0.51100000000E-03 0.  1.
         12    1    3    3    0    0  0.49131101502E+01 -0.34127438284E+01 -0.15585140226E+02  0.16693773319E+02  0.00000000000E+00 0. -1.
</event>
<event>
 7    1  0.5662448E-012  0.5930196E+02  0.7816164E-02  0.1266605E+00
        -11   -1    0    0    0    0  0.00000000000E+00  0.00000000000E+00  0.45593999997E+02  0.45594000000E+02  0.51100000000E-03 0.  1.
         11   -1    0    0    0    0 -0.00000000000E+00 -0.00000000000E+00 -0.45593999997E+02  0.45594000000E+02  0.51100000000E-03 0. -1.
    9900012    2    1    2    0    0  0.17964830513E+02 -0.22579390488E+02  0.13570382833E+02  0.59301963865E+02  0.50000036179E+02 0.  0.
         12    1    1    2    0    0 -0.17964830513E+02  0.22579390488E+02 -0.13570382833E+02  0.31886036135E+02  0.00000000000E+00 0. -1.
         11    1    3    3    0    0 -0.34030211217E+01  0.11527410789E+02  0.14563574233E+00  0.12020106583E+02  0.51100000000E-03 0. -1.
        -11    1    3    3    0    0  0.15932705001E+02 -0.77439818874E+01  0.94339219734E+01  0.20070356952E+02  0.51100000000E-03 0.  1.
        -12    1    3    3    0    0  0.54351466338E+01 -0.26362819389E+02  0.39908251169E+01  0.27211500330E+02  0.00000000000E+00 0.  1.
</event>
<event>
 7    1  0.5662448E-012  0.5930195E+02  0.7816164E-02  0.1266605E+00
        -11   -1    0    0    0    0  0.00000000000E+00  0.00000000000E+00  0.45593999997E+02  0.45594000000E+02  0.51100000000E-03 0.  1.
         11   -1    0    0    0    0 -0.00000000000E+00 -0.00000000000E+00 -0.45593999997E+02  0.45594000000E+02  0.51100000000E-03 0. -1.
    9900012    2    1    2    0    0  0.20837946463E+02 -0.21388090103E+02  0.11182577991E+02  0.59301945657E+02  0.50000002971E+02 0.  0.
         12    1    1    2    0    0 -0.20837946463E+02  0.21388090103E+02 -0.11182577991E+02  0.31886054343E+02  0.00000000000E+00 0. -1.
         11    1    3    3    0    0  0.26632320455E+02 -0.23170968554E+02  0.84585185505E+01  0.36300424418E+02  0.51100000000E-03 0. -1.
        -11    1    3    3    0    0  0.30843741754E+01 -0.56321901429E+01  0.80241713546E+01  0.10277268900E+02  0.51100000000E-03 0.  1.
        -12    1    3    3    0    0 -0.88787481673E+01  0.74150685947E+01 -0.53001119142E+01  0.12724252339E+02  0.00000000000E+00 0.  1.
</event>
<event>
 7    1  0.5662448E-012  0.5930198E+02  0.7816164E-02  0.1266605E+00
        -11   -1    0    0    0    0  0.00000000000E+00  0.00000000000E+00  0.45593999997E+02  0.45594000000E+02  0.51100000000E-03 0. -1.
         11   -1    0    0    0    0 -0.00000000000E+00 -0.00000000000E+00 -0.45593999997E+02  0.45594000000E+02  0.51100000000E-03 0.  1.
    9900012    2    1    2    0    0 -0.18595692925E+02  0.23529951989E+02 -0.10828669910E+02  0.59301975977E+02  0.50000058268E+02 0.  0.
         12    1    1    2    0    0  0.18595692925E+02 -0.23529951989E+02  0.10828669910E+02  0.31886024023E+02  0.00000000000E+00 0. -1.
         11    1    3    3    0    0 -0.82539462309E+01  0.15632507430E+01 -0.21097813994E+01  0.86615563892E+01  0.51100000000E-03 0. -1.
        -11    1    3    3    0    0 -0.16765570481E+02  0.11986887836E+02 -0.23777770852E+02  0.31466684294E+02  0.51100000000E-03 0.  1.
         12    1    3    3    0    0  0.64238237869E+01  0.99798134103E+01  0.15058882341E+02  0.19173735293E+02  0.00000000000E+00 0. -1.
</event>
<event>
 7    1  0.5662448E-012  0.5930194E+02  0.7816164E-02  0.1266605E+00
        -11   -1    0    0    0    0  0.00000000000E+00  0.00000000000E+00  0.45593999997E+02  0.45594000000E+02  0.51100000000E-03 0. -1.
         11   -1    0    0    0    0 -0.00000000000E+00 -0.00000000000E+00 -0.45593999997E+02  0.45594000000E+02  0.51100000000E-03 0.  1.
    9900012    2    1    2    0    0  0.39288314358E+01 -0.53595067461E+01 -0.31185908822E+02  0.59301938185E+02  0.49999989345E+02 0.  0.
         12    1    1    2    0    0 -0.39288314358E+01  0.53595067461E+01  0.31185908822E+02  0.31886061815E+02  0.00000000000E+00 0. -1.
         11    1    3    3    0    0 -0.62856363754E+01  0.10245709514E+02  0.50877355088E+01  0.13052541551E+02  0.51100000000E-03 0. -1.
        -11    1    3    3    0    0 -0.64691847790E+00 -0.13637429083E+02 -0.78292678777E+01  0.15738342075E+02  0.51100000000E-03 0.  1.
        -12    1    3    3    0    0  0.10861386289E+02 -0.19677871768E+01 -0.28444376453E+02  0.30511054559E+02  0.00000000000E+00 0.  1.
</event>
<event>
 7    1  0.5662448E-012  0.5930179E+02  0.7816164E-02  0.1266605E+00
        -11   -1    0    0    0    0  0.00000000000E+00  0.00000000000E+00  0.45593999997E+02  0.45594000000E+02  0.51100000000E-03 0. -1.
         11   -1    0    0    0    0 -0.00000000000E+00 -0.00000000000E+00 -0.45593999997E+02  0.45594000000E+02  0.51100000000E-03 0.  1.
    9900012    2    1    2    0    0 -0.15882115827E+02 -0.23464430469E+02 -0.14625633741E+02  0.59301791967E+02  0.49999722678E+02 0.  0.
         12    1    1    2    0    0  0.15882115827E+02  0.23464430469E+02  0.14625633741E+02  0.31886208033E+02  0.00000000000E+00 0. -1.
         11    1    3    3    0    0 -0.23609965571E+01  0.84487984325E+01 -0.43945057564E+01  0.98116349708E+01  0.51100000000E-03 0. -1.
        -11    1    3    3    0    0  0.89414614844E+01 -0.52327135127E+00 -0.57219952541E+01  0.10628488902E+02  0.51100000000E-03 0.  1.
        -12    1    3    3    0    0 -0.22462580755E+02 -0.31389957550E+02 -0.45091327309E+01  0.38861668095E+02  0.00000000000E+00 0.  1.
</event>
<event>
 7    1  0.5662448E-012  0.5930194E+02  0.7816164E-02  0.1266605E+00
        -11   -1    0    0    0    0  0.00000000000E+00  0.00000000000E+00  0.45593999997E+02  0.45594000000E+02  0.51100000000E-03 0.  1.
         11   -1    0    0    0    0 -0.00000000000E+00 -0.00000000000E+00 -0.45593999997E+02  0.45594000000E+02  0.51100000000E-03 0. -1.
    9900012    2    1    2    0    0 -0.17535805024E+02  0.23953450225E+02 -0.11638243683E+02  0.59301937973E+02  0.49999988959E+02 0.  0.
         12    1    1    2    0    0  0.17535805024E+02 -0.23953450225E+02  0.11638243683E+02  0.31886062027E+02  0.00000000000E+00 0. -1.
         11    1    3    3    0    0 -0.13212049824E+02  0.58637067129E+00 -0.22883431010E+02  0.26430162811E+02  0.51100000000E-03 0. -1.
        -11    1    3    3    0    0 -0.94521595233E-01 -0.35946782847E+01  0.12190569392E+01  0.37969390810E+01  0.51100000000E-03 0.  1.
        -12    1    3    3    0    0 -0.42292336044E+01  0.26961757839E+02  0.10026130388E+02  0.29074836082E+02  0.00000000000E+00 0.  1.
</event>
<event>
 7    1  0.5662448E-012  0.5930195E+02  0.7816164E-02  0.1266605E+00
        -11   -1    0    0    0    0  0.00000000000E+00  0.00000000000E+00  0.45593999997E+02  0.45594000000E+02  0.51100000000E-03 0.  1.
         11   -1    0    0    0    0 -0.00000000000E+00 -0.00000000000E+00 -0.45593999997E+02  0.45594000000E+02  0.51100000000E-03 0. -1.
    9900012    2    1    2    0    0  0.25756643875E+02 -0.18418224206E+02 -0.37529574421E+01  0.59301946996E+02  0.50000005413E+02 0.  0.
         12    1    1    2    0    0 -0.25756643875E+02  0.18418224206E+02  0.37529574421E+01  0.31886053004E+02  0.00000000000E+00 0. -1.
         11    1    3    3    0    0  0.25939973616E+02 -0.30931574035E+01  0.67601935651E+01  0.26984255988E+02  0.51100000000E-03 0. -1.
        -11    1    3    3    0    0 -0.23094860071E+01 -0.13049296254E+01  0.83258390319E+01  0.87382013476E+01  0.51100000000E-03 0.  1.
         12    1    3    3    0    0  0.21261562661E+01 -0.14020137177E+02 -0.18838990039E+02  0.23579489660E+02  0.00000000000E+00 0. -1.
</event>
<event>
 7    1  0.5662448E-012  0.5930215E+02  0.7816164E-02  0.1266604E+00
        -11   -1    0    0    0    0  0.00000000000E+00  0.00000000000E+00  0.45593999997E+02  0.45594000000E+02  0.51100000000E-03 0.  1.
         11   -1    0    0    0    0 -0.00000000000E+00 -0.00000000000E+00 -0.45593999997E+02  0.45594000000E+02  0.51100000000E-03 0. -1.
    9900012    2    1    2    0    0 -0.22064399979E+02 -0.11518743099E+01  0.22990056494E+02  0.59302152693E+02  0.50000380554E+02 0.  0.
         12    1    1    2    0    0  0.22064399979E+02  0.11518743099E+01 -0.22990056494E+02  0.31885847307E+02  0.00000000000E+00 0. -1.
         11    1    3    3    0    0 -0.30003253787E+01 -0.36677010178E+01 -0.99841934583E+01  0.11051610851E+02  0.51100000000E-03 0. -1.
        -11    1    3    3    0    0 -0.97626701747E+01 -0.13138228203E+02  0.11041951824E+02  0.19744555442E+02  0.51100000000E-03 0.  1.
         12    1    3    3    0    0 -0.93014044260E+01  0.15654054911E+02  0.21932298128E+02  0.28505986400E+02  0.00000000000E+00 0. -1.
</event>
<event>
 7    1  0.5662448E-012  0.5930196E+02  0.7816164E-02  0.1266605E+00
        -11   -1    0    0    0    0  0.00000000000E+00  0.00000000000E+00  0.45593999997E+02  0.45594000000E+02  0.51100000000E-03 0.  1.
         11   -1    0    0    0    0 -0.00000000000E+00 -0.00000000000E+00 -0.45593999997E+02  0.45594000000E+02  0.51100000000E-03 0. -1.
    9900012    2    1    2    0    0 -0.20134688044E+01  0.22317843568E+02  0.22684336485E+02  0.59301963559E+02  0.50000035621E+02 0.  0.
         12    1    1    2    0    0  0.20134688044E+01 -0.22317843568E+02 -0.22684336485E+02  0.31886036441E+02  0.00000000000E+00 0. -1.
         11    1    3    3    0    0 -0.18020534872E+02  0.37557447993E+01  0.35877545502E+01  0.18754126987E+02  0.51100000000E-03 0. -1.
        -11    1    3    3    0    0 -0.26012540257E+01 -0.11825274359E+01 -0.40006864006E+01  0.49163386356E+01  0.51100000000E-03 0.  1.
        -12    1    3    3    0    0  0.18608320093E+02  0.19744626205E+02  0.23097268335E+02  0.35631497937E+02  0.00000000000E+00 0.  1.
</event>
<event>
 7    1  0.5662448E-012  0.5930192E+02  0.7816164E-02  0.1266605E+00
        -11   -1    0    0    0    0  0.00000000000E+00  0.00000000000E+00  0.45593999997E+02  0.45594000000E+02  0.51100000000E-03 0.  1.
         11   -1    0    0    0    0 -0.00000000000E+00 -0.00000000000E+00 -0.45593999997E+02  0.45594000000E+02  0.51100000000E-03 0. -1.
    9900012    2    1    2    0    0  0.33418402050E+01 -0.30916285255E+02  0.70524740598E+01  0.59301921842E+02  0.49999959539E+02 0.  0.
         12    1    1    2    0    0 -0.33418402050E+01  0.30916285255E+02 -0.70524740598E+01  0.31886078158E+02  0.00000000000E+00 0. -1.
         11    1    3    3    0    0  0.57062456530E+01 -0.81024997638E+01  0.28282994587E+01  0.10305873081E+02  0.51100000000E-03 0. -1.
        -11    1    3    3    0    0 -0.58450173339E+01 -0.33425430455E+02 -0.52681017847E+01  0.34339139847E+02  0.51100000000E-03 0.  1.
        -12    1    3    3    0    0  0.34806118859E+01  0.10611644964E+02  0.94922763858E+01  0.14656908914E+02  0.00000000000E+00 0.  1.
</event>
<event>
 7    1  0.5662448E-012  0.5930194E+02  0.7816164E-02  0.1266605E+00
        -11   -1    0    0    0    0  0.00000000000E+00  0.00000000000E+00  0.45593999997E+02  0.45594000000E+02  0.51100000000E-03 0. -1.
         11   -1    0    0    0    0 -0.00000000000E+00 -0.00000000000E+00 -0.45593999997E+02  0.45594000000E+02  0.51100000000E-03 0.  1.
    9900012    2    1    2    0    0 -0.20702326274E+02  0.19644574752E+02 -0.14220591332E+02  0.59301939595E+02  0.49999991916E+02 0.  0.
         12    1    1    2    0    0  0.20702326274E+02 -0.19644574752E+02  0.14220591332E+02  0.31886060405E+02  0.00000000000E+00 0. -1.
         11    1    3    3    0    0 -0.14577589358E+02  0.61694151425E+00  0.38399745361E+01  0.15087482660E+02  0.51100000000E-03 0. -1.
        -11    1    3    3    0    0  0.10645105082E+02  0.32050301311E+01  0.44658650758E+01  0.11980585607E+02  0.51100000000E-03 0.  1.
         12    1    3    3    0    0 -0.16769841998E+02  0.15822603106E+02 -0.22526430944E+02  0.32233871328E+02  0.00000000000E+00 0. -1.
</event>
<event>
 7    1  0.5662448E-012  0.5930195E+02  0.7816164E-02  0.1266605E+00
        -11   -1    0    0    0    0  0.00000000000E+00  0.00000000000E+00  0.45593999997E+02  0.45594000000E+02  0.51100000000E-03 0. -1.
         11   -1    0    0    0    0 -0.00000000000E+00 -0.00000000000E+00 -0.45593999997E+02  0.45594000000E+02  0.51100000000E-03 0.  1.
    9900012    2    1    2    0    0  0.66911937299E+01 -0.53269206762E+01 -0.30717618304E+02  0.59301949262E+02  0.50000009545E+02 0.  0.
         12    1    1    2    0    0 -0.66911937299E+01  0.53269206762E+01  0.30717618304E+02  0.31886050738E+02  0.00000000000E+00 0. -1.
         11    1    3    3    0    0  0.56433252826E+01 -0.42925954412E+01 -0.10124469788E+02  0.12360355360E+02  0.51100000000E-03 0. -1.
        -11    1    3    3    0    0  0.15667971047E+02  0.10276585262E+02 -0.21394254285E+02  0.28439543563E+02  0.51100000000E-03 0.  1.
         12    1    3    3    0    0 -0.14620102599E+02 -0.11310910497E+02  0.80110576970E+00  0.18502050339E+02  0.00000000000E+00 0. -1.
</event>
<event>
 7    1  0.5662448E-012  0.5930191E+02  0.7816164E-02  0.1266605E+00
        -11   -1    0    0    0    0  0.00000000000E+00  0.00000000000E+00  0.45593999997E+02  0.45594000000E+02  0.51100000000E-03 0.  1.
         11   -1    0    0    0    0 -0.00000000000E+00 -0.00000000000E+00 -0.45593999997E+02  0.45594000000E+02  0.51100000000E-03 0. -1.
    9900012    2    1    2    0    0  0.16289560783E+02 -0.30914748848E+01  0.27236292273E+02  0.59301911745E+02  0.49999941123E+02 0.  0.
         12    1    1    2    0    0 -0.16289560783E+02  0.30914748848E+01 -0.27236292273E+02  0.31886088255E+02  0.00000000000E+00 0. -1.
         11    1    3    3    0    0  0.13705486554E+01 -0.38829837522E+01 -0.36648193404E+01  0.55124284572E+01  0.51100000000E-03 0. -1.
        -11    1    3    3    0    0  0.16190018287E+02  0.78978708247E+01 -0.37453257925E+01  0.18398927177E+02  0.51100000000E-03 0.  1.
         12    1    3    3    0    0 -0.12710061593E+01 -0.71063619574E+01  0.34646437406E+02  0.35390556111E+02  0.00000000000E+00 0. -1.
</event>
<event>
 7    1  0.5662448E-012  0.5930194E+02  0.7816164E-02  0.1266605E+00
        -11   -1    0    0    0    0  0.00000000000E+00  0.00000000000E+00  0.45593999997E+02  0.45594000000E+02  0.51100000000E-03 0.  1.
         11   -1    0    0    0    0 -0.00000000000E+00 -0.00000000000E+00 -0.45593999997E+02  0.45594000000E+02  0.51100000000E-03 0. -1.
    9900012    2    1    2    0    0  0.17559421036E+02  0.18694657380E+02  0.18944580853E+02  0.59301943088E+02  0.49999998286E+02 0.  0.
         12    1    1    2    0    0 -0.17559421036E+02 -0.18694657380E+02 -0.18944580853E+02  0.31886056912E+02  0.00000000000E+00 0. -1.
         11    1    3    3    0    0 -0.11741830868E+02  0.74049046602E+01  0.10150892899E+01  0.13918822209E+02  0.51100000000E-03 0.  1.
        -11    1    3    3    0    0 -0.14892333868E+01 -0.55207989734E+01 -0.52923356933E+00  0.57425713593E+01  0.51100000000E-03 0. -1.
        -12    1    3    3    0    0  0.30790485291E+02  0.16810551694E+02  0.18458725133E+02  0.39640549520E+02  0.00000000000E+00 0.  1.
</event>
<event>
 7    1  0.5662448E-012  0.5930194E+02  0.7816164E-02  0.1266605E+00
        -11   -1    0    0    0    0  0.00000000000E+00  0.00000000000E+00  0.45593999997E+02  0.45594000000E+02  0.51100000000E-03 0. -1.
         11   -1    0    0    0    0 -0.00000000000E+00 -0.00000000000E+00 -0.45593999997E+02  0.45594000000E+02  0.51100000000E-03 0.  1.
    9900012    2    1    2    0    0 -0.12095719449E+02  0.19159016633E+00 -0.29502168359E+02  0.59301936059E+02  0.49999985467E+02 0.  0.
         12    1    1    2    0    0  0.12095719449E+02 -0.19159016633E+00  0.29502168359E+02  0.31886063941E+02  0.00000000000E+00 0. -1.
         11    1    3    3    0    0 -0.26166904730E+01 -0.25175219081E+01 -0.13900034969E+02  0.14366487322E+02  0.51100000000E-03 0.  1.
        -11    1    3    3    0    0  0.20563897133E+01  0.10307733836E+02 -0.25738612857E+02  0.27802055815E+02  0.51100000000E-03 0. -1.
        -12    1    3    3    0    0 -0.11535418689E+02 -0.75986217615E+01  0.10136479467E+02  0.17133392922E+02  0.00000000000E+00 0.  1.
</event>
<event>
 7    1  0.5662448E-012  0.5930194E+02  0.7816164E-02  0.1266605E+00
        -11   -1    0    0    0    0  0.00000000000E+00  0.00000000000E+00  0.45593999997E+02  0.45594000000E+02  0.51100000000E-03 0.  1.
         11   -1    0    0    0    0 -0.00000000000E+00 -0.00000000000E+00 -0.45593999997E+02  0.45594000000E+02  0.51100000000E-03 0. -1.
    9900012    2    1    2    0    0 -0.36410795509E+01 -0.16419703345E+00  0.31677063625E+02  0.59301940650E+02  0.49999993839E+02 0.  0.
         12    1    1    2    0    0  0.36410795509E+01  0.16419703345E+00 -0.31677063625E+02  0.31886059350E+02  0.00000000000E+00 0. -1.
         11    1    3    3    0    0  0.14897215662E+02 -0.32535507858E+00 -0.13248837324E+01  0.14959552386E+02  0.51100000000E-03 0. -1.
        -11    1    3    3    0    0 -0.13718064455E+02 -0.10902092937E+02  0.20448326822E+02  0.26929073375E+02  0.51100000000E-03 0.  1.
        -12    1    3    3    0    0 -0.48202307579E+01  0.11063250982E+02  0.12553620536E+02  0.17413314889E+02  0.00000000000E+00 0.  1.
</event>
<event>
 7    1  0.5662448E-012  0.5930192E+02  0.7816164E-02  0.1266605E+00
        -11   -1    0    0    0    0  0.00000000000E+00  0.00000000000E+00  0.45593999997E+02  0.45594000000E+02  0.51100000000E-03 0.  1.
         11   -1    0    0    0    0 -0.00000000000E+00 -0.00000000000E+00 -0.45593999997E+02  0.45594000000E+02  0.51100000000E-03 0. -1.
    9900012    2    1    2    0    0 -0.25778547573E+02  0.14617257997E+02  0.11769638890E+02  0.59301919245E+02  0.49999954802E+02 0.  0.
         12    1    1    2    0    0  0.25778547573E+02 -0.14617257997E+02 -0.11769638890E+02  0.31886080755E+02  0.00000000000E+00 0. -1.
         11    1    3    3    0    0 -0.18883780412E+02  0.47106962248E+01 -0.77913769452E+01  0.20964097322E+02  0.51100000000E-03 0. -1.
        -11    1    3    3    0    0 -0.14965583723E+02  0.11207401176E+02  0.22851319631E+02  0.29525537191E+02  0.51100000000E-03 0.  1.
         12    1    3    3    0    0  0.80708165620E+01 -0.13008394037E+01 -0.32903037951E+01  0.88122847319E+01  0.00000000000E+00 0. -1.
</event>
<event>
 7    1  0.5662448E-012  0.5930196E+02  0.7816164E-02  0.1266605E+00
        -11   -1    0    0    0    0  0.00000000000E+00  0.00000000000E+00  0.45593999997E+02  0.45594000000E+02  0.51100000000E-03 0.  1.
         11   -1    0    0    0    0 -0.00000000000E+00 -0.00000000000E+00 -0.45593999997E+02  0.45594000000E+02  0.51100000000E-03 0. -1.
    9900012    2    1    2    0    0 -0.86021222719E+01  0.50663319251E+01  0.30282925441E+02  0.59301956030E+02  0.50000021889E+02 0.  0.
         12    1    1    2    0    0  0.86021222719E+01 -0.50663319251E+01 -0.30282925441E+02  0.31886043970E+02  0.00000000000E+00 0. -1.
         11    1    3    3    0    0  0.98410989792E+01  0.10008402360E+02  0.74949233921E+01  0.15911920809E+02  0.51100000000E-03 0.  1.
        -11    1    3    3    0    0 -0.32278957253E+00  0.84484218417E+01 -0.31592679203E+01  0.90255747062E+01  0.51100000000E-03 0. -1.
        -12    1    3    3    0    0 -0.18120431679E+02 -0.13390492276E+02  0.25947269970E+02  0.34364460515E+02  0.00000000000E+00 0.  1.
</event>
<event>
 7    1  0.5662448E-012  0.5930192E+02  0.7816164E-02  0.1266605E+00
        -11   -1    0    0    0    0  0.00000000000E+00  0.00000000000E+00  0.45593999997E+02  0.45594000000E+02  0.51100000000E-03 0.  1.
         11   -1    0    0    0    0 -0.00000000000E+00 -0.00000000000E+00 -0.45593999997E+02  0.45594000000E+02  0.51100000000E-03 0. -1.
    9900012    2    1    2    0    0  0.82478871138E+01 -0.24768340625E+02  0.18309113872E+02  0.59301921691E+02  0.49999959263E+02 0.  0.
         12    1    1    2    0    0 -0.82478871138E+01  0.24768340625E+02 -0.18309113872E+02  0.31886078309E+02  0.00000000000E+00 0. -1.
         11    1    3    3    0    0 -0.16760918308E+01 -0.12457466678E+02  0.11086181797E+01  0.12618509991E+02  0.51100000000E-03 0. -1.
        -11    1    3    3    0    0 -0.11368812563E+02 -0.35719699117E+01  0.20219510667E+02  0.23469927142E+02  0.51100000000E-03 0.  1.
        -12    1    3    3    0    0  0.21292791508E+02 -0.87389040348E+01 -0.30190149755E+01  0.23213484558E+02  0.00000000000E+00 0.  1.
</event>
<event>
 7    1  0.5662448E-012  0.5930194E+02  0.7816164E-02  0.1266605E+00
        -11   -1    0    0    0    0  0.00000000000E+00  0.00000000000E+00  0.45593999997E+02  0.45594000000E+02  0.51100000000E-03 0.  1.
         11   -1    0    0    0    0 -0.00000000000E+00 -0.00000000000E+00 -0.45593999997E+02  0.45594000000E+02  0.51100000000E-03 0. -1.
    9900012    2    1    2    0    0  0.10842317236E+01  0.10042150318E+02  0.30244011658E+02  0.59301943759E+02  0.49999999509E+02 0.  0.
         12    1    1    2    0    0 -0.10842317236E+01 -0.10042150318E+02 -0.30244011658E+02  0.31886056241E+02  0.00000000000E+00 0. -1.
         11    1    3    3    0    0  0.92538349141E+01 -0.23786419642E+01  0.26229077653E+02  0.27915155615E+02  0.51100000000E-03 0. -1.
        -11    1    3    3    0    0  0.12069270835E+01  0.17723990773E+02  0.85296546853E+01  0.19706636731E+02  0.51100000000E-03 0.  1.
         12    1    3    3    0    0 -0.93765302740E+01 -0.53031984915E+01 -0.45147206799E+01  0.11680151413E+02  0.00000000000E+00 0. -1.
</event>
<event>
 7    1  0.5662448E-012  0.5930195E+02  0.7816164E-02  0.1266605E+00
        -11   -1    0    0    0    0  0.00000000000E+00  0.00000000000E+00  0.45593999997E+02  0.45594000000E+02  0.51100000000E-03 0.  1.
         11   -1    0    0    0    0 -0.00000000000E+00 -0.00000000000E+00 -0.45593999997E+02  0.45594000000E+02  0.51100000000E-03 0. -1.
    9900012    2    1    2    0    0  0.28098105829E+02  0.15052954322E+02  0.79057367464E+00  0.59301953024E+02  0.50000016407E+02 0.  0.
         12    1    1    2    0    0 -0.28098105829E+02 -0.15052954322E+02 -0.79057367464E+00  0.31886046976E+02  0.00000000000E+00 0. -1.
         11    1    3    3    0    0  0.70231183345E+01 -0.78999490555E+01  0.79680495335E+01  0.13237190028E+02  0.51100000000E-03 0. -1.
        -11    1    3    3    0    0  0.21463791255E+02  0.11504699542E+02  0.92395153495E+01  0.26046517824E+02  0.51100000000E-03 0.  1.
         12    1    3    3    0    0 -0.38880375998E+00  0.11448203836E+02 -0.16416991208E+02  0.20018245172E+02  0.00000000000E+00 0. -1.
</event>
<event>
 7    1  0.5662448E-012  0.5930195E+02  0.7816164E-02  0.1266605E+00
        -11   -1    0    0    0    0  0.00000000000E+00  0.00000000000E+00  0.45593999997E+02  0.45594000000E+02  0.51100000000E-03 0. -1.
         11   -1    0    0    0    0 -0.00000000000E+00 -0.00000000000E+00 -0.45593999997E+02  0.45594000000E+02  0.51100000000E-03 0.  1.
    9900012    2    1    2    0    0  0.29435321592E+02  0.10532955125E+02 -0.62720606735E+01  0.59301952173E+02  0.50000014856E+02 0.  0.
         12    1    1    2    0    0 -0.29435321592E+02 -0.10532955125E+02  0.62720606735E+01  0.31886047827E+02  0.00000000000E+00 0. -1.
         11    1    3    3    0    0 -0.31293398907E+01 -0.75674071319E+01  0.38683873079E+01  0.90566461495E+01  0.51100000000E-03 0. -1.
        -11    1    3    3    0    0  0.55894762665E+01  0.18212450440E+02  0.44686874961E+01  0.19567952477E+02  0.51100000000E-03 0.  1.
        -12    1    3    3    0    0  0.26975185217E+02 -0.11208818276E+00 -0.14609135477E+02  0.30677353547E+02  0.00000000000E+00 0.  1.
</event>
<event>
 7    1  0.5662448E-012  0.5930199E+02  0.7816164E-02  0.1266605E+00
        -11   -1    0    0    0    0  0.00000000000E+00  0.00000000000E+00  0.45593999997E+02  0.45594000000E+02  0.51100000000E-03 0.  1.
         11   -1    0    0    0    0 -0.00000000000E+00 -0.00000000000E+00 -0.45593999997E+02  0.45594000000E+02  0.51100000000E-03 0. -1.
    9900012    2    1    2    0    0 -0.28918911019E+02  0.13247034754E+02  0.22204345308E+01  0.59301989371E+02  0.50000082696E+02 0.  0.
         12    1    1    2    0    0  0.28918911019E+02 -0.13247034754E+02 -0.22204345308E+01  0.31886010629E+02  0.00000000000E+00 0. -1.
         11    1    3    3    0    0 -0.81657728309E+01 -0.26409785088E+01 -0.14674886474E+02  0.17000203137E+02  0.51100000000E-03 0. -1.
        -11    1    3    3    0    0 -0.20434968439E+02 -0.21372035166E+01  0.68162874759E+01  0.21647571438E+02  0.51100000000E-03 0.  1.
        -12    1    3    3    0    0 -0.31816974912E+00  0.18025216780E+02  0.10079033529E+02  0.20654214796E+02  0.00000000000E+00 0.  1.
</event>
<event>
 7    1  0.5668762E-012  0.5930194E+02  0.7816164E-02  0.1266605E+00
        -11   -1    0    0    0    0  0.00000000000E+00  0.00000000000E+00  0.45593999997E+02  0.45594000000E+02  0.51100000000E-03 0. -1.
         11   -1    0    0    0    0 -0.00000000000E+00 -0.00000000000E+00 -0.45593999997E+02  0.45594000000E+02  0.51100000000E-03 0.  1.
    9900012    2    1    2    0    0  0.13974085484E+02 -0.91033789022E+01 -0.27176717058E+02  0.59301944700E+02  0.50000001227E+02 0.  0.
         12    1    1    2    0    0 -0.13974085484E+02  0.91033789022E+01  0.27176717058E+02  0.31886055300E+02  0.00000000000E+00 0. -1.
         11    1    3    3    0    0  0.91869529232E+01 -0.17318719769E+00  0.73660787165E+01  0.11776638474E+02  0.51100000000E-03 0. -1.
        -11    1    3    3    0    0 -0.79834204763E+01  0.54848970640E+01 -0.22783683597E+01  0.99503799399E+01  0.51100000000E-03 0.  1.
        -12    1    3    3    0    0  0.12770553037E+02 -0.14415088769E+02 -0.32264427415E+02  0.37574926287E+02  0.00000000000E+00 0.  1.
</event>
<event>
 7    1  0.5662448E-012  0.5930194E+02  0.7816164E-02  0.1266605E+00
        -11   -1    0    0    0    0  0.00000000000E+00  0.00000000000E+00  0.45593999997E+02  0.45594000000E+02  0.51100000000E-03 0.  1.
         11   -1    0    0    0    0 -0.00000000000E+00 -0.00000000000E+00 -0.45593999997E+02  0.45594000000E+02  0.51100000000E-03 0. -1.
    9900012    2    1    2    0    0  0.23983942360E+02 -0.38781641612E+01 -0.20650690557E+02  0.59301942406E+02  0.49999997043E+02 0.  0.
         12    1    1    2    0    0 -0.23983942360E+02  0.38781641612E+01  0.20650690557E+02  0.31886057594E+02  0.00000000000E+00 0. -1.
         11    1    3    3    0    0 -0.89777080901E+01  0.10507903440E+02  0.32766756039E-01  0.13820866513E+02  0.51100000000E-03 0. -1.
        -11    1    3    3    0    0  0.37188830150E+01  0.42336532998E+01 -0.45533586435E+01  0.72447902895E+01  0.51100000000E-03 0.  1.
         12    1    3    3    0    0  0.29242767435E+02 -0.18619720901E+02 -0.16130098669E+02  0.38236285604E+02  0.00000000000E+00 0. -1.
</event>
<event>
 7    1  0.5662448E-012  0.5930196E+02  0.7816164E-02  0.1266605E+00
        -11   -1    0    0    0    0  0.00000000000E+00  0.00000000000E+00  0.45593999997E+02  0.45594000000E+02  0.51100000000E-03 0.  1.
         11   -1    0    0    0    0 -0.00000000000E+00 -0.00000000000E+00 -0.45593999997E+02  0.45594000000E+02  0.51100000000E-03 0. -1.
    9900012    2    1    2    0    0  0.66936533396E+01 -0.27683766122E+02 -0.14336091592E+02  0.59301961929E+02  0.50000032647E+02 0.  0.
         12    1    1    2    0    0 -0.66936533396E+01  0.27683766122E+02  0.14336091592E+02  0.31886038071E+02  0.00000000000E+00 0. -1.
         11    1    3    3    0    0  0.13641477185E+01 -0.84602607412E+01 -0.16555144027E+02  0.18641612184E+02  0.51100000000E-03 0. -1.
        -11    1    3    3    0    0  0.13150661957E+02 -0.18176618760E+02 -0.11213662988E+02  0.25081379893E+02  0.51100000000E-03 0.  1.
         12    1    3    3    0    0 -0.78211563361E+01 -0.10468866211E+01  0.13432715422E+02  0.15578969852E+02  0.00000000000E+00 0. -1.
</event>
<event>
 7    1  0.5662448E-012  0.5930199E+02  0.7816164E-02  0.1266605E+00
        -11   -1    0    0    0    0  0.00000000000E+00  0.00000000000E+00  0.45593999997E+02  0.45594000000E+02  0.51100000000E-03 0. -1.
         11   -1    0    0    0    0 -0.00000000000E+00 -0.00000000000E+00 -0.45593999997E+02  0.45594000000E+02  0.51100000000E-03 0.  1.
    9900012    2    1    2    0    0 -0.20579525692E+01  0.18485959530E+02 -0.25898875786E+02  0.59301989972E+02  0.50000083791E+02 0.  0.
         12    1    1    2    0    0  0.20579525692E+01 -0.18485959530E+02  0.25898875786E+02  0.31886010028E+02  0.00000000000E+00 0. -1.
         11    1    3    3    0    0  0.66376101617E+01  0.10577015862E+02 -0.25364310130E+02  0.28271529175E+02  0.51100000000E-03 0. -1.
        -11    1    3    3    0    0 -0.69414786578E+01  0.17134475871E+02 -0.68479842781E+01  0.19714697011E+02  0.51100000000E-03 0.  1.
        -12    1    3    3    0    0 -0.17540840731E+01 -0.92255322026E+01  0.63134186222E+01  0.11315763786E+02  0.00000000000E+00 0.  1.
</event>
<event>
 7    1  0.5662448E-012  0.5930198E+02  0.7816164E-02  0.1266605E+00
        -11   -1    0    0    0    0  0.00000000000E+00  0.00000000000E+00  0.45593999997E+02  0.45594000000E+02  0.51100000000E-03 0. -1.
         11   -1    0    0    0    0 -0.00000000000E+00 -0.00000000000E+00 -0.45593999997E+02  0.45594000000E+02  0.51100000000E-03 0.  1.
    9900012    2    1    2    0    0 -0.23551019318E+02 -0.15367084825E+02  0.15030641007E+02  0.59301984632E+02  0.50000074053E+02 0.  0.
         12    1    1    2    0    0  0.23551019318E+02  0.15367084825E+02 -0.15030641007E+02  0.31886015368E+02  0.00000000000E+00 0. -1.
         11    1    3    3    0    0  0.99838591530E+01 -0.65719826914E+01  0.13933312953E+02  0.18357712553E+02  0.51100000000E-03 0. -1.
        -11    1    3    3    0    0 -0.15245468498E+02 -0.15094198628E+02  0.22184564220E+01  0.21568047921E+02  0.51100000000E-03 0.  1.
        -12    1    3    3    0    0 -0.18289409973E+02  0.62990964943E+01 -0.11211283679E+01  0.19376224158E+02  0.00000000000E+00 0.  1.
</event>
<event>
 7    1  0.5662448E-012  0.5930202E+02  0.7816164E-02  0.1266605E+00
        -11   -1    0    0    0    0  0.00000000000E+00  0.00000000000E+00  0.45593999997E+02  0.45594000000E+02  0.51100000000E-03 0. -1.
         11   -1    0    0    0    0 -0.00000000000E+00 -0.00000000000E+00 -0.45593999997E+02  0.45594000000E+02  0.51100000000E-03 0.  1.
    9900012    2    1    2    0    0  0.23399224165E+02 -0.12410095299E+02 -0.17753360471E+02  0.59302016168E+02  0.50000131567E+02 0.  0.
         12    1    1    2    0    0 -0.23399224165E+02  0.12410095299E+02  0.17753360471E+02  0.31885983832E+02  0.00000000000E+00 0. -1.
         11    1    3    3    0    0 -0.54493972484E+01 -0.41338211374E+01 -0.20829661247E+02  0.21923941149E+02  0.51100000000E-03 0.  1.
        -11    1    3    3    0    0 -0.15348126025E+00  0.46443967727E+01 -0.22853501366E+01  0.51784943167E+01  0.51100000000E-03 0. -1.
        -12    1    3    3    0    0  0.29002102674E+02 -0.12920670935E+02  0.53616509127E+01  0.32199580703E+02  0.00000000000E+00 0.  1.
</event>
<event>
 7    1  0.5662448E-012  0.5930194E+02  0.7816164E-02  0.1266605E+00
        -11   -1    0    0    0    0  0.00000000000E+00  0.00000000000E+00  0.45593999997E+02  0.45594000000E+02  0.51100000000E-03 0.  1.
         11   -1    0    0    0    0 -0.00000000000E+00 -0.00000000000E+00 -0.45593999997E+02  0.45594000000E+02  0.51100000000E-03 0. -1.
    9900012    2    1    2    0    0  0.14482238776E+02 -0.27676629543E+02  0.64023370989E+01  0.59301937479E+02  0.49999988056E+02 0.  0.
         12    1    1    2    0    0 -0.14482238776E+02  0.27676629543E+02 -0.64023370989E+01  0.31886062521E+02  0.00000000000E+00 0. -1.
         11    1    3    3    0    0  0.37986400661E+01 -0.33497158308E+01  0.87332026377E+00  0.51393531736E+01  0.51100000000E-03 0. -1.
        -11    1    3    3    0    0  0.14270016319E+02 -0.34905491070E+02  0.13914791690E+02  0.40195125334E+02  0.51100000000E-03 0.  1.
         12    1    3    3    0    0 -0.35864176093E+01  0.10578577358E+02 -0.83857748553E+01  0.13967458971E+02  0.00000000000E+00 0. -1.
</event>
<event>
 7    1  0.5662448E-012  0.5930190E+02  0.7816164E-02  0.1266605E+00
        -11   -1    0    0    0    0  0.00000000000E+00  0.00000000000E+00  0.45593999997E+02  0.45594000000E+02  0.51100000000E-03 0. -1.
         11   -1    0    0    0    0 -0.00000000000E+00 -0.00000000000E+00 -0.45593999997E+02  0.45594000000E+02  0.51100000000E-03 0.  1.
    9900012    2    1    2    0    0  0.28502543763E+01 -0.24826120364E+02 -0.19805635789E+02  0.59301899402E+02  0.49999918614E+02 0.  0.
         12    1    1    2    0    0 -0.28502543763E+01  0.24826120364E+02  0.19805635789E+02  0.31886100598E+02  0.00000000000E+00 0. -1.
         11    1    3    3    0    0 -0.12215587988E+02 -0.11352795473E+02 -0.26585510409E+02  0.31383051459E+02  0.51100000000E-03 0. -1.
        -11    1    3    3    0    0  0.30817487468E+01 -0.33960236976E+01 -0.61088286870E+01  0.76385823607E+01  0.51100000000E-03 0.  1.
         12    1    3    3    0    0  0.11984093617E+02 -0.10077301194E+02  0.12888703307E+02  0.20280265583E+02  0.00000000000E+00 0. -1.
</event>
<event>
 7    1  0.5662448E-012  0.5930191E+02  0.7816164E-02  0.1266605E+00
        -11   -1    0    0    0    0  0.00000000000E+00  0.00000000000E+00  0.45593999997E+02  0.45594000000E+02  0.51100000000E-03 0. -1.
         11   -1    0    0    0    0 -0.00000000000E+00 -0.00000000000E+00 -0.45593999997E+02  0.45594000000E+02  0.51100000000E-03 0.  1.
    9900012    2    1    2    0    0  0.30912320496E+02  0.72177925053E+01  0.30090807931E+01  0.59301911273E+02  0.49999940263E+02 0.  0.
         12    1    1    2    0    0 -0.30912320496E+02 -0.72177925053E+01 -0.30090807931E+01  0.31886088727E+02  0.00000000000E+00 0. -1.
         11    1    3    3    0    0  0.96752164751E+01  0.13213989693E+01  0.10621071710E+02  0.14427857554E+02  0.51100000000E-03 0. -1.
        -11    1    3    3    0    0  0.23287971294E+02  0.10088164971E+02  0.95290752429E+01  0.27109112023E+02  0.51100000000E-03 0.  1.
         12    1    3    3    0    0 -0.20508672726E+01 -0.41917714350E+01 -0.17141066160E+02  0.17764941695E+02  0.00000000000E+00 0. -1.
</event>
<event>
 7    1  0.5662448E-012  0.5930203E+02  0.7816164E-02  0.1266604E+00
        -11   -1    0    0    0    0  0.00000000000E+00  0.00000000000E+00  0.45593999997E+02  0.45594000000E+02  0.51100000000E-03 0.  1.
         11   -1    0    0    0    0 -0.00000000000E+00 -0.00000000000E+00 -0.45593999997E+02  0.45594000000E+02  0.51100000000E-03 0. -1.
    9900012    2    1    2    0    0  0.67607603232E+01 -0.18988220594E+02  0.24707379638E+02  0.59302031141E+02  0.50000158873E+02 0.  0.
         12    1    1    2    0    0 -0.67607603232E+01  0.18988220594E+02 -0.24707379638E+02  0.31885968859E+02  0.00000000000E+00 0. -1.
         11    1    3    3    0    0  0.12168485884E+02 -0.10111563279E+02 -0.53555414981E+00  0.15830432059E+02  0.51100000000E-03 0. -1.
        -11    1    3    3    0    0 -0.46931558587E+01 -0.18665524405E+02  0.27340094061E+02  0.33435135064E+02  0.51100000000E-03 0.  1.
         12    1    3    3    0    0 -0.71456970185E+00  0.97888670903E+01 -0.20971602729E+01  0.10036464018E+02  0.00000000000E+00 0. -1.
</event>
<event>
 7    1  0.5662448E-012  0.5930193E+02  0.7816164E-02  0.1266605E+00
        -11   -1    0    0    0    0  0.00000000000E+00  0.00000000000E+00  0.45593999997E+02  0.45594000000E+02  0.51100000000E-03 0. -1.
         11   -1    0    0    0    0 -0.00000000000E+00 -0.00000000000E+00 -0.45593999997E+02  0.45594000000E+02  0.51100000000E-03 0.  1.
    9900012    2    1    2    0    0 -0.23329855881E+02  0.10983953830E+02 -0.18756127429E+02  0.59301925715E+02  0.49999966602E+02 0.  0.
         12    1    1    2    0    0  0.23329855881E+02 -0.10983953830E+02  0.18756127429E+02  0.31886074285E+02  0.00000000000E+00 0. -1.
         11    1    3    3    0    0 -0.44987874978E+01 -0.25212950436E+01  0.37033188911E+01  0.63490620345E+01  0.51100000000E-03 0. -1.
        -11    1    3    3    0    0 -0.22812642961E+02 -0.93904890800E+01 -0.12707941040E+02  0.27750490622E+02  0.51100000000E-03 0.  1.
        -12    1    3    3    0    0  0.39815745780E+01  0.22895737953E+02 -0.97515052796E+01  0.25202373058E+02  0.00000000000E+00 0.  1.
</event>
<event>
 7    1  0.5662448E-012  0.5930190E+02  0.7816164E-02  0.1266605E+00
        -11   -1    0    0    0    0  0.00000000000E+00  0.00000000000E+00  0.45593999997E+02  0.45594000000E+02  0.51100000000E-03 0.  1.
         11   -1    0    0    0    0 -0.00000000000E+00 -0.00000000000E+00 -0.45593999997E+02  0.45594000000E+02  0.51100000000E-03 0. -1.
    9900012    2    1    2    0    0  0.25427126635E+01 -0.10270215319E+02  0.30079575765E+02  0.59301896623E+02  0.49999913545E+02 0.  0.
         12    1    1    2    0    0 -0.25427126635E+01  0.10270215319E+02 -0.30079575765E+02  0.31886103377E+02  0.00000000000E+00 0. -1.
         11    1    3    3    0    0 -0.37578450014E+01  0.63834488424E+01  0.26819606009E+01  0.78779902960E+01  0.51100000000E-03 0. -1.
        -11    1    3    3    0    0  0.19652586544E+02  0.14768332888E+01  0.19049626002E+02  0.27409732678E+02  0.51100000000E-03 0.  1.
        -12    1    3    3    0    0 -0.13352028879E+02 -0.18130497450E+02  0.83479891618E+01  0.24014173648E+02  0.00000000000E+00 0.  1.
</event>
<event>
 7    1  0.5662448E-012  0.5930195E+02  0.7816164E-02  0.1266605E+00
        -11   -1    0    0    0    0  0.00000000000E+00  0.00000000000E+00  0.45593999997E+02  0.45594000000E+02  0.51100000000E-03 0. -1.
         11   -1    0    0    0    0 -0.00000000000E+00 -0.00000000000E+00 -0.45593999997E+02  0.45594000000E+02  0.51100000000E-03 0.  1.
    9900012    2    1    2    0    0  0.52224196722E+01  0.23803773307E+01 -0.31365271090E+02  0.59301951420E+02  0.50000013482E+02 0.  0.
         12    1    1    2    0    0 -0.52224196722E+01 -0.23803773307E+01  0.31365271090E+02  0.31886048580E+02  0.00000000000E+00 0. -1.
         11    1    3    3    0    0 -0.36488048028E+01 -0.32996283478E+00 -0.10024450175E+01  0.37983612566E+01  0.51100000000E-03 0. -1.
        -11    1    3    3    0    0  0.74090965185E+01  0.17681269161E+02 -0.34877081682E+02  0.39798653461E+02  0.51100000000E-03 0.  1.
         12    1    3    3    0    0  0.14621279566E+01 -0.14970928995E+02  0.45142556095E+01  0.15704936703E+02  0.00000000000E+00 0. -1.
</event>
<event>
 7    1  0.5662448E-012  0.5930196E+02  0.7816164E-02  0.1266605E+00
        -11   -1    0    0    0    0  0.00000000000E+00  0.00000000000E+00  0.45593999997E+02  0.45594000000E+02  0.51100000000E-03 0.  1.
         11   -1    0    0    0    0 -0.00000000000E+00 -0.00000000000E+00 -0.45593999997E+02  0.45594000000E+02  0.51100000000E-03 0. -1.
    9900012    2    1    2    0    0 -0.80198393378E+01 -0.75204114891E-01  0.30860919353E+02  0.59301955686E+02  0.50000021262E+02 0.  0.
         12    1    1    2    0    0  0.80198393378E+01  0.75204114891E-01 -0.30860919353E+02  0.31886044314E+02  0.00000000000E+00 0. -1.
         11    1    3    3    0    0  0.52291333300E+01  0.91606852588E+01  0.17086272581E+02  0.20079907887E+02  0.51100000000E-03 0. -1.
        -11    1    3    3    0    0 -0.34064950128E+01 -0.14348997750E+02  0.21235888423E+02  0.25854610848E+02  0.51100000000E-03 0.  1.
         12    1    3    3    0    0 -0.98424776550E+01  0.51131083766E+01 -0.74612416509E+01  0.13367436951E+02  0.00000000000E+00 0. -1.
</event>
<event>
 7    1  0.5662448E-012  0.5930196E+02  0.7816164E-02  0.1266605E+00
        -11   -1    0    0    0    0  0.00000000000E+00  0.00000000000E+00  0.45593999997E+02  0.45594000000E+02  0.51100000000E-03 0.  1.
         11   -1    0    0    0    0 -0.00000000000E+00 -0.00000000000E+00 -0.45593999997E+02  0.45594000000E+02  0.51100000000E-03 0. -1.
    9900012    2    1    2    0    0  0.24856631629E+02  0.19856815256E+02  0.21387356892E+01  0.59301961701E+02  0.50000032232E+02 0.  0.
         12    1    1    2    0    0 -0.24856631629E+02 -0.19856815256E+02 -0.21387356892E+01  0.31886038299E+02  0.00000000000E+00 0. -1.
         11    1    3    3    0    0  0.31736774687E+02  0.12195505344E+02 -0.86284271982E+01  0.35077100426E+02  0.51100000000E-03 0. -1.
        -11    1    3    3    0    0  0.65104472569E+01  0.44990061380E+01  0.45262365860E+01  0.91166768951E+01  0.51100000000E-03 0.  1.
         12    1    3    3    0    0 -0.13390590315E+02  0.31623037741E+01  0.62409263014E+01  0.15108184380E+02  0.00000000000E+00 0. -1.
</event>
<event>
 7    1  0.5662448E-012  0.5930194E+02  0.7816164E-02  0.1266605E+00
        -11   -1    0    0    0    0  0.00000000000E+00  0.00000000000E+00  0.45593999997E+02  0.45594000000E+02  0.51100000000E-03 0.  1.
         11   -1    0    0    0    0 -0.00000000000E+00 -0.00000000000E+00 -0.45593999997E+02  0.45594000000E+02  0.51100000000E-03 0. -1.
    9900012    2    1    2    0    0  0.25126864493E+02  0.92235868336E+01  0.17328788986E+02  0.59301940334E+02  0.49999993263E+02 0.  0.
         12    1    1    2    0    0 -0.25126864493E+02 -0.92235868336E+01 -0.17328788986E+02  0.31886059666E+02  0.00000000000E+00 0. -1.
         11    1    3    3    0    0 -0.71701961026E+01  0.65039997434E+00  0.79407153230E+01  0.10718660941E+02  0.51100000000E-03 0. -1.
        -11    1    3    3    0    0  0.15868447752E+01 -0.50356111006E+01  0.13733061774E+02  0.14713002462E+02  0.51100000000E-03 0.  1.
         12    1    3    3    0    0  0.30710215820E+02  0.13608797960E+02 -0.43449881115E+01  0.33870276930E+02  0.00000000000E+00 0. -1.
</event>
<event>
 7    1  0.5662448E-012  0.5930195E+02  0.7816164E-02  0.1266605E+00
        -11   -1    0    0    0    0  0.00000000000E+00  0.00000000000E+00  0.45593999997E+02  0.45594000000E+02  0.51100000000E-03 0.  1.
         11   -1    0    0    0    0 -0.00000000000E+00 -0.00000000000E+00 -0.45593999997E+02  0.45594000000E+02  0.51100000000E-03 0. -1.
    9900012    2    1    2    0    0  0.26548957991E+02  0.13968108934E+01  0.17604597190E+02  0.59301951432E+02  0.50000013503E+02 0.  0.
         12    1    1    2    0    0 -0.26548957991E+02 -0.13968108934E+01 -0.17604597190E+02  0.31886048568E+02  0.00000000000E+00 0. -1.
         11    1    3    3    0    0  0.14559323689E+02 -0.44921923434E+01  0.10285299772E+02  0.18383174100E+02  0.51100000000E-03 0. -1.
        -11    1    3    3    0    0 -0.33437077823E+00 -0.15493270088E+02  0.15530733257E+01  0.15574506697E+02  0.51100000000E-03 0.  1.
         12    1    3    3    0    0  0.12324005080E+02  0.21382273324E+02  0.57662240924E+01  0.25344270635E+02  0.00000000000E+00 0. -1.
</event>
<event>
 7    1  0.5662448E-012  0.5930202E+02  0.7816164E-02  0.1266605E+00
        -11   -1    0    0    0    0  0.00000000000E+00  0.00000000000E+00  0.45593999997E+02  0.45594000000E+02  0.51100000000E-03 0.  1.
         11   -1    0    0    0    0 -0.00000000000E+00 -0.00000000000E+00 -0.45593999997E+02  0.45594000000E+02  0.51100000000E-03 0. -1.
    9900012    2    1    2    0    0 -0.18486344850E+02 -0.18752834352E+01  0.25912436063E+02  0.59302015985E+02  0.50000131233E+02 0.  0.
         12    1    1    2    0    0  0.18486344850E+02  0.18752834352E+01 -0.25912436063E+02  0.31885984015E+02  0.00000000000E+00 0. -1.
         11    1    3    3    0    0  0.17443600615E+01  0.30121899333E+01 -0.40109856633E+01  0.53107519685E+01  0.51100000000E-03 0. -1.
        -11    1    3    3    0    0 -0.44654907438E+01  0.15985674721E+02  0.38088074685E+01  0.17029075678E+02  0.51100000000E-03 0.  1.
        -12    1    3    3    0    0 -0.15765214168E+02 -0.20873148089E+02  0.26114614258E+02  0.36962188338E+02  0.00000000000E+00 0.  1.
</event>
<event>
 7    1  0.5662448E-012  0.5930191E+02  0.7816164E-02  0.1266605E+00
        -11   -1    0    0    0    0  0.00000000000E+00  0.00000000000E+00  0.45593999997E+02  0.45594000000E+02  0.51100000000E-03 0.  1.
         11   -1    0    0    0    0 -0.00000000000E+00 -0.00000000000E+00 -0.45593999997E+02  0.45594000000E+02  0.51100000000E-03 0. -1.
    9900012    2    1    2    0    0  0.17265241530E+02 -0.25206655722E+02 -0.91246028149E+01  0.59301914723E+02  0.49999946555E+02 0.  0.
         12    1    1    2    0    0 -0.17265241530E+02  0.25206655722E+02  0.91246028149E+01  0.31886085277E+02  0.00000000000E+00 0. -1.
         11    1    3    3    0    0  0.10161413630E+02  0.10974076068E+01 -0.94617921303E+01  0.13927818961E+02  0.51100000000E-03 0. -1.
        -11    1    3    3    0    0  0.16959662774E+02 -0.14410520621E+02 -0.12289996670E+02  0.25423164327E+02  0.51100000000E-03 0.  1.
        -12    1    3    3    0    0 -0.98558348744E+01 -0.11893542708E+02  0.12627185986E+02  0.19950931435E+02  0.00000000000E+00 0.  1.
</event>
<event>
 7    1  0.5662448E-012  0.5930177E+02  0.7816164E-02  0.1266605E+00
        -11   -1    0    0    0    0  0.00000000000E+00  0.00000000000E+00  0.45593999997E+02  0.45594000000E+02  0.51100000000E-03 0. -1.
         11   -1    0    0    0    0 -0.00000000000E+00 -0.00000000000E+00 -0.45593999997E+02  0.45594000000E+02  0.51100000000E-03 0.  1.
    9900012    2    1    2    0    0 -0.25419022876E+02  0.15899367178E+02 -0.10854258405E+02  0.59301772156E+02  0.49999686545E+02 0.  0.
         12    1    1    2    0    0  0.25419022876E+02 -0.15899367178E+02  0.10854258405E+02  0.31886227844E+02  0.00000000000E+00 0. -1.
         11    1    3    3    0    0  0.32946303566E+01  0.30160780007E+01 -0.13563732978E+01  0.46680900245E+01  0.51100000000E-03 0. -1.
        -11    1    3    3    0    0 -0.10859075333E+02  0.12267059938E+02 -0.25725113425E+02  0.30498880924E+02  0.51100000000E-03 0.  1.
         12    1    3    3    0    0 -0.17854577900E+02  0.61622923846E+00  0.16227228317E+02  0.24134801207E+02  0.00000000000E+00 0. -1.
</event>
<event>
 7    1  0.5662448E-012  0.5930203E+02  0.7816164E-02  0.1266604E+00
        -11   -1    0    0    0    0  0.00000000000E+00  0.00000000000E+00  0.45593999997E+02  0.45594000000E+02  0.51100000000E-03 0.  1.
         11   -1    0    0    0    0 -0.00000000000E+00 -0.00000000000E+00 -0.45593999997E+02  0.45594000000E+02  0.51100000000E-03 0. -1.
    9900012    2    1    2    0    0  0.23108502661E+01 -0.11392654858E+02  0.29691457166E+02  0.59302027500E+02  0.50000152233E+02 0.  0.
         12    1    1    2    0    0 -0.23108502661E+01  0.11392654858E+02 -0.29691457166E+02  0.31885972500E+02  0.00000000000E+00 0. -1.
         11    1    3    3    0    0  0.31617512617E+01  0.10806568890E+02 -0.75989399472E+00  0.11285213394E+02  0.51100000000E-03 0. -1.
        -11    1    3    3    0    0  0.66226362630E+01 -0.64737095017E+01  0.29117386251E+02  0.30554711717E+02  0.51100000000E-03 0.  1.
         12    1    3    3    0    0 -0.74735372586E+01 -0.15725514246E+02  0.13339649095E+01  0.17462102389E+02  0.00000000000E+00 0. -1.
</event>
<event>
 7    1  0.5662448E-012  0.5930195E+02  0.7816164E-02  0.1266605E+00
        -11   -1    0    0    0    0  0.00000000000E+00  0.00000000000E+00  0.45593999997E+02  0.45594000000E+02  0.51100000000E-03 0. -1.
         11   -1    0    0    0    0 -0.00000000000E+00 -0.00000000000E+00 -0.45593999997E+02  0.45594000000E+02  0.51100000000E-03 0.  1.
    9900012    2    1    2    0    0 -0.12776311210E+02 -0.65768269359E+01  0.28464564610E+02  0.59301949459E+02  0.50000009905E+02 0.  0.
         12    1    1    2    0    0  0.12776311210E+02  0.65768269359E+01 -0.28464564610E+02  0.31886050541E+02  0.00000000000E+00 0. -1.
         11    1    3    3    0    0  0.61072053050E+01 -0.11722054483E+02  0.11017524906E+02  0.17207276753E+02  0.51100000000E-03 0. -1.
        -11    1    3    3    0    0  0.14717235120E+01 -0.47149405686E+01 -0.71431582320E+01  0.86845463008E+01  0.51100000000E-03 0.  1.
         12    1    3    3    0    0 -0.20355240027E+02  0.98601681160E+01  0.24590197936E+02  0.33410126405E+02  0.00000000000E+00 0. -1.
</event>
<event>
 7    1  0.5662448E-012  0.5930194E+02  0.7816164E-02  0.1266605E+00
        -11   -1    0    0    0    0  0.00000000000E+00  0.00000000000E+00  0.45593999997E+02  0.45594000000E+02  0.51100000000E-03 0.  1.
         11   -1    0    0    0    0 -0.00000000000E+00 -0.00000000000E+00 -0.45593999997E+02  0.45594000000E+02  0.51100000000E-03 0. -1.
    9900012    2    1    2    0    0  0.23653741424E+02 -0.12274823049E+02 -0.17508571596E+02  0.59301939666E+02  0.49999992046E+02 0.  0.
         12    1    1    2    0    0 -0.23653741424E+02  0.12274823049E+02  0.17508571596E+02  0.31886060334E+02  0.00000000000E+00 0. -1.
         11    1    3    3    0    0  0.10296250908E+02  0.50274042890E+01 -0.13455698408E+02  0.17673239560E+02  0.51100000000E-03 0. -1.
        -11    1    3    3    0    0  0.96925849141E+01 -0.16195592171E+02 -0.18652190455E+02  0.26535779942E+02  0.51100000000E-03 0.  1.
        -12    1    3    3    0    0  0.36649056021E+01 -0.11066351668E+01  0.14599317266E+02  0.15092920165E+02  0.00000000000E+00 0.  1.
</event>
<event>
 7    1  0.5662448E-012  0.5930194E+02  0.7816164E-02  0.1266605E+00
        -11   -1    0    0    0    0  0.00000000000E+00  0.00000000000E+00  0.45593999997E+02  0.45594000000E+02  0.51100000000E-03 0.  1.
         11   -1    0    0    0    0 -0.00000000000E+00 -0.00000000000E+00 -0.45593999997E+02  0.45594000000E+02  0.51100000000E-03 0. -1.
    9900012    2    1    2    0    0  0.31676622395E+02 -0.35586854413E+01  0.80507136647E+00  0.59301940533E+02  0.49999993627E+02 0.  0.
         12    1    1    2    0    0 -0.31676622395E+02  0.35586854413E+01 -0.80507136647E+00  0.31886059467E+02  0.00000000000E+00 0. -1.
         11    1    3    3    0    0  0.17234183418E+02 -0.16907560999E+02 -0.12932313032E+02  0.27388454093E+02  0.51100000000E-03 0. -1.
        -11    1    3    3    0    0 -0.17217983965E+01 -0.21030189021E+01  0.85313217861E+01  0.89538109149E+01  0.51100000000E-03 0.  1.
         12    1    3    3    0    0  0.16164237374E+02  0.15451894460E+02  0.52060626119E+01  0.22959675525E+02  0.00000000000E+00 0. -1.
</event>
<event>
 7    1  0.5662448E-012  0.5930195E+02  0.7816164E-02  0.1266605E+00
        -11   -1    0    0    0    0  0.00000000000E+00  0.00000000000E+00  0.45593999997E+02  0.45594000000E+02  0.51100000000E-03 0. -1.
         11   -1    0    0    0    0 -0.00000000000E+00 -0.00000000000E+00 -0.45593999997E+02  0.45594000000E+02  0.51100000000E-03 0.  1.
    9900012    2    1    2    0    0 -0.89367069349E+01 -0.30336063188E+02  0.40716904005E+01  0.59301950962E+02  0.50000012646E+02 0.  0.
         12    1    1    2    0    0  0.89367069349E+01  0.30336063188E+02 -0.40716904005E+01  0.31886049038E+02  0.00000000000E+00 0. -1.
         11    1    3    3    0    0  0.11773350115E+02 -0.84115675699E+01  0.32454129809E+01  0.14828990107E+02  0.51100000000E-03 0. -1.
        -11    1    3    3    0    0 -0.10952322960E+02 -0.11039235278E+02 -0.15912618880E+02  0.22249259170E+02  0.51100000000E-03 0.  1.
        -12    1    3    3    0    0 -0.97577340900E+01 -0.10885260340E+02  0.16738896300E+02  0.22223701685E+02  0.00000000000E+00 0.  1.
</event>
<event>
 7    1  0.5662448E-012  0.5930194E+02  0.7816164E-02  0.1266605E+00
        -11   -1    0    0    0    0  0.00000000000E+00  0.00000000000E+00  0.45593999997E+02  0.45594000000E+02  0.51100000000E-03 0.  1.
         11   -1    0    0    0    0 -0.00000000000E+00 -0.00000000000E+00 -0.45593999997E+02  0.45594000000E+02  0.51100000000E-03 0. -1.
    9900012    2    1    2    0    0 -0.15178422464E+02  0.11517158981E+02  0.25567389847E+02  0.59301939047E+02  0.49999990917E+02 0.  0.
         12    1    1    2    0    0  0.15178422464E+02 -0.11517158981E+02 -0.25567389847E+02  0.31886060953E+02  0.00000000000E+00 0. -1.
         11    1    3    3    0    0  0.17655239270E+01  0.35981650182E+00 -0.90562914980E+01  0.92337943777E+01  0.51100000000E-03 0. -1.
        -11    1    3    3    0    0 -0.12583147712E+02  0.20046044151E+02  0.14813638033E+02  0.27921736416E+02  0.51100000000E-03 0.  1.
         12    1    3    3    0    0 -0.43607986797E+01 -0.88887016718E+01  0.19810043312E+02  0.22146408254E+02  0.00000000000E+00 0. -1.
</event>
<event>
 7    1  0.5662448E-012  0.5930192E+02  0.7816164E-02  0.1266605E+00
        -11   -1    0    0    0    0  0.00000000000E+00  0.00000000000E+00  0.45593999997E+02  0.45594000000E+02  0.51100000000E-03 0.  1.
         11   -1    0    0    0    0 -0.00000000000E+00 -0.00000000000E+00 -0.45593999997E+02  0.45594000000E+02  0.51100000000E-03 0. -1.
    9900012    2    1    2    0    0  0.20324173093E+02  0.10548623185E+02  0.22189566896E+02  0.59301916169E+02  0.49999949193E+02 0.  0.
         12    1    1    2    0    0 -0.20324173093E+02 -0.10548623185E+02 -0.22189566896E+02  0.31886083831E+02  0.00000000000E+00 0. -1.
         11    1    3    3    0    0  0.84830346344E+01 -0.12537006865E+02  0.35592174216E+01  0.15550126902E+02  0.51100000000E-03 0. -1.
        -11    1    3    3    0    0 -0.96044630733E+01  0.99746793466E+01  0.10348429287E+02  0.17286698006E+02  0.51100000000E-03 0.  1.
         12    1    3    3    0    0  0.21445601532E+02  0.13110950704E+02  0.82819201875E+01  0.26465091261E+02  0.00000000000E+00 0. -1.
</event>
<event>
 7    1  0.5662448E-012  0.5930181E+02  0.7816164E-02  0.1266605E+00
        -11   -1    0    0    0    0  0.00000000000E+00  0.00000000000E+00  0.45593999997E+02  0.45594000000E+02  0.51100000000E-03 0.  1.
         11   -1    0    0    0    0 -0.00000000000E+00 -0.00000000000E+00 -0.45593999997E+02  0.45594000000E+02  0.51100000000E-03 0. -1.
    9900012    2    1    2    0    0 -0.19598904363E+02 -0.12273807933E+02  0.21953711953E+02  0.59301813620E+02  0.49999762167E+02 0.  0.
         12    1    1    2    0    0  0.19598904363E+02  0.12273807933E+02 -0.21953711953E+02  0.31886186380E+02  0.00000000000E+00 0. -1.
         11    1    3    3    0    0 -0.16109927086E+02 -0.18176919542E+02  0.88270762084E-01  0.24288638224E+02  0.51100000000E-03 0.  1.
        -11    1    3    3    0    0  0.90160994849E+01 -0.33118823261E+01  0.20267874975E+01  0.98166431271E+01  0.51100000000E-03 0. -1.
        -12    1    3    3    0    0 -0.12505076761E+02  0.92149939357E+01  0.19838653693E+02  0.25196532269E+02  0.00000000000E+00 0.  1.
</event>
<event>
 7    1  0.5662448E-012  0.5930194E+02  0.7816164E-02  0.1266605E+00
        -11   -1    0    0    0    0  0.00000000000E+00  0.00000000000E+00  0.45593999997E+02  0.45594000000E+02  0.51100000000E-03 0.  1.
         11   -1    0    0    0    0 -0.00000000000E+00 -0.00000000000E+00 -0.45593999997E+02  0.45594000000E+02  0.51100000000E-03 0. -1.
    9900012    2    1    2    0    0 -0.29686090587E+02 -0.53123541191E+01  0.10355471190E+02  0.59301939344E+02  0.49999991458E+02 0.  0.
         12    1    1    2    0    0  0.29686090587E+02  0.53123541191E+01 -0.10355471190E+02  0.31886060656E+02  0.00000000000E+00 0. -1.
         11    1    3    3    0    0  0.42741892876E+01 -0.10963026493E+02 -0.31662611316E+01  0.12185313036E+02  0.51100000000E-03 0. -1.
        -11    1    3    3    0    0 -0.35752923791E+01 -0.88929760243E+01  0.89642157892E+01  0.13123448599E+02  0.51100000000E-03 0.  1.
        -12    1    3    3    0    0 -0.30384987495E+02  0.14543648399E+02  0.45575165321E+01  0.33993177709E+02  0.00000000000E+00 0.  1.
</event>
<event>
 7    1  0.5662448E-012  0.5930196E+02  0.7816164E-02  0.1266605E+00
        -11   -1    0    0    0    0  0.00000000000E+00  0.00000000000E+00  0.45593999997E+02  0.45594000000E+02  0.51100000000E-03 0. -1.
         11   -1    0    0    0    0 -0.00000000000E+00 -0.00000000000E+00 -0.45593999997E+02  0.45594000000E+02  0.51100000000E-03 0.  1.
    9900012    2    1    2    0    0 -0.10859829426E+02 -0.18726054466E+02 -0.23411929581E+02  0.59301961398E+02  0.50000031679E+02 0.  0.
         12    1    1    2    0    0  0.10859829426E+02  0.18726054466E+02  0.23411929581E+02  0.31886038602E+02  0.00000000000E+00 0. -1.
         11    1    3    3    0    0  0.87596008328E+00 -0.16990714242E+02  0.16699082540E+01  0.17095036425E+02  0.51100000000E-03 0. -1.
        -11    1    3    3    0    0 -0.53821940639E+01  0.10251421173E+02  0.21560518185E+01  0.11777444914E+02  0.51100000000E-03 0.  1.
         12    1    3    3    0    0 -0.63535954457E+01 -0.11986761396E+02 -0.27237889654E+02  0.30429480059E+02  0.00000000000E+00 0. -1.
</event>
<event>
 7    1  0.5662448E-012  0.5930194E+02  0.7816164E-02  0.1266605E+00
        -11   -1    0    0    0    0  0.00000000000E+00  0.00000000000E+00  0.45593999997E+02  0.45594000000E+02  0.51100000000E-03 0. -1.
         11   -1    0    0    0    0 -0.00000000000E+00 -0.00000000000E+00 -0.45593999997E+02  0.45594000000E+02  0.51100000000E-03 0.  1.
    9900012    2    1    2    0    0 -0.13478900476E+01  0.31314326476E+02  0.58580764759E+01  0.59301938622E+02  0.49999990141E+02 0.  0.
         12    1    1    2    0    0  0.13478900476E+01 -0.31314326476E+02 -0.58580764759E+01  0.31886061378E+02  0.00000000000E+00 0. -1.
         11    1    3    3    0    0  0.13527941502E+01  0.60610220140E+01  0.81042779868E+01  0.10210061793E+02  0.51100000000E-03 0. -1.
        -11    1    3    3    0    0 -0.13790302944E+02  0.69292740925E+01  0.15053827578E+02  0.21559337182E+02  0.51100000000E-03 0.  1.
        -12    1    3    3    0    0  0.11089618746E+02  0.18324030369E+02 -0.17300029089E+02  0.27532539647E+02  0.00000000000E+00 0.  1.
</event>
<event>
 7    1  0.5662448E-012  0.5930203E+02  0.7816164E-02  0.1266604E+00
        -11   -1    0    0    0    0  0.00000000000E+00  0.00000000000E+00  0.45593999997E+02  0.45594000000E+02  0.51100000000E-03 0.  1.
         11   -1    0    0    0    0 -0.00000000000E+00 -0.00000000000E+00 -0.45593999997E+02  0.45594000000E+02  0.51100000000E-03 0. -1.
    9900012    2    1    2    0    0 -0.13910668381E+02  0.77090107005E+01  0.27636556763E+02  0.59302034271E+02  0.50000164581E+02 0.  0.
         12    1    1    2    0    0  0.13910668381E+02 -0.77090107005E+01 -0.27636556763E+02  0.31885965729E+02  0.00000000000E+00 0. -1.
         11    1    3    3    0    0  0.17185029497E+01 -0.10768172188E+02  0.96802061642E+01  0.14581261135E+02  0.51100000000E-03 0. -1.
        -11    1    3    3    0    0  0.35590024187E+01  0.11255069866E+01  0.18472073759E+02  0.18845444368E+02  0.51100000000E-03 0.  1.
        -12    1    3    3    0    0 -0.19188173750E+02  0.17351675902E+02 -0.51572316087E+00  0.25875328768E+02  0.00000000000E+00 0.  1.
</event>
<event>
 7    1  0.5662448E-012  0.5930196E+02  0.7816164E-02  0.1266605E+00
        -11   -1    0    0    0    0  0.00000000000E+00  0.00000000000E+00  0.45593999997E+02  0.45594000000E+02  0.51100000000E-03 0.  1.
         11   -1    0    0    0    0 -0.00000000000E+00 -0.00000000000E+00 -0.45593999997E+02  0.45594000000E+02  0.51100000000E-03 0. -1.
    9900012    2    1    2    0    0 -0.30699126075E+02 -0.66029719984E+01  0.55392851952E+01  0.59301964476E+02  0.50000037292E+02 0.  0.
         12    1    1    2    0    0  0.30699126075E+02  0.66029719984E+01 -0.55392851952E+01  0.31886035524E+02  0.00000000000E+00 0. -1.
         11    1    3    3    0    0 -0.79900456015E+01  0.40946779813E+01 -0.31012565509E+01  0.94986845899E+01  0.51100000000E-03 0. -1.
        -11    1    3    3    0    0 -0.26339936077E+02  0.12998885011E+01  0.19833979361E+02  0.32998010246E+02  0.51100000000E-03 0.  1.
        -12    1    3    3    0    0  0.36308556031E+01 -0.11997538481E+02 -0.11193437615E+02  0.16805269639E+02  0.00000000000E+00 0.  1.
</event>
<event>
 7    1  0.5662448E-012  0.5930194E+02  0.7816164E-02  0.1266605E+00
        -11   -1    0    0    0    0  0.00000000000E+00  0.00000000000E+00  0.45593999997E+02  0.45594000000E+02  0.51100000000E-03 0. -1.
         11   -1    0    0    0    0 -0.00000000000E+00 -0.00000000000E+00 -0.45593999997E+02  0.45594000000E+02  0.51100000000E-03 0.  1.
    9900012    2    1    2    0    0 -0.27655269234E+02  0.13235475418E+02  0.87595030190E+01  0.59301943187E+02  0.49999998466E+02 0.  0.
         12    1    1    2    0    0  0.27655269234E+02 -0.13235475418E+02 -0.87595030190E+01  0.31886056813E+02  0.00000000000E+00 0. -1.
         11    1    3    3    0    0 -0.16616489985E+02  0.27113594225E+01 -0.21131003409E+01  0.16968335294E+02  0.51100000000E-03 0. -1.
        -11    1    3    3    0    0 -0.22076235307E+02  0.16741096660E+02  0.10594692729E+02  0.29662636379E+02  0.51100000000E-03 0.  1.
         12    1    3    3    0    0  0.11037456057E+02 -0.62169806637E+01  0.27791063124E+00  0.12670971514E+02  0.00000000000E+00 0. -1.
</event>
<event>
 7    1  0.5662448E-012  0.5930194E+02  0.7816164E-02  0.1266605E+00
        -11   -1    0    0    0    0  0.00000000000E+00  0.00000000000E+00  0.45593999997E+02  0.45594000000E+02  0.51100000000E-03 0.  1.
         11   -1    0    0    0    0 -0.00000000000E+00 -0.00000000000E+00 -0.45593999997E+02  0.45594000000E+02  0.51100000000E-03 0. -1.
    9900012    2    1    2    0    0 -0.24278448146E+02 -0.12419905846E+02  0.16523434889E+02  0.59301937118E+02  0.49999987398E+02 0.  0.
         12    1    1    2    0    0  0.24278448146E+02  0.12419905846E+02 -0.16523434889E+02  0.31886062882E+02  0.00000000000E+00 0. -1.
         11    1    3    3    0    0 -0.28620062601E+01 -0.17644557462E+02  0.28010628446E+02  0.33228252949E+02  0.51100000000E-03 0.  1.
        -11    1    3    3    0    0 -0.12564562242E+01  0.20924543142E+01 -0.32670795596E+01  0.40780947035E+01  0.51100000000E-03 0. -1.
        -12    1    3    3    0    0 -0.20159985661E+02  0.31321973020E+01 -0.82201139968E+01  0.21995589465E+02  0.00000000000E+00 0.  1.
</event>
<event>
 7    1  0.5662448E-012  0.5930191E+02  0.7816164E-02  0.1266605E+00
        -11   -1    0    0    0    0  0.00000000000E+00  0.00000000000E+00  0.45593999997E+02  0.45594000000E+02  0.51100000000E-03 0. -1.
         11   -1    0    0    0    0 -0.00000000000E+00 -0.00000000000E+00 -0.45593999997E+02  0.45594000000E+02  0.51100000000E-03 0.  1.
    9900012    2    1    2    0    0 -0.78815197988E+01  0.18969242660E+02 -0.24387956535E+02  0.59301906709E+02  0.49999931940E+02 0.  0.
         12    1    1    2    0    0  0.78815197988E+01 -0.18969242660E+02  0.24387956535E+02  0.31886093291E+02  0.00000000000E+00 0. -1.
         11    1    3    3    0    0 -0.15951551457E+01  0.66961611134E+00 -0.62690996318E+01  0.65034234162E+01  0.51100000000E-03 0. -1.
        -11    1    3    3    0    0 -0.10335156476E+02  0.29656071796E+01 -0.30716776607E+02  0.32544287528E+02  0.51100000000E-03 0.  1.
         12    1    3    3    0    0  0.40487918229E+01  0.15334019369E+02  0.12597919704E+02  0.20254195765E+02  0.00000000000E+00 0. -1.
</event>
<event>
 7    1  0.5662448E-012  0.5930192E+02  0.7816164E-02  0.1266605E+00
        -11   -1    0    0    0    0  0.00000000000E+00  0.00000000000E+00  0.45593999997E+02  0.45594000000E+02  0.51100000000E-03 0. -1.
         11   -1    0    0    0    0 -0.00000000000E+00 -0.00000000000E+00 -0.45593999997E+02  0.45594000000E+02  0.51100000000E-03 0.  1.
    9900012    2    1    2    0    0 -0.43179973620E+01 -0.28928852023E+02 -0.12696387881E+02  0.59301923951E+02  0.49999963385E+02 0.  0.
         12    1    1    2    0    0  0.43179973620E+01  0.28928852023E+02  0.12696387881E+02  0.31886076049E+02  0.00000000000E+00 0. -1.
         11    1    3    3    0    0  0.56936307219E+01  0.91560179330E+01  0.65274719535E+01  0.12603887716E+02  0.51100000000E-03 0. -1.
        -11    1    3    3    0    0 -0.69691357085E+01 -0.12685527044E+02 -0.14866620798E+02  0.20748683407E+02  0.51100000000E-03 0.  1.
        -12    1    3    3    0    0 -0.30424923754E+01 -0.25399342911E+02 -0.43572390368E+01  0.25949352828E+02  0.00000000000E+00 0.  1.
</event>
<event>
 7    1  0.5662448E-012  0.5930195E+02  0.7816164E-02  0.1266605E+00
        -11   -1    0    0    0    0  0.00000000000E+00  0.00000000000E+00  0.45593999997E+02  0.45594000000E+02  0.51100000000E-03 0.  1.
         11   -1    0    0    0    0 -0.00000000000E+00 -0.00000000000E+00 -0.45593999997E+02  0.45594000000E+02  0.51100000000E-03 0. -1.
    9900012    2    1    2    0    0 -0.69899557752E+01  0.15520272040E+02  0.26962604365E+02  0.59301947249E+02  0.50000005874E+02 0.  0.
         12    1    1    2    0    0  0.69899557752E+01 -0.15520272040E+02 -0.26962604365E+02  0.31886052751E+02  0.00000000000E+00 0. -1.
         11    1    3    3    0    0 -0.80814534260E+01  0.49138799848E+01 -0.39904460598E+01  0.10265464724E+02  0.51100000000E-03 0. -1.
        -11    1    3    3    0    0 -0.82047037324E+01 -0.88085546731E+01  0.90229509969E+00  0.12071534098E+02  0.51100000000E-03 0.  1.
        -12    1    3    3    0    0  0.92962013832E+01  0.19414946728E+02  0.30050755325E+02  0.36964948427E+02  0.00000000000E+00 0.  1.
</event>
<event>
 7    1  0.5662448E-012  0.5930184E+02  0.7816164E-02  0.1266605E+00
        -11   -1    0    0    0    0  0.00000000000E+00  0.00000000000E+00  0.45593999997E+02  0.45594000000E+02  0.51100000000E-03 0. -1.
         11   -1    0    0    0    0 -0.00000000000E+00 -0.00000000000E+00 -0.45593999997E+02  0.45594000000E+02  0.51100000000E-03 0.  1.
    9900012    2    1    2    0    0  0.22424696527E+02 -0.63676507765E+01 -0.21755760107E+02  0.59301841740E+02  0.49999813452E+02 0.  0.
         12    1    1    2    0    0 -0.22424696527E+02  0.63676507765E+01  0.21755760107E+02  0.31886158260E+02  0.00000000000E+00 0. -1.
         11    1    3    3    0    0  0.87818348604E+01 -0.10981079197E+01 -0.45088420440E+01  0.99325787869E+01  0.51100000000E-03 0. -1.
        -11    1    3    3    0    0  0.12484375964E+02 -0.20563320320E+02 -0.22715125782E+02  0.33086050313E+02  0.51100000000E-03 0.  1.
         12    1    3    3    0    0  0.11584857024E+01  0.15293777464E+02  0.54682077182E+01  0.16283212640E+02  0.00000000000E+00 0. -1.
</event>
<event>
 7    1  0.5662448E-012  0.5930194E+02  0.7816164E-02  0.1266605E+00
        -11   -1    0    0    0    0  0.00000000000E+00  0.00000000000E+00  0.45593999997E+02  0.45594000000E+02  0.51100000000E-03 0.  1.
         11   -1    0    0    0    0 -0.00000000000E+00 -0.00000000000E+00 -0.45593999997E+02  0.45594000000E+02  0.51100000000E-03 0. -1.
    9900012    2    1    2    0    0  0.16077591606E+02 -0.23158835708E+02  0.14896307963E+02  0.59301943265E+02  0.49999998609E+02 0.  0.
         12    1    1    2    0    0 -0.16077591606E+02  0.23158835708E+02 -0.14896307963E+02  0.31886056735E+02  0.00000000000E+00 0. -1.
         11    1    3    3    0    0  0.13401087879E+02  0.56167096587E+01  0.52004903894E+01  0.15433135918E+02  0.51100000000E-03 0. -1.
        -11    1    3    3    0    0  0.96772572645E+01 -0.12232663134E+02  0.18220992213E+02  0.23985243651E+02  0.51100000000E-03 0.  1.
        -12    1    3    3    0    0 -0.70007535371E+01 -0.16542882232E+02 -0.85251746387E+01  0.19883563696E+02  0.00000000000E+00 0.  1.
</event>
<event>
 7    1  0.5662448E-012  0.5930196E+02  0.7816164E-02  0.1266605E+00
        -11   -1    0    0    0    0  0.00000000000E+00  0.00000000000E+00  0.45593999997E+02  0.45594000000E+02  0.51100000000E-03 0.  1.
         11   -1    0    0    0    0 -0.00000000000E+00 -0.00000000000E+00 -0.45593999997E+02  0.45594000000E+02  0.51100000000E-03 0. -1.
    9900012    2    1    2    0    0 -0.31172917725E+02  0.67044393780E+01 -0.13940166318E+00  0.59301956977E+02  0.50000023616E+02 0.  0.
         12    1    1    2    0    0  0.31172917725E+02 -0.67044393780E+01  0.13940166318E+00  0.31886043023E+02  0.00000000000E+00 0. -1.
         11    1    3    3    0    0 -0.18356059237E+02  0.62274435140E+01 -0.19051014606E+02  0.27178431177E+02  0.51100000000E-03 0. -1.
        -11    1    3    3    0    0 -0.79976354662E+01  0.63742138148E+01 -0.15008361518E+01  0.10336599258E+02  0.51100000000E-03 0.  1.
        -12    1    3    3    0    0 -0.48192230214E+01 -0.58972179508E+01  0.20412449095E+02  0.21786926542E+02  0.00000000000E+00 0.  1.
</event>
<event>
 7    1  0.5662448E-012  0.5930195E+02  0.7816164E-02  0.1266605E+00
        -11   -1    0    0    0    0  0.00000000000E+00  0.00000000000E+00  0.45593999997E+02  0.45594000000E+02  0.51100000000E-03 0. -1.
         11   -1    0    0    0    0 -0.00000000000E+00 -0.00000000000E+00 -0.45593999997E+02  0.45594000000E+02  0.51100000000E-03 0.  1.
    9900012    2    1    2    0    0 -0.16683917422E+02 -0.27153342205E+02  0.10311811328E+01  0.59301946184E+02  0.50000003932E+02 0.  0.
         12    1    1    2    0    0  0.16683917422E+02  0.27153342205E+02 -0.10311811328E+01  0.31886053816E+02  0.00000000000E+00 0. -1.
         11    1    3    3    0    0 -0.18580243158E+02 -0.31079925503E+02 -0.21767089953E+01  0.36275684244E+02  0.51100000000E-03 0. -1.
        -11    1    3    3    0    0 -0.92635376853E+01 -0.20402008890E+01 -0.13385186646E+01  0.95795189123E+01  0.51100000000E-03 0.  1.
         12    1    3    3    0    0  0.11159863422E+02  0.59667841872E+01  0.45464087927E+01  0.13446743027E+02  0.00000000000E+00 0. -1.
</event>
<event>
 7    1  0.5662448E-012  0.5930191E+02  0.7816164E-02  0.1266605E+00
        -11   -1    0    0    0    0  0.00000000000E+00  0.00000000000E+00  0.45593999997E+02  0.45594000000E+02  0.51100000000E-03 0. -1.
         11   -1    0    0    0    0 -0.00000000000E+00 -0.00000000000E+00 -0.45593999997E+02  0.45594000000E+02  0.51100000000E-03 0.  1.
    9900012    2    1    2    0    0  0.27245183454E+02  0.11456306774E+02  0.11965601559E+02  0.59301912015E+02  0.49999941616E+02 0.  0.
         12    1    1    2    0    0 -0.27245183454E+02 -0.11456306774E+02 -0.11965601559E+02  0.31886087985E+02  0.00000000000E+00 0. -1.
         11    1    3    3    0    0  0.22245720841E+01 -0.15082248682E+02  0.93741433235E+01  0.17896857534E+02  0.51100000000E-03 0. -1.
        -11    1    3    3    0    0 -0.19080439428E+01  0.47856790674E+01 -0.35375591736E+01  0.62496144675E+01  0.51100000000E-03 0.  1.
        -12    1    3    3    0    0  0.26928655313E+02  0.21752876389E+02  0.61290174088E+01  0.35155440014E+02  0.00000000000E+00 0.  1.
</event>
<event>
 7    1  0.5662448E-012  0.5930191E+02  0.7816164E-02  0.1266605E+00
        -11   -1    0    0    0    0  0.00000000000E+00  0.00000000000E+00  0.45593999997E+02  0.45594000000E+02  0.51100000000E-03 0. -1.
         11   -1    0    0    0    0 -0.00000000000E+00 -0.00000000000E+00 -0.45593999997E+02  0.45594000000E+02  0.51100000000E-03 0.  1.
    9900012    2    1    2    0    0 -0.23833941355E+02 -0.78396098187E+01 -0.19677567304E+02  0.59301907457E+02  0.49999933304E+02 0.  0.
         12    1    1    2    0    0  0.23833941355E+02  0.78396098187E+01  0.19677567304E+02  0.31886092543E+02  0.00000000000E+00 0. -1.
         11    1    3    3    0    0 -0.57062268271E+00 -0.28281157628E+01 -0.17971210810E+02  0.18201325975E+02  0.51100000000E-03 0. -1.
        -11    1    3    3    0    0 -0.29388377991E+02  0.42435116529E+01 -0.33489249157E+01  0.29881423166E+02  0.51100000000E-03 0.  1.
         12    1    3    3    0    0  0.61250593181E+01 -0.92550057088E+01  0.16425684213E+01  0.11219158317E+02  0.00000000000E+00 0. -1.
</event>
<event>
 7    1  0.5662448E-012  0.5930196E+02  0.7816164E-02  0.1266605E+00
        -11   -1    0    0    0    0  0.00000000000E+00  0.00000000000E+00  0.45593999997E+02  0.45594000000E+02  0.51100000000E-03 0. -1.
         11   -1    0    0    0    0 -0.00000000000E+00 -0.00000000000E+00 -0.45593999997E+02  0.45594000000E+02  0.51100000000E-03 0.  1.
    9900012    2    1    2    0    0 -0.77030000823E+01 -0.18442725062E+02 -0.24844499379E+02  0.59301961247E+02  0.50000031403E+02 0.  0.
         12    1    1    2    0    0  0.77030000823E+01  0.18442725062E+02  0.24844499379E+02  0.31886038753E+02  0.00000000000E+00 0. -1.
         11    1    3    3    0    0 -0.39414420325E+01 -0.33315228756E+01  0.34026171273E+01  0.61815704754E+01  0.51100000000E-03 0. -1.
        -11    1    3    3    0    0 -0.49800432977E+01 -0.19942090236E+02 -0.37413277566E+02  0.42687716415E+02  0.51100000000E-03 0.  1.
         12    1    3    3    0    0  0.12184852480E+01  0.48308880500E+01  0.91661610594E+01  0.10432674356E+02  0.00000000000E+00 0. -1.
</event>
<event>
 7    1  0.5662448E-012  0.5930196E+02  0.7816164E-02  0.1266605E+00
        -11   -1    0    0    0    0  0.00000000000E+00  0.00000000000E+00  0.45593999997E+02  0.45594000000E+02  0.51100000000E-03 0.  1.
         11   -1    0    0    0    0 -0.00000000000E+00 -0.00000000000E+00 -0.45593999997E+02  0.45594000000E+02  0.51100000000E-03 0. -1.
    9900012    2    1    2    0    0 -0.20152047733E+02 -0.15465322217E+02 -0.19272740333E+02  0.59301956986E+02  0.50000023633E+02 0.  0.
         12    1    1    2    0    0  0.20152047733E+02  0.15465322217E+02  0.19272740333E+02  0.31886043014E+02  0.00000000000E+00 0. -1.
         11    1    3    3    0    0 -0.15263931488E+01  0.23225355358E+00  0.49504594914E+01  0.51856404807E+01  0.51100000000E-03 0. -1.
        -11    1    3    3    0    0 -0.25270288902E+02  0.54604327967E+01 -0.16318446078E+02  0.30572790356E+02  0.51100000000E-03 0.  1.
         12    1    3    3    0    0  0.66446343173E+01 -0.21158008568E+02 -0.79047537465E+01  0.23543526149E+02  0.00000000000E+00 0. -1.
</event>
<event>
 7    1  0.5662448E-012  0.5930187E+02  0.7816164E-02  0.1266605E+00
        -11   -1    0    0    0    0  0.00000000000E+00  0.00000000000E+00  0.45593999997E+02  0.45594000000E+02  0.51100000000E-03 0. -1.
         11   -1    0    0    0    0 -0.00000000000E+00 -0.00000000000E+00 -0.45593999997E+02  0.45594000000E+02  0.51100000000E-03 0.  1.
    9900012    2    1    2    0    0  0.26436397487E+02  0.17197839107E+02  0.46985923705E+01  0.59301865829E+02  0.49999857385E+02 0.  0.
         12    1    1    2    0    0 -0.26436397487E+02 -0.17197839107E+02 -0.46985923705E+01  0.31886134171E+02  0.00000000000E+00 0. -1.
         11    1    3    3    0    0  0.46997452140E+01  0.31797516395E+01  0.43380967940E+01  0.71426542419E+01  0.51100000000E-03 0. -1.
        -11    1    3    3    0    0  0.26822448449E+02 -0.91352327528E+01 -0.15444866535E+01  0.28377485046E+02  0.51100000000E-03 0.  1.
         12    1    3    3    0    0 -0.50857961759E+01  0.23153320221E+02  0.19049822300E+01  0.23781726541E+02  0.00000000000E+00 0. -1.
</event>
<event>
 7    1  0.5662448E-012  0.5930194E+02  0.7816164E-02  0.1266605E+00
        -11   -1    0    0    0    0  0.00000000000E+00  0.00000000000E+00  0.45593999997E+02  0.45594000000E+02  0.51100000000E-03 0. -1.
         11   -1    0    0    0    0 -0.00000000000E+00 -0.00000000000E+00 -0.45593999997E+02  0.45594000000E+02  0.51100000000E-03 0.  1.
    9900012    2    1    2    0    0 -0.42339805457E+01 -0.28422116410E+02 -0.13819460812E+02  0.59301940513E+02  0.49999993589E+02 0.  0.
         12    1    1    2    0    0  0.42339805457E+01  0.28422116410E+02  0.13819460812E+02  0.31886059487E+02  0.00000000000E+00 0. -1.
         11    1    3    3    0    0  0.12511239922E+02 -0.13534552453E+02  0.89382776110E+01  0.20484336489E+02  0.51100000000E-03 0. -1.
        -11    1    3    3    0    0  0.42437160617E+01 -0.50251370252E+01 -0.11000625462E+02  0.12816976592E+02  0.51100000000E-03 0.  1.
         12    1    3    3    0    0 -0.20988936530E+02 -0.98624269324E+01 -0.11757112961E+02  0.26000627432E+02  0.00000000000E+00 0. -1.
</event>
<event>
 7    1  0.5662448E-012  0.5930196E+02  0.7816164E-02  0.1266605E+00
        -11   -1    0    0    0    0  0.00000000000E+00  0.00000000000E+00  0.45593999997E+02  0.45594000000E+02  0.51100000000E-03 0. -1.
         11   -1    0    0    0    0 -0.00000000000E+00 -0.00000000000E+00 -0.45593999997E+02  0.45594000000E+02  0.51100000000E-03 0.  1.
    9900012    2    1    2    0    0 -0.23315789111E+02 -0.16064010963E+02  0.14664269927E+02  0.59301964145E+02  0.50000036689E+02 0.  0.
         12    1    1    2    0    0  0.23315789111E+02  0.16064010963E+02 -0.14664269927E+02  0.31886035855E+02  0.00000000000E+00 0. -1.
         11    1    3    3    0    0  0.78849673960E+01 -0.99987995953E+01 -0.39886915691E+01  0.13343851201E+02  0.51100000000E-03 0. -1.
        -11    1    3    3    0    0 -0.13773955156E+02 -0.16209550203E+02  0.13330094943E+02  0.25103043438E+02  0.51100000000E-03 0.  1.
         12    1    3    3    0    0 -0.17426801351E+02  0.10144338835E+02  0.53228665535E+01  0.20855069505E+02  0.00000000000E+00 0. -1.
</event>
<event>
 7    1  0.5662448E-012  0.5930197E+02  0.7816164E-02  0.1266605E+00
        -11   -1    0    0    0    0  0.00000000000E+00  0.00000000000E+00  0.45593999997E+02  0.45594000000E+02  0.51100000000E-03 0. -1.
         11   -1    0    0    0    0 -0.00000000000E+00 -0.00000000000E+00 -0.45593999997E+02  0.45594000000E+02  0.51100000000E-03 0.  1.
    9900012    2    1    2    0    0 -0.30083754346E+02  0.89854335520E+01  0.55631752378E+01  0.59301965276E+02  0.50000038752E+02 0.  0.
         12    1    1    2    0    0  0.30083754346E+02 -0.89854335520E+01 -0.55631752378E+01  0.31886034724E+02  0.00000000000E+00 0. -1.
         11    1    3    3    0    0 -0.23487318397E+02 -0.21283019771E+01  0.11360008827E+02  0.26176966891E+02  0.51100000000E-03 0. -1.
        -11    1    3    3    0    0 -0.13388251183E+02 -0.27051428380E+01 -0.10271840792E+02  0.17090166208E+02  0.51100000000E-03 0.  1.
        -12    1    3    3    0    0  0.67918152337E+01  0.13818878367E+02  0.44750072025E+01  0.16034832177E+02  0.00000000000E+00 0.  1.
</event>
<event>
 7    1  0.5662448E-012  0.5930196E+02  0.7816164E-02  0.1266605E+00
        -11   -1    0    0    0    0  0.00000000000E+00  0.00000000000E+00  0.45593999997E+02  0.45594000000E+02  0.51100000000E-03 0.  1.
         11   -1    0    0    0    0 -0.00000000000E+00 -0.00000000000E+00 -0.45593999997E+02  0.45594000000E+02  0.51100000000E-03 0. -1.
    9900012    2    1    2    0    0 -0.45373415006E+01 -0.41551278133E+01  0.31286849450E+02  0.59301960680E+02  0.50000030369E+02 0.  0.
         12    1    1    2    0    0  0.45373415006E+01  0.41551278133E+01 -0.31286849450E+02  0.31886039320E+02  0.00000000000E+00 0. -1.
         11    1    3    3    0    0  0.46530998324E+01 -0.92328984991E+01 -0.63269296091E+01  0.12121377450E+02  0.51100000000E-03 0. -1.
        -11    1    3    3    0    0 -0.13686285750E+02 -0.47632695722E+01  0.10234642113E+02  0.17741224706E+02  0.51100000000E-03 0.  1.
         12    1    3    3    0    0  0.44958444167E+01  0.98410402580E+01  0.27379136946E+02  0.29439358523E+02  0.00000000000E+00 0. -1.
</event>
<event>
 7    1  0.5662448E-012  0.5930180E+02  0.7816164E-02  0.1266605E+00
        -11   -1    0    0    0    0  0.00000000000E+00  0.00000000000E+00  0.45593999997E+02  0.45594000000E+02  0.51100000000E-03 0.  1.
         11   -1    0    0    0    0 -0.00000000000E+00 -0.00000000000E+00 -0.45593999997E+02  0.45594000000E+02  0.51100000000E-03 0. -1.
    9900012    2    1    2    0    0 -0.23619477759E+02  0.21265776782E+02 -0.25723577226E+01  0.59301795836E+02  0.49999729733E+02 0.  0.
         12    1    1    2    0    0  0.23619477759E+02 -0.21265776782E+02  0.25723577226E+01  0.31886204164E+02  0.00000000000E+00 0. -1.
         11    1    3    3    0    0  0.67169854942E+01 -0.31588987311E-01  0.12547456348E+00  0.67182316215E+01  0.51100000000E-03 0. -1.
        -11    1    3    3    0    0 -0.66444482939E+01  0.23660912777E+02  0.88503304472E+01  0.26121176004E+02  0.51100000000E-03 0.  1.
         12    1    3    3    0    0 -0.23692014959E+02 -0.23635470072E+01 -0.11548162733E+02  0.26462388210E+02  0.00000000000E+00 0. -1.
</event>
<event>
 7    1  0.5662448E-012  0.5930192E+02  0.7816164E-02  0.1266605E+00
        -11   -1    0    0    0    0  0.00000000000E+00  0.00000000000E+00  0.45593999997E+02  0.45594000000E+02  0.51100000000E-03 0.  1.
         11   -1    0    0    0    0 -0.00000000000E+00 -0.00000000000E+00 -0.45593999997E+02  0.45594000000E+02  0.51100000000E-03 0. -1.
    9900012    2    1    2    0    0 -0.64920871684E+01  0.18351251463E+02  0.25254827058E+02  0.59301922854E+02  0.49999961383E+02 0.  0.
         12    1    1    2    0    0  0.64920871684E+01 -0.18351251463E+02 -0.25254827058E+02  0.31886077146E+02  0.00000000000E+00 0. -1.
         11    1    3    3    0    0 -0.20388444090E+02 -0.34745665244E+01  0.74787458993E+01  0.21993019471E+02  0.51100000000E-03 0. -1.
        -11    1    3    3    0    0  0.12339599923E+02  0.47092816750E+01  0.92658587729E+00  0.13240151880E+02  0.51100000000E-03 0.  1.
        -12    1    3    3    0    0  0.15567569989E+01  0.17116536313E+02  0.16849495281E+02  0.24068751503E+02  0.00000000000E+00 0.  1.
</event>
<event>
 7    1  0.5662448E-012  0.5930196E+02  0.7816164E-02  0.1266605E+00
        -11   -1    0    0    0    0  0.00000000000E+00  0.00000000000E+00  0.45593999997E+02  0.45594000000E+02  0.51100000000E-03 0. -1.
         11   -1    0    0    0    0 -0.00000000000E+00 -0.00000000000E+00 -0.45593999997E+02  0.45594000000E+02  0.51100000000E-03 0.  1.
    9900012    2    1    2    0    0  0.21574981905E+02  0.18950769602E+02 -0.13860304755E+02  0.59301959784E+02  0.50000028736E+02 0.  0.
         12    1    1    2    0    0 -0.21574981905E+02 -0.18950769602E+02  0.13860304755E+02  0.31886040216E+02  0.00000000000E+00 0. -1.
         11    1    3    3    0    0  0.16896300107E+02  0.31902314257E+01 -0.24097880401E+01  0.17362880305E+02  0.51100000000E-03 0. -1.
        -11    1    3    3    0    0  0.46723533906E+01 -0.11529217934E+02 -0.25638195481E+00  0.12442647802E+02  0.51100000000E-03 0.  1.
         12    1    3    3    0    0  0.63284078395E-02  0.27289756110E+02 -0.11194134760E+02  0.29496431676E+02  0.00000000000E+00 0. -1.
</event>
<event>
 7    1  0.5662448E-012  0.5930194E+02  0.7816164E-02  0.1266605E+00
        -11   -1    0    0    0    0  0.00000000000E+00  0.00000000000E+00  0.45593999997E+02  0.45594000000E+02  0.51100000000E-03 0.  1.
         11   -1    0    0    0    0 -0.00000000000E+00 -0.00000000000E+00 -0.45593999997E+02  0.45594000000E+02  0.51100000000E-03 0. -1.
    9900012    2    1    2    0    0  0.98478040577E+01 -0.29589528223E+02 -0.66484281175E+01  0.59301936874E+02  0.49999986953E+02 0.  0.
         12    1    1    2    0    0 -0.98478040577E+01  0.29589528223E+02  0.66484281175E+01  0.31886063126E+02  0.00000000000E+00 0. -1.
         11    1    3    3    0    0 -0.35122506382E+01  0.12784433347E+02  0.28491441559E+01  0.13560798768E+02  0.51100000000E-03 0. -1.
        -11    1    3    3    0    0  0.30721318503E+00 -0.36489457922E+01 -0.20684356631E+01  0.42056642387E+01  0.51100000000E-03 0.  1.
         12    1    3    3    0    0  0.13052841511E+02 -0.38725015779E+02 -0.74291366103E+01  0.41535473867E+02  0.00000000000E+00 0. -1.
</event>
<event>
 7    1  0.5662448E-012  0.5930194E+02  0.7816164E-02  0.1266605E+00
        -11   -1    0    0    0    0  0.00000000000E+00  0.00000000000E+00  0.45593999997E+02  0.45594000000E+02  0.51100000000E-03 0. -1.
         11   -1    0    0    0    0 -0.00000000000E+00 -0.00000000000E+00 -0.45593999997E+02  0.45594000000E+02  0.51100000000E-03 0.  1.
    9900012    2    1    2    0    0 -0.14904775953E+02  0.46388918469E+01 -0.27803762495E+02  0.59301939210E+02  0.49999991214E+02 0.  0.
         12    1    1    2    0    0  0.14904775953E+02 -0.46388918469E+01  0.27803762495E+02  0.31886060790E+02  0.00000000000E+00 0. -1.
         11    1    3    3    0    0 -0.16961354084E+01 -0.65895134035E+01 -0.19386744794E+02  0.20546153805E+02  0.51100000000E-03 0.  1.
        -11    1    3    3    0    0 -0.43448861016E+01  0.20439362106E+02  0.36083957166E+01  0.21205331368E+02  0.51100000000E-03 0. -1.
         12    1    3    3    0    0 -0.88637544432E+01 -0.92109568557E+01 -0.12025413418E+02  0.17550454037E+02  0.00000000000E+00 0. -1.
</event>
<event>
 7    1  0.5662448E-012  0.5930197E+02  0.7816164E-02  0.1266605E+00
        -11   -1    0    0    0    0  0.00000000000E+00  0.00000000000E+00  0.45593999997E+02  0.45594000000E+02  0.51100000000E-03 0. -1.
         11   -1    0    0    0    0 -0.00000000000E+00 -0.00000000000E+00 -0.45593999997E+02  0.45594000000E+02  0.51100000000E-03 0.  1.
    9900012    2    1    2    0    0  0.75953886472E+01 -0.71238326522E+01 -0.30137688825E+02  0.59301965313E+02  0.50000038819E+02 0.  0.
         12    1    1    2    0    0 -0.75953886472E+01  0.71238326522E+01  0.30137688825E+02  0.31886034687E+02  0.00000000000E+00 0. -1.
         11    1    3    3    0    0  0.49509797133E+00  0.79369016460E+01  0.16824529880E+01  0.81283564180E+01  0.51100000000E-03 0. -1.
        -11    1    3    3    0    0 -0.20127269012E+01 -0.40094023888E+00  0.77421830598E+01  0.80095706156E+01  0.51100000000E-03 0.  1.
        -12    1    3    3    0    0  0.91130175771E+01 -0.14659794059E+02 -0.39562324873E+02  0.43164038279E+02  0.00000000000E+00 0.  1.
</event>
<event>
 7    1  0.5662448E-012  0.5930190E+02  0.7816164E-02  0.1266605E+00
        -11   -1    0    0    0    0  0.00000000000E+00  0.00000000000E+00  0.45593999997E+02  0.45594000000E+02  0.51100000000E-03 0. -1.
         11   -1    0    0    0    0 -0.00000000000E+00 -0.00000000000E+00 -0.45593999997E+02  0.45594000000E+02  0.51100000000E-03 0.  1.
    9900012    2    1    2    0    0 -0.28629541292E+02 -0.88752157373E+01 -0.10876729576E+02  0.59301900595E+02  0.49999920789E+02 0.  0.
         12    1    1    2    0    0  0.28629541292E+02  0.88752157373E+01  0.10876729576E+02  0.31886099405E+02  0.00000000000E+00 0. -1.
         11    1    3    3    0    0  0.55304228332E+01  0.46304415023E+01 -0.87369221696E+01  0.11329623757E+02  0.51100000000E-03 0. -1.
        -11    1    3    3    0    0 -0.10867255754E+02  0.10044922397E+02 -0.44605189838E+00  0.14805292166E+02  0.51100000000E-03 0.  1.
        -12    1    3    3    0    0 -0.23292708371E+02 -0.23550579636E+02 -0.16937555085E+01  0.33166984672E+02  0.00000000000E+00 0.  1.
</event>
<event>
 7    1  0.5662448E-012  0.5930192E+02  0.7816164E-02  0.1266605E+00
        -11   -1    0    0    0    0  0.00000000000E+00  0.00000000000E+00  0.45593999997E+02  0.45594000000E+02  0.51100000000E-03 0.  1.
         11   -1    0    0    0    0 -0.00000000000E+00 -0.00000000000E+00 -0.45593999997E+02  0.45594000000E+02  0.51100000000E-03 0. -1.
    9900012    2    1    2    0    0 -0.20784334614E+02 -0.53172723120E+01  0.23589404115E+02  0.59301922527E+02  0.49999960787E+02 0.  0.
         12    1    1    2    0    0  0.20784334614E+02  0.53172723120E+01 -0.23589404115E+02  0.31886077473E+02  0.00000000000E+00 0. -1.
         11    1    3    3    0    0 -0.18478198447E+02 -0.63722309912E+01  0.27325139809E+02  0.33596315445E+02  0.51100000000E-03 0. -1.
        -11    1    3    3    0    0  0.30880984131E+01  0.10179373405E+02  0.52014242993E+01  0.11841064552E+02  0.51100000000E-03 0.  1.
         12    1    3    3    0    0 -0.53942345799E+01 -0.91244147258E+01 -0.89371599938E+01  0.13864542529E+02  0.00000000000E+00 0. -1.
</event>
<event>
 7    1  0.5662448E-012  0.5930194E+02  0.7816164E-02  0.1266605E+00
        -11   -1    0    0    0    0  0.00000000000E+00  0.00000000000E+00  0.45593999997E+02  0.45594000000E+02  0.51100000000E-03 0.  1.
         11   -1    0    0    0    0 -0.00000000000E+00 -0.00000000000E+00 -0.45593999997E+02  0.45594000000E+02  0.51100000000E-03 0. -1.
    9900012    2    1    2    0    0  0.82559381836E+01  0.24030509992E+02  0.19263825867E+02  0.59301938581E+02  0.49999990067E+02 0.  0.
         12    1    1    2    0    0 -0.82559381836E+01 -0.24030509992E+02 -0.19263825867E+02  0.31886061419E+02  0.00000000000E+00 0. -1.
         11    1    3    3    0    0  0.59422850178E+01  0.13282036104E+02 -0.11535566052E+00  0.14551169764E+02  0.51100000000E-03 0. -1.
        -11    1    3    3    0    0  0.80005991720E+01 -0.60364414730E+01  0.24360673339E+02  0.26341803631E+02  0.51100000000E-03 0.  1.
         12    1    3    3    0    0 -0.56869460062E+01  0.16784915361E+02 -0.49814918112E+01  0.18408965186E+02  0.00000000000E+00 0. -1.
</event>
<event>
 7    1  0.5662448E-012  0.5930197E+02  0.7816164E-02  0.1266605E+00
        -11   -1    0    0    0    0  0.00000000000E+00  0.00000000000E+00  0.45593999997E+02  0.45594000000E+02  0.51100000000E-03 0.  1.
         11   -1    0    0    0    0 -0.00000000000E+00 -0.00000000000E+00 -0.45593999997E+02  0.45594000000E+02  0.51100000000E-03 0. -1.
    9900012    2    1    2    0    0 -0.31724307152E+02 -0.18249946535E+01  0.26375917293E+01  0.59301966068E+02  0.50000040197E+02 0.  0.
         12    1    1    2    0    0  0.31724307152E+02  0.18249946535E+01 -0.26375917293E+01  0.31886033932E+02  0.00000000000E+00 0. -1.
         11    1    3    3    0    0 -0.31157297549E+01 -0.93811596616E+01  0.45535533880E+01  0.10883417534E+02  0.51100000000E-03 0. -1.
        -11    1    3    3    0    0 -0.28273775726E+02 -0.63134920943E+01  0.94617638643E+01  0.30476081637E+02  0.51100000000E-03 0.  1.
         12    1    3    3    0    0 -0.33480167061E+00  0.13869657102E+02 -0.11377725523E+02  0.17942466898E+02  0.00000000000E+00 0. -1.
</event>
<event>
 7    1  0.5662448E-012  0.5930196E+02  0.7816164E-02  0.1266605E+00
        -11   -1    0    0    0    0  0.00000000000E+00  0.00000000000E+00  0.45593999997E+02  0.45594000000E+02  0.51100000000E-03 0. -1.
         11   -1    0    0    0    0 -0.00000000000E+00 -0.00000000000E+00 -0.45593999997E+02  0.45594000000E+02  0.51100000000E-03 0.  1.
    9900012    2    1    2    0    0  0.67008367589E+01  0.10281091638E+02 -0.29429871766E+02  0.59301962136E+02  0.50000033025E+02 0.  0.
         12    1    1    2    0    0 -0.67008367589E+01 -0.10281091638E+02  0.29429871766E+02  0.31886037864E+02  0.00000000000E+00 0. -1.
         11    1    3    3    0    0  0.25706817421E+01  0.10188312730E+02  0.39652136840E+01  0.11230896702E+02  0.51100000000E-03 0. -1.
        -11    1    3    3    0    0  0.13991001517E+02 -0.53453392526E+01 -0.24959449657E+01  0.15183890039E+02  0.51100000000E-03 0.  1.
        -12    1    3    3    0    0 -0.98608465001E+01  0.54381181603E+01 -0.30899140484E+02  0.32887175395E+02  0.00000000000E+00 0.  1.
</event>
<event>
 7    1  0.5662448E-012  0.5930191E+02  0.7816164E-02  0.1266605E+00
        -11   -1    0    0    0    0  0.00000000000E+00  0.00000000000E+00  0.45593999997E+02  0.45594000000E+02  0.51100000000E-03 0. -1.
         11   -1    0    0    0    0 -0.00000000000E+00 -0.00000000000E+00 -0.45593999997E+02  0.45594000000E+02  0.51100000000E-03 0.  1.
    9900012    2    1    2    0    0 -0.28621872427E+02  0.51629863655E+01 -0.13071138255E+02  0.59301911109E+02  0.49999939965E+02 0.  0.
         12    1    1    2    0    0  0.28621872427E+02 -0.51629863655E+01  0.13071138255E+02  0.31886088891E+02  0.00000000000E+00 0. -1.
         11    1    3    3    0    0  0.33627196207E+01 -0.41062069930E+01  0.54302480378E+01  0.75931820161E+01  0.51100000000E-03 0. -1.
        -11    1    3    3    0    0 -0.17181235038E+02 -0.32205309285E+01  0.77203754615E+01  0.19109444116E+02  0.51100000000E-03 0.  1.
        -12    1    3    3    0    0 -0.14803357010E+02  0.12489724287E+02 -0.26221761755E+02  0.32599284978E+02  0.00000000000E+00 0.  1.
</event>
<event>
 7    1  0.5662448E-012  0.5930187E+02  0.7816164E-02  0.1266605E+00
        -11   -1    0    0    0    0  0.00000000000E+00  0.00000000000E+00  0.45593999997E+02  0.45594000000E+02  0.51100000000E-03 0.  1.
         11   -1    0    0    0    0 -0.00000000000E+00 -0.00000000000E+00 -0.45593999997E+02  0.45594000000E+02  0.51100000000E-03 0. -1.
    9900012    2    1    2    0    0 -0.94009702130E+01 -0.12942992093E+02  0.27583078477E+02  0.59301866594E+02  0.49999858780E+02 0.  0.
         12    1    1    2    0    0  0.94009702130E+01  0.12942992093E+02 -0.27583078477E+02  0.31886133406E+02  0.00000000000E+00 0. -1.
         11    1    3    3    0    0  0.70187241837E+00 -0.15094327837E+02 -0.43060151069E+01  0.15712196668E+02  0.51100000000E-03 0. -1.
        -11    1    3    3    0    0 -0.44584533168E+01 -0.10387939731E+02  0.26517849251E+02  0.28826783154E+02  0.51100000000E-03 0.  1.
        -12    1    3    3    0    0 -0.56443893146E+01  0.12539275476E+02  0.53712443332E+01  0.14762886773E+02  0.00000000000E+00 0.  1.
</event>
<event>
 7    1  0.5662448E-012  0.5930195E+02  0.7816164E-02  0.1266605E+00
        -11   -1    0    0    0    0  0.00000000000E+00  0.00000000000E+00  0.45593999997E+02  0.45594000000E+02  0.51100000000E-03 0.  1.
         11   -1    0    0    0    0 -0.00000000000E+00 -0.00000000000E+00 -0.45593999997E+02  0.45594000000E+02  0.51100000000E-03 0. -1.
    9900012    2    1    2    0    0 -0.27798957078E+02 -0.14725716394E+02  0.52049534900E+01  0.59301948523E+02  0.50000008199E+02 0.  0.
         12    1    1    2    0    0  0.27798957078E+02  0.14725716394E+02 -0.52049534900E+01  0.31886051477E+02  0.00000000000E+00 0. -1.
         11    1    3    3    0    0  0.89336345238E+01 -0.80384016967E+01  0.75813582707E+01  0.14209247733E+02  0.51100000000E-03 0. -1.
        -11    1    3    3    0    0 -0.19900105436E+02 -0.16081997895E+02 -0.32764564534E+01  0.25794961132E+02  0.51100000000E-03 0.  1.
        -12    1    3    3    0    0 -0.16832486166E+02  0.93946831977E+01  0.90005167275E+00  0.19297739658E+02  0.00000000000E+00 0.  1.
</event>
<event>
 7    1  0.5662448E-012  0.5930200E+02  0.7816164E-02  0.1266605E+00
        -11   -1    0    0    0    0  0.00000000000E+00  0.00000000000E+00  0.45593999997E+02  0.45594000000E+02  0.51100000000E-03 0.  1.
         11   -1    0    0    0    0 -0.00000000000E+00 -0.00000000000E+00 -0.45593999997E+02  0.45594000000E+02  0.51100000000E-03 0. -1.
    9900012    2    1    2    0    0  0.11863342155E+02 -0.22300654358E+01  0.29512792273E+02  0.59302000146E+02  0.50000102346E+02 0.  0.
         12    1    1    2    0    0 -0.11863342155E+02  0.22300654358E+01 -0.29512792273E+02  0.31885999854E+02  0.00000000000E+00 0. -1.
         11    1    3    3    0    0  0.23863216077E+01  0.63668526553E+01  0.27527416679E+01  0.73354570752E+01  0.51100000000E-03 0. -1.
        -11    1    3    3    0    0  0.13375882812E+02  0.92588118705E+01  0.29301309749E+02  0.33514274444E+02  0.51100000000E-03 0.  1.
        -12    1    3    3    0    0 -0.38988622648E+01 -0.17855729962E+02 -0.25412591439E+01  0.18452268626E+02  0.00000000000E+00 0.  1.
</event>
<event>
 7    1  0.5662448E-012  0.5930214E+02  0.7816164E-02  0.1266604E+00
        -11   -1    0    0    0    0  0.00000000000E+00  0.00000000000E+00  0.45593999997E+02  0.45594000000E+02  0.51100000000E-03 0.  1.
         11   -1    0    0    0    0 -0.00000000000E+00 -0.00000000000E+00 -0.45593999997E+02  0.45594000000E+02  0.51100000000E-03 0. -1.
    9900012    2    1    2    0    0 -0.22675835171E+02 -0.20770606016E+02 -0.84318595590E+01  0.59302143722E+02  0.50000364193E+02 0.  0.
         12    1    1    2    0    0  0.22675835171E+02  0.20770606016E+02  0.84318595590E+01  0.31885856278E+02  0.00000000000E+00 0. -1.
         11    1    3    3    0    0 -0.12577052475E+02 -0.17315591800E+02 -0.78124312123E+01  0.22782582164E+02  0.51100000000E-03 0. -1.
        -11    1    3    3    0    0  0.11722038176E+02 -0.61260309354E+01 -0.49337520594E+01  0.14116527323E+02  0.51100000000E-03 0.  1.
        -12    1    3    3    0    0 -0.21820820872E+02  0.26710167198E+01  0.43143237128E+01  0.22403034235E+02  0.00000000000E+00 0.  1.
</event>
<event>
 7    1  0.5662448E-012  0.5930190E+02  0.7816164E-02  0.1266605E+00
        -11   -1    0    0    0    0  0.00000000000E+00  0.00000000000E+00  0.45593999997E+02  0.45594000000E+02  0.51100000000E-03 0.  1.
         11   -1    0    0    0    0 -0.00000000000E+00 -0.00000000000E+00 -0.45593999997E+02  0.45594000000E+02  0.51100000000E-03 0. -1.
    9900012    2    1    2    0    0 -0.20105363690E+02  0.22536143110E+02  0.10228380030E+02  0.59301903446E+02  0.49999925989E+02 0.  0.
         12    1    1    2    0    0  0.20105363690E+02 -0.22536143110E+02 -0.10228380030E+02  0.31886096554E+02  0.00000000000E+00 0. -1.
         11    1    3    3    0    0 -0.16714469572E+01 -0.68461649504E+01  0.26748685844E+00  0.70523229464E+01  0.51100000000E-03 0. -1.
        -11    1    3    3    0    0  0.33127094834E+01 -0.12792414283E+01  0.13999384725E+02  0.14442758591E+02  0.51100000000E-03 0.  1.
         12    1    3    3    0    0 -0.21746626216E+02  0.30661549489E+02 -0.40384915541E+01  0.37806821909E+02  0.00000000000E+00 0. -1.
</event>
<event>
 7    1  0.5662448E-012  0.5930197E+02  0.7816164E-02  0.1266605E+00
        -11   -1    0    0    0    0  0.00000000000E+00  0.00000000000E+00  0.45593999997E+02  0.45594000000E+02  0.51100000000E-03 0.  1.
         11   -1    0    0    0    0 -0.00000000000E+00 -0.00000000000E+00 -0.45593999997E+02  0.45594000000E+02  0.51100000000E-03 0. -1.
    9900012    2    1    2    0    0 -0.22971634491E+02  0.55533175006E+01  0.21405224806E+02  0.59301968961E+02  0.50000045472E+02 0.  0.
         12    1    1    2    0    0  0.22971634491E+02 -0.55533175006E+01 -0.21405224806E+02  0.31886031039E+02  0.00000000000E+00 0. -1.
         11    1    3    3    0    0 -0.14061756613E+02  0.19959748000E+02  0.10562930106E+02  0.26602632049E+02  0.51100000000E-03 0. -1.
        -11    1    3    3    0    0 -0.11159157628E+02 -0.38320889557E+01  0.16665877217E+02  0.20419676011E+02  0.51100000000E-03 0.  1.
         12    1    3    3    0    0  0.22492797498E+01 -0.10574341544E+02 -0.58235825173E+01  0.12279660900E+02  0.00000000000E+00 0. -1.
</event>
<event>
 7    1  0.5662448E-012  0.5930208E+02  0.7816164E-02  0.1266604E+00
        -11   -1    0    0    0    0  0.00000000000E+00  0.00000000000E+00  0.45593999997E+02  0.45594000000E+02  0.51100000000E-03 0.  1.
         11   -1    0    0    0    0 -0.00000000000E+00 -0.00000000000E+00 -0.45593999997E+02  0.45594000000E+02  0.51100000000E-03 0. -1.
    9900012    2    1    2    0    0  0.16174671768E+02  0.10303253597E+02  0.25474194823E+02  0.59302083934E+02  0.50000255155E+02 0.  0.
         12    1    1    2    0    0 -0.16174671768E+02 -0.10303253597E+02 -0.25474194823E+02  0.31885916066E+02  0.00000000000E+00 0. -1.
         11    1    3    3    0    0 -0.15896486485E+01  0.16757855840E+02  0.12357190482E+02  0.20881879035E+02  0.51100000000E-03 0. -1.
        -11    1    3    3    0    0  0.22192980475E+02  0.41186390580E+01  0.14568986363E+02  0.26865348201E+02  0.51100000000E-03 0.  1.
         12    1    3    3    0    0 -0.44286600581E+01 -0.10573241301E+02 -0.14519820217E+01  0.11554856698E+02  0.00000000000E+00 0. -1.
</event>
<event>
 7    1  0.5662448E-012  0.5930196E+02  0.7816164E-02  0.1266605E+00
        -11   -1    0    0    0    0  0.00000000000E+00  0.00000000000E+00  0.45593999997E+02  0.45594000000E+02  0.51100000000E-03 0. -1.
         11   -1    0    0    0    0 -0.00000000000E+00 -0.00000000000E+00 -0.45593999997E+02  0.45594000000E+02  0.51100000000E-03 0.  1.
    9900012    2    1    2    0    0 -0.74285887632E+01 -0.30530406036E+01 -0.30857974970E+02  0.59301959054E+02  0.50000027405E+02 0.  0.
         12    1    1    2    0    0  0.74285887632E+01  0.30530406036E+01  0.30857974970E+02  0.31886040946E+02  0.00000000000E+00 0. -1.
         11    1    3    3    0    0  0.91006438691E+00  0.50004510613E+01 -0.15216792588E+01  0.53054911207E+01  0.51100000000E-03 0. -1.
        -11    1    3    3    0    0 -0.18557696317E+02  0.78211798771E+01 -0.28758015345E+02  0.35108152816E+02  0.51100000000E-03 0.  1.
        -12    1    3    3    0    0  0.10219043167E+02 -0.15874671542E+02 -0.57828036594E+00  0.18888315118E+02  0.00000000000E+00 0.  1.
</event>
<event>
 7    1  0.5662448E-012  0.5930195E+02  0.7816164E-02  0.1266605E+00
        -11   -1    0    0    0    0  0.00000000000E+00  0.00000000000E+00  0.45593999997E+02  0.45594000000E+02  0.51100000000E-03 0. -1.
         11   -1    0    0    0    0 -0.00000000000E+00 -0.00000000000E+00 -0.45593999997E+02  0.45594000000E+02  0.51100000000E-03 0.  1.
    9900012    2    1    2    0    0  0.44023444931E+01 -0.31467800575E+02 -0.26677898256E+01  0.59301949561E+02  0.50000010091E+02 0.  0.
         12    1    1    2    0    0 -0.44023444931E+01  0.31467800575E+02  0.26677898256E+01  0.31886050439E+02  0.00000000000E+00 0. -1.
         11    1    3    3    0    0 -0.94459618077E+00 -0.55761690014E+01  0.18004847355E+02  0.18872213734E+02  0.51100000000E-03 0. -1.
        -11    1    3    3    0    0  0.11420960341E+02 -0.49447268362E+01 -0.43330786606E+01  0.13178172466E+02  0.51100000000E-03 0.  1.
        -12    1    3    3    0    0 -0.60740196676E+01 -0.20946904737E+02 -0.16339558520E+02  0.27251563361E+02  0.00000000000E+00 0.  1.
</event>
<event>
 7    1  0.5662448E-012  0.5930192E+02  0.7816164E-02  0.1266605E+00
        -11   -1    0    0    0    0  0.00000000000E+00  0.00000000000E+00  0.45593999997E+02  0.45594000000E+02  0.51100000000E-03 0.  1.
         11   -1    0    0    0    0 -0.00000000000E+00 -0.00000000000E+00 -0.45593999997E+02  0.45594000000E+02  0.51100000000E-03 0. -1.
    9900012    2    1    2    0    0 -0.24754051434E+02  0.15142555938E+02  0.13215975559E+02  0.59301920393E+02  0.49999956897E+02 0.  0.
         12    1    1    2    0    0  0.24754051434E+02 -0.15142555938E+02 -0.13215975559E+02  0.31886079607E+02  0.00000000000E+00 0. -1.
         11    1    3    3    0    0 -0.14811772549E+02  0.11176165909E+02 -0.28069135993E+01  0.18766301039E+02  0.51100000000E-03 0. -1.
        -11    1    3    3    0    0 -0.22908365433E+02  0.30229177296E+01  0.53569120769E+01  0.23719775413E+02  0.51100000000E-03 0.  1.
         12    1    3    3    0    0  0.12966086548E+02  0.94347229948E+00  0.10665977081E+02  0.16815843941E+02  0.00000000000E+00 0. -1.
</event>
<event>
 7    1  0.5662448E-012  0.5930196E+02  0.7816164E-02  0.1266605E+00
        -11   -1    0    0    0    0  0.00000000000E+00  0.00000000000E+00  0.45593999997E+02  0.45594000000E+02  0.51100000000E-03 0. -1.
         11   -1    0    0    0    0 -0.00000000000E+00 -0.00000000000E+00 -0.45593999997E+02  0.45594000000E+02  0.51100000000E-03 0.  1.
    9900012    2    1    2    0    0 -0.15455353859E+02 -0.20247874738E+02 -0.19180064842E+02  0.59301964159E+02  0.50000036714E+02 0.  0.
         12    1    1    2    0    0  0.15455353859E+02  0.20247874738E+02  0.19180064842E+02  0.31886035841E+02  0.00000000000E+00 0. -1.
         11    1    3    3    0    0  0.74029639130E+01  0.33301695854E+01  0.89888477163E+01  0.12111700446E+02  0.51100000000E-03 0. -1.
        -11    1    3    3    0    0  0.19035800941E+01 -0.24503590753E+01 -0.87582556478E+01  0.92916585724E+01  0.51100000000E-03 0.  1.
         12    1    3    3    0    0 -0.24761897866E+02 -0.21127685248E+02 -0.19410656911E+02  0.37898605140E+02  0.00000000000E+00 0. -1.
</event>
<event>
 7    1  0.5662448E-012  0.5930194E+02  0.7816164E-02  0.1266605E+00
        -11   -1    0    0    0    0  0.00000000000E+00  0.00000000000E+00  0.45593999997E+02  0.45594000000E+02  0.51100000000E-03 0.  1.
         11   -1    0    0    0    0 -0.00000000000E+00 -0.00000000000E+00 -0.45593999997E+02  0.45594000000E+02  0.51100000000E-03 0. -1.
    9900012    2    1    2    0    0 -0.13838086082E+02 -0.14664991915E+02  0.24701546833E+02  0.59301936740E+02  0.49999986709E+02 0.  0.
         12    1    1    2    0    0  0.13838086082E+02  0.14664991915E+02 -0.24701546833E+02  0.31886063260E+02  0.00000000000E+00 0. -1.
         11    1    3    3    0    0 -0.18895920578E+02 -0.12569851992E+02  0.28413493714E+02  0.36364592929E+02  0.51100000000E-03 0. -1.
        -11    1    3    3    0    0  0.86417223068E+00  0.74642578277E-01  0.91732973240E+01  0.92142145197E+01  0.51100000000E-03 0.  1.
         12    1    3    3    0    0  0.41936622654E+01 -0.21697825014E+01 -0.12885244205E+02  0.13723129291E+02  0.00000000000E+00 0. -1.
</event>
<event>
 7    1  0.5662448E-012  0.5930194E+02  0.7816164E-02  0.1266605E+00
        -11   -1    0    0    0    0  0.00000000000E+00  0.00000000000E+00  0.45593999997E+02  0.45594000000E+02  0.51100000000E-03 0.  1.
         11   -1    0    0    0    0 -0.00000000000E+00 -0.00000000000E+00 -0.45593999997E+02  0.45594000000E+02  0.51100000000E-03 0. -1.
    9900012    2    1    2    0    0 -0.13276157198E+02  0.24876500802E+02  0.14887042102E+02  0.59301942472E+02  0.49999997164E+02 0.  0.
         12    1    1    2    0    0  0.13276157198E+02 -0.24876500802E+02 -0.14887042102E+02  0.31886057528E+02  0.00000000000E+00 0. -1.
         11    1    3    3    0    0 -0.63629377510E+00 -0.42133842238E+01 -0.24512797886E+01  0.49159179457E+01  0.51100000000E-03 0. -1.
        -11    1    3    3    0    0 -0.17981008724E+02  0.33530273483E+01 -0.59847508451E+01  0.19245173682E+02  0.51100000000E-03 0.  1.
        -12    1    3    3    0    0  0.53411453008E+01  0.25736857678E+02  0.23323072735E+02  0.35140850844E+02  0.00000000000E+00 0.  1.
</event>
<event>
 7    1  0.5662448E-012  0.5930226E+02  0.7816164E-02  0.1266604E+00
        -11   -1    0    0    0    0  0.00000000000E+00  0.00000000000E+00  0.45593999997E+02  0.45594000000E+02  0.51100000000E-03 0. -1.
         11   -1    0    0    0    0 -0.00000000000E+00 -0.00000000000E+00 -0.45593999997E+02  0.45594000000E+02  0.51100000000E-03 0.  1.
    9900012    2    1    2    0    0  0.31749596437E+02 -0.21762473379E+01  0.19818257662E+01  0.59302257735E+02  0.50000572124E+02 0.  0.
         12    1    1    2    0    0 -0.31749596437E+02  0.21762473379E+01 -0.19818257662E+01  0.31885742265E+02  0.00000000000E+00 0. -1.
         11    1    3    3    0    0  0.89727468710E+01  0.87727735374E+01 -0.91890111739E+01  0.15553445553E+02  0.51100000000E-03 0. -1.
        -11    1    3    3    0    0  0.27880990394E+02 -0.18298127848E+02  0.86497656586E+01  0.34452714760E+02  0.51100000000E-03 0.  1.
         12    1    3    3    0    0 -0.51041408278E+01  0.73491069729E+01  0.25210712815E+01  0.92960974229E+01  0.00000000000E+00 0. -1.
</event>
<event>
 7    1  0.5662448E-012  0.5930196E+02  0.7816164E-02  0.1266605E+00
        -11   -1    0    0    0    0  0.00000000000E+00  0.00000000000E+00  0.45593999997E+02  0.45594000000E+02  0.51100000000E-03 0.  1.
         11   -1    0    0    0    0 -0.00000000000E+00 -0.00000000000E+00 -0.45593999997E+02  0.45594000000E+02  0.51100000000E-03 0. -1.
    9900012    2    1    2    0    0 -0.29204393101E+02  0.10419130492E+02 -0.74340322605E+01  0.59301957720E+02  0.50000024972E+02 0.  0.
         12    1    1    2    0    0  0.29204393101E+02 -0.10419130492E+02  0.74340322605E+01  0.31886042280E+02  0.00000000000E+00 0. -1.
         11    1    3    3    0    0 -0.95231239511E+01  0.14581057201E+01 -0.98114282065E+01  0.13750639468E+02  0.51100000000E-03 0. -1.
        -11    1    3    3    0    0 -0.25493602814E+01  0.15426022618E+02 -0.13998163400E+02  0.20985947453E+02  0.51100000000E-03 0.  1.
        -12    1    3    3    0    0 -0.17131908869E+02 -0.64649978464E+01  0.16375559346E+02  0.24565370799E+02  0.00000000000E+00 0.  1.
</event>
<event>
 7    1  0.5662448E-012  0.5930194E+02  0.7816164E-02  0.1266605E+00
        -11   -1    0    0    0    0  0.00000000000E+00  0.00000000000E+00  0.45593999997E+02  0.45594000000E+02  0.51100000000E-03 0. -1.
         11   -1    0    0    0    0 -0.00000000000E+00 -0.00000000000E+00 -0.45593999997E+02  0.45594000000E+02  0.51100000000E-03 0.  1.
    9900012    2    1    2    0    0 -0.17009518317E+02 -0.99705354405E+00 -0.26951861773E+02  0.59301942197E+02  0.49999996662E+02 0.  0.
         12    1    1    2    0    0  0.17009518317E+02  0.99705354405E+00  0.26951861773E+02  0.31886057803E+02  0.00000000000E+00 0. -1.
         11    1    3    3    0    0 -0.10288558215E+00 -0.12400331800E+02 -0.26106269911E+01  0.12672576208E+02  0.51100000000E-03 0. -1.
        -11    1    3    3    0    0 -0.80525930067E+01 -0.78035033669E+01 -0.22819025779E+02  0.25425319205E+02  0.51100000000E-03 0.  1.
         12    1    3    3    0    0 -0.88540397280E+01  0.19206781623E+02 -0.15222090036E+01  0.21204046785E+02  0.00000000000E+00 0. -1.
</event>
<event>
 7    1  0.5662448E-012  0.5930195E+02  0.7816164E-02  0.1266605E+00
        -11   -1    0    0    0    0  0.00000000000E+00  0.00000000000E+00  0.45593999997E+02  0.45594000000E+02  0.51100000000E-03 0.  1.
         11   -1    0    0    0    0 -0.00000000000E+00 -0.00000000000E+00 -0.45593999997E+02  0.45594000000E+02  0.51100000000E-03 0. -1.
    9900012    2    1    2    0    0  0.26518806611E+02  0.16812068156E+02  0.55522451599E+01  0.59301950290E+02  0.50000011422E+02 0.  0.
         12    1    1    2    0    0 -0.26518806611E+02 -0.16812068156E+02 -0.55522451599E+01  0.31886049710E+02  0.00000000000E+00 0. -1.
         11    1    3    3    0    0  0.82422896392E+00  0.16827034443E+02 -0.46671130853E+01  0.17481715772E+02  0.51100000000E-03 0. -1.
        -11    1    3    3    0    0  0.12560166064E+02  0.14538789905E+02 -0.98866637215E+00  0.19238285914E+02  0.51100000000E-03 0.  1.
         12    1    3    3    0    0  0.13134411584E+02 -0.14553756192E+02  0.11208024617E+02  0.22581948604E+02  0.00000000000E+00 0. -1.
</event>
<event>
 7    1  0.5662448E-012  0.5930206E+02  0.7816164E-02  0.1266604E+00
        -11   -1    0    0    0    0  0.00000000000E+00  0.00000000000E+00  0.45593999997E+02  0.45594000000E+02  0.51100000000E-03 0.  1.
         11   -1    0    0    0    0 -0.00000000000E+00 -0.00000000000E+00 -0.45593999997E+02  0.45594000000E+02  0.51100000000E-03 0. -1.
    9900012    2    1    2    0    0 -0.30911984586E+02 -0.67324969174E+01 -0.39794424437E+01  0.59302058459E+02  0.50000208695E+02 0.  0.
         12    1    1    2    0    0  0.30911984586E+02  0.67324969174E+01  0.39794424437E+01  0.31885941541E+02  0.00000000000E+00 0. -1.
         11    1    3    3    0    0 -0.50333171647E+01  0.13786828271E+02 -0.78571095274E+01  0.16647675088E+02  0.51100000000E-03 0. -1.
        -11    1    3    3    0    0  0.19205804522E+01 -0.89058605150E+01 -0.60463469107E+01  0.10934408626E+02  0.51100000000E-03 0.  1.
        -12    1    3    3    0    0 -0.27799247873E+02 -0.11613464673E+02  0.99240139944E+01  0.31719974745E+02  0.00000000000E+00 0.  1.
</event>
<event>
 7    1  0.5662448E-012  0.5930194E+02  0.7816164E-02  0.1266605E+00
        -11   -1    0    0    0    0  0.00000000000E+00  0.00000000000E+00  0.45593999997E+02  0.45594000000E+02  0.51100000000E-03 0.  1.
         11   -1    0    0    0    0 -0.00000000000E+00 -0.00000000000E+00 -0.45593999997E+02  0.45594000000E+02  0.51100000000E-03 0. -1.
    9900012    2    1    2    0    0  0.61190933623E+01  0.86867024704E+01  0.30063581767E+02  0.59301936398E+02  0.49999986085E+02 0.  0.
         12    1    1    2    0    0 -0.61190933623E+01 -0.86867024704E+01 -0.30063581767E+02  0.31886063602E+02  0.00000000000E+00 0. -1.
         11    1    3    3    0    0  0.49051616515E+01  0.11371358150E+02 -0.12026713652E+01  0.12442460194E+02  0.51100000000E-03 0. -1.
        -11    1    3    3    0    0 -0.97346884604E+00  0.15698514827E+02  0.98837483988E+01  0.18576315352E+02  0.51100000000E-03 0.  1.
         12    1    3    3    0    0  0.21874005568E+01 -0.18383170507E+02  0.21382504733E+02  0.28283160852E+02  0.00000000000E+00 0. -1.
</event>
<event>
 7    1  0.5662448E-012  0.5930192E+02  0.7816164E-02  0.1266605E+00
        -11   -1    0    0    0    0  0.00000000000E+00  0.00000000000E+00  0.45593999997E+02  0.45594000000E+02  0.51100000000E-03 0.  1.
         11   -1    0    0    0    0 -0.00000000000E+00 -0.00000000000E+00 -0.45593999997E+02  0.45594000000E+02  0.51100000000E-03 0. -1.
    9900012    2    1    2    0    0  0.31076255225E+00  0.31874672496E+02 -0.79428688187E+00  0.59301918213E+02  0.49999952920E+02 0.  0.
         12    1    1    2    0    0 -0.31076255225E+00 -0.31874672496E+02  0.79428688187E+00  0.31886081787E+02  0.00000000000E+00 0. -1.
         11    1    3    3    0    0 -0.36435998101E+00  0.11205139261E+02 -0.80850105272E+01  0.13822275483E+02  0.51100000000E-03 0. -1.
        -11    1    3    3    0    0  0.14376920625E+02  0.50468935943E+01 -0.10185398354E+02  0.18327829154E+02  0.51100000000E-03 0.  1.
         12    1    3    3    0    0 -0.13701798092E+02  0.15622639641E+02  0.17476121999E+02  0.27151813575E+02  0.00000000000E+00 0. -1.
</event>
<event>
 7    1  0.5662448E-012  0.5930194E+02  0.7816164E-02  0.1266605E+00
        -11   -1    0    0    0    0  0.00000000000E+00  0.00000000000E+00  0.45593999997E+02  0.45594000000E+02  0.51100000000E-03 0.  1.
         11   -1    0    0    0    0 -0.00000000000E+00 -0.00000000000E+00 -0.45593999997E+02  0.45594000000E+02  0.51100000000E-03 0. -1.
    9900012    2    1    2    0    0  0.88567678919E+01 -0.11421596826E+02  0.28422272653E+02  0.59301940439E+02  0.49999993455E+02 0.  0.
         12    1    1    2    0    0 -0.88567678919E+01  0.11421596826E+02 -0.28422272653E+02  0.31886059561E+02  0.00000000000E+00 0. -1.
         11    1    3    3    0    0 -0.30637059025E+01 -0.73139586165E+01 -0.64667559838E+01  0.10232263568E+02  0.51100000000E-03 0. -1.
        -11    1    3    3    0    0 -0.10046172806E+02 -0.68169635208E+01  0.97130806055E+01  0.15548006779E+02  0.51100000000E-03 0.  1.
         12    1    3    3    0    0  0.21966646600E+02  0.27093253114E+01  0.25175948031E+02  0.33521670093E+02  0.00000000000E+00 0. -1.
</event>
<event>
 7    1  0.5662448E-012  0.5930194E+02  0.7816164E-02  0.1266605E+00
        -11   -1    0    0    0    0  0.00000000000E+00  0.00000000000E+00  0.45593999997E+02  0.45594000000E+02  0.51100000000E-03 0.  1.
         11   -1    0    0    0    0 -0.00000000000E+00 -0.00000000000E+00 -0.45593999997E+02  0.45594000000E+02  0.51100000000E-03 0. -1.
    9900012    2    1    2    0    0  0.23701706716E+02 -0.18937809168E+02 -0.98137210357E+01  0.59301942892E+02  0.49999997929E+02 0.  0.
         12    1    1    2    0    0 -0.23701706716E+02  0.18937809168E+02  0.98137210357E+01  0.31886057108E+02  0.00000000000E+00 0. -1.
         11    1    3    3    0    0  0.17712635597E+02 -0.95712886663E+01  0.62501869660E+01  0.21081078339E+02  0.51100000000E-03 0. -1.
        -11    1    3    3    0    0  0.39186035417E+01  0.12242636724E+02 -0.44617603821E+01  0.13606796597E+02  0.51100000000E-03 0.  1.
        -12    1    3    3    0    0  0.20704675771E+01 -0.21609157225E+02 -0.11602147620E+02  0.24614067956E+02  0.00000000000E+00 0.  1.
</event>
<event>
 7    1  0.5662448E-012  0.5930194E+02  0.7816164E-02  0.1266605E+00
        -11   -1    0    0    0    0  0.00000000000E+00  0.00000000000E+00  0.45593999997E+02  0.45594000000E+02  0.51100000000E-03 0.  1.
         11   -1    0    0    0    0 -0.00000000000E+00 -0.00000000000E+00 -0.45593999997E+02  0.45594000000E+02  0.51100000000E-03 0. -1.
    9900012    2    1    2    0    0 -0.69192228908E+01 -0.46488379039E+01  0.30777162061E+02  0.59301936527E+02  0.49999986320E+02 0.  0.
         12    1    1    2    0    0  0.69192228908E+01  0.46488379039E+01 -0.30777162061E+02  0.31886063473E+02  0.00000000000E+00 0. -1.
         11    1    3    3    0    0 -0.68223762468E+00  0.25437959138E+01  0.22703522625E+01  0.34771893082E+01  0.51100000000E-03 0. -1.
        -11    1    3    3    0    0 -0.13431867200E+02 -0.30486743275E+01  0.39623761283E+02  0.41949397255E+02  0.51100000000E-03 0.  1.
        -12    1    3    3    0    0  0.71948819341E+01 -0.41439594903E+01 -0.11116951484E+02  0.13875349963E+02  0.00000000000E+00 0.  1.
</event>
<event>
 7    1  0.5662448E-012  0.5930194E+02  0.7816164E-02  0.1266605E+00
        -11   -1    0    0    0    0  0.00000000000E+00  0.00000000000E+00  0.45593999997E+02  0.45594000000E+02  0.51100000000E-03 0.  1.
         11   -1    0    0    0    0 -0.00000000000E+00 -0.00000000000E+00 -0.45593999997E+02  0.45594000000E+02  0.51100000000E-03 0. -1.
    9900012    2    1    2    0    0  0.68144789987E+00 -0.26394338249E+02 -0.17877235828E+02  0.59301936842E+02  0.49999986896E+02 0.  0.
         12    1    1    2    0    0 -0.68144789987E+00  0.26394338249E+02  0.17877235828E+02  0.31886063158E+02  0.00000000000E+00 0. -1.
         11    1    3    3    0    0  0.69687921848E+01  0.44041116403E+01  0.53124992626E+01  0.98072887452E+01  0.51100000000E-03 0.  1.
        -11    1    3    3    0    0 -0.87332647754E+01 -0.16230454667E+01 -0.17562387431E+02  0.19680996996E+02  0.51100000000E-03 0. -1.
         12    1    3    3    0    0  0.24459204905E+01 -0.29175404423E+02 -0.56273476593E+01  0.29813651101E+02  0.00000000000E+00 0. -1.
</event>
<event>
 7    1  0.5662448E-012  0.5930197E+02  0.7816164E-02  0.1266605E+00
        -11   -1    0    0    0    0  0.00000000000E+00  0.00000000000E+00  0.45593999997E+02  0.45594000000E+02  0.51100000000E-03 0.  1.
         11   -1    0    0    0    0 -0.00000000000E+00 -0.00000000000E+00 -0.45593999997E+02  0.45594000000E+02  0.51100000000E-03 0. -1.
    9900012    2    1    2    0    0  0.28967585431E+02 -0.46589898470E+01  0.12485647726E+02  0.59301974985E+02  0.50000056459E+02 0.  0.
         12    1    1    2    0    0 -0.28967585431E+02  0.46589898470E+01 -0.12485647726E+02  0.31886025015E+02  0.00000000000E+00 0. -1.
         11    1    3    3    0    0  0.12125405901E+02 -0.17479612007E+02  0.13602739545E+02  0.25250679744E+02  0.51100000000E-03 0.  1.
        -11    1    3    3    0    0  0.11215461226E+02  0.32753068780E+01  0.12089083556E+02  0.16812499729E+02  0.51100000000E-03 0. -1.
         12    1    3    3    0    0  0.56267183045E+01  0.95453152816E+01 -0.13206175374E+02  0.17238795513E+02  0.00000000000E+00 0. -1.
</event>
<event>
 7    1  0.5662448E-012  0.5930195E+02  0.7816164E-02  0.1266605E+00
        -11   -1    0    0    0    0  0.00000000000E+00  0.00000000000E+00  0.45593999997E+02  0.45594000000E+02  0.51100000000E-03 0.  1.
         11   -1    0    0    0    0 -0.00000000000E+00 -0.00000000000E+00 -0.45593999997E+02  0.45594000000E+02  0.51100000000E-03 0. -1.
    9900012    2    1    2    0    0 -0.29586351720E+02 -0.40299114639E+01  0.11186066777E+02  0.59301945298E+02  0.50000002317E+02 0.  0.
         12    1    1    2    0    0  0.29586351720E+02  0.40299114639E+01 -0.11186066777E+02  0.31886054702E+02  0.00000000000E+00 0. -1.
         11    1    3    3    0    0  0.68365403946E+01  0.10501166200E+02 -0.21766232053E+01  0.12718115622E+02  0.51100000000E-03 0. -1.
        -11    1    3    3    0    0 -0.97255248130E+00 -0.15777877679E+01  0.82983770816E+01  0.85028427610E+01  0.51100000000E-03 0.  1.
        -12    1    3    3    0    0 -0.35450339633E+02 -0.12953289896E+02  0.50643129010E+01  0.38080986915E+02  0.00000000000E+00 0.  1.
</event>
<event>
 7    1  0.5662448E-012  0.5930214E+02  0.7816164E-02  0.1266604E+00
        -11   -1    0    0    0    0  0.00000000000E+00  0.00000000000E+00  0.45593999997E+02  0.45594000000E+02  0.51100000000E-03 0.  1.
         11   -1    0    0    0    0 -0.00000000000E+00 -0.00000000000E+00 -0.45593999997E+02  0.45594000000E+02  0.51100000000E-03 0. -1.
    9900012    2    1    2    0    0  0.13761659934E+01 -0.17964346364E+02  0.26307724615E+02  0.59302141888E+02  0.50000360849E+02 0.  0.
         12    1    1    2    0    0 -0.13761659934E+01  0.17964346364E+02 -0.26307724615E+02  0.31885858112E+02  0.00000000000E+00 0. -1.
         11    1    3    3    0    0  0.39358188058E+01 -0.30283408970E+00 -0.11717948485E+02  0.12364978573E+02  0.51100000000E-03 0. -1.
        -11    1    3    3    0    0  0.72691816573E+01 -0.10498492168E+02  0.94650161569E+01  0.15894837869E+02  0.51100000000E-03 0.  1.
        -12    1    3    3    0    0 -0.98288344697E+01 -0.71630201055E+01  0.28560656943E+02  0.31042325446E+02  0.00000000000E+00 0.  1.
</event>
<event>
 7    1  0.5662448E-012  0.5930196E+02  0.7816164E-02  0.1266605E+00
        -11   -1    0    0    0    0  0.00000000000E+00  0.00000000000E+00  0.45593999997E+02  0.45594000000E+02  0.51100000000E-03 0.  1.
         11   -1    0    0    0    0 -0.00000000000E+00 -0.00000000000E+00 -0.45593999997E+02  0.45594000000E+02  0.51100000000E-03 0. -1.
    9900012    2    1    2    0    0 -0.21117572711E+02 -0.84681968482E+00  0.23875727900E+02  0.59301962875E+02  0.50000034373E+02 0.  0.
         12    1    1    2    0    0  0.21117572711E+02  0.84681968482E+00 -0.23875727900E+02  0.31886037125E+02  0.00000000000E+00 0. -1.
         11    1    3    3    0    0 -0.20264950091E+02  0.10720579532E+02  0.79613117184E+01  0.24268941308E+02  0.51100000000E-03 0. -1.
        -11    1    3    3    0    0 -0.80283704367E+01 -0.98677626554E+01  0.22039103127E+02  0.25446994687E+02  0.51100000000E-03 0.  1.
         12    1    3    3    0    0  0.71757478167E+01 -0.16996365610E+01 -0.61246869454E+01  0.95860268802E+01  0.00000000000E+00 0. -1.
</event>
<event>
 7    1  0.5662448E-012  0.5930205E+02  0.7816164E-02  0.1266604E+00
        -11   -1    0    0    0    0  0.00000000000E+00  0.00000000000E+00  0.45593999997E+02  0.45594000000E+02  0.51100000000E-03 0.  1.
         11   -1    0    0    0    0 -0.00000000000E+00 -0.00000000000E+00 -0.45593999997E+02  0.45594000000E+02  0.51100000000E-03 0. -1.
    9900012    2    1    2    0    0 -0.23236000541E+02  0.15626623201E+02  0.15251588787E+02  0.59302046442E+02  0.50000186779E+02 0.  0.
         12    1    1    2    0    0  0.23236000541E+02 -0.15626623201E+02 -0.15251588787E+02  0.31885953558E+02  0.00000000000E+00 0. -1.
         11    1    3    3    0    0 -0.17172019188E+02  0.17157194127E+02 -0.10327983604E+02  0.26380197097E+02  0.51100000000E-03 0. -1.
        -11    1    3    3    0    0 -0.18070948447E+01  0.90181818674E+01  0.13437528674E+02  0.16283745671E+02  0.51100000000E-03 0.  1.
        -12    1    3    3    0    0 -0.42568865081E+01 -0.10548752793E+02  0.12142043717E+02  0.16638103674E+02  0.00000000000E+00 0.  1.
</event>
<event>
 7    1  0.5662448E-012  0.5930197E+02  0.7816164E-02  0.1266605E+00
        -11   -1    0    0    0    0  0.00000000000E+00  0.00000000000E+00  0.45593999997E+02  0.45594000000E+02  0.51100000000E-03 0. -1.
         11   -1    0    0    0    0 -0.00000000000E+00 -0.00000000000E+00 -0.45593999997E+02  0.45594000000E+02  0.51100000000E-03 0.  1.
    9900012    2    1    2    0    0  0.25900693997E+02  0.95972689354E+01 -0.15930022014E+02  0.59301966664E+02  0.50000041282E+02 0.  0.
         12    1    1    2    0    0 -0.25900693997E+02 -0.95972689354E+01  0.15930022014E+02  0.31886033336E+02  0.00000000000E+00 0. -1.
         11    1    3    3    0    0  0.21376752490E+01 -0.72181489992E+01 -0.47321372321E+01  0.88918194701E+01  0.51100000000E-03 0. -1.
        -11    1    3    3    0    0  0.10449131352E+02  0.31164097996E+01 -0.24711702149E+02  0.27010453151E+02  0.51100000000E-03 0.  1.
         12    1    3    3    0    0  0.13313887396E+02  0.13699008135E+02  0.13513817366E+02  0.23399694043E+02  0.00000000000E+00 0. -1.
</event>
<event>
 7    1  0.5662448E-012  0.5930189E+02  0.7816164E-02  0.1266605E+00
        -11   -1    0    0    0    0  0.00000000000E+00  0.00000000000E+00  0.45593999997E+02  0.45594000000E+02  0.51100000000E-03 0.  1.
         11   -1    0    0    0    0 -0.00000000000E+00 -0.00000000000E+00 -0.45593999997E+02  0.45594000000E+02  0.51100000000E-03 0. -1.
    9900012    2    1    2    0    0 -0.83888869260E+01 -0.85139720935E+01  0.29561175397E+02  0.59301886478E+02  0.49999895043E+02 0.  0.
         12    1    1    2    0    0  0.83888869260E+01  0.85139720935E+01 -0.29561175397E+02  0.31886113522E+02  0.00000000000E+00 0. -1.
         11    1    3    3    0    0  0.10787912039E+02  0.22801238714E-01 -0.20337021503E+01  0.10977955673E+02  0.51100000000E-03 0. -1.
        -11    1    3    3    0    0 -0.48600650762E+01 -0.18084890310E+02  0.20901966029E+02  0.28063778687E+02  0.51100000000E-03 0.  1.
        -12    1    3    3    0    0 -0.14316733889E+02  0.95481169783E+01  0.10692911519E+02  0.20260152118E+02  0.00000000000E+00 0.  1.
</event>
<event>
 7    1  0.5662448E-012  0.5930196E+02  0.7816164E-02  0.1266605E+00
        -11   -1    0    0    0    0  0.00000000000E+00  0.00000000000E+00  0.45593999997E+02  0.45594000000E+02  0.51100000000E-03 0. -1.
         11   -1    0    0    0    0 -0.00000000000E+00 -0.00000000000E+00 -0.45593999997E+02  0.45594000000E+02  0.51100000000E-03 0.  1.
    9900012    2    1    2    0    0 -0.69229851359E+01  0.30973879315E+02 -0.30676284403E+01  0.59301964385E+02  0.50000037126E+02 0.  0.
         12    1    1    2    0    0  0.69229851359E+01 -0.30973879315E+02  0.30676284403E+01  0.31886035615E+02  0.00000000000E+00 0. -1.
         11    1    3    3    0    0 -0.73251826463E+01 -0.86359523826E+01 -0.28181439945E+01  0.11669614826E+02  0.51100000000E-03 0. -1.
        -11    1    3    3    0    0  0.68000254156E+01  0.44796520209E+01 -0.76418675271E+01  0.11167173655E+02  0.51100000000E-03 0.  1.
        -12    1    3    3    0    0 -0.63978279052E+01  0.35130179677E+02  0.73923830813E+01  0.36465175903E+02  0.00000000000E+00 0.  1.
</event>
<event>
 7    1  0.5662448E-012  0.5930194E+02  0.7816164E-02  0.1266605E+00
        -11   -1    0    0    0    0  0.00000000000E+00  0.00000000000E+00  0.45593999997E+02  0.45594000000E+02  0.51100000000E-03 0.  1.
         11   -1    0    0    0    0 -0.00000000000E+00 -0.00000000000E+00 -0.45593999997E+02  0.45594000000E+02  0.51100000000E-03 0. -1.
    9900012    2    1    2    0    0 -0.14677326034E+01 -0.13101248108E+01  0.31825305930E+02  0.59301940921E+02  0.49999994335E+02 0.  0.
         12    1    1    2    0    0  0.14677326034E+01  0.13101248108E+01 -0.31825305930E+02  0.31886059079E+02  0.00000000000E+00 0. -1.
         11    1    3    3    0    0  0.57261643020E+01 -0.46057321750E+01 -0.56132965991E+01  0.92472063594E+01  0.51100000000E-03 0. -1.
        -11    1    3    3    0    0  0.12262729876E+02 -0.28865498312E+01  0.11606725433E+02  0.17129588130E+02  0.51100000000E-03 0.  1.
        -12    1    3    3    0    0 -0.19456626781E+02  0.61821571955E+01  0.25831877096E+02  0.32925146432E+02  0.00000000000E+00 0.  1.
</event>
<event>
 7    1  0.5662448E-012  0.5930195E+02  0.7816164E-02  0.1266605E+00
        -11   -1    0    0    0    0  0.00000000000E+00  0.00000000000E+00  0.45593999997E+02  0.45594000000E+02  0.51100000000E-03 0. -1.
         11   -1    0    0    0    0 -0.00000000000E+00 -0.00000000000E+00 -0.45593999997E+02  0.45594000000E+02  0.51100000000E-03 0.  1.
    9900012    2    1    2    0    0 -0.17941625592E+02  0.20148708097E+02 -0.16995527957E+02  0.59301947604E+02  0.50000006523E+02 0.  0.
         12    1    1    2    0    0  0.17941625592E+02 -0.20148708097E+02  0.16995527957E+02  0.31886052396E+02  0.00000000000E+00 0. -1.
         11    1    3    3    0    0  0.29568690813E+01 -0.45221082652E+01  0.99933688201E+00  0.54946530729E+01  0.51100000000E-03 0.  1.
        -11    1    3    3    0    0  0.36275017931E+01  0.18830889554E+02 -0.20974781671E+02  0.28420109730E+02  0.51100000000E-03 0. -1.
         12    1    3    3    0    0 -0.24525996467E+02  0.58399268081E+01  0.29799168327E+01  0.25387184801E+02  0.00000000000E+00 0. -1.
</event>
<event>
 7    1  0.5990264E-012  0.5930194E+02  0.7816164E-02  0.1266605E+00
        -11   -1    0    0    0    0  0.00000000000E+00  0.00000000000E+00  0.45593999997E+02  0.45594000000E+02  0.51100000000E-03 0. -1.
         11   -1    0    0    0    0 -0.00000000000E+00 -0.00000000000E+00 -0.45593999997E+02  0.45594000000E+02  0.51100000000E-03 0.  1.
    9900012    2    1    2    0    0  0.18790639240E+02  0.90736711414E+00 -0.25745079359E+02  0.59301944281E+02  0.50000000461E+02 0.  0.
         12    1    1    2    0    0 -0.18790639240E+02 -0.90736711414E+00  0.25745079359E+02  0.31886055719E+02  0.00000000000E+00 0. -1.
         11    1    3    3    0    0 -0.28139562632E+01  0.12795725750E+02  0.24481320391E+01  0.13328251875E+02  0.51100000000E-03 0. -1.
        -11    1    3    3    0    0  0.17762682604E+02  0.54069658341E+01 -0.13493600375E+02  0.22952677931E+02  0.51100000000E-03 0.  1.
        -12    1    3    3    0    0  0.38419128984E+01 -0.17295324469E+02 -0.14699611023E+02  0.23021014475E+02  0.00000000000E+00 0.  1.
</event>
<event>
 7    1  0.5662448E-012  0.5930200E+02  0.7816164E-02  0.1266605E+00
        -11   -1    0    0    0    0  0.00000000000E+00  0.00000000000E+00  0.45593999997E+02  0.45594000000E+02  0.51100000000E-03 0.  1.
         11   -1    0    0    0    0 -0.00000000000E+00 -0.00000000000E+00 -0.45593999997E+02  0.45594000000E+02  0.51100000000E-03 0. -1.
    9900012    2    1    2    0    0  0.39256273401E+01  0.13896916381E+02  0.28428547072E+02  0.59301998000E+02  0.50000098433E+02 0.  0.
         12    1    1    2    0    0 -0.39256273401E+01 -0.13896916381E+02 -0.28428547072E+02  0.31886002000E+02  0.00000000000E+00 0. -1.
         11    1    3    3    0    0  0.13658182664E+02 -0.11024582221E+02  0.82023861585E+01  0.19374377559E+02  0.51100000000E-03 0. -1.
        -11    1    3    3    0    0 -0.31691237212E+01 -0.31718446205E+01  0.67059285291E+01  0.80668098499E+01  0.51100000000E-03 0.  1.
        -12    1    3    3    0    0 -0.65634316030E+01  0.28093343222E+02  0.13520232384E+02  0.31860810591E+02  0.00000000000E+00 0.  1.
</event>
<event>
 7    1  0.5662448E-012  0.5930194E+02  0.7816164E-02  0.1266605E+00
        -11   -1    0    0    0    0  0.00000000000E+00  0.00000000000E+00  0.45593999997E+02  0.45594000000E+02  0.51100000000E-03 0. -1.
         11   -1    0    0    0    0 -0.00000000000E+00 -0.00000000000E+00 -0.45593999997E+02  0.45594000000E+02  0.51100000000E-03 0.  1.
    9900012    2    1    2    0    0 -0.25501664907E+02  0.10190505803E+02 -0.16203066602E+02  0.59301942092E+02  0.49999996470E+02 0.  0.
         12    1    1    2    0    0  0.25501664907E+02 -0.10190505803E+02  0.16203066602E+02  0.31886057908E+02  0.00000000000E+00 0. -1.
         11    1    3    3    0    0 -0.82109780899E+00 -0.17868126795E+01  0.46032647489E+01  0.50056915379E+01  0.51100000000E-03 0. -1.
        -11    1    3    3    0    0 -0.20974902484E+01 -0.14502139045E+02 -0.21517860826E+01  0.14810188582E+02  0.51100000000E-03 0.  1.
         12    1    3    3    0    0 -0.22583076850E+02  0.26479457527E+02 -0.18654545268E+02  0.39486061973E+02  0.00000000000E+00 0. -1.
</event>
<event>
 7    1  0.5662448E-012  0.5930193E+02  0.7816164E-02  0.1266605E+00
        -11   -1    0    0    0    0  0.00000000000E+00  0.00000000000E+00  0.45593999997E+02  0.45594000000E+02  0.51100000000E-03 0.  1.
         11   -1    0    0    0    0 -0.00000000000E+00 -0.00000000000E+00 -0.45593999997E+02  0.45594000000E+02  0.51100000000E-03 0. -1.
    9900012    2    1    2    0    0 -0.30827357092E+02  0.80880777512E+01  0.98919525504E+00  0.59301930091E+02  0.49999974583E+02 0.  0.
         12    1    1    2    0    0  0.30827357092E+02 -0.80880777512E+01 -0.98919525504E+00  0.31886069909E+02  0.00000000000E+00 0. -1.
         11    1    3    3    0    0 -0.12426647276E+02 -0.42397440373E+01 -0.20420539360E+01  0.13287850712E+02  0.51100000000E-03 0. -1.
        -11    1    3    3    0    0 -0.15902776192E+02  0.18738497212E+02 -0.13548078298E+02  0.28063855654E+02  0.51100000000E-03 0.  1.
        -12    1    3    3    0    0 -0.24979336244E+01 -0.64106754239E+01  0.16579327489E+02  0.17950223724E+02  0.00000000000E+00 0.  1.
</event>
<event>
 7    1  0.5662448E-012  0.5930199E+02  0.7816164E-02  0.1266605E+00
        -11   -1    0    0    0    0  0.00000000000E+00  0.00000000000E+00  0.45593999997E+02  0.45594000000E+02  0.51100000000E-03 0.  1.
         11   -1    0    0    0    0 -0.00000000000E+00 -0.00000000000E+00 -0.45593999997E+02  0.45594000000E+02  0.51100000000E-03 0. -1.
    9900012    2    1    2    0    0  0.10253406608E+02  0.30155943640E+02  0.14846026917E+01  0.59301994778E+02  0.50000092556E+02 0.  0.
         12    1    1    2    0    0 -0.10253406608E+02 -0.30155943640E+02 -0.14846026917E+01  0.31886005222E+02  0.00000000000E+00 0. -1.
         11    1    3    3    0    0  0.55099105055E+01 -0.53583330968E+00 -0.92150467574E+01  0.10750038052E+02  0.51100000000E-03 0. -1.
        -11    1    3    3    0    0 -0.81933682640E+01  0.10745965780E+01 -0.77569619505E+01  0.11333865196E+02  0.51100000000E-03 0.  1.
        -12    1    3    3    0    0  0.12936864366E+02  0.29617180371E+02  0.18456611400E+02  0.37218091530E+02  0.00000000000E+00 0.  1.
</event>
<event>
 7    1  0.5662448E-012  0.5930196E+02  0.7816164E-02  0.1266605E+00
        -11   -1    0    0    0    0  0.00000000000E+00  0.00000000000E+00  0.45593999997E+02  0.45594000000E+02  0.51100000000E-03 0.  1.
         11   -1    0    0    0    0 -0.00000000000E+00 -0.00000000000E+00 -0.45593999997E+02  0.45594000000E+02  0.51100000000E-03 0. -1.
    9900012    2    1    2    0    0 -0.41210635700E+00 -0.24505735486E+02  0.20396539341E+02  0.59301957278E+02  0.50000024166E+02 0.  0.
         12    1    1    2    0    0  0.41210635700E+00  0.24505735486E+02 -0.20396539341E+02  0.31886042722E+02  0.00000000000E+00 0. -1.
         11    1    3    3    0    0  0.51692499542E+01  0.22690007808E+01 -0.32415221331E+01  0.65097600288E+01  0.51100000000E-03 0. -1.
        -11    1    3    3    0    0  0.28586900543E+01 -0.80127274952E+01  0.30059625221E+02  0.31240310169E+02  0.51100000000E-03 0.  1.
         12    1    3    3    0    0 -0.84400463655E+01 -0.18762008771E+02 -0.64215637469E+01  0.21551887081E+02  0.00000000000E+00 0. -1.
</event>
<event>
 7    1  0.5662448E-012  0.5930197E+02  0.7816164E-02  0.1266605E+00
        -11   -1    0    0    0    0  0.00000000000E+00  0.00000000000E+00  0.45593999997E+02  0.45594000000E+02  0.51100000000E-03 0.  1.
         11   -1    0    0    0    0 -0.00000000000E+00 -0.00000000000E+00 -0.45593999997E+02  0.45594000000E+02  0.51100000000E-03 0. -1.
    9900012    2    1    2    0    0 -0.85516671970E+01  0.13166471181E+02  0.27753052175E+02  0.59301970454E+02  0.50000048195E+02 0.  0.
         12    1    1    2    0    0  0.85516671970E+01 -0.13166471181E+02 -0.27753052175E+02  0.31886029546E+02  0.00000000000E+00 0. -1.
         11    1    3    3    0    0  0.51618860289E+01  0.20441004302E+01 -0.61736519259E+01  0.83028544674E+01  0.51100000000E-03 0. -1.
        -11    1    3    3    0    0 -0.63818331108E+01  0.21727931462E+02  0.12169155616E+02  0.25708347830E+02  0.51100000000E-03 0.  1.
         12    1    3    3    0    0 -0.73317201151E+01 -0.10605560712E+02  0.21757548485E+02  0.25290768156E+02  0.00000000000E+00 0. -1.
</event>
<event>
 7    1  0.5662448E-012  0.5930194E+02  0.7816164E-02  0.1266605E+00
        -11   -1    0    0    0    0  0.00000000000E+00  0.00000000000E+00  0.45593999997E+02  0.45594000000E+02  0.51100000000E-03 0.  1.
         11   -1    0    0    0    0 -0.00000000000E+00 -0.00000000000E+00 -0.45593999997E+02  0.45594000000E+02  0.51100000000E-03 0. -1.
    9900012    2    1    2    0    0 -0.39144287606E+01  0.20576415547E+02  0.24041820989E+02  0.59301940574E+02  0.49999993700E+02 0.  0.
         12    1    1    2    0    0  0.39144287606E+01 -0.20576415547E+02 -0.24041820989E+02  0.31886059426E+02  0.00000000000E+00 0. -1.
         11    1    3    3    0    0 -0.74052269758E+01  0.31096857964E+02  0.24205092278E-01  0.31966428452E+02  0.51100000000E-03 0. -1.
        -11    1    3    3    0    0 -0.26763389252E-01  0.93088328698E+00  0.30279853150E+01  0.31679575916E+01  0.51100000000E-03 0.  1.
        -12    1    3    3    0    0  0.35175616044E+01 -0.11451325704E+02  0.20989630581E+02  0.24167554530E+02  0.00000000000E+00 0.  1.
</event>
<event>
 7    1  0.5662448E-012  0.5930194E+02  0.7816164E-02  0.1266605E+00
        -11   -1    0    0    0    0  0.00000000000E+00  0.00000000000E+00  0.45593999997E+02  0.45594000000E+02  0.51100000000E-03 0.  1.
         11   -1    0    0    0    0 -0.00000000000E+00 -0.00000000000E+00 -0.45593999997E+02  0.45594000000E+02  0.51100000000E-03 0. -1.
    9900012    2    1    2    0    0  0.12406827016E+02  0.26519960671E+02  0.12628662121E+02  0.59301940702E+02  0.49999993935E+02 0.  0.
         12    1    1    2    0    0 -0.12406827016E+02 -0.26519960671E+02 -0.12628662121E+02  0.31886059298E+02  0.00000000000E+00 0. -1.
         11    1    3    3    0    0  0.10037022605E+02  0.12723760639E+02 -0.15501597863E+02  0.22426222244E+02  0.51100000000E-03 0. -1.
        -11    1    3    3    0    0 -0.10627809593E+01  0.12731617785E+02  0.54119445439E+01  0.13874895993E+02  0.51100000000E-03 0.  1.
        -12    1    3    3    0    0  0.34325853707E+01  0.10645822463E+01  0.22718315440E+02  0.23000822466E+02  0.00000000000E+00 0.  1.
</event>
<event>
 7    1  0.5662448E-012  0.5930195E+02  0.7816164E-02  0.1266605E+00
        -11   -1    0    0    0    0  0.00000000000E+00  0.00000000000E+00  0.45593999997E+02  0.45594000000E+02  0.51100000000E-03 0. -1.
         11   -1    0    0    0    0 -0.00000000000E+00 -0.00000000000E+00 -0.45593999997E+02  0.45594000000E+02  0.51100000000E-03 0.  1.
    9900012    2    1    2    0    0 -0.53988110930E+00 -0.30576108300E+02 -0.90294142913E+01  0.59301949871E+02  0.50000010657E+02 0.  0.
         12    1    1    2    0    0  0.53988110930E+00  0.30576108300E+02  0.90294142913E+01  0.31886050129E+02  0.00000000000E+00 0. -1.
         11    1    3    3    0    0 -0.65322095080E+00 -0.86646482853E+01  0.98241501289E+01  0.13115515756E+02  0.51100000000E-03 0. -1.
        -11    1    3    3    0    0 -0.10319862847E+02  0.62823543978E+01 -0.60374000712E+01  0.13506211380E+02  0.51100000000E-03 0.  1.
        -12    1    3    3    0    0  0.10433202689E+02 -0.28193814412E+02 -0.12816164349E+02  0.32680222736E+02  0.00000000000E+00 0.  1.
</event>
<event>
 7    1  0.5662448E-012  0.5930194E+02  0.7816164E-02  0.1266605E+00
        -11   -1    0    0    0    0  0.00000000000E+00  0.00000000000E+00  0.45593999997E+02  0.45594000000E+02  0.51100000000E-03 0. -1.
         11   -1    0    0    0    0 -0.00000000000E+00 -0.00000000000E+00 -0.45593999997E+02  0.45594000000E+02  0.51100000000E-03 0.  1.
    9900012    2    1    2    0    0 -0.89210170320E+01  0.15089102571E+02 -0.26635597249E+02  0.59301943454E+02  0.49999998953E+02 0.  0.
         12    1    1    2    0    0  0.89210170320E+01 -0.15089102571E+02  0.26635597249E+02  0.31886056546E+02  0.00000000000E+00 0. -1.
         11    1    3    3    0    0 -0.16032730898E+02 -0.21567215886E+01 -0.94293163765E+01  0.18724633926E+02  0.51100000000E-03 0. -1.
        -11    1    3    3    0    0 -0.32530193257E+01 -0.84356190912E+01 -0.47098692947E+01  0.10194345159E+02  0.51100000000E-03 0.  1.
        -12    1    3    3    0    0  0.10364733192E+02  0.25681443250E+02 -0.12496411577E+02  0.30382964369E+02  0.00000000000E+00 0.  1.
</event>
<event>
 7    1  0.5662448E-012  0.5930191E+02  0.7816164E-02  0.1266605E+00
        -11   -1    0    0    0    0  0.00000000000E+00  0.00000000000E+00  0.45593999997E+02  0.45594000000E+02  0.51100000000E-03 0.  1.
         11   -1    0    0    0    0 -0.00000000000E+00 -0.00000000000E+00 -0.45593999997E+02  0.45594000000E+02  0.51100000000E-03 0. -1.
    9900012    2    1    2    0    0 -0.20394298577E+02  0.29458648086E+01  0.24333464973E+02  0.59301905044E+02  0.49999928904E+02 0.  0.
         12    1    1    2    0    0  0.20394298577E+02 -0.29458648086E+01 -0.24333464973E+02  0.31886094956E+02  0.00000000000E+00 0. -1.
         11    1    3    3    0    0  0.73695847986E+01  0.13907814909E+01 -0.47461659042E+01  0.88753109416E+01  0.51100000000E-03 0. -1.
        -11    1    3    3    0    0 -0.90108929422E+01 -0.12873070985E+02  0.19136476402E+02  0.24761197014E+02  0.51100000000E-03 0.  1.
        -12    1    3    3    0    0 -0.18752990434E+02  0.14428154303E+02  0.99431544748E+01  0.25665397089E+02  0.00000000000E+00 0.  1.
</event>
<event>
 7    1  0.5662448E-012  0.5930196E+02  0.7816164E-02  0.1266605E+00
        -11   -1    0    0    0    0  0.00000000000E+00  0.00000000000E+00  0.45593999997E+02  0.45594000000E+02  0.51100000000E-03 0.  1.
         11   -1    0    0    0    0 -0.00000000000E+00 -0.00000000000E+00 -0.45593999997E+02  0.45594000000E+02  0.51100000000E-03 0. -1.
    9900012    2    1    2    0    0  0.11132990792E+02 -0.24567691933E+02  0.17006021065E+02  0.59301957233E+02  0.50000024083E+02 0.  0.
         12    1    1    2    0    0 -0.11132990792E+02  0.24567691933E+02 -0.17006021065E+02  0.31886042767E+02  0.00000000000E+00 0. -1.
         11    1    3    3    0    0  0.10133163922E+02 -0.32368058271E+01 -0.35790580276E+01  0.11223527950E+02  0.51100000000E-03 0. -1.
        -11    1    3    3    0    0  0.11162161266E+02  0.68654220643E+01  0.34365150697E+01  0.13547601276E+02  0.51100000000E-03 0.  1.
        -12    1    3    3    0    0 -0.10162334396E+02 -0.28196308170E+02  0.17148564023E+02  0.34530828007E+02  0.00000000000E+00 0.  1.
</event>
<event>
 7    1  0.5662448E-012  0.5930193E+02  0.7816164E-02  0.1266605E+00
        -11   -1    0    0    0    0  0.00000000000E+00  0.00000000000E+00  0.45593999997E+02  0.45594000000E+02  0.51100000000E-03 0. -1.
         11   -1    0    0    0    0 -0.00000000000E+00 -0.00000000000E+00 -0.45593999997E+02  0.45594000000E+02  0.51100000000E-03 0.  1.
    9900012    2    1    2    0    0  0.15757739609E+01  0.31470121576E+02  0.48856473084E+01  0.59301934623E+02  0.49999982848E+02 0.  0.
         12    1    1    2    0    0 -0.15757739609E+01 -0.31470121576E+02 -0.48856473084E+01  0.31886065377E+02  0.00000000000E+00 0. -1.
         11    1    3    3    0    0 -0.17374052038E+02  0.14038062261E+02  0.86025839172E+01  0.23935942149E+02  0.51100000000E-03 0. -1.
        -11    1    3    3    0    0  0.96421107954E+01 -0.26239670154E+01  0.55056158565E+01  0.11409088908E+02  0.51100000000E-03 0.  1.
        -12    1    3    3    0    0  0.93077152035E+01  0.20056026331E+02 -0.92225524652E+01  0.23956903566E+02  0.00000000000E+00 0.  1.
</event>
<event>
 7    1  0.5662448E-012  0.5930195E+02  0.7816164E-02  0.1266605E+00
        -11   -1    0    0    0    0  0.00000000000E+00  0.00000000000E+00  0.45593999997E+02  0.45594000000E+02  0.51100000000E-03 0.  1.
         11   -1    0    0    0    0 -0.00000000000E+00 -0.00000000000E+00 -0.45593999997E+02  0.45594000000E+02  0.51100000000E-03 0. -1.
    9900012    2    1    2    0    0 -0.30581309980E+02  0.84760647402E+01 -0.31080830720E+01  0.59301947030E+02  0.50000005476E+02 0.  0.
         12    1    1    2    0    0  0.30581309980E+02 -0.84760647402E+01  0.31080830720E+01  0.31886052970E+02  0.00000000000E+00 0. -1.
         11    1    3    3    0    0 -0.16196874973E+01  0.18773677376E+01 -0.36203104595E+01  0.43880001476E+01  0.51100000000E-03 0. -1.
        -11    1    3    3    0    0 -0.26534770518E+02 -0.10014671163E+02 -0.14974786215E+02  0.32072291895E+02  0.51100000000E-03 0.  1.
         12    1    3    3    0    0 -0.24268519655E+01  0.16613368165E+02  0.15487013603E+02  0.22841654988E+02  0.00000000000E+00 0. -1.
</event>
<event>
 7    1  0.5662448E-012  0.5930198E+02  0.7816164E-02  0.1266605E+00
        -11   -1    0    0    0    0  0.00000000000E+00  0.00000000000E+00  0.45593999997E+02  0.45594000000E+02  0.51100000000E-03 0.  1.
         11   -1    0    0    0    0 -0.00000000000E+00 -0.00000000000E+00 -0.45593999997E+02  0.45594000000E+02  0.51100000000E-03 0. -1.
    9900012    2    1    2    0    0 -0.22106923246E+02 -0.68034951991E+01  0.21948003917E+02  0.59301976757E+02  0.50000059690E+02 0.  0.
         12    1    1    2    0    0  0.22106923246E+02  0.68034951991E+01 -0.21948003917E+02  0.31886023243E+02  0.00000000000E+00 0. -1.
         11    1    3    3    0    0  0.53893040452E+00 -0.55014498936E+01 -0.50119565750E+01  0.74616423047E+01  0.51100000000E-03 0. -1.
        -11    1    3    3    0    0  0.37078774138E+01  0.51168387794E+01 -0.62996001682E+01  0.89227437792E+01  0.51100000000E-03 0.  1.
        -12    1    3    3    0    0 -0.26353731064E+02 -0.64188840849E+01  0.33259560660E+02  0.42917590673E+02  0.00000000000E+00 0.  1.
</event>
<event>
 7    1  0.5662448E-012  0.5930195E+02  0.7816164E-02  0.1266605E+00
        -11   -1    0    0    0    0  0.00000000000E+00  0.00000000000E+00  0.45593999997E+02  0.45594000000E+02  0.51100000000E-03 0.  1.
         11   -1    0    0    0    0 -0.00000000000E+00 -0.00000000000E+00 -0.45593999997E+02  0.45594000000E+02  0.51100000000E-03 0. -1.
    9900012    2    1    2    0    0 -0.51808336321E+01 -0.13553632282E+02  0.28393275742E+02  0.59301951444E+02  0.50000013526E+02 0.  0.
         12    1    1    2    0    0  0.51808336321E+01  0.13553632282E+02 -0.28393275742E+02  0.31886048556E+02  0.00000000000E+00 0. -1.
         11    1    3    3    0    0  0.80241263983E-01 -0.57375479260E+01 -0.50141490615E+01  0.76202090480E+01  0.51100000000E-03 0. -1.
        -11    1    3    3    0    0  0.81518301232E+01 -0.73980556178E+01 -0.41764706045E+01  0.11773974191E+02  0.51100000000E-03 0.  1.
        -12    1    3    3    0    0 -0.13412905019E+02 -0.41802873804E+00  0.37583895408E+02  0.39907768205E+02  0.00000000000E+00 0.  1.
</event>
<event>
 7    1  0.5662448E-012  0.5930195E+02  0.7816164E-02  0.1266605E+00
        -11   -1    0    0    0    0  0.00000000000E+00  0.00000000000E+00  0.45593999997E+02  0.45594000000E+02  0.51100000000E-03 0.  1.
         11   -1    0    0    0    0 -0.00000000000E+00 -0.00000000000E+00 -0.45593999997E+02  0.45594000000E+02  0.51100000000E-03 0. -1.
    9900012    2    1    2    0    0  0.20434787816E+02  0.31514115329E+01  0.24273608170E+02  0.59301952874E+02  0.50000016133E+02 0.  0.
         12    1    1    2    0    0 -0.20434787816E+02 -0.31514115329E+01 -0.24273608170E+02  0.31886047126E+02  0.00000000000E+00 0. -1.
         11    1    3    3    0    0 -0.98679380569E+01  0.10861910306E+02  0.55495353881E+01  0.15689316119E+02  0.51100000000E-03 0. -1.
        -11    1    3    3    0    0 -0.23774348623E+01  0.30418628431E+01  0.55763010175E+01  0.67823491048E+01  0.51100000000E-03 0.  1.
        -12    1    3    3    0    0  0.32680160735E+02 -0.10752361616E+02  0.13147771765E+02  0.36830287650E+02  0.00000000000E+00 0.  1.
</event>
<event>
 7    1  0.5662448E-012  0.5930194E+02  0.7816164E-02  0.1266605E+00
        -11   -1    0    0    0    0  0.00000000000E+00  0.00000000000E+00  0.45593999997E+02  0.45594000000E+02  0.51100000000E-03 0.  1.
         11   -1    0    0    0    0 -0.00000000000E+00 -0.00000000000E+00 -0.45593999997E+02  0.45594000000E+02  0.51100000000E-03 0. -1.
    9900012    2    1    2    0    0  0.20720298448E+01 -0.31365582383E+02 -0.53504951370E+01  0.59301939345E+02  0.49999991460E+02 0.  0.
         12    1    1    2    0    0 -0.20720298448E+01  0.31365582383E+02  0.53504951370E+01  0.31886060655E+02  0.00000000000E+00 0. -1.
         11    1    3    3    0    0 -0.89967950779E+01  0.88770059631E+01  0.16009650177E+01  0.12739962551E+02  0.51100000000E-03 0. -1.
        -11    1    3    3    0    0  0.63958076712E+00  0.76142168069E+00 -0.40309021928E+01  0.41517465340E+01  0.51100000000E-03 0.  1.
        -12    1    3    3    0    0  0.10429244156E+02 -0.41004010027E+02 -0.29205579619E+01  0.42410230260E+02  0.00000000000E+00 0.  1.
</event>
<event>
 7    1  0.5662448E-012  0.5930195E+02  0.7816164E-02  0.1266605E+00
        -11   -1    0    0    0    0  0.00000000000E+00  0.00000000000E+00  0.45593999997E+02  0.45594000000E+02  0.51100000000E-03 0.  1.
         11   -1    0    0    0    0 -0.00000000000E+00 -0.00000000000E+00 -0.45593999997E+02  0.45594000000E+02  0.51100000000E-03 0. -1.
    9900012    2    1    2    0    0  0.25980975284E+02 -0.41910129619E+01  0.18004011460E+02  0.59301951405E+02  0.50000013454E+02 0.  0.
         12    1    1    2    0    0 -0.25980975284E+02  0.41910129619E+01 -0.18004011460E+02  0.31886048595E+02  0.00000000000E+00 0. -1.
         11    1    3    3    0    0  0.36062973573E+01  0.86942556957E+01  0.18043726310E+01  0.95839044018E+01  0.51100000000E-03 0. -1.
        -11    1    3    3    0    0  0.26986481645E+02 -0.15704288629E+02  0.24585656176E+02  0.39741028708E+02  0.51100000000E-03 0.  1.
         12    1    3    3    0    0 -0.46118037183E+01  0.28190199715E+01 -0.83860173463E+01  0.99770182954E+01  0.00000000000E+00 0. -1.
</event>
<event>
 7    1  0.5662448E-012  0.5930195E+02  0.7816164E-02  0.1266605E+00
        -11   -1    0    0    0    0  0.00000000000E+00  0.00000000000E+00  0.45593999997E+02  0.45594000000E+02  0.51100000000E-03 0.  1.
         11   -1    0    0    0    0 -0.00000000000E+00 -0.00000000000E+00 -0.45593999997E+02  0.45594000000E+02  0.51100000000E-03 0. -1.
    9900012    2    1    2    0    0 -0.31231933579E+01 -0.84112687238E+01  0.30597657216E+02  0.59301946538E+02  0.50000004578E+02 0.  0.
         12    1    1    2    0    0  0.31231933579E+01  0.84112687238E+01 -0.30597657216E+02  0.31886053462E+02  0.00000000000E+00 0. -1.
         11    1    3    3    0    0 -0.15826301225E+02  0.41275196784E+01  0.24267232423E+02  0.29264428901E+02  0.51100000000E-03 0. -1.
        -11    1    3    3    0    0  0.10833443817E+02 -0.92668979895E+01  0.14933203807E+02  0.20645568035E+02  0.51100000000E-03 0.  1.
        -12    1    3    3    0    0  0.18696640500E+01 -0.32718904128E+01 -0.86027790152E+01  0.93919496015E+01  0.00000000000E+00 0.  1.
</event>
<event>
 7    1  0.5662448E-012  0.5930195E+02  0.7816164E-02  0.1266605E+00
        -11   -1    0    0    0    0  0.00000000000E+00  0.00000000000E+00  0.45593999997E+02  0.45594000000E+02  0.51100000000E-03 0.  1.
         11   -1    0    0    0    0 -0.00000000000E+00 -0.00000000000E+00 -0.45593999997E+02  0.45594000000E+02  0.51100000000E-03 0. -1.
    9900012    2    1    2    0    0 -0.16359487172E+02  0.52066560595E+01  0.26869654577E+02  0.59301946232E+02  0.50000004020E+02 0.  0.
         12    1    1    2    0    0  0.16359487172E+02 -0.52066560595E+01 -0.26869654577E+02  0.31886053768E+02  0.00000000000E+00 0. -1.
         11    1    3    3    0    0 -0.38858761929E+01  0.32220120145E+00 -0.11161291743E+02  0.11822786518E+02  0.51100000000E-03 0. -1.
        -11    1    3    3    0    0 -0.16715067676E+02  0.31687229212E+01  0.11449247570E+02  0.20506573642E+02  0.51100000000E-03 0.  1.
        -12    1    3    3    0    0  0.42414566968E+01  0.17157319368E+01  0.26581698750E+02  0.26972586073E+02  0.00000000000E+00 0.  1.
</event>
<event>
 7    1  0.5662448E-012  0.5930194E+02  0.7816164E-02  0.1266605E+00
        -11   -1    0    0    0    0  0.00000000000E+00  0.00000000000E+00  0.45593999997E+02  0.45594000000E+02  0.51100000000E-03 0.  1.
         11   -1    0    0    0    0 -0.00000000000E+00 -0.00000000000E+00 -0.45593999997E+02  0.45594000000E+02  0.51100000000E-03 0. -1.
    9900012    2    1    2    0    0 -0.17683614527E+02  0.23764439908E+02  0.11800923658E+02  0.59301943078E+02  0.49999998267E+02 0.  0.
         12    1    1    2    0    0  0.17683614527E+02 -0.23764439908E+02 -0.11800923658E+02  0.31886056922E+02  0.00000000000E+00 0. -1.
         11    1    3    3    0    0  0.71129498081E+01  0.10640583476E+02 -0.30167795021E+01  0.13149792033E+02  0.51100000000E-03 0. -1.
        -11    1    3    3    0    0 -0.47736332383E+01 -0.52404787168E+01 -0.79882059995E+01  0.10679963803E+02  0.51100000000E-03 0.  1.
        -12    1    3    3    0    0 -0.20022931097E+02  0.18364335149E+02  0.22805909160E+02  0.35472187242E+02  0.00000000000E+00 0.  1.
</event>
<event>
 7    1  0.5662448E-012  0.5930197E+02  0.7816164E-02  0.1266605E+00
        -11   -1    0    0    0    0  0.00000000000E+00  0.00000000000E+00  0.45593999997E+02  0.45594000000E+02  0.51100000000E-03 0.  1.
         11   -1    0    0    0    0 -0.00000000000E+00 -0.00000000000E+00 -0.45593999997E+02  0.45594000000E+02  0.51100000000E-03 0. -1.
    9900012    2    1    2    0    0 -0.15358769761E+02  0.27804383951E+02 -0.27826896603E+01  0.59301969560E+02  0.50000046565E+02 0.  0.
         12    1    1    2    0    0  0.15358769761E+02 -0.27804383951E+02  0.27826896603E+01  0.31886030440E+02  0.00000000000E+00 0. -1.
         11    1    3    3    0    0  0.50794220362E+01  0.66160616501E+01  0.10564603592E+02  0.13460447589E+02  0.51100000000E-03 0. -1.
        -11    1    3    3    0    0 -0.14481504472E+02  0.11891247679E+02  0.90960038359E+01  0.20829138944E+02  0.51100000000E-03 0.  1.
         12    1    3    3    0    0 -0.59566873254E+01  0.92970746225E+01 -0.22443297089E+02  0.25012383026E+02  0.00000000000E+00 0. -1.
</event>
<event>
 7    1  0.5662448E-012  0.5930195E+02  0.7816164E-02  0.1266605E+00
        -11   -1    0    0    0    0  0.00000000000E+00  0.00000000000E+00  0.45593999997E+02  0.45594000000E+02  0.51100000000E-03 0.  1.
         11   -1    0    0    0    0 -0.00000000000E+00 -0.00000000000E+00 -0.45593999997E+02  0.45594000000E+02  0.51100000000E-03 0. -1.
    9900012    2    1    2    0    0 -0.18966416498E+02  0.12810940514E+02  0.22200786050E+02  0.59301952066E+02  0.50000014659E+02 0.  0.
         12    1    1    2    0    0  0.18966416498E+02 -0.12810940514E+02 -0.22200786050E+02  0.31886047934E+02  0.00000000000E+00 0. -1.
         11    1    3    3    0    0  0.18374272256E+01 -0.87514207487E+01  0.11490078885E+02  0.14559718987E+02  0.51100000000E-03 0. -1.
        -11    1    3    3    0    0 -0.88167348661E+01 -0.35981958955E+01  0.13729900653E+02  0.16709039458E+02  0.51100000000E-03 0.  1.
         12    1    3    3    0    0 -0.11987108857E+02  0.25160557159E+02 -0.30191934879E+01  0.28033193621E+02  0.00000000000E+00 0. -1.
</event>
<event>
 7    1  0.5662448E-012  0.5930193E+02  0.7816164E-02  0.1266605E+00
        -11   -1    0    0    0    0  0.00000000000E+00  0.00000000000E+00  0.45593999997E+02  0.45594000000E+02  0.51100000000E-03 0.  1.
         11   -1    0    0    0    0 -0.00000000000E+00 -0.00000000000E+00 -0.45593999997E+02  0.45594000000E+02  0.51100000000E-03 0. -1.
    9900012    2    1    2    0    0  0.42300059225E+01  0.27653854284E+02  0.15300091549E+02  0.59301930812E+02  0.49999975897E+02 0.  0.
         12    1    1    2    0    0 -0.42300059225E+01 -0.27653854284E+02 -0.15300091549E+02  0.31886069188E+02  0.00000000000E+00 0. -1.
         11    1    3    3    0    0  0.55259289265E+01  0.19204473583E+02 -0.15094702174E+01  0.20040613681E+02  0.51100000000E-03 0. -1.
        -11    1    3    3    0    0  0.57401536424E+01  0.19615612949E+02  0.16146172955E+02  0.26046507185E+02  0.51100000000E-03 0.  1.
         12    1    3    3    0    0 -0.70360766464E+01 -0.11166232248E+02  0.66338881205E+00  0.13214809946E+02  0.00000000000E+00 0. -1.
</event>
<event>
 7    1  0.5662448E-012  0.5930195E+02  0.7816164E-02  0.1266605E+00
        -11   -1    0    0    0    0  0.00000000000E+00  0.00000000000E+00  0.45593999997E+02  0.45594000000E+02  0.51100000000E-03 0.  1.
         11   -1    0    0    0    0 -0.00000000000E+00 -0.00000000000E+00 -0.45593999997E+02  0.45594000000E+02  0.51100000000E-03 0. -1.
    9900012    2    1    2    0    0 -0.20191643209E+02 -0.13563879397E+02  0.20616471769E+02  0.59301949947E+02  0.50000010795E+02 0.  0.
         12    1    1    2    0    0  0.20191643209E+02  0.13563879397E+02 -0.20616471769E+02  0.31886050053E+02  0.00000000000E+00 0. -1.
         11    1    3    3    0    0  0.93204819391E+01 -0.49438456664E+01  0.10980803745E+02  0.15227969159E+02  0.51100000000E-03 0. -1.
        -11    1    3    3    0    0 -0.22454998726E+02 -0.11863551874E+02 -0.64577126811E+01  0.26204443977E+02  0.51100000000E-03 0.  1.
        -12    1    3    3    0    0 -0.70571264227E+01  0.32435181432E+01  0.16093380706E+02  0.17869536811E+02  0.00000000000E+00 0.  1.
</event>
<event>
 7    1  0.5662448E-012  0.5930195E+02  0.7816164E-02  0.1266605E+00
        -11   -1    0    0    0    0  0.00000000000E+00  0.00000000000E+00  0.45593999997E+02  0.45594000000E+02  0.51100000000E-03 0. -1.
         11   -1    0    0    0    0 -0.00000000000E+00 -0.00000000000E+00 -0.45593999997E+02  0.45594000000E+02  0.51100000000E-03 0.  1.
    9900012    2    1    2    0    0 -0.41788735485E+01 -0.28899351768E+02 -0.12809565842E+02  0.59301945151E+02  0.50000002049E+02 0.  0.
         12    1    1    2    0    0  0.41788735485E+01  0.28899351768E+02  0.12809565842E+02  0.31886054849E+02  0.00000000000E+00 0. -1.
         11    1    3    3    0    0 -0.80033190501E+01 -0.10165200760E+02  0.14739823678E+02  0.19612415064E+02  0.51100000000E-03 0. -1.
        -11    1    3    3    0    0  0.53231372182E+01  0.43546511045E+00  0.83471054752E+00  0.54057526456E+01  0.51100000000E-03 0.  1.
        -12    1    3    3    0    0 -0.14986917166E+01 -0.19169616118E+02 -0.28384100068E+02  0.34283777441E+02  0.00000000000E+00 0.  1.
</event>
<event>
 7    1  0.5662448E-012  0.5930226E+02  0.7816164E-02  0.1266604E+00
        -11   -1    0    0    0    0  0.00000000000E+00  0.00000000000E+00  0.45593999997E+02  0.45594000000E+02  0.51100000000E-03 0. -1.
         11   -1    0    0    0    0 -0.00000000000E+00 -0.00000000000E+00 -0.45593999997E+02  0.45594000000E+02  0.51100000000E-03 0.  1.
    9900012    2    1    2    0    0 -0.17138877139E+02  0.26821114259E+02 -0.18939670026E+01  0.59302260387E+02  0.50000576959E+02 0.  0.
         12    1    1    2    0    0  0.17138877139E+02 -0.26821114259E+02  0.18939670026E+01  0.31885739613E+02  0.00000000000E+00 0. -1.
         11    1    3    3    0    0  0.59477194289E+01  0.73048611356E+01 -0.69282152071E+00  0.94454414686E+01  0.51100000000E-03 0. -1.
        -11    1    3    3    0    0 -0.14267674675E+02  0.30138453081E+02  0.66106332820E+01  0.33994019583E+02  0.51100000000E-03 0.  1.
         12    1    3    3    0    0 -0.88189218924E+01 -0.10622199958E+02 -0.78117787639E+01  0.15862799335E+02  0.00000000000E+00 0. -1.
</event>
<event>
 7    1  0.5662448E-012  0.5930201E+02  0.7816164E-02  0.1266605E+00
        -11   -1    0    0    0    0  0.00000000000E+00  0.00000000000E+00  0.45593999997E+02  0.45594000000E+02  0.51100000000E-03 0.  1.
         11   -1    0    0    0    0 -0.00000000000E+00 -0.00000000000E+00 -0.45593999997E+02  0.45594000000E+02  0.51100000000E-03 0. -1.
    9900012    2    1    2    0    0  0.22229282370E+02  0.13536903173E+02  0.18420851946E+02  0.59302007329E+02  0.50000115446E+02 0.  0.
         12    1    1    2    0    0 -0.22229282370E+02 -0.13536903173E+02 -0.18420851946E+02  0.31885992671E+02  0.00000000000E+00 0. -1.
         11    1    3    3    0    0  0.20530343666E+02  0.13127357123E+02  0.78056112772E+01  0.25588084800E+02  0.51100000000E-03 0. -1.
        -11    1    3    3    0    0  0.89007681592E+01  0.25003792663E+01  0.19802618654E+02  0.21854502422E+02  0.51100000000E-03 0.  1.
        -12    1    3    3    0    0 -0.72018294549E+01 -0.20908332158E+01 -0.91873779846E+01  0.11859420107E+02  0.00000000000E+00 0.  1.
</event>
<event>
 7    1  0.5662448E-012  0.5930195E+02  0.7816164E-02  0.1266605E+00
        -11   -1    0    0    0    0  0.00000000000E+00  0.00000000000E+00  0.45593999997E+02  0.45594000000E+02  0.51100000000E-03 0. -1.
         11   -1    0    0    0    0 -0.00000000000E+00 -0.00000000000E+00 -0.45593999997E+02  0.45594000000E+02  0.51100000000E-03 0.  1.
    9900012    2    1    2    0    0  0.26724134024E+02  0.13261269006E+02 -0.11255209999E+02  0.59301947452E+02  0.50000006244E+02 0.  0.
         12    1    1    2    0    0 -0.26724134024E+02 -0.13261269006E+02  0.11255209999E+02  0.31886052548E+02  0.00000000000E+00 0. -1.
         11    1    3    3    0    0  0.46229671709E+01  0.20788143795E+02  0.57480549831E+01  0.22058079796E+02  0.51100000000E-03 0. -1.
        -11    1    3    3    0    0  0.84284692774E+01 -0.53280090695E+01  0.50699105512E+01  0.11186186493E+02  0.51100000000E-03 0.  1.
        -12    1    3    3    0    0  0.13672697576E+02 -0.21988657199E+01 -0.22073175533E+02  0.26057681163E+02  0.00000000000E+00 0.  1.
</event>
<event>
 7    1  0.5662448E-012  0.5930195E+02  0.7816164E-02  0.1266605E+00
        -11   -1    0    0    0    0  0.00000000000E+00  0.00000000000E+00  0.45593999997E+02  0.45594000000E+02  0.51100000000E-03 0.  1.
         11   -1    0    0    0    0 -0.00000000000E+00 -0.00000000000E+00 -0.45593999997E+02  0.45594000000E+02  0.51100000000E-03 0. -1.
    9900012    2    1    2    0    0 -0.19780843847E+02 -0.24753495638E+02  0.35641375664E+01  0.59301946525E+02  0.50000004554E+02 0.  0.
         12    1    1    2    0    0  0.19780843847E+02  0.24753495638E+02 -0.35641375664E+01  0.31886053475E+02  0.00000000000E+00 0. -1.
         11    1    3    3    0    0  0.17882015863E+01 -0.10726743445E+02  0.77202404667E+01  0.13336521397E+02  0.51100000000E-03 0. -1.
        -11    1    3    3    0    0 -0.29249221550E+02 -0.10563788376E+02  0.71068975009E+01  0.31900134459E+02  0.51100000000E-03 0.  1.
         12    1    3    3    0    0  0.76801761165E+01 -0.34629638174E+01 -0.11263000401E+02  0.14065290669E+02  0.00000000000E+00 0. -1.
</event>
<event>
 7    1  0.5662448E-012  0.5930194E+02  0.7816164E-02  0.1266605E+00
        -11   -1    0    0    0    0  0.00000000000E+00  0.00000000000E+00  0.45593999997E+02  0.45594000000E+02  0.51100000000E-03 0. -1.
         11   -1    0    0    0    0 -0.00000000000E+00 -0.00000000000E+00 -0.45593999997E+02  0.45594000000E+02  0.51100000000E-03 0.  1.
    9900012    2    1    2    0    0  0.24983651567E+02  0.40174600526E+01 -0.19400981832E+02  0.59301938359E+02  0.49999989662E+02 0.  0.
         12    1    1    2    0    0 -0.24983651567E+02 -0.40174600526E+01  0.19400981832E+02  0.31886061641E+02  0.00000000000E+00 0. -1.
         11    1    3    3    0    0  0.95183874102E+01 -0.18757769596E+01 -0.91194514767E+00  0.97442230222E+01  0.51100000000E-03 0.  1.
        -11    1    3    3    0    0  0.18640434202E+02 -0.98504419066E+01  0.44573345845E+01  0.21549125849E+02  0.51100000000E-03 0. -1.
        -12    1    3    3    0    0 -0.31751700452E+01  0.15743678919E+02 -0.22946371269E+02  0.28008589488E+02  0.00000000000E+00 0.  1.
</event>
<event>
 7    1  0.5662448E-012  0.5930193E+02  0.7816164E-02  0.1266605E+00
        -11   -1    0    0    0    0  0.00000000000E+00  0.00000000000E+00  0.45593999997E+02  0.45594000000E+02  0.51100000000E-03 0.  1.
         11   -1    0    0    0    0 -0.00000000000E+00 -0.00000000000E+00 -0.45593999997E+02  0.45594000000E+02  0.51100000000E-03 0. -1.
    9900012    2    1    2    0    0  0.18368885508E+02  0.24661950169E+02  0.84317025298E+01  0.59301931749E+02  0.49999977606E+02 0.  0.
         12    1    1    2    0    0 -0.18368885508E+02 -0.24661950169E+02 -0.84317025298E+01  0.31886068251E+02  0.00000000000E+00 0. -1.
         11    1    3    3    0    0 -0.30844312382E+01 -0.31671319089E+01 -0.10261792558E+02  0.11173577196E+02  0.51100000000E-03 0. -1.
        -11    1    3    3    0    0  0.18447936378E+02  0.38038664068E+01  0.25033052942E+01  0.19001639243E+02  0.51100000000E-03 0.  1.
         12    1    3    3    0    0  0.30053803684E+01  0.24025215671E+02  0.16190189794E+02  0.29126715310E+02  0.00000000000E+00 0. -1.
</event>
<event>
 7    1  0.5662448E-012  0.5930183E+02  0.7816164E-02  0.1266605E+00
        -11   -1    0    0    0    0  0.00000000000E+00  0.00000000000E+00  0.45593999997E+02  0.45594000000E+02  0.51100000000E-03 0. -1.
         11   -1    0    0    0    0 -0.00000000000E+00 -0.00000000000E+00 -0.45593999997E+02  0.45594000000E+02  0.51100000000E-03 0.  1.
    9900012    2    1    2    0    0 -0.29683596716E+02 -0.11234271592E+02 -0.30664403218E+01  0.59301830138E+02  0.49999792292E+02 0.  0.
         12    1    1    2    0    0  0.29683596716E+02  0.11234271592E+02  0.30664403218E+01  0.31886169862E+02  0.00000000000E+00 0. -1.
         11    1    3    3    0    0 -0.24584222259E+02 -0.35415161380E+01  0.94219328805E+01  0.26564998402E+02  0.51100000000E-03 0. -1.
        -11    1    3    3    0    0 -0.14137066917E+02 -0.12551530425E+02 -0.12145326483E+02  0.22470125337E+02  0.51100000000E-03 0.  1.
         12    1    3    3    0    0  0.90376924602E+01  0.48587749706E+01 -0.34304671900E+00  0.10266706398E+02  0.00000000000E+00 0. -1.
</event>
<event>
 7    1  0.5662448E-012  0.5930197E+02  0.7816164E-02  0.1266605E+00
        -11   -1    0    0    0    0  0.00000000000E+00  0.00000000000E+00  0.45593999997E+02  0.45594000000E+02  0.51100000000E-03 0. -1.
         11   -1    0    0    0    0 -0.00000000000E+00 -0.00000000000E+00 -0.45593999997E+02  0.45594000000E+02  0.51100000000E-03 0.  1.
    9900012    2    1    2    0    0  0.25238200723E+02  0.24240395214E+01 -0.19335875429E+02  0.59301971368E+02  0.50000049861E+02 0.  0.
         12    1    1    2    0    0 -0.25238200723E+02 -0.24240395214E+01  0.19335875429E+02  0.31886028632E+02  0.00000000000E+00 0. -1.
         11    1    3    3    0    0  0.11260735022E+02 -0.96953863986E+01 -0.10873074395E+02  0.18412724343E+02  0.51100000000E-03 0. -1.
        -11    1    3    3    0    0  0.10305684150E+02 -0.37675879846E+01  0.10973939273E+02  0.15518672252E+02  0.51100000000E-03 0.  1.
        -12    1    3    3    0    0  0.36717815515E+01  0.15887013905E+02 -0.19436740307E+02  0.25370574773E+02  0.00000000000E+00 0.  1.
</event>
<event>
 7    1  0.5662448E-012  0.5930196E+02  0.7816164E-02  0.1266605E+00
        -11   -1    0    0    0    0  0.00000000000E+00  0.00000000000E+00  0.45593999997E+02  0.45594000000E+02  0.51100000000E-03 0.  1.
         11   -1    0    0    0    0 -0.00000000000E+00 -0.00000000000E+00 -0.45593999997E+02  0.45594000000E+02  0.51100000000E-03 0. -1.
    9900012    2    1    2    0    0 -0.17018333614E+02 -0.26218573870E+02 -0.62993988954E+01  0.59301957267E+02  0.50000024144E+02 0.  0.
         12    1    1    2    0    0  0.17018333614E+02  0.26218573870E+02  0.62993988954E+01  0.31886042733E+02  0.00000000000E+00 0. -1.
         11    1    3    3    0    0 -0.35151588748E+01  0.61048165174E+01  0.80101290670E+01  0.10667112756E+02  0.51100000000E-03 0. -1.
        -11    1    3    3    0    0 -0.23135356594E+02 -0.19191193330E+02 -0.74863120940E+01  0.30977273850E+02  0.51100000000E-03 0.  1.
        -12    1    3    3    0    0  0.96321818548E+01 -0.13132197057E+02 -0.68232158684E+01  0.17657570660E+02  0.00000000000E+00 0.  1.
</event>
<event>
 7    1  0.5662448E-012  0.5930217E+02  0.7816164E-02  0.1266604E+00
        -11   -1    0    0    0    0  0.00000000000E+00  0.00000000000E+00  0.45593999997E+02  0.45594000000E+02  0.51100000000E-03 0. -1.
         11   -1    0    0    0    0 -0.00000000000E+00 -0.00000000000E+00 -0.45593999997E+02  0.45594000000E+02  0.51100000000E-03 0.  1.
    9900012    2    1    2    0    0  0.12905358037E+02 -0.10810865881E+02 -0.27079204653E+02  0.59302165970E+02  0.50000404767E+02 0.  0.
         12    1    1    2    0    0 -0.12905358037E+02  0.10810865881E+02  0.27079204653E+02  0.31885834030E+02  0.00000000000E+00 0. -1.
         11    1    3    3    0    0  0.11996924258E+01 -0.35089802161E+01  0.82430158205E+01  0.90387783550E+01  0.51100000000E-03 0. -1.
        -11    1    3    3    0    0  0.15106980482E+01 -0.19654226966E+02 -0.18440483692E+02  0.26993004377E+02  0.51100000000E-03 0.  1.
        -12    1    3    3    0    0  0.10194967563E+02  0.12352341302E+02 -0.16881736782E+02  0.23270383237E+02  0.00000000000E+00 0.  1.
</event>
<event>
 7    1  0.5662448E-012  0.5930194E+02  0.7816164E-02  0.1266605E+00
        -11   -1    0    0    0    0  0.00000000000E+00  0.00000000000E+00  0.45593999997E+02  0.45594000000E+02  0.51100000000E-03 0. -1.
         11   -1    0    0    0    0 -0.00000000000E+00 -0.00000000000E+00 -0.45593999997E+02  0.45594000000E+02  0.51100000000E-03 0.  1.
    9900012    2    1    2    0    0  0.82082951050E+01 -0.93242660243E+01 -0.29366692186E+02  0.59301942618E+02  0.49999997429E+02 0.  0.
         12    1    1    2    0    0 -0.82082951050E+01  0.93242660243E+01  0.29366692186E+02  0.31886057382E+02  0.00000000000E+00 0. -1.
         11    1    3    3    0    0 -0.50413377262E+01 -0.27062811166E+01 -0.33568300944E+02  0.34052457651E+02  0.51100000000E-03 0. -1.
        -11    1    3    3    0    0 -0.42345954996E+01 -0.54807609229E+01 -0.93978297155E+00  0.69895444511E+01  0.51100000000E-03 0.  1.
         12    1    3    3    0    0  0.17484228331E+02 -0.11372239848E+01  0.51413917294E+01  0.18259940516E+02  0.00000000000E+00 0. -1.
</event>
<event>
 7    1  0.5662448E-012  0.5930198E+02  0.7816164E-02  0.1266605E+00
        -11   -1    0    0    0    0  0.00000000000E+00  0.00000000000E+00  0.45593999997E+02  0.45594000000E+02  0.51100000000E-03 0. -1.
         11   -1    0    0    0    0 -0.00000000000E+00 -0.00000000000E+00 -0.45593999997E+02  0.45594000000E+02  0.51100000000E-03 0.  1.
    9900012    2    1    2    0    0 -0.30566185453E+02  0.85474233401E+01 -0.30607099515E+01  0.59301982935E+02  0.50000070957E+02 0.  0.
         12    1    1    2    0    0  0.30566185453E+02 -0.85474233401E+01  0.30607099515E+01  0.31886017065E+02  0.00000000000E+00 0. -1.
         11    1    3    3    0    0 -0.91927236329E+01  0.93026214617E+01  0.19333042817E+02  0.23341197028E+02  0.51100000000E-03 0. -1.
        -11    1    3    3    0    0  0.15474802225E+01 -0.13587205840E+01  0.17221462142E+01  0.26845119684E+01  0.51100000000E-03 0.  1.
         12    1    3    3    0    0 -0.22920942042E+02  0.60352246236E+00 -0.24115898983E+02  0.33276273939E+02  0.00000000000E+00 0. -1.
</event>
<event>
 7    1  0.5662448E-012  0.5930192E+02  0.7816164E-02  0.1266605E+00
        -11   -1    0    0    0    0  0.00000000000E+00  0.00000000000E+00  0.45593999997E+02  0.45594000000E+02  0.51100000000E-03 0. -1.
         11   -1    0    0    0    0 -0.00000000000E+00 -0.00000000000E+00 -0.45593999997E+02  0.45594000000E+02  0.51100000000E-03 0.  1.
    9900012    2    1    2    0    0 -0.17237880020E+02 -0.14120260499E+02 -0.22807805001E+02  0.59301917877E+02  0.49999952308E+02 0.  0.
         12    1    1    2    0    0  0.17237880020E+02  0.14120260499E+02  0.22807805001E+02  0.31886082123E+02  0.00000000000E+00 0. -1.
         11    1    3    3    0    0 -0.10297186221E+02 -0.59853781043E+01  0.75580281366E+01  0.14106047806E+02  0.51100000000E-03 0. -1.
        -11    1    3    3    0    0 -0.15340320137E+01  0.10175381537E+02 -0.12321728590E+01  0.10363874462E+02  0.51100000000E-03 0.  1.
        -12    1    3    3    0    0 -0.54066617854E+01 -0.18310263932E+02 -0.29133660279E+02  0.34831995610E+02  0.00000000000E+00 0.  1.
</event>
<event>
 7    1  0.5662448E-012  0.5930193E+02  0.7816164E-02  0.1266605E+00
        -11   -1    0    0    0    0  0.00000000000E+00  0.00000000000E+00  0.45593999997E+02  0.45594000000E+02  0.51100000000E-03 0. -1.
         11   -1    0    0    0    0 -0.00000000000E+00 -0.00000000000E+00 -0.45593999997E+02  0.45594000000E+02  0.51100000000E-03 0.  1.
    9900012    2    1    2    0    0  0.20697788577E+02 -0.44025492326E+00 -0.24251381020E+02  0.59301925331E+02  0.49999965902E+02 0.  0.
         12    1    1    2    0    0 -0.20697788577E+02  0.44025492326E+00  0.24251381020E+02  0.31886074669E+02  0.00000000000E+00 0. -1.
         11    1    3    3    0    0  0.10191215457E+02 -0.10168279661E+02 -0.12032428798E+02  0.18762572499E+02  0.51100000000E-03 0. -1.
        -11    1    3    3    0    0 -0.57046918137E+01 -0.17949984120E+00 -0.19404812980E+02  0.20226776706E+02  0.51100000000E-03 0.  1.
         12    1    3    3    0    0  0.16211264934E+02  0.99075245788E+01  0.71858607578E+01  0.20312576126E+02  0.00000000000E+00 0. -1.
</event>
<event>
 7    1  0.5662448E-012  0.5930187E+02  0.7816164E-02  0.1266605E+00
        -11   -1    0    0    0    0  0.00000000000E+00  0.00000000000E+00  0.45593999997E+02  0.45594000000E+02  0.51100000000E-03 0.  1.
         11   -1    0    0    0    0 -0.00000000000E+00 -0.00000000000E+00 -0.45593999997E+02  0.45594000000E+02  0.51100000000E-03 0. -1.
    9900012    2    1    2    0    0  0.16484044582E+02  0.26541835204E+02  0.63665359016E+01  0.59301866319E+02  0.49999858277E+02 0.  0.
         12    1    1    2    0    0 -0.16484044582E+02 -0.26541835204E+02 -0.63665359016E+01  0.31886133681E+02  0.00000000000E+00 0. -1.
         11    1    3    3    0    0  0.64020759223E+01  0.60719321192E+01 -0.68738369750E+01  0.11185015458E+02  0.51100000000E-03 0. -1.
        -11    1    3    3    0    0  0.14429722612E+02 -0.68195461942E+01 -0.27425371489E+01  0.16193968483E+02  0.51100000000E-03 0.  1.
         12    1    3    3    0    0 -0.43477539530E+01  0.27289449279E+02  0.15982910026E+02  0.31922882377E+02  0.00000000000E+00 0. -1.
</event>
<event>
 7    1  0.5662448E-012  0.5930199E+02  0.7816164E-02  0.1266605E+00
        -11   -1    0    0    0    0  0.00000000000E+00  0.00000000000E+00  0.45593999997E+02  0.45594000000E+02  0.51100000000E-03 0.  1.
         11   -1    0    0    0    0 -0.00000000000E+00 -0.00000000000E+00 -0.45593999997E+02  0.45594000000E+02  0.51100000000E-03 0. -1.
    9900012    2    1    2    0    0 -0.13828520604E+02 -0.25773767614E+02  0.12696568433E+02  0.59301985368E+02  0.50000075395E+02 0.  0.
         12    1    1    2    0    0  0.13828520604E+02  0.25773767614E+02 -0.12696568433E+02  0.31886014632E+02  0.00000000000E+00 0. -1.
         11    1    3    3    0    0  0.11612503963E+02 -0.21925465789E+02  0.27100021355E+01  0.24958373548E+02  0.51100000000E-03 0.  1.
        -11    1    3    3    0    0 -0.28056985143E+01 -0.69117232222E+01 -0.30323517104E+01  0.80522679544E+01  0.51100000000E-03 0. -1.
        -12    1    3    3    0    0 -0.22635326053E+02  0.30634213965E+01  0.13018918008E+02  0.26291343865E+02  0.00000000000E+00 0.  1.
</event>
<event>
 7    1  0.5662448E-012  0.5930194E+02  0.7816164E-02  0.1266605E+00
        -11   -1    0    0    0    0  0.00000000000E+00  0.00000000000E+00  0.45593999997E+02  0.45594000000E+02  0.51100000000E-03 0.  1.
         11   -1    0    0    0    0 -0.00000000000E+00 -0.00000000000E+00 -0.45593999997E+02  0.45594000000E+02  0.51100000000E-03 0. -1.
    9900012    2    1    2    0    0  0.31741270860E+02  0.30317912167E+01  0.14470797864E+00  0.59301937618E+02  0.49999988311E+02 0.  0.
         12    1    1    2    0    0 -0.31741270860E+02 -0.30317912167E+01 -0.14470797864E+00  0.31886062382E+02  0.00000000000E+00 0. -1.
         11    1    3    3    0    0  0.15537289226E+02  0.42408425953E+01  0.56122158223E+01  0.17055470357E+02  0.51100000000E-03 0. -1.
        -11    1    3    3    0    0  0.85553383726E+01  0.14479305549E+02  0.94459953180E+01  0.19289140252E+02  0.51100000000E-03 0.  1.
         12    1    3    3    0    0  0.76486432617E+01 -0.15688356928E+02 -0.14913503162E+02  0.22957327009E+02  0.00000000000E+00 0. -1.
</event>
<event>
 7    1  0.5662448E-012  0.5930199E+02  0.7816164E-02  0.1266605E+00
        -11   -1    0    0    0    0  0.00000000000E+00  0.00000000000E+00  0.45593999997E+02  0.45594000000E+02  0.51100000000E-03 0.  1.
         11   -1    0    0    0    0 -0.00000000000E+00 -0.00000000000E+00 -0.45593999997E+02  0.45594000000E+02  0.51100000000E-03 0. -1.
    9900012    2    1    2    0    0  0.42433947930E+01 -0.13357704343E+02  0.28640578963E+02  0.59301993226E+02  0.50000089726E+02 0.  0.
         12    1    1    2    0    0 -0.42433947930E+01  0.13357704343E+02 -0.28640578963E+02  0.31886006774E+02  0.00000000000E+00 0. -1.
         11    1    3    3    0    0  0.16734343785E+02  0.47734787843E+01  0.27476410319E+02  0.32523491293E+02  0.51100000000E-03 0. -1.
        -11    1    3    3    0    0 -0.82632536598E+01 -0.73936729343E+01  0.77157935531E+01  0.13508561393E+02  0.51100000000E-03 0.  1.
        -12    1    3    3    0    0 -0.42276953325E+01 -0.10737510193E+02 -0.65516249094E+01  0.13269940539E+02  0.00000000000E+00 0.  1.
</event>
<event>
 7    1  0.7873985E-012  0.5930190E+02  0.7816164E-02  0.1266605E+00
        -11   -1    0    0    0    0  0.00000000000E+00  0.00000000000E+00  0.45593999997E+02  0.45594000000E+02  0.51100000000E-03 0. -1.
         11   -1    0    0    0    0 -0.00000000000E+00 -0.00000000000E+00 -0.45593999997E+02  0.45594000000E+02  0.51100000000E-03 0.  1.
    9900012    2    1    2    0    0 -0.26020004398E+02  0.67258094927E+01 -0.17159432525E+02  0.59301901669E+02  0.49999922748E+02 0.  0.
         12    1    1    2    0    0  0.26020004398E+02 -0.67258094927E+01  0.17159432525E+02  0.31886098331E+02  0.00000000000E+00 0. -1.
         11    1    3    3    0    0 -0.13093962205E+02  0.11168162898E+02  0.11247106436E+02  0.20559112632E+02  0.51100000000E-03 0. -1.
        -11    1    3    3    0    0  0.23551661747E+01 -0.87844750566E+01 -0.47862910924E+01  0.10277275535E+02  0.51100000000E-03 0.  1.
        -12    1    3    3    0    0 -0.15281208367E+02  0.43421216508E+01 -0.23620247869E+02  0.28465513503E+02  0.00000000000E+00 0.  1.
</event>
<event>
 7    1  0.5662448E-012  0.5930195E+02  0.7816164E-02  0.1266605E+00
        -11   -1    0    0    0    0  0.00000000000E+00  0.00000000000E+00  0.45593999997E+02  0.45594000000E+02  0.51100000000E-03 0.  1.
         11   -1    0    0    0    0 -0.00000000000E+00 -0.00000000000E+00 -0.45593999997E+02  0.45594000000E+02  0.51100000000E-03 0. -1.
    9900012    2    1    2    0    0  0.13583837877E+02 -0.14555194845E+01  0.28811126811E+02  0.59301949499E+02  0.50000009979E+02 0.  0.
         12    1    1    2    0    0 -0.13583837877E+02  0.14555194845E+01 -0.28811126811E+02  0.31886050501E+02  0.00000000000E+00 0. -1.
         11    1    3    3    0    0 -0.34299843290E+01 -0.10925171158E+02  0.10228624988E+02  0.15354117582E+02  0.51100000000E-03 0.  1.
        -11    1    3    3    0    0 -0.86728014439E+01  0.10914044567E+02  0.84221265273E+01  0.16286990796E+02  0.51100000000E-03 0. -1.
         12    1    3    3    0    0  0.25686623650E+02 -0.14443928942E+01  0.10160375295E+02  0.27660841120E+02  0.00000000000E+00 0. -1.
</event>
<event>
 7    1  0.9796817E-012  0.5930200E+02  0.7816164E-02  0.1266605E+00
        -11   -1    0    0    0    0  0.00000000000E+00  0.00000000000E+00  0.45593999997E+02  0.45594000000E+02  0.51100000000E-03 0. -1.
         11   -1    0    0    0    0 -0.00000000000E+00 -0.00000000000E+00 -0.45593999997E+02  0.45594000000E+02  0.51100000000E-03 0.  1.
    9900012    2    1    2    0    0 -0.15852780122E+02  0.11908755534E+02 -0.24971739104E+02  0.59302002292E+02  0.50000106259E+02 0.  0.
         12    1    1    2    0    0  0.15852780122E+02 -0.11908755534E+02  0.24971739104E+02  0.31885997708E+02  0.00000000000E+00 0. -1.
         11    1    3    3    0    0  0.10263361705E+02 -0.15741428594E+01  0.66897899708E+01  0.12351834251E+02  0.51100000000E-03 0. -1.
        -11    1    3    3    0    0 -0.17178427953E+02  0.82429585984E+01 -0.71712715730E+01  0.20358582701E+02  0.51100000000E-03 0.  1.
        -12    1    3    3    0    0 -0.89377138748E+01  0.52399397952E+01 -0.24490257502E+02  0.26591585340E+02  0.00000000000E+00 0.  1.
</event>
<event>
 7    1  0.5662448E-012  0.5930197E+02  0.7816164E-02  0.1266605E+00
        -11   -1    0    0    0    0  0.00000000000E+00  0.00000000000E+00  0.45593999997E+02  0.45594000000E+02  0.51100000000E-03 0. -1.
         11   -1    0    0    0    0 -0.00000000000E+00 -0.00000000000E+00 -0.45593999997E+02  0.45594000000E+02  0.51100000000E-03 0.  1.
    9900012    2    1    2    0    0 -0.29551402157E+02  0.38238038241E+01 -0.11349528304E+02  0.59301974255E+02  0.50000055127E+02 0.  0.
         12    1    1    2    0    0  0.29551402157E+02 -0.38238038241E+01  0.11349528304E+02  0.31886025745E+02  0.00000000000E+00 0. -1.
         11    1    3    3    0    0 -0.72147950937E+01 -0.74560329170E+01  0.43373751200E+01  0.11245377641E+02  0.51100000000E-03 0. -1.
        -11    1    3    3    0    0 -0.24577679548E+02  0.57285844270E+01  0.56792521151E+01  0.25867603607E+02  0.51100000000E-03 0.  1.
        -12    1    3    3    0    0  0.22410724850E+01  0.55512523141E+01 -0.21366155539E+02  0.22188993007E+02  0.00000000000E+00 0.  1.
</event>
<event>
 7    1  0.5662448E-012  0.5930195E+02  0.7816164E-02  0.1266605E+00
        -11   -1    0    0    0    0  0.00000000000E+00  0.00000000000E+00  0.45593999997E+02  0.45594000000E+02  0.51100000000E-03 0.  1.
         11   -1    0    0    0    0 -0.00000000000E+00 -0.00000000000E+00 -0.45593999997E+02  0.45594000000E+02  0.51100000000E-03 0. -1.
    9900012    2    1    2    0    0  0.17550354338E+02 -0.16550412663E+02  0.20851589474E+02  0.59301954771E+02  0.50000019594E+02 0.  0.
         12    1    1    2    0    0 -0.17550354338E+02  0.16550412663E+02 -0.20851589474E+02  0.31886045229E+02  0.00000000000E+00 0. -1.
         11    1    3    3    0    0 -0.40718820943E+01 -0.30302828821E+01 -0.13836312029E+01  0.52609194731E+01  0.51100000000E-03 0. -1.
        -11    1    3    3    0    0 -0.45070579989E+00  0.10167991292E+02 -0.53562014246E+01  0.11501307603E+02  0.51100000000E-03 0.  1.
        -12    1    3    3    0    0  0.22072942232E+02 -0.23688121073E+02  0.27591422102E+02  0.42539727695E+02  0.00000000000E+00 0.  1.
</event>
<event>
 7    1  0.5662448E-012  0.5930195E+02  0.7816164E-02  0.1266605E+00
        -11   -1    0    0    0    0  0.00000000000E+00  0.00000000000E+00  0.45593999997E+02  0.45594000000E+02  0.51100000000E-03 0.  1.
         11   -1    0    0    0    0 -0.00000000000E+00 -0.00000000000E+00 -0.45593999997E+02  0.45594000000E+02  0.51100000000E-03 0. -1.
    9900012    2    1    2    0    0  0.89086329039E+01 -0.26595413184E+02  0.15167084849E+02  0.59301949673E+02  0.50000010296E+02 0.  0.
         12    1    1    2    0    0 -0.89086329039E+01  0.26595413184E+02 -0.15167084849E+02  0.31886050327E+02  0.00000000000E+00 0. -1.
         11    1    3    3    0    0  0.55719284940E+01 -0.20168644307E+02  0.20802172253E+02  0.29505100763E+02  0.51100000000E-03 0. -1.
        -11    1    3    3    0    0 -0.31273991356E+00  0.10072658000E+02  0.33990322422E+01  0.10635302811E+02  0.51100000000E-03 0.  1.
         12    1    3    3    0    0  0.36494443235E+01 -0.16499426877E+02 -0.90341196468E+01  0.19161546100E+02  0.00000000000E+00 0. -1.
</event>
<event>
 7    1  0.5662448E-012  0.5930195E+02  0.7816164E-02  0.1266605E+00
        -11   -1    0    0    0    0  0.00000000000E+00  0.00000000000E+00  0.45593999997E+02  0.45594000000E+02  0.51100000000E-03 0. -1.
         11   -1    0    0    0    0 -0.00000000000E+00 -0.00000000000E+00 -0.45593999997E+02  0.45594000000E+02  0.51100000000E-03 0.  1.
    9900012    2    1    2    0    0 -0.17599883586E+02 -0.26191245074E+02  0.45806866632E+01  0.59301954289E+02  0.50000018715E+02 0.  0.
         12    1    1    2    0    0  0.17599883586E+02  0.26191245074E+02 -0.45806866632E+01  0.31886045711E+02  0.00000000000E+00 0. -1.
         11    1    3    3    0    0 -0.66306449283E+01 -0.25159364549E+02 -0.28034632165E+01  0.26169036722E+02  0.51100000000E-03 0. -1.
        -11    1    3    3    0    0 -0.13288390648E+02 -0.99852676407E+01 -0.52896089236E+01  0.17443246793E+02  0.51100000000E-03 0.  1.
         12    1    3    3    0    0  0.23191519896E+01  0.89533871161E+01  0.12673758803E+02  0.15689670774E+02  0.00000000000E+00 0. -1.
</event>
<event>
 7    1  0.5662448E-012  0.5930194E+02  0.7816164E-02  0.1266605E+00
        -11   -1    0    0    0    0  0.00000000000E+00  0.00000000000E+00  0.45593999997E+02  0.45594000000E+02  0.51100000000E-03 0.  1.
         11   -1    0    0    0    0 -0.00000000000E+00 -0.00000000000E+00 -0.45593999997E+02  0.45594000000E+02  0.51100000000E-03 0. -1.
    9900012    2    1    2    0    0 -0.11016612957E+02 -0.13027805056E+02  0.26937550734E+02  0.59301935564E+02  0.49999984564E+02 0.  0.
         12    1    1    2    0    0  0.11016612957E+02  0.13027805056E+02 -0.26937550734E+02  0.31886064436E+02  0.00000000000E+00 0. -1.
         11    1    3    3    0    0  0.78266812945E+01 -0.11453974880E+02  0.89039326586E+01  0.16484249989E+02  0.51100000000E-03 0. -1.
        -11    1    3    3    0    0  0.86323439075E+01  0.57444115837E+01  0.55985443130E+01  0.11783858641E+02  0.51100000000E-03 0.  1.
        -12    1    3    3    0    0 -0.27475638160E+02 -0.73182417600E+01  0.12435073763E+02  0.31033826935E+02  0.00000000000E+00 0.  1.
</event>
<event>
 7    1  0.5662448E-012  0.5930194E+02  0.7816164E-02  0.1266605E+00
        -11   -1    0    0    0    0  0.00000000000E+00  0.00000000000E+00  0.45593999997E+02  0.45594000000E+02  0.51100000000E-03 0. -1.
         11   -1    0    0    0    0 -0.00000000000E+00 -0.00000000000E+00 -0.45593999997E+02  0.45594000000E+02  0.51100000000E-03 0.  1.
    9900012    2    1    2    0    0 -0.11561654270E+02 -0.86824174042E+01 -0.28419438760E+02  0.59301941590E+02  0.49999995555E+02 0.  0.
         12    1    1    2    0    0  0.11561654270E+02  0.86824174042E+01  0.28419438760E+02  0.31886058410E+02  0.00000000000E+00 0. -1.
         11    1    3    3    0    0 -0.63717539627E+01  0.11311041931E+02 -0.18796840123E+02  0.22844257856E+02  0.51100000000E-03 0. -1.
        -11    1    3    3    0    0 -0.34153379697E+01  0.13848407732E+01  0.79269903326E+01  0.87418243753E+01  0.51100000000E-03 0.  1.
        -12    1    3    3    0    0 -0.17745623379E+01 -0.21378300108E+02 -0.17549588970E+02  0.27715859359E+02  0.00000000000E+00 0.  1.
</event>
<event>
 7    1  0.5662448E-012  0.5930196E+02  0.7816164E-02  0.1266605E+00
        -11   -1    0    0    0    0  0.00000000000E+00  0.00000000000E+00  0.45593999997E+02  0.45594000000E+02  0.51100000000E-03 0.  1.
         11   -1    0    0    0    0 -0.00000000000E+00 -0.00000000000E+00 -0.45593999997E+02  0.45594000000E+02  0.51100000000E-03 0. -1.
    9900012    2    1    2    0    0  0.10241993879E+02 -0.97322006043E+01  0.28585058959E+02  0.59301956612E+02  0.50000022952E+02 0.  0.
         12    1    1    2    0    0 -0.10241993879E+02  0.97322006043E+01 -0.28585058959E+02  0.31886043388E+02  0.00000000000E+00 0. -1.
         11    1    3    3    0    0  0.25887358326E+02 -0.67446392578E+01  0.79192465255E+01  0.27899102954E+02  0.51100000000E-03 0. -1.
        -11    1    3    3    0    0 -0.76377390847E+01  0.64534070760E+01  0.43054151357E+01  0.10886602820E+02  0.51100000000E-03 0.  1.
        -12    1    3    3    0    0 -0.80076253632E+01 -0.94409684225E+01  0.16360397298E+02  0.20516250838E+02  0.00000000000E+00 0.  1.
</event>
<event>
 7    1  0.5662448E-012  0.5930200E+02  0.7816164E-02  0.1266605E+00
        -11   -1    0    0    0    0  0.00000000000E+00  0.00000000000E+00  0.45593999997E+02  0.45594000000E+02  0.51100000000E-03 0. -1.
         11   -1    0    0    0    0 -0.00000000000E+00 -0.00000000000E+00 -0.45593999997E+02  0.45594000000E+02  0.51100000000E-03 0.  1.
    9900012    2    1    2    0    0  0.18760320187E+02 -0.18031057382E+02 -0.18429544326E+02  0.59302003891E+02  0.50000109175E+02 0.  0.
         12    1    1    2    0    0 -0.18760320187E+02  0.18031057382E+02  0.18429544326E+02  0.31885996109E+02  0.00000000000E+00 0. -1.
         11    1    3    3    0    0 -0.54147042319E+01 -0.41641483425E+01  0.67294528074E+01  0.95887793116E+01  0.51100000000E-03 0. -1.
        -11    1    3    3    0    0 -0.50782356516E+01  0.53078848302E+01 -0.15332457973E+01  0.75041962687E+01  0.51100000000E-03 0.  1.
        -12    1    3    3    0    0  0.29253260071E+02 -0.19174793870E+02 -0.23625751336E+02  0.42209028310E+02  0.00000000000E+00 0.  1.
</event>
<event>
 7    1  0.5662448E-012  0.5930193E+02  0.7816164E-02  0.1266605E+00
        -11   -1    0    0    0    0  0.00000000000E+00  0.00000000000E+00  0.45593999997E+02  0.45594000000E+02  0.51100000000E-03 0.  1.
         11   -1    0    0    0    0 -0.00000000000E+00 -0.00000000000E+00 -0.45593999997E+02  0.45594000000E+02  0.51100000000E-03 0. -1.
    9900012    2    1    2    0    0  0.21174510877E+02  0.23568250810E+02 -0.35914952464E+01  0.59301934152E+02  0.49999981989E+02 0.  0.
         12    1    1    2    0    0 -0.21174510877E+02 -0.23568250810E+02  0.35914952464E+01  0.31886065848E+02  0.00000000000E+00 0. -1.
         11    1    3    3    0    0  0.16522722422E+02  0.82821756977E+01 -0.84542763127E+01  0.20324113234E+02  0.51100000000E-03 0. -1.
        -11    1    3    3    0    0 -0.61598314879E+01 -0.52970350260E+01  0.12147166858E+02  0.14613547378E+02  0.51100000000E-03 0.  1.
         12    1    3    3    0    0  0.10811619943E+02  0.20583110139E+02 -0.72843857918E+01  0.24364273540E+02  0.00000000000E+00 0. -1.
</event>
<event>
 7    1  0.5662448E-012  0.5930203E+02  0.7816164E-02  0.1266604E+00
        -11   -1    0    0    0    0  0.00000000000E+00  0.00000000000E+00  0.45593999997E+02  0.45594000000E+02  0.51100000000E-03 0.  1.
         11   -1    0    0    0    0 -0.00000000000E+00 -0.00000000000E+00 -0.45593999997E+02  0.45594000000E+02  0.51100000000E-03 0. -1.
    9900012    2    1    2    0    0 -0.43026751279E+01 -0.20101124171E+02  0.24375126711E+02  0.59302031168E+02  0.50000158923E+02 0.  0.
         12    1    1    2    0    0  0.43026751279E+01  0.20101124171E+02 -0.24375126711E+02  0.31885968832E+02  0.00000000000E+00 0. -1.
         11    1    3    3    0    0 -0.97840164383E+01 -0.71452334693E+01 -0.69572804959E+01  0.13970865798E+02  0.51100000000E-03 0. -1.
        -11    1    3    3    0    0 -0.11990127403E+02 -0.57375856242E+01  0.89045581706E+01  0.15999193742E+02  0.51100000000E-03 0.  1.
        -12    1    3    3    0    0  0.17471468713E+02 -0.72183050773E+01  0.22427849036E+02  0.29331971628E+02  0.00000000000E+00 0.  1.
</event>
<event>
 7    1  0.5662448E-012  0.5930195E+02  0.7816164E-02  0.1266605E+00
        -11   -1    0    0    0    0  0.00000000000E+00  0.00000000000E+00  0.45593999997E+02  0.45594000000E+02  0.51100000000E-03 0.  1.
         11   -1    0    0    0    0 -0.00000000000E+00 -0.00000000000E+00 -0.45593999997E+02  0.45594000000E+02  0.51100000000E-03 0. -1.
    9900012    2    1    2    0    0  0.14884181816E+02 -0.38228448155E+01  0.27938628039E+02  0.59301953717E+02  0.50000017672E+02 0.  0.
         12    1    1    2    0    0 -0.14884181816E+02  0.38228448155E+01 -0.27938628039E+02  0.31886046283E+02  0.00000000000E+00 0. -1.
         11    1    3    3    0    0  0.19429138279E+02 -0.12340596170E+02 -0.19603394498E+01  0.23100317294E+02  0.51100000000E-03 0. -1.
        -11    1    3    3    0    0 -0.60838900432E+01  0.33103104055E+01  0.12443631943E+01  0.70370670779E+01  0.51100000000E-03 0.  1.
        -12    1    3    3    0    0  0.15389335807E+01  0.52074409486E+01  0.28654604295E+02  0.29164569345E+02  0.00000000000E+00 0.  1.
</event>
<event>
 7    1  0.5662448E-012  0.5930194E+02  0.7816164E-02  0.1266605E+00
        -11   -1    0    0    0    0  0.00000000000E+00  0.00000000000E+00  0.45593999997E+02  0.45594000000E+02  0.51100000000E-03 0. -1.
         11   -1    0    0    0    0 -0.00000000000E+00 -0.00000000000E+00 -0.45593999997E+02  0.45594000000E+02  0.51100000000E-03 0.  1.
    9900012    2    1    2    0    0 -0.87570988569E+01 -0.10953036298E+02 -0.28636774763E+02  0.59301942649E+02  0.49999997486E+02 0.  0.
         12    1    1    2    0    0  0.87570988569E+01  0.10953036298E+02  0.28636774763E+02  0.31886057351E+02  0.00000000000E+00 0. -1.
         11    1    3    3    0    0 -0.34446966969E+00 -0.16924116984E+02 -0.18866270421E+02  0.25347200139E+02  0.51100000000E-03 0. -1.
        -11    1    3    3    0    0 -0.11969882217E+02  0.76026628738E+01 -0.19128534409E+02  0.23811329067E+02  0.51100000000E-03 0.  1.
         12    1    3    3    0    0  0.35572530302E+01 -0.16315821882E+01  0.93580300662E+01  0.10143413443E+02  0.00000000000E+00 0. -1.
</event>
<event>
 7    1  0.5662448E-012  0.5930194E+02  0.7816164E-02  0.1266605E+00
        -11   -1    0    0    0    0  0.00000000000E+00  0.00000000000E+00  0.45593999997E+02  0.45594000000E+02  0.51100000000E-03 0.  1.
         11   -1    0    0    0    0 -0.00000000000E+00 -0.00000000000E+00 -0.45593999997E+02  0.45594000000E+02  0.51100000000E-03 0. -1.
    9900012    2    1    2    0    0 -0.97367840535E+01  0.29151251824E+02 -0.84923585979E+01  0.59301943468E+02  0.49999998979E+02 0.  0.
         12    1    1    2    0    0  0.97367840535E+01 -0.29151251824E+02  0.84923585979E+01  0.31886056532E+02  0.00000000000E+00 0. -1.
         11    1    3    3    0    0 -0.13772518294E+02 -0.35215143814E+01  0.50883123818E+00  0.14224705030E+02  0.51100000000E-03 0. -1.
        -11    1    3    3    0    0  0.73182966208E+00  0.33760170054E+01  0.96099261785E+01  0.10211941387E+02  0.51100000000E-03 0.  1.
         12    1    3    3    0    0  0.33039045782E+01  0.29296749200E+02 -0.18611116015E+02  0.34865297051E+02  0.00000000000E+00 0. -1.
</event>
<event>
 7    1  0.5662448E-012  0.5930194E+02  0.7816164E-02  0.1266605E+00
        -11   -1    0    0    0    0  0.00000000000E+00  0.00000000000E+00  0.45593999997E+02  0.45594000000E+02  0.51100000000E-03 0.  1.
         11   -1    0    0    0    0 -0.00000000000E+00 -0.00000000000E+00 -0.45593999997E+02  0.45594000000E+02  0.51100000000E-03 0. -1.
    9900012    2    1    2    0    0  0.42794582184E+01 -0.13159428227E+02  0.28726926740E+02  0.59301942956E+02  0.49999998046E+02 0.  0.
         12    1    1    2    0    0 -0.42794582184E+01  0.13159428227E+02 -0.28726926740E+02  0.31886057044E+02  0.00000000000E+00 0. -1.
         11    1    3    3    0    0 -0.40383196453E+00  0.11093753199E+02  0.15772687111E+02  0.19287615178E+02  0.51100000000E-03 0. -1.
        -11    1    3    3    0    0 -0.27716782251E+01  0.56049915333E+01  0.55516491868E+01  0.83617545542E+01  0.51100000000E-03 0.  1.
        -12    1    3    3    0    0  0.74549684080E+01 -0.29858172959E+02  0.74025904417E+01  0.31652573223E+02  0.00000000000E+00 0.  1.
</event>
<event>
 7    1  0.5662448E-012  0.5930191E+02  0.7816164E-02  0.1266605E+00
        -11   -1    0    0    0    0  0.00000000000E+00  0.00000000000E+00  0.45593999997E+02  0.45594000000E+02  0.51100000000E-03 0.  1.
         11   -1    0    0    0    0 -0.00000000000E+00 -0.00000000000E+00 -0.45593999997E+02  0.45594000000E+02  0.51100000000E-03 0. -1.
    9900012    2    1    2    0    0 -0.17526597382E+02 -0.73596938791E+01  0.25600311292E+02  0.59301911371E+02  0.49999940443E+02 0.  0.
         12    1    1    2    0    0  0.17526597382E+02  0.73596938791E+01 -0.25600311292E+02  0.31886088629E+02  0.00000000000E+00 0. -1.
         11    1    3    3    0    0 -0.10321019203E+02  0.23772901930E+01 -0.94306385523E+00  0.10633170540E+02  0.51100000000E-03 0. -1.
        -11    1    3    3    0    0  0.23083879784E+01  0.33040473764E+01 -0.88737905358E+01  0.97462578900E+01  0.51100000000E-03 0.  1.
        -12    1    3    3    0    0 -0.95139661580E+01 -0.13041031449E+02  0.35417165683E+02  0.38922482941E+02  0.00000000000E+00 0.  1.
</event>
<event>
 7    1  0.5662448E-012  0.5930192E+02  0.7816164E-02  0.1266605E+00
        -11   -1    0    0    0    0  0.00000000000E+00  0.00000000000E+00  0.45593999997E+02  0.45594000000E+02  0.51100000000E-03 0. -1.
         11   -1    0    0    0    0 -0.00000000000E+00 -0.00000000000E+00 -0.45593999997E+02  0.45594000000E+02  0.51100000000E-03 0.  1.
    9900012    2    1    2    0    0  0.16132742603E+02 -0.27260532825E+02 -0.36496255568E+01  0.59301924662E+02  0.49999964681E+02 0.  0.
         12    1    1    2    0    0 -0.16132742603E+02  0.27260532825E+02  0.36496255568E+01  0.31886075338E+02  0.00000000000E+00 0. -1.
         11    1    3    3    0    0  0.41648227447E+01 -0.20028556180E+00 -0.14974896976E+02  0.15544561831E+02  0.51100000000E-03 0. -1.
        -11    1    3    3    0    0  0.19942900607E+01  0.67368605508E+01  0.20602500436E+01  0.73216878812E+01  0.51100000000E-03 0.  1.
         12    1    3    3    0    0  0.99736297975E+01 -0.33797107814E+02  0.92650213759E+01  0.36435674949E+02  0.00000000000E+00 0. -1.
</event>
<event>
 7    1  0.5662448E-012  0.5930190E+02  0.7816164E-02  0.1266605E+00
        -11   -1    0    0    0    0  0.00000000000E+00  0.00000000000E+00  0.45593999997E+02  0.45594000000E+02  0.51100000000E-03 0.  1.
         11   -1    0    0    0    0 -0.00000000000E+00 -0.00000000000E+00 -0.45593999997E+02  0.45594000000E+02  0.51100000000E-03 0. -1.
    9900012    2    1    2    0    0 -0.25417847894E+02 -0.18965942684E+02 -0.33089413883E+01  0.59301904809E+02  0.49999928474E+02 0.  0.
         12    1    1    2    0    0  0.25417847894E+02  0.18965942684E+02  0.33089413883E+01  0.31886095191E+02  0.00000000000E+00 0. -1.
         11    1    3    3    0    0 -0.51349473299E+01 -0.20287777504E+01 -0.11239427853E+02  0.12522314561E+02  0.51100000000E-03 0. -1.
        -11    1    3    3    0    0 -0.16362433262E+02 -0.28993595867E+02  0.41474055209E+01  0.33549348672E+02  0.51100000000E-03 0.  1.
         12    1    3    3    0    0 -0.39204673021E+01  0.12056430933E+02  0.37830809438E+01  0.13230241575E+02  0.00000000000E+00 0. -1.
</event>
<event>
 7    1  0.5662448E-012  0.5930194E+02  0.7816164E-02  0.1266605E+00
        -11   -1    0    0    0    0  0.00000000000E+00  0.00000000000E+00  0.45593999997E+02  0.45594000000E+02  0.51100000000E-03 0.  1.
         11   -1    0    0    0    0 -0.00000000000E+00 -0.00000000000E+00 -0.45593999997E+02  0.45594000000E+02  0.51100000000E-03 0. -1.
    9900012    2    1    2    0    0  0.48931686064E+01 -0.41779353209E+01  0.31230155302E+02  0.59301939680E+02  0.49999992070E+02 0.  0.
         12    1    1    2    0    0 -0.48931686064E+01  0.41779353209E+01 -0.31230155302E+02  0.31886060320E+02  0.00000000000E+00 0. -1.
         11    1    3    3    0    0 -0.38932017723E+01 -0.10533668913E+02  0.16500217129E+02  0.19959267681E+02  0.51100000000E-03 0. -1.
        -11    1    3    3    0    0  0.12686075968E+02 -0.12038292220E+02  0.91022690200E+01  0.19715686765E+02  0.51100000000E-03 0.  1.
         12    1    3    3    0    0 -0.38997055892E+01  0.18394025812E+02  0.56276691531E+01  0.19626985233E+02  0.00000000000E+00 0. -1.
</event>
<event>
 7    1  0.5662448E-012  0.5930226E+02  0.7816164E-02  0.1266604E+00
        -11   -1    0    0    0    0  0.00000000000E+00  0.00000000000E+00  0.45593999997E+02  0.45594000000E+02  0.51100000000E-03 0.  1.
         11   -1    0    0    0    0 -0.00000000000E+00 -0.00000000000E+00 -0.45593999997E+02  0.45594000000E+02  0.51100000000E-03 0. -1.
    9900012    2    1    2    0    0 -0.31679432664E+01 -0.20364706226E+02  0.24329885259E+02  0.59302259599E+02  0.50000575523E+02 0.  0.
         12    1    1    2    0    0  0.31679432664E+01  0.20364706226E+02 -0.24329885259E+02  0.31885740401E+02  0.00000000000E+00 0. -1.
         11    1    3    3    0    0 -0.14963206004E+00 -0.27366799303E+02  0.33606366133E-02  0.27367208579E+02  0.51100000000E-03 0. -1.
        -11    1    3    3    0    0 -0.46867749297E+01 -0.29731532113E+01 -0.42691293392E-01  0.55504344034E+01  0.51100000000E-03 0.  1.
        -12    1    3    3    0    0  0.16684637233E+01  0.99752462877E+01  0.24369215915E+02  0.26384616617E+02  0.00000000000E+00 0.  1.
</event>
<event>
 7    1  0.5662448E-012  0.5930193E+02  0.7816164E-02  0.1266605E+00
        -11   -1    0    0    0    0  0.00000000000E+00  0.00000000000E+00  0.45593999997E+02  0.45594000000E+02  0.51100000000E-03 0.  1.
         11   -1    0    0    0    0 -0.00000000000E+00 -0.00000000000E+00 -0.45593999997E+02  0.45594000000E+02  0.51100000000E-03 0. -1.
    9900012    2    1    2    0    0  0.27150833876E+02 -0.65419486113E+01  0.15386889569E+02  0.59301933413E+02  0.49999980640E+02 0.  0.
         12    1    1    2    0    0 -0.27150833876E+02  0.65419486113E+01 -0.15386889569E+02  0.31886066587E+02  0.00000000000E+00 0. -1.
         11    1    3    3    0    0  0.25279920187E+01 -0.15574893618E+02  0.17001683077E+02  0.23195372008E+02  0.51100000000E-03 0.  1.
        -11    1    3    3    0    0 -0.46809944855E+01  0.28573034919E+01 -0.27551983885E+01  0.61373456020E+01  0.51100000000E-03 0. -1.
        -12    1    3    3    0    0  0.29303836343E+02  0.61756415147E+01  0.11404048800E+01  0.29969215803E+02  0.00000000000E+00 0.  1.
</event>
<event>
 7    1  0.5662448E-012  0.5930191E+02  0.7816164E-02  0.1266605E+00
        -11   -1    0    0    0    0  0.00000000000E+00  0.00000000000E+00  0.45593999997E+02  0.45594000000E+02  0.51100000000E-03 0.  1.
         11   -1    0    0    0    0 -0.00000000000E+00 -0.00000000000E+00 -0.45593999997E+02  0.45594000000E+02  0.51100000000E-03 0. -1.
    9900012    2    1    2    0    0  0.30335849648E+02  0.92633688423E+01  0.32633145345E+01  0.59301905884E+02  0.49999930436E+02 0.  0.
         12    1    1    2    0    0 -0.30335849648E+02 -0.92633688423E+01 -0.32633145345E+01  0.31886094116E+02  0.00000000000E+00 0. -1.
         11    1    3    3    0    0  0.60019084203E+01  0.80410217806E-01  0.21479851737E+01  0.63752028248E+01  0.51100000000E-03 0. -1.
        -11    1    3    3    0    0  0.24502814098E+02  0.25420924657E+02  0.63316525306E+01  0.35870616571E+02  0.51100000000E-03 0.  1.
         12    1    3    3    0    0 -0.16887287010E+00 -0.16237966032E+02 -0.52163231699E+01  0.17056086489E+02  0.00000000000E+00 0. -1.
</event>
<event>
 7    1  0.5662448E-012  0.5930195E+02  0.7816164E-02  0.1266605E+00
        -11   -1    0    0    0    0  0.00000000000E+00  0.00000000000E+00  0.45593999997E+02  0.45594000000E+02  0.51100000000E-03 0. -1.
         11   -1    0    0    0    0 -0.00000000000E+00 -0.00000000000E+00 -0.45593999997E+02  0.45594000000E+02  0.51100000000E-03 0.  1.
    9900012    2    1    2    0    0 -0.28960241739E+02  0.66987123916E+01  0.11539130200E+02  0.59301954854E+02  0.50000019745E+02 0.  0.
         12    1    1    2    0    0  0.28960241739E+02 -0.66987123916E+01 -0.11539130200E+02  0.31886045146E+02  0.00000000000E+00 0. -1.
         11    1    3    3    0    0  0.23497101034E+01  0.10227075535E+02 -0.21098737709E+01  0.10703540496E+02  0.51100000000E-03 0. -1.
        -11    1    3    3    0    0 -0.13339587973E+02  0.60367014755E+01 -0.97439878561E+01  0.17587827370E+02  0.51100000000E-03 0.  1.
        -12    1    3    3    0    0 -0.17970363869E+02 -0.95650646187E+01  0.23392991827E+02  0.31010586988E+02  0.00000000000E+00 0.  1.
</event>
<event>
 7    1  0.5662448E-012  0.5930194E+02  0.7816164E-02  0.1266605E+00
        -11   -1    0    0    0    0  0.00000000000E+00  0.00000000000E+00  0.45593999997E+02  0.45594000000E+02  0.51100000000E-03 0. -1.
         11   -1    0    0    0    0 -0.00000000000E+00 -0.00000000000E+00 -0.45593999997E+02  0.45594000000E+02  0.51100000000E-03 0.  1.
    9900012    2    1    2    0    0 -0.44696745064E+01 -0.17230276281E+02  0.26454874129E+02  0.59301940725E+02  0.49999993977E+02 0.  0.
         12    1    1    2    0    0  0.44696745064E+01  0.17230276281E+02 -0.26454874129E+02  0.31886059275E+02  0.00000000000E+00 0. -1.
         11    1    3    3    0    0  0.81545191347E+01 -0.33273353862E+01  0.12147766533E+02  0.15004518489E+02  0.51100000000E-03 0. -1.
        -11    1    3    3    0    0  0.46822983978E+01  0.28291168290E+01 -0.91664074313E+01  0.10674776146E+02  0.51100000000E-03 0.  1.
        -12    1    3    3    0    0 -0.17306492039E+02 -0.16732057724E+02  0.23473515027E+02  0.33622646090E+02  0.00000000000E+00 0.  1.
</event>
<event>
 7    1  0.5662448E-012  0.5930193E+02  0.7816164E-02  0.1266605E+00
        -11   -1    0    0    0    0  0.00000000000E+00  0.00000000000E+00  0.45593999997E+02  0.45594000000E+02  0.51100000000E-03 0. -1.
         11   -1    0    0    0    0 -0.00000000000E+00 -0.00000000000E+00 -0.45593999997E+02  0.45594000000E+02  0.51100000000E-03 0.  1.
    9900012    2    1    2    0    0  0.94151673312E+01 -0.29775418494E+02 -0.64420880491E+01  0.59301930615E+02  0.49999975539E+02 0.  0.
         12    1    1    2    0    0 -0.94151673312E+01  0.29775418494E+02  0.64420880491E+01  0.31886069385E+02  0.00000000000E+00 0. -1.
         11    1    3    3    0    0 -0.24929528686E+01 -0.17091087150E+02  0.54181951736E+00  0.17280441043E+02  0.51100000000E-03 0. -1.
        -11    1    3    3    0    0  0.21661242895E+02 -0.19810320092E+02 -0.46817010659E+01  0.29725015577E+02  0.51100000000E-03 0.  1.
         12    1    3    3    0    0 -0.97531226954E+01  0.71259887481E+01 -0.23022065005E+01  0.12296473995E+02  0.00000000000E+00 0. -1.
</event>
<event>
 7    1  0.5662448E-012  0.5930196E+02  0.7816164E-02  0.1266605E+00
        -11   -1    0    0    0    0  0.00000000000E+00  0.00000000000E+00  0.45593999997E+02  0.45594000000E+02  0.51100000000E-03 0.  1.
         11   -1    0    0    0    0 -0.00000000000E+00 -0.00000000000E+00 -0.45593999997E+02  0.45594000000E+02  0.51100000000E-03 0. -1.
    9900012    2    1    2    0    0  0.14493080923E+02  0.18178635412E+02  0.21822181536E+02  0.59301956234E+02  0.50000022261E+02 0.  0.
         12    1    1    2    0    0 -0.14493080923E+02 -0.18178635412E+02 -0.21822181536E+02  0.31886043766E+02  0.00000000000E+00 0. -1.
         11    1    3    3    0    0  0.93755284491E+01 -0.85457487565E+01  0.22779471092E+00  0.12687877923E+02  0.51100000000E-03 0. -1.
        -11    1    3    3    0    0 -0.21037723521E+01  0.18607901238E+00  0.18857031714E+02  0.18974934224E+02  0.51100000000E-03 0.  1.
        -12    1    3    3    0    0  0.72213248265E+01  0.26538305156E+02  0.27373551112E+01  0.27639144086E+02  0.00000000000E+00 0.  1.
</event>
<event>
 7    1  0.5662448E-012  0.5930195E+02  0.7816164E-02  0.1266605E+00
        -11   -1    0    0    0    0  0.00000000000E+00  0.00000000000E+00  0.45593999997E+02  0.45594000000E+02  0.51100000000E-03 0. -1.
         11   -1    0    0    0    0 -0.00000000000E+00 -0.00000000000E+00 -0.45593999997E+02  0.45594000000E+02  0.51100000000E-03 0.  1.
    9900012    2    1    2    0    0 -0.25671223758E+02  0.54520868492E+01 -0.18110313031E+02  0.59301946335E+02  0.50000004208E+02 0.  0.
         12    1    1    2    0    0  0.25671223758E+02 -0.54520868492E+01  0.18110313031E+02  0.31886053665E+02  0.00000000000E+00 0. -1.
         11    1    3    3    0    0 -0.10697026978E+01 -0.16492298205E-01 -0.18134676002E+02  0.18166205158E+02  0.51100000000E-03 0. -1.
        -11    1    3    3    0    0 -0.16246382993E+02 -0.27133154015E+00 -0.15590908502E+02  0.22518770156E+02  0.51100000000E-03 0.  1.
         12    1    3    3    0    0 -0.83551380667E+01  0.57399106875E+01  0.15615271473E+02  0.18616971021E+02  0.00000000000E+00 0. -1.
</event>
<event>
 7    1  0.5662448E-012  0.5930192E+02  0.7816164E-02  0.1266605E+00
        -11   -1    0    0    0    0  0.00000000000E+00  0.00000000000E+00  0.45593999997E+02  0.45594000000E+02  0.51100000000E-03 0.  1.
         11   -1    0    0    0    0 -0.00000000000E+00 -0.00000000000E+00 -0.45593999997E+02  0.45594000000E+02  0.51100000000E-03 0. -1.
    9900012    2    1    2    0    0 -0.22093674868E+02 -0.12443612477E+01  0.22957419706E+02  0.59301921162E+02  0.49999958299E+02 0.  0.
         12    1    1    2    0    0  0.22093674868E+02  0.12443612477E+01 -0.22957419706E+02  0.31886078838E+02  0.00000000000E+00 0. -1.
         11    1    3    3    0    0 -0.19192239522E+01  0.91327783805E+01  0.23712900973E+02  0.25483185326E+02  0.51100000000E-03 0. -1.
        -11    1    3    3    0    0 -0.15072813125E+01  0.23710898148E+01  0.88294531205E+01  0.92657005420E+01  0.51100000000E-03 0.  1.
         12    1    3    3    0    0 -0.18667169603E+02 -0.12748229443E+02 -0.95849343878E+01  0.24553035294E+02  0.00000000000E+00 0. -1.
</event>
<event>
 7    1  0.5662448E-012  0.5930195E+02  0.7816164E-02  0.1266605E+00
        -11   -1    0    0    0    0  0.00000000000E+00  0.00000000000E+00  0.45593999997E+02  0.45594000000E+02  0.51100000000E-03 0.  1.
         11   -1    0    0    0    0 -0.00000000000E+00 -0.00000000000E+00 -0.45593999997E+02  0.45594000000E+02  0.51100000000E-03 0. -1.
    9900012    2    1    2    0    0  0.24986220160E+02  0.71512019887E+01  0.18473474780E+02  0.59301950414E+02  0.50000011646E+02 0.  0.
         12    1    1    2    0    0 -0.24986220160E+02 -0.71512019887E+01 -0.18473474780E+02  0.31886049586E+02  0.00000000000E+00 0. -1.
         11    1    3    3    0    0  0.13368657307E+02  0.11070609942E+02  0.14762280207E+02  0.22786055381E+02  0.51100000000E-03 0.  1.
        -11    1    3    3    0    0  0.17643272323E+02  0.47538882823E+01 -0.86844976562E+01  0.20231287944E+02  0.51100000000E-03 0. -1.
         12    1    3    3    0    0 -0.60257094692E+01 -0.86732962353E+01  0.12395692229E+02  0.16284607089E+02  0.00000000000E+00 0. -1.
</event>
<event>
 7    1  0.5662448E-012  0.5930194E+02  0.7816164E-02  0.1266605E+00
        -11   -1    0    0    0    0  0.00000000000E+00  0.00000000000E+00  0.45593999997E+02  0.45594000000E+02  0.51100000000E-03 0. -1.
         11   -1    0    0    0    0 -0.00000000000E+00 -0.00000000000E+00 -0.45593999997E+02  0.45594000000E+02  0.51100000000E-03 0.  1.
    9900012    2    1    2    0    0 -0.21807858078E+02  0.21953211375E+02 -0.76937987484E+01  0.59301941874E+02  0.49999996071E+02 0.  0.
         12    1    1    2    0    0  0.21807858078E+02 -0.21953211375E+02  0.76937987484E+01  0.31886058126E+02  0.00000000000E+00 0. -1.
         11    1    3    3    0    0 -0.68025733606E+01  0.83295063433E+01  0.14053722592E+02  0.17696406392E+02  0.51100000000E-03 0. -1.
        -11    1    3    3    0    0 -0.48429214939E+01  0.19003420194E+02 -0.33273555791E+01  0.19891082502E+02  0.51100000000E-03 0.  1.
        -12    1    3    3    0    0 -0.10162363224E+02 -0.53797151622E+01 -0.18420165761E+02  0.21714452979E+02  0.00000000000E+00 0.  1.
</event>
<event>
 7    1  0.5662448E-012  0.5930191E+02  0.7816164E-02  0.1266605E+00
        -11   -1    0    0    0    0  0.00000000000E+00  0.00000000000E+00  0.45593999997E+02  0.45594000000E+02  0.51100000000E-03 0.  1.
         11   -1    0    0    0    0 -0.00000000000E+00 -0.00000000000E+00 -0.45593999997E+02  0.45594000000E+02  0.51100000000E-03 0. -1.
    9900012    2    1    2    0    0  0.24522078000E+02  0.20374302754E+02 -0.52743199549E+00  0.59301910452E+02  0.49999938766E+02 0.  0.
         12    1    1    2    0    0 -0.24522078000E+02 -0.20374302754E+02  0.52743199549E+00  0.31886089548E+02  0.00000000000E+00 0. -1.
         11    1    3    3    0    0  0.27687118607E+02  0.22073179134E+02 -0.32085637564E+01  0.35554136967E+02  0.51100000000E-03 0.  1.
        -11    1    3    3    0    0  0.10027476823E+02 -0.10683168311E+01 -0.71815681520E+00  0.10109764674E+02  0.51100000000E-03 0. -1.
        -12    1    3    3    0    0 -0.13192517431E+02 -0.63055954917E+00  0.33992885761E+01  0.13638008811E+02  0.00000000000E+00 0.  1.
</event>
<event>
 7    1  0.5662448E-012  0.5930191E+02  0.7816164E-02  0.1266605E+00
        -11   -1    0    0    0    0  0.00000000000E+00  0.00000000000E+00  0.45593999997E+02  0.45594000000E+02  0.51100000000E-03 0. -1.
         11   -1    0    0    0    0 -0.00000000000E+00 -0.00000000000E+00 -0.45593999997E+02  0.45594000000E+02  0.51100000000E-03 0.  1.
    9900012    2    1    2    0    0 -0.11850593944E+02 -0.28239752016E+02 -0.88770773207E+01  0.59301910987E+02  0.49999939742E+02 0.  0.
         12    1    1    2    0    0  0.11850593944E+02  0.28239752016E+02  0.88770773207E+01  0.31886089013E+02  0.00000000000E+00 0. -1.
         11    1    3    3    0    0 -0.74061518955E+01 -0.88091201437E+01  0.51099070943E+01  0.12592173537E+02  0.51100000000E-03 0.  1.
        -11    1    3    3    0    0  0.90921357042E+01 -0.11801494821E+01 -0.21012612937E+02  0.22925740712E+02  0.51100000000E-03 0. -1.
         12    1    3    3    0    0 -0.13536577753E+02 -0.18250482390E+02  0.70256285223E+01  0.23783996739E+02  0.00000000000E+00 0. -1.
</event>
<event>
 7    1  0.5662448E-012  0.5930199E+02  0.7816164E-02  0.1266605E+00
        -11   -1    0    0    0    0  0.00000000000E+00  0.00000000000E+00  0.45593999997E+02  0.45594000000E+02  0.51100000000E-03 0.  1.
         11   -1    0    0    0    0 -0.00000000000E+00 -0.00000000000E+00 -0.45593999997E+02  0.45594000000E+02  0.51100000000E-03 0. -1.
    9900012    2    1    2    0    0 -0.13142066074E+01 -0.52120518708E+01  0.31429688536E+02  0.59301985116E+02  0.50000074935E+02 0.  0.
         12    1    1    2    0    0  0.13142066074E+01  0.52120518708E+01 -0.31429688536E+02  0.31886014884E+02  0.00000000000E+00 0. -1.
         11    1    3    3    0    0  0.15982655906E+01  0.42554867286E+01 -0.74076614312E+01  0.86912063798E+01  0.51100000000E-03 0. -1.
        -11    1    3    3    0    0 -0.77676601136E+01  0.12862878999E+01 -0.19830526985E+01  0.81193336222E+01  0.51100000000E-03 0.  1.
        -12    1    3    3    0    0  0.48551879156E+01 -0.10753826499E+02  0.40820402666E+02  0.42491445114E+02  0.00000000000E+00 0.  1.
</event>
<event>
 7    1  0.5662448E-012  0.5930193E+02  0.7816164E-02  0.1266605E+00
        -11   -1    0    0    0    0  0.00000000000E+00  0.00000000000E+00  0.45593999997E+02  0.45594000000E+02  0.51100000000E-03 0. -1.
         11   -1    0    0    0    0 -0.00000000000E+00 -0.00000000000E+00 -0.45593999997E+02  0.45594000000E+02  0.51100000000E-03 0.  1.
    9900012    2    1    2    0    0 -0.19391163517E+02 -0.23860642613E+02 -0.84483019412E+01  0.59301932601E+02  0.49999979161E+02 0.  0.
         12    1    1    2    0    0  0.19391163517E+02  0.23860642613E+02  0.84483019412E+01  0.31886067399E+02  0.00000000000E+00 0. -1.
         11    1    3    3    0    0  0.59452471092E+01 -0.17341131437E+02 -0.43480545489E+00  0.18337116970E+02  0.51100000000E-03 0. -1.
        -11    1    3    3    0    0 -0.12134095753E+02 -0.42234843752E+01 -0.19475034921E+02  0.23331332698E+02  0.51100000000E-03 0.  1.
         12    1    3    3    0    0 -0.13202314874E+02 -0.22960268007E+01  0.11461538435E+02  0.17633482934E+02  0.00000000000E+00 0. -1.
</event>
<event>
 7    1  0.5662448E-012  0.5930186E+02  0.7816164E-02  0.1266605E+00
        -11   -1    0    0    0    0  0.00000000000E+00  0.00000000000E+00  0.45593999997E+02  0.45594000000E+02  0.51100000000E-03 0. -1.
         11   -1    0    0    0    0 -0.00000000000E+00 -0.00000000000E+00 -0.45593999997E+02  0.45594000000E+02  0.51100000000E-03 0.  1.
    9900012    2    1    2    0    0  0.20783761852E+02 -0.24105933489E+02 -0.19143951163E+01  0.59301863596E+02  0.49999853311E+02 0.  0.
         12    1    1    2    0    0 -0.20783761852E+02  0.24105933489E+02  0.19143951163E+01  0.31886136404E+02  0.00000000000E+00 0. -1.
         11    1    3    3    0    0 -0.62869750293E+00 -0.73085729295E+00  0.15026704623E+02  0.15057598249E+02  0.51100000000E-03 0. -1.
        -11    1    3    3    0    0  0.12499500596E+02  0.24149219484E+01 -0.13108180245E+01  0.12797953248E+02  0.51100000000E-03 0.  1.
        -12    1    3    3    0    0  0.89129587590E+01 -0.25789998145E+02 -0.15630281715E+02  0.31446312099E+02  0.00000000000E+00 0.  1.
</event>
<event>
 7    1  0.5662448E-012  0.5930195E+02  0.7816164E-02  0.1266605E+00
        -11   -1    0    0    0    0  0.00000000000E+00  0.00000000000E+00  0.45593999997E+02  0.45594000000E+02  0.51100000000E-03 0.  1.
         11   -1    0    0    0    0 -0.00000000000E+00 -0.00000000000E+00 -0.45593999997E+02  0.45594000000E+02  0.51100000000E-03 0. -1.
    9900012    2    1    2    0    0  0.29690702839E+02  0.88542294760E+01  0.75355947135E+01  0.59301946585E+02  0.50000004663E+02 0.  0.
         12    1    1    2    0    0 -0.29690702839E+02 -0.88542294760E+01 -0.75355947135E+01  0.31886053415E+02  0.00000000000E+00 0. -1.
         11    1    3    3    0    0  0.23316866910E+02 -0.11295364619E+01  0.18225472351E+02  0.29616211402E+02  0.51100000000E-03 0.  1.
        -11    1    3    3    0    0  0.10707111998E+02  0.67365295453E+01  0.46038021634E+01  0.13461726199E+02  0.51100000000E-03 0. -1.
         12    1    3    3    0    0 -0.43332760681E+01  0.32472363925E+01 -0.15293679800E+02  0.16224008984E+02  0.00000000000E+00 0. -1.
</event>
<event>
 7    1  0.5662448E-012  0.5930195E+02  0.7816164E-02  0.1266605E+00
        -11   -1    0    0    0    0  0.00000000000E+00  0.00000000000E+00  0.45593999997E+02  0.45594000000E+02  0.51100000000E-03 0. -1.
         11   -1    0    0    0    0 -0.00000000000E+00 -0.00000000000E+00 -0.45593999997E+02  0.45594000000E+02  0.51100000000E-03 0.  1.
    9900012    2    1    2    0    0 -0.40148141931E+01  0.12639245719E+02 -0.28997431267E+02  0.59301948419E+02  0.50000008008E+02 0.  0.
         12    1    1    2    0    0  0.40148141931E+01 -0.12639245719E+02  0.28997431267E+02  0.31886051581E+02  0.00000000000E+00 0. -1.
         11    1    3    3    0    0 -0.22627214297E+01  0.28896458293E+01 -0.93879015700E+01  0.10079814355E+02  0.51100000000E-03 0. -1.
        -11    1    3    3    0    0 -0.14629029048E+02 -0.80596344545E+01 -0.21429906423E+02  0.27169966654E+02  0.51100000000E-03 0.  1.
         12    1    3    3    0    0  0.12876936285E+02  0.17809234344E+02  0.18203767257E+01  0.22052167409E+02  0.00000000000E+00 0. -1.
</event>
<event>
 7    1  0.5662448E-012  0.5930194E+02  0.7816164E-02  0.1266605E+00
        -11   -1    0    0    0    0  0.00000000000E+00  0.00000000000E+00  0.45593999997E+02  0.45594000000E+02  0.51100000000E-03 0.  1.
         11   -1    0    0    0    0 -0.00000000000E+00 -0.00000000000E+00 -0.45593999997E+02  0.45594000000E+02  0.51100000000E-03 0. -1.
    9900012    2    1    2    0    0 -0.20291516425E+02 -0.22493223749E+02  0.99513759688E+01  0.59301942905E+02  0.49999997952E+02 0.  0.
         12    1    1    2    0    0  0.20291516425E+02  0.22493223749E+02 -0.99513759688E+01  0.31886057095E+02  0.00000000000E+00 0. -1.
         11    1    3    3    0    0 -0.14409879396E+02 -0.56193810881E+01 -0.14349308562E+02  0.21097979157E+02  0.51100000000E-03 0. -1.
        -11    1    3    3    0    0 -0.57786884013E+01  0.34796955338E+01  0.32425904285E+00  0.67532706769E+01  0.51100000000E-03 0.  1.
        -12    1    3    3    0    0 -0.10294862788E+00 -0.20353538194E+02  0.23976425488E+02  0.31450693071E+02  0.00000000000E+00 0.  1.
</event>
<event>
 7    1  0.5662448E-012  0.5930194E+02  0.7816164E-02  0.1266605E+00
        -11   -1    0    0    0    0  0.00000000000E+00  0.00000000000E+00  0.45593999997E+02  0.45594000000E+02  0.51100000000E-03 0. -1.
         11   -1    0    0    0    0 -0.00000000000E+00 -0.00000000000E+00 -0.45593999997E+02  0.45594000000E+02  0.51100000000E-03 0.  1.
    9900012    2    1    2    0    0  0.21969618497E+02  0.22788671067E+02  0.38383739007E+01  0.59301940662E+02  0.49999993862E+02 0.  0.
         12    1    1    2    0    0 -0.21969618497E+02 -0.22788671067E+02 -0.38383739007E+01  0.31886059338E+02  0.00000000000E+00 0. -1.
         11    1    3    3    0    0 -0.15044642029E+01  0.97691178151E+01  0.64865719069E+01  0.11822634680E+02  0.51100000000E-03 0. -1.
        -11    1    3    3    0    0  0.29155625799E+02  0.54407321692E+01  0.10335110586E+02  0.31408065737E+02  0.51100000000E-03 0.  1.
         12    1    3    3    0    0 -0.56815430991E+01  0.75788210827E+01 -0.12983308592E+02  0.16071240244E+02  0.00000000000E+00 0. -1.
</event>
<event>
 7    1  0.5662448E-012  0.5930198E+02  0.7816164E-02  0.1266605E+00
        -11   -1    0    0    0    0  0.00000000000E+00  0.00000000000E+00  0.45593999997E+02  0.45594000000E+02  0.51100000000E-03 0. -1.
         11   -1    0    0    0    0 -0.00000000000E+00 -0.00000000000E+00 -0.45593999997E+02  0.45594000000E+02  0.51100000000E-03 0.  1.
    9900012    2    1    2    0    0  0.24114234940E+02  0.20316445144E+02  0.47396084676E+01  0.59301981772E+02  0.50000068836E+02 0.  0.
         12    1    1    2    0    0 -0.24114234940E+02 -0.20316445144E+02 -0.47396084676E+01  0.31886018228E+02  0.00000000000E+00 0. -1.
         11    1    3    3    0    0 -0.25765596438E+00  0.24990144288E+02  0.54593205094E+01  0.25580810754E+02  0.51100000000E-03 0. -1.
        -11    1    3    3    0    0  0.41747078239E+01  0.39243737739E+01 -0.86550543541E+01  0.10379733189E+02  0.51100000000E-03 0.  1.
         12    1    3    3    0    0  0.20197183081E+02 -0.85980729183E+01  0.79353423123E+01  0.23341437829E+02  0.00000000000E+00 0. -1.
</event>
<event>
 7    1  0.5662448E-012  0.5930194E+02  0.7816164E-02  0.1266605E+00
        -11   -1    0    0    0    0  0.00000000000E+00  0.00000000000E+00  0.45593999997E+02  0.45594000000E+02  0.51100000000E-03 0.  1.
         11   -1    0    0    0    0 -0.00000000000E+00 -0.00000000000E+00 -0.45593999997E+02  0.45594000000E+02  0.51100000000E-03 0. -1.
    9900012    2    1    2    0    0  0.74452843951E+01 -0.20189277938E+02  0.23530437561E+02  0.59301941993E+02  0.49999996290E+02 0.  0.
         12    1    1    2    0    0 -0.74452843951E+01  0.20189277938E+02 -0.23530437561E+02  0.31886058007E+02  0.00000000000E+00 0. -1.
         11    1    3    3    0    0 -0.61297377704E+01 -0.28954018170E+01  0.88759642049E+01  0.11168696327E+02  0.51100000000E-03 0. -1.
        -11    1    3    3    0    0  0.41261100154E+01 -0.19971317611E+02  0.26054367950E+02  0.33086377869E+02  0.51100000000E-03 0.  1.
         12    1    3    3    0    0  0.94489121502E+01  0.26774414892E+01 -0.11399894594E+02  0.15046867797E+02  0.00000000000E+00 0. -1.
</event>
<event>
 7    1  0.5662448E-012  0.5930198E+02  0.7816164E-02  0.1266605E+00
        -11   -1    0    0    0    0  0.00000000000E+00  0.00000000000E+00  0.45593999997E+02  0.45594000000E+02  0.51100000000E-03 0. -1.
         11   -1    0    0    0    0 -0.00000000000E+00 -0.00000000000E+00 -0.45593999997E+02  0.45594000000E+02  0.51100000000E-03 0.  1.
    9900012    2    1    2    0    0 -0.31089967160E+02 -0.55463696224E+01 -0.44011347173E+01  0.59301980167E+02  0.50000065910E+02 0.  0.
         12    1    1    2    0    0  0.31089967160E+02  0.55463696224E+01  0.44011347173E+01  0.31886019833E+02  0.00000000000E+00 0. -1.
         11    1    3    3    0    0  0.37949239832E+01 -0.29944608709E+01 -0.77515257547E+01  0.91353377459E+01  0.51100000000E-03 0. -1.
        -11    1    3    3    0    0  0.96653241307E+00  0.11062895315E+02 -0.24741261834E+01  0.11377308042E+02  0.51100000000E-03 0.  1.
         12    1    3    3    0    0 -0.35851423556E+02 -0.13614804066E+02  0.58245172209E+01  0.38789334379E+02  0.00000000000E+00 0. -1.
</event>
<event>
 7    1  0.5662448E-012  0.5930197E+02  0.7816164E-02  0.1266605E+00
        -11   -1    0    0    0    0  0.00000000000E+00  0.00000000000E+00  0.45593999997E+02  0.45594000000E+02  0.51100000000E-03 0.  1.
         11   -1    0    0    0    0 -0.00000000000E+00 -0.00000000000E+00 -0.45593999997E+02  0.45594000000E+02  0.51100000000E-03 0. -1.
    9900012    2    1    2    0    0  0.23235456007E+02  0.21809431400E+02 -0.10869038033E+01  0.59301967419E+02  0.50000042661E+02 0.  0.
         12    1    1    2    0    0 -0.23235456007E+02 -0.21809431400E+02  0.10869038033E+01  0.31886032581E+02  0.00000000000E+00 0. -1.
         11    1    3    3    0    0  0.64455250433E+01  0.11356990556E+02 -0.18397993151E+02  0.22561298274E+02  0.51100000000E-03 0. -1.
        -11    1    3    3    0    0  0.11992062449E+02 -0.37837140360E+01 -0.15032968015E+01  0.12664357671E+02  0.51100000000E-03 0.  1.
         12    1    3    3    0    0  0.47978685151E+01  0.14236154881E+02  0.18814386149E+02  0.24076311475E+02  0.00000000000E+00 0. -1.
</event>
<event>
 7    1  0.5662448E-012  0.5930194E+02  0.7816164E-02  0.1266605E+00
        -11   -1    0    0    0    0  0.00000000000E+00  0.00000000000E+00  0.45593999997E+02  0.45594000000E+02  0.51100000000E-03 0.  1.
         11   -1    0    0    0    0 -0.00000000000E+00 -0.00000000000E+00 -0.45593999997E+02  0.45594000000E+02  0.51100000000E-03 0. -1.
    9900012    2    1    2    0    0 -0.27526324180E+02  0.71034947023E+01 -0.14441691067E+02  0.59301943475E+02  0.49999998993E+02 0.  0.
         12    1    1    2    0    0  0.27526324180E+02 -0.71034947023E+01  0.14441691067E+02  0.31886056525E+02  0.00000000000E+00 0. -1.
         11    1    3    3    0    0 -0.45956761862E+01 -0.55118133895E+01 -0.26357159947E+02  0.27316665375E+02  0.51100000000E-03 0. -1.
        -11    1    3    3    0    0 -0.39496607888E+01  0.31410644901E+01 -0.31653900129E+01  0.59569959436E+01  0.51100000000E-03 0.  1.
        -12    1    3    3    0    0 -0.18980987205E+02  0.94742436017E+01  0.15080858893E+02  0.26028282157E+02  0.00000000000E+00 0.  1.
</event>
<event>
 7    1  0.6793443E-012  0.5930192E+02  0.7816164E-02  0.1266605E+00
        -11   -1    0    0    0    0  0.00000000000E+00  0.00000000000E+00  0.45593999997E+02  0.45594000000E+02  0.51100000000E-03 0. -1.
         11   -1    0    0    0    0 -0.00000000000E+00 -0.00000000000E+00 -0.45593999997E+02  0.45594000000E+02  0.51100000000E-03 0.  1.
    9900012    2    1    2    0    0  0.16208889268E+01  0.11062962600E+02 -0.29861436570E+02  0.59301924412E+02  0.49999964226E+02 0.  0.
         12    1    1    2    0    0 -0.16208889268E+01 -0.11062962600E+02  0.29861436570E+02  0.31886075588E+02  0.00000000000E+00 0. -1.
         11    1    3    3    0    0 -0.83061926261E+01  0.10965621463E+02 -0.12642848467E+01  0.13814344228E+02  0.51100000000E-03 0.  1.
        -11    1    3    3    0    0 -0.83858489607E+01  0.65960528241E+01 -0.22858920058E+02  0.25226188815E+02  0.51100000000E-03 0. -1.
         12    1    3    3    0    0  0.18312930514E+02 -0.64987116870E+01 -0.57382316649E+01  0.20261391370E+02  0.00000000000E+00 0. -1.
</event>
<event>
 7    1  0.5662448E-012  0.5930195E+02  0.7816164E-02  0.1266605E+00
        -11   -1    0    0    0    0  0.00000000000E+00  0.00000000000E+00  0.45593999997E+02  0.45594000000E+02  0.51100000000E-03 0.  1.
         11   -1    0    0    0    0 -0.00000000000E+00 -0.00000000000E+00 -0.45593999997E+02  0.45594000000E+02  0.51100000000E-03 0. -1.
    9900012    2    1    2    0    0  0.24444006975E+02  0.18462304684E+02 -0.88517673532E+01  0.59301953577E+02  0.50000017415E+02 0.  0.
         12    1    1    2    0    0 -0.24444006975E+02 -0.18462304684E+02  0.88517673532E+01  0.31886046423E+02  0.00000000000E+00 0. -1.
         11    1    3    3    0    0  0.18117749913E+02  0.28461994282E+02 -0.14415318200E+02  0.36689772137E+02  0.51100000000E-03 0.  1.
        -11    1    3    3    0    0  0.35162869941E+01  0.93643671601E+00 -0.56359652931E+01  0.67085984374E+01  0.51100000000E-03 0. -1.
        -12    1    3    3    0    0  0.28099700674E+01 -0.10936126314E+02  0.11199516140E+02  0.15903583002E+02  0.00000000000E+00 0.  1.
</event>
<event>
 7    1  0.5662448E-012  0.5930189E+02  0.7816164E-02  0.1266605E+00
        -11   -1    0    0    0    0  0.00000000000E+00  0.00000000000E+00  0.45593999997E+02  0.45594000000E+02  0.51100000000E-03 0. -1.
         11   -1    0    0    0    0 -0.00000000000E+00 -0.00000000000E+00 -0.45593999997E+02  0.45594000000E+02  0.51100000000E-03 0.  1.
    9900012    2    1    2    0    0  0.42095811680E+01  0.31651788642E+01 -0.31448130538E+02  0.59301892599E+02  0.49999906206E+02 0.  0.
         12    1    1    2    0    0 -0.42095811680E+01 -0.31651788642E+01  0.31448130538E+02  0.31886107401E+02  0.00000000000E+00 0. -1.
         11    1    3    3    0    0  0.94367858042E-01  0.95501988307E+01 -0.27379706296E+00  0.95545888499E+01  0.51100000000E-03 0. -1.
        -11    1    3    3    0    0 -0.22307130352E+01  0.62641620892E+01 -0.34561887393E+02  0.35195736500E+02  0.51100000000E-03 0.  1.
         12    1    3    3    0    0  0.63459263451E+01 -0.12649182056E+02  0.33875539177E+01  0.14551567249E+02  0.00000000000E+00 0. -1.
</event>
<event>
 7    1  0.5662448E-012  0.5930197E+02  0.7816164E-02  0.1266605E+00
        -11   -1    0    0    0    0  0.00000000000E+00  0.00000000000E+00  0.45593999997E+02  0.45594000000E+02  0.51100000000E-03 0.  1.
         11   -1    0    0    0    0 -0.00000000000E+00 -0.00000000000E+00 -0.45593999997E+02  0.45594000000E+02  0.51100000000E-03 0. -1.
    9900012    2    1    2    0    0 -0.10385232264E+02  0.11083907993E+02  0.28035916383E+02  0.59301973703E+02  0.50000054120E+02 0.  0.
         12    1    1    2    0    0  0.10385232264E+02 -0.11083907993E+02 -0.28035916383E+02  0.31886026297E+02  0.00000000000E+00 0. -1.
         11    1    3    3    0    0 -0.43943400242E+01 -0.75161390375E+01 -0.51159083723E+01  0.10098271586E+02  0.51100000000E-03 0. -1.
        -11    1    3    3    0    0 -0.54705779982E+01  0.36260889061E+01 -0.49768623051E+01  0.82368017491E+01  0.51100000000E-03 0.  1.
        -12    1    3    3    0    0 -0.52031424180E+00  0.14973958124E+02  0.38128687061E+02  0.40966900368E+02  0.00000000000E+00 0.  1.
</event>
<event>
 7    1  0.5662448E-012  0.5930195E+02  0.7816164E-02  0.1266605E+00
        -11   -1    0    0    0    0  0.00000000000E+00  0.00000000000E+00  0.45593999997E+02  0.45594000000E+02  0.51100000000E-03 0.  1.
         11   -1    0    0    0    0 -0.00000000000E+00 -0.00000000000E+00 -0.45593999997E+02  0.45594000000E+02  0.51100000000E-03 0. -1.
    9900012    2    1    2    0    0  0.20949521548E+02  0.61227877267E+01  0.23245410634E+02  0.59301951355E+02  0.50000013364E+02 0.  0.
         12    1    1    2    0    0 -0.20949521548E+02 -0.61227877267E+01 -0.23245410634E+02  0.31886048645E+02  0.00000000000E+00 0. -1.
         11    1    3    3    0    0  0.14373672442E-01 -0.38623222505E+01  0.18106711324E+01  0.42657086141E+01  0.51100000000E-03 0. -1.
        -11    1    3    3    0    0  0.13003549955E+02 -0.65065641413E+01  0.31106898015E+02  0.34337542031E+02  0.51100000000E-03 0.  1.
         12    1    3    3    0    0  0.79315979205E+01  0.16491674119E+02 -0.96721585130E+01  0.20698700711E+02  0.00000000000E+00 0. -1.
</event>
<event>
 7    1  0.5662448E-012  0.5930193E+02  0.7816164E-02  0.1266605E+00
        -11   -1    0    0    0    0  0.00000000000E+00  0.00000000000E+00  0.45593999997E+02  0.45594000000E+02  0.51100000000E-03 0.  1.
         11   -1    0    0    0    0 -0.00000000000E+00 -0.00000000000E+00 -0.45593999997E+02  0.45594000000E+02  0.51100000000E-03 0. -1.
    9900012    2    1    2    0    0  0.28306118126E+01 -0.17285765013E+02  0.26644162144E+02  0.59301930759E+02  0.49999975801E+02 0.  0.
         12    1    1    2    0    0 -0.28306118126E+01  0.17285765013E+02 -0.26644162144E+02  0.31886069241E+02  0.00000000000E+00 0. -1.
         11    1    3    3    0    0 -0.11668705685E+02 -0.15358152964E+02  0.42930695084E+01  0.19760111359E+02  0.51100000000E-03 0. -1.
        -11    1    3    3    0    0 -0.21693753791E+01 -0.58164375119E+01  0.21528600091E+02  0.22405752766E+02  0.51100000000E-03 0.  1.
        -12    1    3    3    0    0  0.16668692877E+02  0.38888254633E+01  0.82249254369E+00  0.17136066634E+02  0.00000000000E+00 0.  1.
</event>
<event>
 7    1  0.5662448E-012  0.5930205E+02  0.7816164E-02  0.1266604E+00
        -11   -1    0    0    0    0  0.00000000000E+00  0.00000000000E+00  0.45593999997E+02  0.45594000000E+02  0.51100000000E-03 0. -1.
         11   -1    0    0    0    0 -0.00000000000E+00 -0.00000000000E+00 -0.45593999997E+02  0.45594000000E+02  0.51100000000E-03 0.  1.
    9900012    2    1    2    0    0 -0.25186940652E+02 -0.12442439524E+02 -0.15083692262E+02  0.59302046149E+02  0.50000186245E+02 0.  0.
         12    1    1    2    0    0  0.25186940652E+02  0.12442439524E+02  0.15083692262E+02  0.31885953851E+02  0.00000000000E+00 0. -1.
         11    1    3    3    0    0  0.84315909232E+00 -0.17462062533E+01  0.91819331583E+00  0.21455145678E+01  0.51100000000E-03 0. -1.
        -11    1    3    3    0    0 -0.31508521109E+02 -0.24138188523E+02 -0.76905662937E+01  0.40429987112E+02  0.51100000000E-03 0.  1.
        -12    1    3    3    0    0  0.54784213646E+01  0.13441955253E+02 -0.83113192840E+01  0.16726544470E+02  0.00000000000E+00 0.  1.
</event>
<event>
 7    1  0.5662448E-012  0.5930195E+02  0.7816164E-02  0.1266605E+00
        -11   -1    0    0    0    0  0.00000000000E+00  0.00000000000E+00  0.45593999997E+02  0.45594000000E+02  0.51100000000E-03 0.  1.
         11   -1    0    0    0    0 -0.00000000000E+00 -0.00000000000E+00 -0.45593999997E+02  0.45594000000E+02  0.51100000000E-03 0. -1.
    9900012    2    1    2    0    0  0.24416666094E+02  0.15547613369E+02  0.13372290765E+02  0.59301952504E+02  0.50000015459E+02 0.  0.
         12    1    1    2    0    0 -0.24416666094E+02 -0.15547613369E+02 -0.13372290765E+02  0.31886047496E+02  0.00000000000E+00 0. -1.
         11    1    3    3    0    0  0.15081493110E+02 -0.93455755025E+01  0.41454787915E+01  0.18220214340E+02  0.51100000000E-03 0. -1.
        -11    1    3    3    0    0  0.14541028760E+02  0.62032541415E+01  0.13983287637E+02  0.21105786239E+02  0.51100000000E-03 0.  1.
         12    1    3    3    0    0 -0.52058557771E+01  0.18689934730E+02 -0.47564756639E+01  0.19975951926E+02  0.00000000000E+00 0. -1.
</event>
<event>
 7    1  0.5662448E-012  0.5930197E+02  0.7816164E-02  0.1266605E+00
        -11   -1    0    0    0    0  0.00000000000E+00  0.00000000000E+00  0.45593999997E+02  0.45594000000E+02  0.51100000000E-03 0. -1.
         11   -1    0    0    0    0 -0.00000000000E+00 -0.00000000000E+00 -0.45593999997E+02  0.45594000000E+02  0.51100000000E-03 0.  1.
    9900012    2    1    2    0    0 -0.46634776535E+01  0.26444378420E+02 -0.17194941861E+02  0.59301965448E+02  0.50000039066E+02 0.  0.
         12    1    1    2    0    0  0.46634776535E+01 -0.26444378420E+02  0.17194941861E+02  0.31886034552E+02  0.00000000000E+00 0. -1.
         11    1    3    3    0    0 -0.34131810657E+01  0.40046684752E+01  0.14942665046E+02  0.15842045749E+02  0.51100000000E-03 0. -1.
        -11    1    3    3    0    0 -0.49293825814E+01 -0.13840846709E+01 -0.64028815275E+01  0.81982556149E+01  0.51100000000E-03 0.  1.
        -12    1    3    3    0    0  0.36790859936E+01  0.23823794615E+02 -0.25734725380E+02  0.35261664084E+02  0.00000000000E+00 0.  1.
</event>
<event>
 7    1  0.5662448E-012  0.5930192E+02  0.7816164E-02  0.1266605E+00
        -11   -1    0    0    0    0  0.00000000000E+00  0.00000000000E+00  0.45593999997E+02  0.45594000000E+02  0.51100000000E-03 0.  1.
         11   -1    0    0    0    0 -0.00000000000E+00 -0.00000000000E+00 -0.45593999997E+02  0.45594000000E+02  0.51100000000E-03 0. -1.
    9900012    2    1    2    0    0  0.30112717297E+02 -0.10484074283E+02 -0.17407762493E+00  0.59301923735E+02  0.49999962991E+02 0.  0.
         12    1    1    2    0    0 -0.30112717297E+02  0.10484074283E+02  0.17407762493E+00  0.31886076265E+02  0.00000000000E+00 0. -1.
         11    1    3    3    0    0  0.98720621958E+01  0.95622225055E+01 -0.11795267678E+02  0.18111379050E+02  0.51100000000E-03 0. -1.
        -11    1    3    3    0    0  0.11654767768E+00 -0.24365351562E+01 -0.77796100874E+01  0.81530742853E+01  0.51100000000E-03 0.  1.
        -12    1    3    3    0    0  0.20124107423E+02 -0.17609761633E+02  0.19400800140E+02  0.33037470400E+02  0.00000000000E+00 0.  1.
</event>
<event>
 7    1  0.5662448E-012  0.5930200E+02  0.7816164E-02  0.1266605E+00
        -11   -1    0    0    0    0  0.00000000000E+00  0.00000000000E+00  0.45593999997E+02  0.45594000000E+02  0.51100000000E-03 0.  1.
         11   -1    0    0    0    0 -0.00000000000E+00 -0.00000000000E+00 -0.45593999997E+02  0.45594000000E+02  0.51100000000E-03 0. -1.
    9900012    2    1    2    0    0 -0.12410828686E+02 -0.15515688397E+01  0.29330546123E+02  0.59302000401E+02  0.50000102812E+02 0.  0.
         12    1    1    2    0    0  0.12410828686E+02  0.15515688397E+01 -0.29330546123E+02  0.31885999599E+02  0.00000000000E+00 0. -1.
         11    1    3    3    0    0 -0.97069867036E+01 -0.11552537947E+02  0.83845326419E+01  0.17262303200E+02  0.51100000000E-03 0. -1.
        -11    1    3    3    0    0  0.73026981828E+01  0.69044157446E+01  0.27773812488E+02  0.29536164577E+02  0.51100000000E-03 0.  1.
         12    1    3    3    0    0 -0.10006540165E+02  0.30965533630E+01 -0.68277990071E+01  0.12503532624E+02  0.00000000000E+00 0. -1.
</event>
<event>
 7    1  0.5662448E-012  0.5930196E+02  0.7816164E-02  0.1266605E+00
        -11   -1    0    0    0    0  0.00000000000E+00  0.00000000000E+00  0.45593999997E+02  0.45594000000E+02  0.51100000000E-03 0. -1.
         11   -1    0    0    0    0 -0.00000000000E+00 -0.00000000000E+00 -0.45593999997E+02  0.45594000000E+02  0.51100000000E-03 0.  1.
    9900012    2    1    2    0    0 -0.30008455287E+02  0.93359049311E+01 -0.53901099918E+01  0.59301956105E+02  0.50000022025E+02 0.  0.
         12    1    1    2    0    0  0.30008455287E+02 -0.93359049311E+01  0.53901099918E+01  0.31886043895E+02  0.00000000000E+00 0. -1.
         11    1    3    3    0    0 -0.21363207056E+02  0.15124440982E+02  0.35888039573E+00  0.26177550041E+02  0.51100000000E-03 0.  1.
        -11    1    3    3    0    0 -0.13286314956E+02 -0.80914389705E+01 -0.15576893512E+02  0.22014476180E+02  0.51100000000E-03 0. -1.
        -12    1    3    3    0    0  0.46410667247E+01  0.23029029194E+01  0.98279031249E+01  0.11109929884E+02  0.00000000000E+00 0.  1.
</event>
<event>
 7    1  0.5662448E-012  0.5930193E+02  0.7816164E-02  0.1266605E+00
        -11   -1    0    0    0    0  0.00000000000E+00  0.00000000000E+00  0.45593999997E+02  0.45594000000E+02  0.51100000000E-03 0.  1.
         11   -1    0    0    0    0 -0.00000000000E+00 -0.00000000000E+00 -0.45593999997E+02  0.45594000000E+02  0.51100000000E-03 0. -1.
    9900012    2    1    2    0    0 -0.98685794487E+01  0.17624513868E+02  0.24672025442E+02  0.59301934252E+02  0.49999982172E+02 0.  0.
         12    1    1    2    0    0  0.98685794487E+01 -0.17624513868E+02 -0.24672025442E+02  0.31886065748E+02  0.00000000000E+00 0. -1.
         11    1    3    3    0    0 -0.94430877436E+01 -0.50141906956E+01  0.74524877020E+01  0.13032788945E+02  0.51100000000E-03 0. -1.
        -11    1    3    3    0    0 -0.15443127856E+02  0.57317897184E+01  0.16975892832E+02  0.23654271265E+02  0.51100000000E-03 0.  1.
         12    1    3    3    0    0  0.15017636151E+02  0.16906914845E+02  0.24364490783E+00  0.22614874043E+02  0.00000000000E+00 0. -1.
</event>
<event>
 7    1  0.5662448E-012  0.5930196E+02  0.7816164E-02  0.1266605E+00
        -11   -1    0    0    0    0  0.00000000000E+00  0.00000000000E+00  0.45593999997E+02  0.45594000000E+02  0.51100000000E-03 0. -1.
         11   -1    0    0    0    0 -0.00000000000E+00 -0.00000000000E+00 -0.45593999997E+02  0.45594000000E+02  0.51100000000E-03 0.  1.
    9900012    2    1    2    0    0  0.31448734083E+02 -0.49780373184E+01  0.17075912778E+01  0.59301959183E+02  0.50000027640E+02 0.  0.
         12    1    1    2    0    0 -0.31448734083E+02  0.49780373184E+01 -0.17075912778E+01  0.31886040817E+02  0.00000000000E+00 0. -1.
         11    1    3    3    0    0  0.14765480323E+01  0.10654750791E+02  0.44781558431E+01  0.11651514430E+02  0.51100000000E-03 0. -1.
        -11    1    3    3    0    0  0.15532789526E+02  0.79865017238E+01  0.62255235776E+01  0.18542084681E+02  0.51100000000E-03 0.  1.
         12    1    3    3    0    0  0.14439396525E+02 -0.23619289833E+02 -0.89960881428E+01  0.29108360072E+02  0.00000000000E+00 0. -1.
</event>
<event>
 7    1  0.5662448E-012  0.5930195E+02  0.7816164E-02  0.1266605E+00
        -11   -1    0    0    0    0  0.00000000000E+00  0.00000000000E+00  0.45593999997E+02  0.45594000000E+02  0.51100000000E-03 0.  1.
         11   -1    0    0    0    0 -0.00000000000E+00 -0.00000000000E+00 -0.45593999997E+02  0.45594000000E+02  0.51100000000E-03 0. -1.
    9900012    2    1    2    0    0  0.47164227669E+01 -0.25686286227E+02  0.18294547584E+02  0.59301946385E+02  0.50000004299E+02 0.  0.
         12    1    1    2    0    0 -0.47164227669E+01  0.25686286227E+02 -0.18294547584E+02  0.31886053615E+02  0.00000000000E+00 0. -1.
         11    1    3    3    0    0 -0.27618625945E+01  0.71394338867E+01  0.39491880635E+01  0.86136802725E+01  0.51100000000E-03 0. -1.
        -11    1    3    3    0    0 -0.48034448314E+01 -0.57389874099E+01 -0.98344288095E+01  0.12358197644E+02  0.51100000000E-03 0.  1.
        -12    1    3    3    0    0  0.12281730193E+02 -0.27086732704E+02  0.24179788330E+02  0.38330068468E+02  0.00000000000E+00 0.  1.
</event>
<event>
 7    1  0.5662448E-012  0.5930195E+02  0.7816164E-02  0.1266605E+00
        -11   -1    0    0    0    0  0.00000000000E+00  0.00000000000E+00  0.45593999997E+02  0.45594000000E+02  0.51100000000E-03 0. -1.
         11   -1    0    0    0    0 -0.00000000000E+00 -0.00000000000E+00 -0.45593999997E+02  0.45594000000E+02  0.51100000000E-03 0.  1.
    9900012    2    1    2    0    0  0.48915765265E+00 -0.25648568907E+02 -0.18937583567E+02  0.59301946096E+02  0.50000003772E+02 0.  0.
         12    1    1    2    0    0 -0.48915765265E+00  0.25648568907E+02  0.18937583567E+02  0.31886053904E+02  0.00000000000E+00 0. -1.
         11    1    3    3    0    0  0.21422615843E+02 -0.22042385948E+02 -0.67382818182E+01  0.31467438567E+02  0.51100000000E-03 0. -1.
        -11    1    3    3    0    0  0.13789755358E+01 -0.16032544387E+01 -0.28758199070E+01  0.35696412595E+01  0.51100000000E-03 0.  1.
        -12    1    3    3    0    0 -0.22312433726E+02 -0.20029285210E+01 -0.93234818415E+01  0.24264866270E+02  0.00000000000E+00 0.  1.
</event>
<event>
 7    1  0.5662448E-012  0.5930193E+02  0.7816164E-02  0.1266605E+00
        -11   -1    0    0    0    0  0.00000000000E+00  0.00000000000E+00  0.45593999997E+02  0.45594000000E+02  0.51100000000E-03 0. -1.
         11   -1    0    0    0    0 -0.00000000000E+00 -0.00000000000E+00 -0.45593999997E+02  0.45594000000E+02  0.51100000000E-03 0.  1.
    9900012    2    1    2    0    0  0.20626917589E+02  0.23217055072E+02  0.72263570682E+01  0.59301927619E+02  0.49999970074E+02 0.  0.
         12    1    1    2    0    0 -0.20626917589E+02 -0.23217055072E+02 -0.72263570682E+01  0.31886072381E+02  0.00000000000E+00 0. -1.
         11    1    3    3    0    0  0.15394248480E+02  0.93775086331E+00  0.18187937658E+02  0.23846663067E+02  0.51100000000E-03 0. -1.
        -11    1    3    3    0    0  0.22787329001E+01  0.13371521966E+01  0.71424439709E+01  0.76154517769E+01  0.51100000000E-03 0.  1.
        -12    1    3    3    0    0  0.29539362093E+01  0.20942152012E+02 -0.18104024561E+02  0.27839812774E+02  0.00000000000E+00 0.  1.
</event>
<event>
 7    1  0.5662448E-012  0.5930193E+02  0.7816164E-02  0.1266605E+00
        -11   -1    0    0    0    0  0.00000000000E+00  0.00000000000E+00  0.45593999997E+02  0.45594000000E+02  0.51100000000E-03 0.  1.
         11   -1    0    0    0    0 -0.00000000000E+00 -0.00000000000E+00 -0.45593999997E+02  0.45594000000E+02  0.51100000000E-03 0. -1.
    9900012    2    1    2    0    0  0.37150412779E+00  0.27264781288E+02 -0.16529214343E+02  0.59301933439E+02  0.49999980688E+02 0.  0.
         12    1    1    2    0    0 -0.37150412779E+00 -0.27264781288E+02  0.16529214343E+02  0.31886066561E+02  0.00000000000E+00 0. -1.
         11    1    3    3    0    0 -0.10414382399E+02  0.25842439934E+02 -0.58235425241E+01  0.28464095108E+02  0.51100000000E-03 0. -1.
        -11    1    3    3    0    0 -0.59147360681E+00 -0.11310957515E+02 -0.14611822939E+01  0.11420273854E+02  0.51100000000E-03 0.  1.
         12    1    3    3    0    0  0.11377360133E+02  0.12733298868E+02 -0.92444895246E+01  0.19417564478E+02  0.00000000000E+00 0. -1.
</event>
<event>
 7    1  0.5662448E-012  0.5930180E+02  0.7816164E-02  0.1266605E+00
        -11   -1    0    0    0    0  0.00000000000E+00  0.00000000000E+00  0.45593999997E+02  0.45594000000E+02  0.51100000000E-03 0.  1.
         11   -1    0    0    0    0 -0.00000000000E+00 -0.00000000000E+00 -0.45593999997E+02  0.45594000000E+02  0.51100000000E-03 0. -1.
    9900012    2    1    2    0    0  0.17793945564E+02  0.20672934774E+02  0.16514683298E+02  0.59301804000E+02  0.49999744622E+02 0.  0.
         12    1    1    2    0    0 -0.17793945564E+02 -0.20672934774E+02 -0.16514683298E+02  0.31886196000E+02  0.00000000000E+00 0. -1.
         11    1    3    3    0    0 -0.59763906962E+01 -0.58001439797E+01  0.50557792292E-01  0.83283535162E+01  0.51100000000E-03 0.  1.
        -11    1    3    3    0    0  0.22594144346E+01 -0.19809914276E+01  0.14973729745E+02  0.15272257966E+02  0.51100000000E-03 0. -1.
        -12    1    3    3    0    0  0.21510921826E+02  0.28454070182E+02  0.14903957603E+01  0.35701192518E+02  0.00000000000E+00 0.  1.
</event>
<event>
 7    1  0.5662448E-012  0.5930196E+02  0.7816164E-02  0.1266605E+00
        -11   -1    0    0    0    0  0.00000000000E+00  0.00000000000E+00  0.45593999997E+02  0.45594000000E+02  0.51100000000E-03 0. -1.
         11   -1    0    0    0    0 -0.00000000000E+00 -0.00000000000E+00 -0.45593999997E+02  0.45594000000E+02  0.51100000000E-03 0.  1.
    9900012    2    1    2    0    0 -0.29232119137E+02 -0.12704939474E+02 -0.88744102835E+00  0.59301955594E+02  0.50000021095E+02 0.  0.
         12    1    1    2    0    0  0.29232119137E+02  0.12704939474E+02  0.88744102835E+00  0.31886044406E+02  0.00000000000E+00 0. -1.
         11    1    3    3    0    0  0.35546409988E+01 -0.60810828669E+01  0.37145661720E+01  0.79632307245E+01  0.51100000000E-03 0. -1.
        -11    1    3    3    0    0 -0.16777085234E+02 -0.18167963584E+02  0.10115147045E+02  0.26718190241E+02  0.51100000000E-03 0.  1.
         12    1    3    3    0    0 -0.16009674901E+02  0.11544106977E+02 -0.14717154245E+02  0.24620534629E+02  0.00000000000E+00 0. -1.
</event>
<event>
 7    1  0.5662448E-012  0.5930196E+02  0.7816164E-02  0.1266605E+00
        -11   -1    0    0    0    0  0.00000000000E+00  0.00000000000E+00  0.45593999997E+02  0.45594000000E+02  0.51100000000E-03 0. -1.
         11   -1    0    0    0    0 -0.00000000000E+00 -0.00000000000E+00 -0.45593999997E+02  0.45594000000E+02  0.51100000000E-03 0.  1.
    9900012    2    1    2    0    0 -0.30461175909E+02 -0.84884532822E+01 -0.40966319976E+01  0.59301961196E+02  0.50000031310E+02 0.  0.
         12    1    1    2    0    0  0.30461175909E+02  0.84884532822E+01  0.40966319976E+01  0.31886038804E+02  0.00000000000E+00 0. -1.
         11    1    3    3    0    0  0.34367894322E+01 -0.93716361380E+01 -0.10435233087E+02  0.14440677801E+02  0.51100000000E-03 0. -1.
        -11    1    3    3    0    0  0.51828849013E+01 -0.13653966881E+00  0.18742568723E+01  0.55130552388E+01  0.51100000000E-03 0.  1.
        -12    1    3    3    0    0 -0.39080850243E+02  0.10197225246E+01  0.44643442170E+01  0.39348228156E+02  0.00000000000E+00 0.  1.
</event>
<event>
 7    1  0.5662448E-012  0.5930191E+02  0.7816164E-02  0.1266605E+00
        -11   -1    0    0    0    0  0.00000000000E+00  0.00000000000E+00  0.45593999997E+02  0.45594000000E+02  0.51100000000E-03 0.  1.
         11   -1    0    0    0    0 -0.00000000000E+00 -0.00000000000E+00 -0.45593999997E+02  0.45594000000E+02  0.51100000000E-03 0. -1.
    9900012    2    1    2    0    0 -0.15380960505E+02 -0.24314022923E+02  0.13746883318E+02  0.59301914356E+02  0.49999945885E+02 0.  0.
         12    1    1    2    0    0  0.15380960505E+02  0.24314022923E+02 -0.13746883318E+02  0.31886085644E+02  0.00000000000E+00 0. -1.
         11    1    3    3    0    0  0.23008957496E+01  0.61932665270E+01  0.65088248436E+01  0.92744526863E+01  0.51100000000E-03 0. -1.
        -11    1    3    3    0    0  0.93946804523E+01 -0.13640342102E+02  0.73663848671E+01  0.18126846933E+02  0.51100000000E-03 0.  1.
         12    1    3    3    0    0 -0.27076536707E+02 -0.16866947348E+02 -0.12832639243E+00  0.31900614736E+02  0.00000000000E+00 0. -1.
</event>
<event>
 7    1  0.5662448E-012  0.5930195E+02  0.7816164E-02  0.1266605E+00
        -11   -1    0    0    0    0  0.00000000000E+00  0.00000000000E+00  0.45593999997E+02  0.45594000000E+02  0.51100000000E-03 0. -1.
         11   -1    0    0    0    0 -0.00000000000E+00 -0.00000000000E+00 -0.45593999997E+02  0.45594000000E+02  0.51100000000E-03 0.  1.
    9900012    2    1    2    0    0 -0.23734885395E+02 -0.70486229770E+01 -0.20092103280E+02  0.59301945292E+02  0.50000002307E+02 0.  0.
         12    1    1    2    0    0  0.23734885395E+02  0.70486229770E+01  0.20092103280E+02  0.31886054708E+02  0.00000000000E+00 0. -1.
         11    1    3    3    0    0 -0.19701550015E+02 -0.54033666112E+01 -0.26324685354E+01  0.20597993460E+02  0.51100000000E-03 0. -1.
        -11    1    3    3    0    0 -0.93779309659E+01  0.12042270206E+02 -0.18487654559E+02  0.23974053313E+02  0.51100000000E-03 0.  1.
        -12    1    3    3    0    0  0.53445955856E+01 -0.13687526572E+02  0.10280198142E+01  0.14729898519E+02  0.00000000000E+00 0.  1.
</event>
<event>
 7    1  0.5662448E-012  0.5930194E+02  0.7816164E-02  0.1266605E+00
        -11   -1    0    0    0    0  0.00000000000E+00  0.00000000000E+00  0.45593999997E+02  0.45594000000E+02  0.51100000000E-03 0. -1.
         11   -1    0    0    0    0 -0.00000000000E+00 -0.00000000000E+00 -0.45593999997E+02  0.45594000000E+02  0.51100000000E-03 0.  1.
    9900012    2    1    2    0    0  0.18204422130E+02 -0.97712856678E+00 -0.26160372385E+02  0.59301939587E+02  0.49999991902E+02 0.  0.
         12    1    1    2    0    0 -0.18204422130E+02  0.97712856678E+00  0.26160372385E+02  0.31886060413E+02  0.00000000000E+00 0. -1.
         11    1    3    3    0    0  0.22662112226E+01  0.92815442855E+01  0.90764910810E+01  0.13178219464E+02  0.51100000000E-03 0. -1.
        -11    1    3    3    0    0 -0.55430134777E+01 -0.43894162099E+01 -0.54195233944E+01  0.89086029860E+01  0.51100000000E-03 0.  1.
        -12    1    3    3    0    0  0.21481224385E+02 -0.58692566423E+01 -0.29817340072E+02  0.37215117138E+02  0.00000000000E+00 0.  1.
</event>
<event>
 7    1  0.5662448E-012  0.5930184E+02  0.7816164E-02  0.1266605E+00
        -11   -1    0    0    0    0  0.00000000000E+00  0.00000000000E+00  0.45593999997E+02  0.45594000000E+02  0.51100000000E-03 0. -1.
         11   -1    0    0    0    0 -0.00000000000E+00 -0.00000000000E+00 -0.45593999997E+02  0.45594000000E+02  0.51100000000E-03 0.  1.
    9900012    2    1    2    0    0  0.18249038257E+02  0.20189503679E+02 -0.16615761896E+02  0.59301843137E+02  0.49999815999E+02 0.  0.
         12    1    1    2    0    0 -0.18249038257E+02 -0.20189503679E+02  0.16615761896E+02  0.31886156863E+02  0.00000000000E+00 0. -1.
         11    1    3    3    0    0  0.13982604041E+02  0.22301340561E+02 -0.20899489545E+01  0.26405130060E+02  0.51100000000E-03 0. -1.
        -11    1    3    3    0    0  0.11283724062E+02  0.90372164733E+01 -0.17788861354E+01  0.14565649537E+02  0.51100000000E-03 0.  1.
        -12    1    3    3    0    0 -0.70172898458E+01 -0.11149053355E+02 -0.12746926806E+02  0.18331063540E+02  0.00000000000E+00 0.  1.
</event>
<event>
 7    1  0.5662448E-012  0.5930163E+02  0.7816164E-02  0.1266606E+00
        -11   -1    0    0    0    0  0.00000000000E+00  0.00000000000E+00  0.45593999997E+02  0.45594000000E+02  0.51100000000E-03 0.  1.
         11   -1    0    0    0    0 -0.00000000000E+00 -0.00000000000E+00 -0.45593999997E+02  0.45594000000E+02  0.51100000000E-03 0. -1.
    9900012    2    1    2    0    0 -0.83015573481E+01 -0.30771684444E+02 -0.96358167926E+00  0.59301625048E+02  0.49999418254E+02 0.  0.
         12    1    1    2    0    0  0.83015573481E+01  0.30771684444E+02  0.96358167926E+00  0.31886374952E+02  0.00000000000E+00 0. -1.
         11    1    3    3    0    0 -0.11773257620E+02 -0.39311473411E+01  0.17314931365E+01  0.12532421280E+02  0.51100000000E-03 0. -1.
        -11    1    3    3    0    0 -0.46200743563E+01  0.84524491789E+01 -0.42466510288E+01  0.10527251750E+02  0.51100000000E-03 0.  1.
        -12    1    3    3    0    0  0.80917746277E+01 -0.35292986282E+02  0.15515762130E+01  0.36241952018E+02  0.00000000000E+00 0.  1.
</event>
<event>
 7    1  0.5662448E-012  0.5930194E+02  0.7816164E-02  0.1266605E+00
        -11   -1    0    0    0    0  0.00000000000E+00  0.00000000000E+00  0.45593999997E+02  0.45594000000E+02  0.51100000000E-03 0.  1.
         11   -1    0    0    0    0 -0.00000000000E+00 -0.00000000000E+00 -0.45593999997E+02  0.45594000000E+02  0.51100000000E-03 0. -1.
    9900012    2    1    2    0    0 -0.23822645057E+02  0.58661561835E+01  0.20366409080E+02  0.59301939963E+02  0.49999992586E+02 0.  0.
         12    1    1    2    0    0  0.23822645057E+02 -0.58661561835E+01 -0.20366409080E+02  0.31886060037E+02  0.00000000000E+00 0. -1.
         11    1    3    3    0    0  0.37683487661E+01  0.23425692662E+01 -0.11594248389E+01  0.45861039465E+01  0.51100000000E-03 0. -1.
        -11    1    3    3    0    0 -0.27123831992E+01  0.20168433961E+02  0.94797769595E+01  0.22449697605E+02  0.51100000000E-03 0.  1.
        -12    1    3    3    0    0 -0.24878610624E+02 -0.16644847044E+02  0.12046056960E+02  0.32266138411E+02  0.00000000000E+00 0.  1.
</event>
<event>
 7    1  0.5662448E-012  0.5930193E+02  0.7816164E-02  0.1266605E+00
        -11   -1    0    0    0    0  0.00000000000E+00  0.00000000000E+00  0.45593999997E+02  0.45594000000E+02  0.51100000000E-03 0.  1.
         11   -1    0    0    0    0 -0.00000000000E+00 -0.00000000000E+00 -0.45593999997E+02  0.45594000000E+02  0.51100000000E-03 0. -1.
    9900012    2    1    2    0    0 -0.30056274696E+02  0.39134488850E+01  0.99008352271E+01  0.59301932996E+02  0.49999979880E+02 0.  0.
         12    1    1    2    0    0  0.30056274696E+02 -0.39134488850E+01 -0.99008352271E+01  0.31886067004E+02  0.00000000000E+00 0. -1.
         11    1    3    3    0    0 -0.27795703982E+02 -0.13817679466E+01 -0.15034542754E+01  0.27870608488E+02  0.51100000000E-03 0.  1.
        -11    1    3    3    0    0 -0.73987016186E+01  0.15203311775E+02  0.23726231605E+01  0.17073687811E+02  0.51100000000E-03 0. -1.
         12    1    3    3    0    0  0.51381309038E+01 -0.99080949430E+01  0.90316663420E+01  0.14357636696E+02  0.00000000000E+00 0. -1.
</event>
<event>
 7    1  0.5662448E-012  0.5930195E+02  0.7816164E-02  0.1266605E+00
        -11   -1    0    0    0    0  0.00000000000E+00  0.00000000000E+00  0.45593999997E+02  0.45594000000E+02  0.51100000000E-03 0.  1.
         11   -1    0    0    0    0 -0.00000000000E+00 -0.00000000000E+00 -0.45593999997E+02  0.45594000000E+02  0.51100000000E-03 0. -1.
    9900012    2    1    2    0    0 -0.11736965166E+02  0.34447685179E+01  0.29446515629E+02  0.59301951889E+02  0.50000014337E+02 0.  0.
         12    1    1    2    0    0  0.11736965166E+02 -0.34447685179E+01 -0.29446515629E+02  0.31886048111E+02  0.00000000000E+00 0. -1.
         11    1    3    3    0    0  0.24353525635E+01  0.95927351027E+01 -0.10986622549E+01  0.99578395183E+01  0.51100000000E-03 0. -1.
        -11    1    3    3    0    0 -0.11207091797E+02  0.14024412478E+02  0.17903803276E+02  0.25354077067E+02  0.51100000000E-03 0.  1.
        -12    1    3    3    0    0 -0.29652259318E+01 -0.20172379063E+02  0.12641374608E+02  0.23990035304E+02  0.00000000000E+00 0.  1.
</event>
<event>
 7    1  0.5662448E-012  0.5930194E+02  0.7816164E-02  0.1266605E+00
        -11   -1    0    0    0    0  0.00000000000E+00  0.00000000000E+00  0.45593999997E+02  0.45594000000E+02  0.51100000000E-03 0. -1.
         11   -1    0    0    0    0 -0.00000000000E+00 -0.00000000000E+00 -0.45593999997E+02  0.45594000000E+02  0.51100000000E-03 0.  1.
    9900012    2    1    2    0    0 -0.20551678956E+02  0.19349761943E+02 -0.14830243518E+02  0.59301938500E+02  0.49999989919E+02 0.  0.
         12    1    1    2    0    0  0.20551678956E+02 -0.19349761943E+02  0.14830243518E+02  0.31886061500E+02  0.00000000000E+00 0. -1.
         11    1    3    3    0    0 -0.11401387003E+02  0.88341676802E+01 -0.27691394790E+02  0.31222547780E+02  0.51100000000E-03 0. -1.
        -11    1    3    3    0    0 -0.13488433146E+02  0.49505555660E+01  0.11595160295E+01  0.14414933466E+02  0.51100000000E-03 0.  1.
         12    1    3    3    0    0  0.43381411935E+01  0.55650386972E+01  0.11701635242E+02  0.13664457255E+02  0.00000000000E+00 0. -1.
</event>
<event>
 7    1  0.5662448E-012  0.5930175E+02  0.7816164E-02  0.1266605E+00
        -11   -1    0    0    0    0  0.00000000000E+00  0.00000000000E+00  0.45593999997E+02  0.45594000000E+02  0.51100000000E-03 0.  1.
         11   -1    0    0    0    0 -0.00000000000E+00 -0.00000000000E+00 -0.45593999997E+02  0.45594000000E+02  0.51100000000E-03 0. -1.
    9900012    2    1    2    0    0 -0.20551557786E+02  0.24352835048E+02  0.11427205084E+01  0.59301750417E+02  0.49999646899E+02 0.  0.
         12    1    1    2    0    0  0.20551557786E+02 -0.24352835048E+02 -0.11427205084E+01  0.31886249583E+02  0.00000000000E+00 0. -1.
         11    1    3    3    0    0 -0.11171623981E+02  0.46893941175E+01 -0.71750545668E+01  0.14081086885E+02  0.51100000000E-03 0. -1.
        -11    1    3    3    0    0 -0.37921777115E+01  0.10040949386E+02 -0.15545371876E+02  0.18890734856E+02  0.51100000000E-03 0.  1.
        -12    1    3    3    0    0 -0.55877560939E+01  0.96224915444E+01  0.23863146951E+02  0.26329928676E+02  0.00000000000E+00 0.  1.
</event>
<event>
 7    1  0.5662448E-012  0.5930193E+02  0.7816164E-02  0.1266605E+00
        -11   -1    0    0    0    0  0.00000000000E+00  0.00000000000E+00  0.45593999997E+02  0.45594000000E+02  0.51100000000E-03 0. -1.
         11   -1    0    0    0    0 -0.00000000000E+00 -0.00000000000E+00 -0.45593999997E+02  0.45594000000E+02  0.51100000000E-03 0.  1.
    9900012    2    1    2    0    0 -0.18914527754E+02 -0.17039557169E+02 -0.19199359041E+02  0.59301933195E+02  0.49999980244E+02 0.  0.
         12    1    1    2    0    0  0.18914527754E+02  0.17039557169E+02  0.19199359041E+02  0.31886066805E+02  0.00000000000E+00 0. -1.
         11    1    3    3    0    0 -0.64538318175E+01 -0.50755793875E+01 -0.25731922925E+02  0.27010096426E+02  0.51100000000E-03 0. -1.
        -11    1    3    3    0    0 -0.20654772338E+02 -0.10648397782E+02  0.37496160102E+01  0.23538640915E+02  0.51100000000E-03 0.  1.
         12    1    3    3    0    0  0.81940764008E+01 -0.13155799998E+01  0.27829478737E+01  0.87531958544E+01  0.00000000000E+00 0. -1.
</event>
<event>
 7    1  0.5662448E-012  0.5930195E+02  0.7816164E-02  0.1266605E+00
        -11   -1    0    0    0    0  0.00000000000E+00  0.00000000000E+00  0.45593999997E+02  0.45594000000E+02  0.51100000000E-03 0.  1.
         11   -1    0    0    0    0 -0.00000000000E+00 -0.00000000000E+00 -0.45593999997E+02  0.45594000000E+02  0.51100000000E-03 0. -1.
    9900012    2    1    2    0    0  0.80633445459E+01  0.49937245803E+01  0.30442825010E+02  0.59301946543E+02  0.50000004588E+02 0.  0.
         12    1    1    2    0    0 -0.80633445459E+01 -0.49937245803E+01 -0.30442825010E+02  0.31886053457E+02  0.00000000000E+00 0. -1.
         11    1    3    3    0    0 -0.24423867499E+01 -0.99346110137E+01 -0.31546724338E+01  0.10705779162E+02  0.51100000000E-03 0. -1.
        -11    1    3    3    0    0  0.14692368183E+01 -0.80938634019E+01  0.16779812585E+02  0.18687733738E+02  0.51100000000E-03 0.  1.
         12    1    3    3    0    0  0.90364944774E+01  0.23022198996E+02  0.16817684859E+02  0.29908433644E+02  0.00000000000E+00 0. -1.
</event>
<event>
 7    1  0.5662448E-012  0.5930210E+02  0.7816164E-02  0.1266604E+00
        -11   -1    0    0    0    0  0.00000000000E+00  0.00000000000E+00  0.45593999997E+02  0.45594000000E+02  0.51100000000E-03 0.  1.
         11   -1    0    0    0    0 -0.00000000000E+00 -0.00000000000E+00 -0.45593999997E+02  0.45594000000E+02  0.51100000000E-03 0. -1.
    9900012    2    1    2    0    0  0.87651743361E+01  0.30589316091E+02  0.20435920886E+01  0.59302097022E+02  0.50000279025E+02 0.  0.
         12    1    1    2    0    0 -0.87651743361E+01 -0.30589316091E+02 -0.20435920886E+01  0.31885902978E+02  0.00000000000E+00 0. -1.
         11    1    3    3    0    0  0.82987970171E+01  0.12322488981E+01 -0.38372993788E+01  0.92256889207E+01  0.51100000000E-03 0. -1.
        -11    1    3    3    0    0  0.12178593368E+02  0.26248905338E+02  0.17058821031E+02  0.33590572235E+02  0.51100000000E-03 0.  1.
        -12    1    3    3    0    0 -0.11712216049E+02  0.31081618555E+01 -0.11177929564E+02  0.16485835867E+02  0.00000000000E+00 0.  1.
</event>
<event>
 7    1  0.5662448E-012  0.5930199E+02  0.7816164E-02  0.1266605E+00
        -11   -1    0    0    0    0  0.00000000000E+00  0.00000000000E+00  0.45593999997E+02  0.45594000000E+02  0.51100000000E-03 0.  1.
         11   -1    0    0    0    0 -0.00000000000E+00 -0.00000000000E+00 -0.45593999997E+02  0.45594000000E+02  0.51100000000E-03 0. -1.
    9900012    2    1    2    0    0 -0.90215264291E+01  0.27951235885E+02  0.12412008421E+02  0.59301992416E+02  0.50000088249E+02 0.  0.
         12    1    1    2    0    0  0.90215264291E+01 -0.27951235885E+02 -0.12412008421E+02  0.31886007584E+02  0.00000000000E+00 0. -1.
         11    1    3    3    0    0 -0.12646200978E+02  0.36018143810E+01  0.17003204950E+02  0.21494381704E+02  0.51100000000E-03 0. -1.
        -11    1    3    3    0    0 -0.97857579382E+01  0.18197430741E+02 -0.88107294242E+01  0.22461889886E+02  0.51100000000E-03 0.  1.
         12    1    3    3    0    0  0.13410432487E+02  0.61519907626E+01  0.42195328950E+01  0.15345720826E+02  0.00000000000E+00 0. -1.
</event>
<event>
 7    1  0.5662448E-012  0.5930194E+02  0.7816164E-02  0.1266605E+00
        -11   -1    0    0    0    0  0.00000000000E+00  0.00000000000E+00  0.45593999997E+02  0.45594000000E+02  0.51100000000E-03 0. -1.
         11   -1    0    0    0    0 -0.00000000000E+00 -0.00000000000E+00 -0.45593999997E+02  0.45594000000E+02  0.51100000000E-03 0.  1.
    9900012    2    1    2    0    0 -0.10455876156E+02  0.27501101992E+02 -0.12291661664E+02  0.59301938728E+02  0.49999990335E+02 0.  0.
         12    1    1    2    0    0  0.10455876156E+02 -0.27501101992E+02  0.12291661664E+02  0.31886061272E+02  0.00000000000E+00 0. -1.
         11    1    3    3    0    0  0.24249275971E+01  0.96798541208E+00  0.37878682530E+01  0.46005668968E+01  0.51100000000E-03 0. -1.
        -11    1    3    3    0    0 -0.70180649011E+01 -0.99969791223E+01  0.36814256716E+01  0.12757183144E+02  0.51100000000E-03 0.  1.
        -12    1    3    3    0    0 -0.58627388521E+01  0.36530095702E+02 -0.19760955588E+02  0.41944188687E+02  0.00000000000E+00 0.  1.
</event>
<event>
 7    1  0.5662448E-012  0.5930195E+02  0.7816164E-02  0.1266605E+00
        -11   -1    0    0    0    0  0.00000000000E+00  0.00000000000E+00  0.45593999997E+02  0.45594000000E+02  0.51100000000E-03 0. -1.
         11   -1    0    0    0    0 -0.00000000000E+00 -0.00000000000E+00 -0.45593999997E+02  0.45594000000E+02  0.51100000000E-03 0.  1.
    9900012    2    1    2    0    0 -0.26579574211E+02  0.16991555916E+02 -0.46404477373E+01  0.59301945166E+02  0.50000002076E+02 0.  0.
         12    1    1    2    0    0  0.26579574211E+02 -0.16991555916E+02  0.46404477373E+01  0.31886054834E+02  0.00000000000E+00 0. -1.
         11    1    3    3    0    0 -0.20127750962E+02  0.70521335018E+01 -0.19313684486E+02  0.28772857947E+02  0.51100000000E-03 0. -1.
        -11    1    3    3    0    0 -0.63856368315E+01 -0.40588587909E+01 -0.28637564996E+01  0.80902283020E+01  0.51100000000E-03 0.  1.
         12    1    3    3    0    0 -0.66186417112E-01  0.13998281205E+02  0.17536993248E+02  0.22438858918E+02  0.00000000000E+00 0. -1.
</event>
<event>
 7    1  0.5662448E-012  0.5930224E+02  0.7816164E-02  0.1266604E+00
        -11   -1    0    0    0    0  0.00000000000E+00  0.00000000000E+00  0.45593999997E+02  0.45594000000E+02  0.51100000000E-03 0.  1.
         11   -1    0    0    0    0 -0.00000000000E+00 -0.00000000000E+00 -0.45593999997E+02  0.45594000000E+02  0.51100000000E-03 0. -1.
    9900012    2    1    2    0    0 -0.30159476112E+02 -0.98567820954E+01 -0.31545557580E+01  0.59302244957E+02  0.50000548819E+02 0.  0.
         12    1    1    2    0    0  0.30159476112E+02  0.98567820954E+01  0.31545557580E+01  0.31885755043E+02  0.00000000000E+00 0. -1.
         11    1    3    3    0    0 -0.10862056046E+02 -0.32907168455E+01  0.51787980117E+01  0.12475296711E+02  0.51100000000E-03 0. -1.
        -11    1    3    3    0    0 -0.19810147971E+02 -0.21057557720E+02  0.20626491940E+01  0.28984775689E+02  0.51100000000E-03 0.  1.
         12    1    3    3    0    0  0.51272790509E+00  0.14491492471E+02 -0.10396002964E+02  0.17842172557E+02  0.00000000000E+00 0. -1.
</event>
<event>
 7    1  0.5662448E-012  0.5930195E+02  0.7816164E-02  0.1266605E+00
        -11   -1    0    0    0    0  0.00000000000E+00  0.00000000000E+00  0.45593999997E+02  0.45594000000E+02  0.51100000000E-03 0.  1.
         11   -1    0    0    0    0 -0.00000000000E+00 -0.00000000000E+00 -0.45593999997E+02  0.45594000000E+02  0.51100000000E-03 0. -1.
    9900012    2    1    2    0    0  0.21328795638E+02 -0.12582808824E+02  0.20086696374E+02  0.59301953326E+02  0.50000016958E+02 0.  0.
         12    1    1    2    0    0 -0.21328795638E+02  0.12582808824E+02 -0.20086696374E+02  0.31886046674E+02  0.00000000000E+00 0. -1.
         11    1    3    3    0    0 -0.10253932515E+02  0.56074303434E+01  0.15472403144E+02  0.19390246682E+02  0.51100000000E-03 0. -1.
        -11    1    3    3    0    0  0.17224639382E+02 -0.33120876959E+01  0.74213994232E+01  0.19045610948E+02  0.51100000000E-03 0.  1.
        -12    1    3    3    0    0  0.14358088772E+02 -0.14878151471E+02 -0.28071061932E+01  0.20866095695E+02  0.00000000000E+00 0.  1.
</event>
<event>
 7    1  0.5662448E-012  0.5930184E+02  0.7816164E-02  0.1266605E+00
        -11   -1    0    0    0    0  0.00000000000E+00  0.00000000000E+00  0.45593999997E+02  0.45594000000E+02  0.51100000000E-03 0. -1.
         11   -1    0    0    0    0 -0.00000000000E+00 -0.00000000000E+00 -0.45593999997E+02  0.45594000000E+02  0.51100000000E-03 0.  1.
    9900012    2    1    2    0    0  0.10670709499E+02  0.27784384692E+02 -0.11440777934E+02  0.59301835702E+02  0.49999802439E+02 0.  0.
         12    1    1    2    0    0 -0.10670709499E+02 -0.27784384692E+02  0.11440777934E+02  0.31886164298E+02  0.00000000000E+00 0. -1.
         11    1    3    3    0    0 -0.25946853389E+01 -0.27087022199E+01  0.36434383819E+01  0.52291589408E+01  0.51100000000E-03 0.  1.
        -11    1    3    3    0    0 -0.78971674058E+00  0.17878206772E+00  0.11404275420E+02  0.11432983585E+02  0.51100000000E-03 0. -1.
        -12    1    3    3    0    0  0.14055111578E+02  0.30314304844E+02 -0.26488491736E+02  0.42639693175E+02  0.00000000000E+00 0.  1.
</event>
<event>
 7    1  0.5662448E-012  0.5930195E+02  0.7816164E-02  0.1266605E+00
        -11   -1    0    0    0    0  0.00000000000E+00  0.00000000000E+00  0.45593999997E+02  0.45594000000E+02  0.51100000000E-03 0. -1.
         11   -1    0    0    0    0 -0.00000000000E+00 -0.00000000000E+00 -0.45593999997E+02  0.45594000000E+02  0.51100000000E-03 0.  1.
    9900012    2    1    2    0    0 -0.17804851871E+02 -0.56253803978E+01 -0.25846906277E+02  0.59301949462E+02  0.50000009911E+02 0.  0.
         12    1    1    2    0    0  0.17804851871E+02  0.56253803978E+01  0.25846906277E+02  0.31886050538E+02  0.00000000000E+00 0. -1.
         11    1    3    3    0    0 -0.23814368079E+01  0.44446775209E+01  0.51688126546E+01  0.72210126751E+01  0.51100000000E-03 0. -1.
        -11    1    3    3    0    0 -0.63518274233E+01 -0.11893343763E+02  0.53878178544E+01  0.14519845694E+02  0.51100000000E-03 0.  1.
        -12    1    3    3    0    0 -0.90715876403E+01  0.18232858443E+01 -0.36403536786E+02  0.37561091093E+02  0.00000000000E+00 0.  1.
</event>
<event>
 7    1  0.5662448E-012  0.5930201E+02  0.7816164E-02  0.1266605E+00
        -11   -1    0    0    0    0  0.00000000000E+00  0.00000000000E+00  0.45593999997E+02  0.45594000000E+02  0.51100000000E-03 0.  1.
         11   -1    0    0    0    0 -0.00000000000E+00 -0.00000000000E+00 -0.45593999997E+02  0.45594000000E+02  0.51100000000E-03 0. -1.
    9900012    2    1    2    0    0 -0.16575572242E+02 -0.26425133406E+02  0.66090062205E+01  0.59302011951E+02  0.50000123875E+02 0.  0.
         12    1    1    2    0    0  0.16575572242E+02  0.26425133406E+02 -0.66090062205E+01  0.31885988049E+02  0.00000000000E+00 0. -1.
         11    1    3    3    0    0  0.70339609560E+01  0.36004961795E+01  0.16966229654E+01  0.80819990854E+01  0.51100000000E-03 0. -1.
        -11    1    3    3    0    0 -0.41216551380E+01 -0.31189288758E+02  0.31762785212E+01  0.31620381399E+02  0.51100000000E-03 0.  1.
         12    1    3    3    0    0 -0.19487878060E+02  0.11636591731E+01  0.17361047338E+01  0.19599631466E+02  0.00000000000E+00 0. -1.
</event>
<event>
 7    1  0.5662448E-012  0.5930198E+02  0.7816164E-02  0.1266605E+00
        -11   -1    0    0    0    0  0.00000000000E+00  0.00000000000E+00  0.45593999997E+02  0.45594000000E+02  0.51100000000E-03 0.  1.
         11   -1    0    0    0    0 -0.00000000000E+00 -0.00000000000E+00 -0.45593999997E+02  0.45594000000E+02  0.51100000000E-03 0. -1.
    9900012    2    1    2    0    0 -0.82704742361E+01 -0.56743898124E+01  0.30267452182E+02  0.59301982603E+02  0.50000070353E+02 0.  0.
         12    1    1    2    0    0  0.82704742361E+01  0.56743898124E+01 -0.30267452182E+02  0.31886017397E+02  0.00000000000E+00 0. -1.
         11    1    3    3    0    0 -0.48796187279E+01  0.23582716638E-01  0.40924473412E+01  0.63686231303E+01  0.51100000000E-03 0. -1.
        -11    1    3    3    0    0  0.39580970057E+01  0.76720893653E+01  0.34492721120E+02  0.35556649134E+02  0.51100000000E-03 0.  1.
         12    1    3    3    0    0 -0.73489525138E+01 -0.13370061894E+02 -0.83177162790E+01  0.17376710339E+02  0.00000000000E+00 0. -1.
</event>
<event>
 7    1  0.5662448E-012  0.5930190E+02  0.7816164E-02  0.1266605E+00
        -11   -1    0    0    0    0  0.00000000000E+00  0.00000000000E+00  0.45593999997E+02  0.45594000000E+02  0.51100000000E-03 0.  1.
         11   -1    0    0    0    0 -0.00000000000E+00 -0.00000000000E+00 -0.45593999997E+02  0.45594000000E+02  0.51100000000E-03 0. -1.
    9900012    2    1    2    0    0  0.11761711791E+01 -0.30202302043E+02  0.10156811810E+02  0.59301901878E+02  0.49999923129E+02 0.  0.
         12    1    1    2    0    0 -0.11761711791E+01  0.30202302043E+02 -0.10156811810E+02  0.31886098122E+02  0.00000000000E+00 0. -1.
         11    1    3    3    0    0 -0.10841764037E+02 -0.14380232972E+01  0.10224846164E+02  0.14971948363E+02  0.51100000000E-03 0. -1.
        -11    1    3    3    0    0  0.32651810384E+01  0.54306607434E+01  0.57496027830E+01  0.85563669712E+01  0.51100000000E-03 0.  1.
         12    1    3    3    0    0  0.87527541781E+01 -0.34194939489E+02 -0.58176371368E+01  0.35773586544E+02  0.00000000000E+00 0. -1.
</event>
<event>
 7    1  0.5662448E-012  0.5930194E+02  0.7816164E-02  0.1266605E+00
        -11   -1    0    0    0    0  0.00000000000E+00  0.00000000000E+00  0.45593999997E+02  0.45594000000E+02  0.51100000000E-03 0. -1.
         11   -1    0    0    0    0 -0.00000000000E+00 -0.00000000000E+00 -0.45593999997E+02  0.45594000000E+02  0.51100000000E-03 0.  1.
    9900012    2    1    2    0    0 -0.26407914624E+02  0.13564844095E+02 -0.11633493177E+02  0.59301935432E+02  0.49999984324E+02 0.  0.
         12    1    1    2    0    0  0.26407914624E+02 -0.13564844095E+02  0.11633493177E+02  0.31886064568E+02  0.00000000000E+00 0. -1.
         11    1    3    3    0    0 -0.12997638899E+02  0.42701434466E+01 -0.48453665996E+01  0.14513797564E+02  0.51100000000E-03 0. -1.
        -11    1    3    3    0    0 -0.71062936005E+01  0.18255575776E+02  0.12047369135E+02  0.22997925102E+02  0.51100000000E-03 0.  1.
         12    1    3    3    0    0 -0.63039821246E+01 -0.89608751276E+01 -0.18835495712E+02  0.21790212766E+02  0.00000000000E+00 0. -1.
</event>
<event>
 7    1  0.5662448E-012  0.5930195E+02  0.7816164E-02  0.1266605E+00
        -11   -1    0    0    0    0  0.00000000000E+00  0.00000000000E+00  0.45593999997E+02  0.45594000000E+02  0.51100000000E-03 0. -1.
         11   -1    0    0    0    0 -0.00000000000E+00 -0.00000000000E+00 -0.45593999997E+02  0.45594000000E+02  0.51100000000E-03 0.  1.
    9900012    2    1    2    0    0 -0.26476627675E+02  0.13674405017E+02 -0.11345453774E+02  0.59301945259E+02  0.50000002246E+02 0.  0.
         12    1    1    2    0    0  0.26476627675E+02 -0.13674405017E+02  0.11345453774E+02  0.31886054741E+02  0.00000000000E+00 0. -1.
         11    1    3    3    0    0 -0.13876336476E+01  0.10981123121E+01  0.99449790715E+01  0.10101187395E+02  0.51100000000E-03 0. -1.
        -11    1    3    3    0    0  0.63098263754E+01 -0.42742652807E+01  0.13230821417E+00  0.76223853420E+01  0.51100000000E-03 0.  1.
        -12    1    3    3    0    0 -0.31398820403E+02  0.16850557985E+02 -0.21422741059E+02  0.41578372522E+02  0.00000000000E+00 0.  1.
</event>
<event>
 7    1  0.5662448E-012  0.5930194E+02  0.7816164E-02  0.1266605E+00
        -11   -1    0    0    0    0  0.00000000000E+00  0.00000000000E+00  0.45593999997E+02  0.45594000000E+02  0.51100000000E-03 0.  1.
         11   -1    0    0    0    0 -0.00000000000E+00 -0.00000000000E+00 -0.45593999997E+02  0.45594000000E+02  0.51100000000E-03 0. -1.
    9900012    2    1    2    0    0  0.25127121008E+02 -0.17104911028E+02 -0.96317354284E+01  0.59301944759E+02  0.50000001335E+02 0.  0.
         12    1    1    2    0    0 -0.25127121008E+02  0.17104911028E+02  0.96317354284E+01  0.31886055241E+02  0.00000000000E+00 0. -1.
         11    1    3    3    0    0 -0.10506016593E+02 -0.16531853164E+02 -0.88314746508E+00  0.19607613404E+02  0.51100000000E-03 0. -1.
        -11    1    3    3    0    0  0.12615998834E+02 -0.47693607447E+01  0.25276356564E+01  0.13722214499E+02  0.51100000000E-03 0.  1.
        -12    1    3    3    0    0  0.23017138767E+02  0.41963028806E+01 -0.11276223620E+02  0.25972116856E+02  0.00000000000E+00 0.  1.
</event>
<event>
 7    1  0.5662448E-012  0.5930196E+02  0.7816164E-02  0.1266605E+00
        -11   -1    0    0    0    0  0.00000000000E+00  0.00000000000E+00  0.45593999997E+02  0.45594000000E+02  0.51100000000E-03 0. -1.
         11   -1    0    0    0    0 -0.00000000000E+00 -0.00000000000E+00 -0.45593999997E+02  0.45594000000E+02  0.51100000000E-03 0.  1.
    9900012    2    1    2    0    0 -0.30080418266E+02  0.64505073953E+01 -0.83832678149E+01  0.59301956220E+02  0.50000022235E+02 0.  0.
         12    1    1    2    0    0  0.30080418266E+02 -0.64505073953E+01  0.83832678149E+01  0.31886043780E+02  0.00000000000E+00 0. -1.
         11    1    3    3    0    0 -0.10072538959E+02  0.29680155301E+01 -0.73601673519E+01  0.12823307723E+02  0.51100000000E-03 0. -1.
        -11    1    3    3    0    0  0.17032151962E+01 -0.70944672884E+01 -0.16330084210E+02  0.17885861978E+02  0.51100000000E-03 0.  1.
         12    1    3    3    0    0 -0.21711094503E+02  0.10576959154E+02  0.15306983747E+02  0.28592786519E+02  0.00000000000E+00 0. -1.
</event>
<event>
 7    1  0.5662448E-012  0.5930194E+02  0.7816164E-02  0.1266605E+00
        -11   -1    0    0    0    0  0.00000000000E+00  0.00000000000E+00  0.45593999997E+02  0.45594000000E+02  0.51100000000E-03 0.  1.
         11   -1    0    0    0    0 -0.00000000000E+00 -0.00000000000E+00 -0.45593999997E+02  0.45594000000E+02  0.51100000000E-03 0. -1.
    9900012    2    1    2    0    0  0.29323751767E+02  0.10509818667E+02  0.68104229038E+01  0.59301944015E+02  0.49999999977E+02 0.  0.
         12    1    1    2    0    0 -0.29323751767E+02 -0.10509818667E+02 -0.68104229038E+01  0.31886055985E+02  0.00000000000E+00 0. -1.
         11    1    3    3    0    0 -0.33050442709E+01  0.80940011998E+01  0.15183123382E+02  0.17520371256E+02  0.51100000000E-03 0. -1.
        -11    1    3    3    0    0  0.93672764759E+01  0.81536993830E+01  0.60526236785E+01  0.13815315265E+02  0.51100000000E-03 0.  1.
        -12    1    3    3    0    0  0.23261519562E+02 -0.57378819158E+01 -0.14425324157E+02  0.27966257495E+02  0.00000000000E+00 0.  1.
</event>
<event>
 7    1  0.5662448E-012  0.5930195E+02  0.7816164E-02  0.1266605E+00
        -11   -1    0    0    0    0  0.00000000000E+00  0.00000000000E+00  0.45593999997E+02  0.45594000000E+02  0.51100000000E-03 0.  1.
         11   -1    0    0    0    0 -0.00000000000E+00 -0.00000000000E+00 -0.45593999997E+02  0.45594000000E+02  0.51100000000E-03 0. -1.
    9900012    2    1    2    0    0 -0.70387479043E+01  0.68428638505E+01  0.30337299526E+02  0.59301945050E+02  0.50000001864E+02 0.  0.
         12    1    1    2    0    0  0.70387479043E+01 -0.68428638505E+01 -0.30337299526E+02  0.31886054950E+02  0.00000000000E+00 0. -1.
         11    1    3    3    0    0  0.81236736107E+01  0.89077527448E+01  0.16476550729E+02  0.20416142047E+02  0.51100000000E-03 0. -1.
        -11    1    3    3    0    0  0.53534771328E+01  0.10630602251E+02  0.22590513515E+01  0.12114979773E+02  0.51100000000E-03 0.  1.
        -12    1    3    3    0    0 -0.20515898648E+02 -0.12695491146E+02  0.11601697446E+02  0.26770823229E+02  0.00000000000E+00 0.  1.
</event>
<event>
 7    1  0.5662448E-012  0.5930196E+02  0.7816164E-02  0.1266605E+00
        -11   -1    0    0    0    0  0.00000000000E+00  0.00000000000E+00  0.45593999997E+02  0.45594000000E+02  0.51100000000E-03 0. -1.
         11   -1    0    0    0    0 -0.00000000000E+00 -0.00000000000E+00 -0.45593999997E+02  0.45594000000E+02  0.51100000000E-03 0.  1.
    9900012    2    1    2    0    0 -0.29201663355E+02 -0.39276799908E+01 -0.12188356178E+02  0.59301955417E+02  0.50000020772E+02 0.  0.
         12    1    1    2    0    0  0.29201663355E+02  0.39276799908E+01  0.12188356178E+02  0.31886044583E+02  0.00000000000E+00 0. -1.
         11    1    3    3    0    0 -0.15506040920E+02 -0.32321270511E+01 -0.36528708115E+01  0.16255073538E+02  0.51100000000E-03 0. -1.
        -11    1    3    3    0    0 -0.25173477380E+02  0.90921925031E+01 -0.80698863393E+01  0.27955231955E+02  0.51100000000E-03 0.  1.
         12    1    3    3    0    0  0.11477854945E+02 -0.97877454428E+01 -0.46559902714E+00  0.15091649924E+02  0.00000000000E+00 0. -1.
</event>
<event>
 7    1  0.5662448E-012  0.5930196E+02  0.7816164E-02  0.1266605E+00
        -11   -1    0    0    0    0  0.00000000000E+00  0.00000000000E+00  0.45593999997E+02  0.45594000000E+02  0.51100000000E-03 0. -1.
         11   -1    0    0    0    0 -0.00000000000E+00 -0.00000000000E+00 -0.45593999997E+02  0.45594000000E+02  0.51100000000E-03 0.  1.
    9900012    2    1    2    0    0 -0.27525581966E+02 -0.95530883868E+01 -0.12953774879E+02  0.59301961615E+02  0.50000032074E+02 0.  0.
         12    1    1    2    0    0  0.27525581966E+02  0.95530883868E+01  0.12953774879E+02  0.31886038385E+02  0.00000000000E+00 0. -1.
         11    1    3    3    0    0 -0.54789161467E+01  0.56112375270E+01  0.93124238760E+01  0.12174799688E+02  0.51100000000E-03 0. -1.
        -11    1    3    3    0    0 -0.20269017958E+02  0.40212240656E+01 -0.17973484845E+02  0.27387031415E+02  0.51100000000E-03 0.  1.
         12    1    3    3    0    0 -0.17776478612E+01 -0.19185549979E+02 -0.42927139100E+01  0.19740130512E+02  0.00000000000E+00 0. -1.
</event>
<event>
 7    1  0.5662448E-012  0.5930195E+02  0.7816164E-02  0.1266605E+00
        -11   -1    0    0    0    0  0.00000000000E+00  0.00000000000E+00  0.45593999997E+02  0.45594000000E+02  0.51100000000E-03 0. -1.
         11   -1    0    0    0    0 -0.00000000000E+00 -0.00000000000E+00 -0.45593999997E+02  0.45594000000E+02  0.51100000000E-03 0.  1.
    9900012    2    1    2    0    0  0.26667903359E+02  0.32116542649E+01  0.17182219239E+02  0.59301945828E+02  0.50000003283E+02 0.  0.
         12    1    1    2    0    0 -0.26667903359E+02 -0.32116542649E+01 -0.17182219239E+02  0.31886054172E+02  0.00000000000E+00 0. -1.
         11    1    3    3    0    0  0.14148136381E+02  0.10337542305E+02  0.15974349325E+02  0.23711060301E+02  0.51100000000E-03 0. -1.
        -11    1    3    3    0    0 -0.10850974015E+02 -0.17264353554E+01  0.34079379985E+01  0.11503836654E+02  0.51100000000E-03 0.  1.
        -12    1    3    3    0    0  0.23370740992E+02 -0.53994526850E+01 -0.22000680840E+01  0.24087048873E+02  0.00000000000E+00 0.  1.
</event>
<event>
 7    1  0.5662448E-012  0.5930186E+02  0.7816164E-02  0.1266605E+00
        -11   -1    0    0    0    0  0.00000000000E+00  0.00000000000E+00  0.45593999997E+02  0.45594000000E+02  0.51100000000E-03 0. -1.
         11   -1    0    0    0    0 -0.00000000000E+00 -0.00000000000E+00 -0.45593999997E+02  0.45594000000E+02  0.51100000000E-03 0.  1.
    9900012    2    1    2    0    0  0.31483438964E+02 -0.34085168050E+00  0.50401243456E+01  0.59301859401E+02  0.49999845661E+02 0.  0.
         12    1    1    2    0    0 -0.31483438964E+02  0.34085168050E+00 -0.50401243456E+01  0.31886140599E+02  0.00000000000E+00 0. -1.
         11    1    3    3    0    0 -0.51865212900E+01  0.11072340609E+02  0.23533142075E+01  0.12451297831E+02  0.51100000000E-03 0. -1.
        -11    1    3    3    0    0  0.31665253905E+01 -0.95070776886E+01 -0.66400961591E+01  0.12020910385E+02  0.51100000000E-03 0.  1.
        -12    1    3    3    0    0  0.33503434864E+02 -0.19061146013E+01  0.93269062972E+01  0.34829651184E+02  0.00000000000E+00 0.  1.
</event>
<event>
 7    1  0.5662448E-012  0.5930197E+02  0.7816164E-02  0.1266605E+00
        -11   -1    0    0    0    0  0.00000000000E+00  0.00000000000E+00  0.45593999997E+02  0.45594000000E+02  0.51100000000E-03 0.  1.
         11   -1    0    0    0    0 -0.00000000000E+00 -0.00000000000E+00 -0.45593999997E+02  0.45594000000E+02  0.51100000000E-03 0. -1.
    9900012    2    1    2    0    0 -0.16271905818E+02 -0.24794259817E+02  0.11712769257E+02  0.59301965401E+02  0.50000038979E+02 0.  0.
         12    1    1    2    0    0  0.16271905818E+02  0.24794259817E+02 -0.11712769257E+02  0.31886034599E+02  0.00000000000E+00 0. -1.
         11    1    3    3    0    0 -0.14005364622E+01  0.46083931940E+01 -0.45838288781E+01  0.66490809634E+01  0.51100000000E-03 0. -1.
        -11    1    3    3    0    0  0.42677427230E+01 -0.17260849869E+02  0.22949065187E+02  0.29031192869E+02  0.51100000000E-03 0.  1.
         12    1    3    3    0    0 -0.19139112079E+02 -0.12141803141E+02 -0.66524670518E+01  0.23621691568E+02  0.00000000000E+00 0. -1.
</event>
<event>
 7    1  0.5662448E-012  0.5930197E+02  0.7816164E-02  0.1266605E+00
        -11   -1    0    0    0    0  0.00000000000E+00  0.00000000000E+00  0.45593999997E+02  0.45594000000E+02  0.51100000000E-03 0. -1.
         11   -1    0    0    0    0 -0.00000000000E+00 -0.00000000000E+00 -0.45593999997E+02  0.45594000000E+02  0.51100000000E-03 0.  1.
    9900012    2    1    2    0    0  0.14089473791E+02 -0.18810647996E+02  0.21549136541E+02  0.59301968020E+02  0.50000043756E+02 0.  0.
         12    1    1    2    0    0 -0.14089473791E+02  0.18810647996E+02 -0.21549136541E+02  0.31886031980E+02  0.00000000000E+00 0. -1.
         11    1    3    3    0    0  0.17136495262E+01 -0.17449837254E+01  0.52427833735E+01  0.57851828548E+01  0.51100000000E-03 0. -1.
        -11    1    3    3    0    0  0.96443410266E+01 -0.65452609556E+01 -0.15792299664E+02  0.19627798750E+02  0.51100000000E-03 0.  1.
         12    1    3    3    0    0  0.27314832384E+01 -0.10520403315E+02  0.32098652832E+02  0.33888986415E+02  0.00000000000E+00 0. -1.
</event>
<event>
 7    1  0.5662448E-012  0.5930197E+02  0.7816164E-02  0.1266605E+00
        -11   -1    0    0    0    0  0.00000000000E+00  0.00000000000E+00  0.45593999997E+02  0.45594000000E+02  0.51100000000E-03 0. -1.
         11   -1    0    0    0    0 -0.00000000000E+00 -0.00000000000E+00 -0.45593999997E+02  0.45594000000E+02  0.51100000000E-03 0.  1.
    9900012    2    1    2    0    0  0.11449436089E+02 -0.25291070941E+00 -0.29758451740E+02  0.59301968567E+02  0.50000044753E+02 0.  0.
         12    1    1    2    0    0 -0.11449436089E+02  0.25291070941E+00  0.29758451740E+02  0.31886031433E+02  0.00000000000E+00 0. -1.
         11    1    3    3    0    0  0.86186399969E+00  0.41316564435E+01 -0.19839995255E+02  0.20283954409E+02  0.51100000000E-03 0. -1.
        -11    1    3    3    0    0  0.10654663144E+02 -0.10351575876E+02 -0.21416187124E+02  0.26063960578E+02  0.51100000000E-03 0.  1.
         12    1    3    3    0    0 -0.67091054617E-01  0.59670087226E+01  0.11497730638E+02  0.12954053579E+02  0.00000000000E+00 0. -1.
</event>
<event>
 7    1  0.5662448E-012  0.5930196E+02  0.7816164E-02  0.1266605E+00
        -11   -1    0    0    0    0  0.00000000000E+00  0.00000000000E+00  0.45593999997E+02  0.45594000000E+02  0.51100000000E-03 0.  1.
         11   -1    0    0    0    0 -0.00000000000E+00 -0.00000000000E+00 -0.45593999997E+02  0.45594000000E+02  0.51100000000E-03 0. -1.
    9900012    2    1    2    0    0  0.15258386574E+02 -0.14661534668E+02  0.23852476032E+02  0.59301959598E+02  0.50000028396E+02 0.  0.
         12    1    1    2    0    0 -0.15258386574E+02  0.14661534668E+02 -0.23852476032E+02  0.31886040402E+02  0.00000000000E+00 0. -1.
         11    1    3    3    0    0  0.31009299822E+01 -0.23639184939E+01 -0.99987755042E+00  0.40253736196E+01  0.51100000000E-03 0. -1.
        -11    1    3    3    0    0  0.25927793019E+01  0.17061467106E+02  0.31690752034E+01  0.17545916967E+02  0.51100000000E-03 0.  1.
         12    1    3    3    0    0  0.95646772899E+01 -0.29359083280E+02  0.21683278380E+02  0.37730669011E+02  0.00000000000E+00 0. -1.
</event>
<event>
 7    1  0.5662448E-012  0.5930195E+02  0.7816164E-02  0.1266605E+00
        -11   -1    0    0    0    0  0.00000000000E+00  0.00000000000E+00  0.45593999997E+02  0.45594000000E+02  0.51100000000E-03 0.  1.
         11   -1    0    0    0    0 -0.00000000000E+00 -0.00000000000E+00 -0.45593999997E+02  0.45594000000E+02  0.51100000000E-03 0. -1.
    9900012    2    1    2    0    0  0.18830171302E+02 -0.19698933393E+02  0.16555874824E+02  0.59301947888E+02  0.50000007040E+02 0.  0.
         12    1    1    2    0    0 -0.18830171302E+02  0.19698933393E+02 -0.16555874824E+02  0.31886052112E+02  0.00000000000E+00 0. -1.
         11    1    3    3    0    0 -0.55965937395E+01  0.80790308765E+00  0.16594826943E+02  0.17531766894E+02  0.51100000000E-03 0. -1.
        -11    1    3    3    0    0 -0.15999023094E+01  0.50066873767E+01 -0.79635118739E+00  0.53160870348E+01  0.51100000000E-03 0.  1.
        -12    1    3    3    0    0  0.26026667351E+02 -0.25513523857E+02  0.75739906824E+00  0.36454093959E+02  0.00000000000E+00 0.  1.
</event>
<event>
 7    1  0.5662448E-012  0.5930196E+02  0.7816164E-02  0.1266605E+00
        -11   -1    0    0    0    0  0.00000000000E+00  0.00000000000E+00  0.45593999997E+02  0.45594000000E+02  0.51100000000E-03 0. -1.
         11   -1    0    0    0    0 -0.00000000000E+00 -0.00000000000E+00 -0.45593999997E+02  0.45594000000E+02  0.51100000000E-03 0.  1.
    9900012    2    1    2    0    0 -0.20552349091E+02 -0.15952443367E+02 -0.18434744124E+02  0.59301963975E+02  0.50000036379E+02 0.  0.
         12    1    1    2    0    0  0.20552349091E+02  0.15952443367E+02  0.18434744124E+02  0.31886036025E+02  0.00000000000E+00 0. -1.
         11    1    3    3    0    0 -0.87747325892E+01 -0.87257665132E+01 -0.59165486053E+01  0.13716431056E+02  0.51100000000E-03 0. -1.
        -11    1    3    3    0    0 -0.15824297724E+02  0.13829303696E+02 -0.11866203957E+02  0.24134308272E+02  0.51100000000E-03 0.  1.
         12    1    3    3    0    0  0.40466812225E+01 -0.21055980550E+02 -0.65199156126E+00  0.21451224646E+02  0.00000000000E+00 0. -1.
</event>
<event>
 7    1  0.5751926E-012  0.5930193E+02  0.7816164E-02  0.1266605E+00
        -11   -1    0    0    0    0  0.00000000000E+00  0.00000000000E+00  0.45593999997E+02  0.45594000000E+02  0.51100000000E-03 0. -1.
         11   -1    0    0    0    0 -0.00000000000E+00 -0.00000000000E+00 -0.45593999997E+02  0.45594000000E+02  0.51100000000E-03 0.  1.
    9900012    2    1    2    0    0 -0.18697844062E+02  0.39335241738E+01 -0.25527226202E+02  0.59301933097E+02  0.49999980064E+02 0.  0.
         12    1    1    2    0    0  0.18697844062E+02 -0.39335241738E+01  0.25527226202E+02  0.31886066903E+02  0.00000000000E+00 0. -1.
         11    1    3    3    0    0 -0.70427791973E+01 -0.18046505867E+01  0.73495100247E+01  0.10337930181E+02  0.51100000000E-03 0. -1.
        -11    1    3    3    0    0 -0.23164275534E+02 -0.54415268904E+00 -0.20745533697E+02  0.31100754521E+02  0.51100000000E-03 0.  1.
        -12    1    3    3    0    0  0.11509210668E+02  0.62823274495E+01 -0.12131202530E+02  0.17863248395E+02  0.00000000000E+00 0.  1.
</event>
<event>
 7    1  0.5662448E-012  0.5930192E+02  0.7816164E-02  0.1266605E+00
        -11   -1    0    0    0    0  0.00000000000E+00  0.00000000000E+00  0.45593999997E+02  0.45594000000E+02  0.51100000000E-03 0.  1.
         11   -1    0    0    0    0 -0.00000000000E+00 -0.00000000000E+00 -0.45593999997E+02  0.45594000000E+02  0.51100000000E-03 0. -1.
    9900012    2    1    2    0    0  0.48732061181E+01 -0.31020363773E+02 -0.55417367422E+01  0.59301922277E+02  0.49999960331E+02 0.  0.
         12    1    1    2    0    0 -0.48732061181E+01  0.31020363773E+02  0.55417367422E+01  0.31886077723E+02  0.00000000000E+00 0. -1.
         11    1    3    3    0    0 -0.93408717664E+01  0.11664174016E+01 -0.12006719745E+02  0.15256924140E+02  0.51100000000E-03 0. -1.
        -11    1    3    3    0    0  0.92030180619E+01 -0.12630917919E+02 -0.95161951806E+01  0.18297365928E+02  0.51100000000E-03 0.  1.
        -12    1    3    3    0    0  0.50110598227E+01 -0.19555863255E+02  0.15981178184E+02  0.25747632208E+02  0.00000000000E+00 0.  1.
</event>
<event>
 7    1  0.5662448E-012  0.5930195E+02  0.7816164E-02  0.1266605E+00
        -11   -1    0    0    0    0  0.00000000000E+00  0.00000000000E+00  0.45593999997E+02  0.45594000000E+02  0.51100000000E-03 0.  1.
         11   -1    0    0    0    0 -0.00000000000E+00 -0.00000000000E+00 -0.45593999997E+02  0.45594000000E+02  0.51100000000E-03 0. -1.
    9900012    2    1    2    0    0  0.31602255673E+02  0.40135107948E+01 -0.13817882860E+01  0.59301950207E+02  0.50000011269E+02 0.  0.
         12    1    1    2    0    0 -0.31602255673E+02 -0.40135107948E+01  0.13817882860E+01  0.31886049793E+02  0.00000000000E+00 0. -1.
         11    1    3    3    0    0  0.13799712698E+01  0.34913190621E+01 -0.10132076565E+02  0.10805211949E+02  0.51100000000E-03 0. -1.
        -11    1    3    3    0    0 -0.38016785843E+00  0.13645171199E+02  0.65117455165E+01  0.15124088554E+02  0.51100000000E-03 0.  1.
         12    1    3    3    0    0  0.30602452262E+02 -0.13122979466E+02  0.22385427621E+01  0.33372649703E+02  0.00000000000E+00 0. -1.
</event>
<event>
 7    1  0.5662448E-012  0.5930197E+02  0.7816164E-02  0.1266605E+00
        -11   -1    0    0    0    0  0.00000000000E+00  0.00000000000E+00  0.45593999997E+02  0.45594000000E+02  0.51100000000E-03 0.  1.
         11   -1    0    0    0    0 -0.00000000000E+00 -0.00000000000E+00 -0.45593999997E+02  0.45594000000E+02  0.51100000000E-03 0. -1.
    9900012    2    1    2    0    0  0.25920221585E+02  0.54979196080E+01  0.17737930479E+02  0.59301965679E+02  0.50000039487E+02 0.  0.
         12    1    1    2    0    0 -0.25920221585E+02 -0.54979196080E+01 -0.17737930479E+02  0.31886034321E+02  0.00000000000E+00 0. -1.
         11    1    3    3    0    0  0.99107921848E+01 -0.17074713161E+02 -0.10208733358E+01  0.19768960870E+02  0.51100000000E-03 0. -1.
        -11    1    3    3    0    0 -0.41275857028E+00  0.12677985507E+01  0.11628252073E+02  0.11704440582E+02  0.51100000000E-03 0.  1.
        -12    1    3    3    0    0  0.16422187970E+02  0.21304834218E+02  0.71305517417E+01  0.27828564227E+02  0.00000000000E+00 0.  1.
</event>
<event>
 7    1  0.5662448E-012  0.5930164E+02  0.7816164E-02  0.1266606E+00
        -11   -1    0    0    0    0  0.00000000000E+00  0.00000000000E+00  0.45593999997E+02  0.45594000000E+02  0.51100000000E-03 0.  1.
         11   -1    0    0    0    0 -0.00000000000E+00 -0.00000000000E+00 -0.45593999997E+02  0.45594000000E+02  0.51100000000E-03 0. -1.
    9900012    2    1    2    0    0  0.23932229459E+02 -0.19448340750E+02 -0.81086440350E+01  0.59301644409E+02  0.49999453563E+02 0.  0.
         12    1    1    2    0    0 -0.23932229459E+02  0.19448340750E+02  0.81086440350E+01  0.31886355591E+02  0.00000000000E+00 0. -1.
         11    1    3    3    0    0 -0.32375195981E+01 -0.96947422731E+01  0.34077015983E+01  0.10774135294E+02  0.51100000000E-03 0. -1.
        -11    1    3    3    0    0  0.24907918180E+02 -0.21579199415E+02 -0.17109468063E+01  0.32999902647E+02  0.51100000000E-03 0.  1.
         12    1    3    3    0    0  0.22618308774E+01  0.11825600938E+02 -0.98053988270E+01  0.15527606468E+02  0.00000000000E+00 0. -1.
</event>
<event>
 7    1  0.5662448E-012  0.5930190E+02  0.7816164E-02  0.1266605E+00
        -11   -1    0    0    0    0  0.00000000000E+00  0.00000000000E+00  0.45593999997E+02  0.45594000000E+02  0.51100000000E-03 0.  1.
         11   -1    0    0    0    0 -0.00000000000E+00 -0.00000000000E+00 -0.45593999997E+02  0.45594000000E+02  0.51100000000E-03 0. -1.
    9900012    2    1    2    0    0  0.22796493350E+02  0.14735679286E+01  0.22245709855E+02  0.59301903995E+02  0.49999926990E+02 0.  0.
         12    1    1    2    0    0 -0.22796493350E+02 -0.14735679286E+01 -0.22245709855E+02  0.31886096005E+02  0.00000000000E+00 0. -1.
         11    1    3    3    0    0  0.95249860952E+01 -0.94736837156E+01 -0.29243728015E+01  0.13748745390E+02  0.51100000000E-03 0. -1.
        -11    1    3    3    0    0 -0.21624160815E+01 -0.88581291450E+01 -0.11344035466E+01  0.91885454195E+01  0.51100000000E-03 0.  1.
        -12    1    3    3    0    0  0.15433923336E+02  0.19805380789E+02  0.26304486203E+02  0.36364613186E+02  0.00000000000E+00 0.  1.
</event>
<event>
 7    1  0.5662448E-012  0.5930196E+02  0.7816164E-02  0.1266605E+00
        -11   -1    0    0    0    0  0.00000000000E+00  0.00000000000E+00  0.45593999997E+02  0.45594000000E+02  0.51100000000E-03 0.  1.
         11   -1    0    0    0    0 -0.00000000000E+00 -0.00000000000E+00 -0.45593999997E+02  0.45594000000E+02  0.51100000000E-03 0. -1.
    9900012    2    1    2    0    0  0.67215813977E+01 -0.20384916629E+01  0.31102801229E+02  0.59301963103E+02  0.50000034788E+02 0.  0.
         12    1    1    2    0    0 -0.67215813977E+01  0.20384916629E+01 -0.31102801229E+02  0.31886036897E+02  0.00000000000E+00 0. -1.
         11    1    3    3    0    0  0.16044378829E+02  0.79691764299E+01  0.18411104230E+02  0.25688492058E+02  0.51100000000E-03 0. -1.
        -11    1    3    3    0    0  0.99833809586E+01 -0.32211680093E+01  0.59896161405E+01  0.12079706970E+02  0.51100000000E-03 0.  1.
        -12    1    3    3    0    0 -0.19306178390E+02 -0.67865000835E+01  0.67020808582E+01  0.21533764075E+02  0.00000000000E+00 0.  1.
</event>
<event>
 7    1  0.5662448E-012  0.5930194E+02  0.7816164E-02  0.1266605E+00
        -11   -1    0    0    0    0  0.00000000000E+00  0.00000000000E+00  0.45593999997E+02  0.45594000000E+02  0.51100000000E-03 0.  1.
         11   -1    0    0    0    0 -0.00000000000E+00 -0.00000000000E+00 -0.45593999997E+02  0.45594000000E+02  0.51100000000E-03 0. -1.
    9900012    2    1    2    0    0 -0.14669528785E+02 -0.39787986732E+01  0.28030245873E+02  0.59301943528E+02  0.49999999089E+02 0.  0.
         12    1    1    2    0    0  0.14669528785E+02  0.39787986732E+01 -0.28030245873E+02  0.31886056472E+02  0.00000000000E+00 0. -1.
         11    1    3    3    0    0 -0.22836183268E+02 -0.55491807874E+01  0.21758589506E+02  0.32026877638E+02  0.51100000000E-03 0. -1.
        -11    1    3    3    0    0 -0.10160833098E+01 -0.57127709232E+01 -0.73116378018E+01  0.93342500781E+01  0.51100000000E-03 0.  1.
         12    1    3    3    0    0  0.91827377931E+01  0.72831530374E+01  0.13583294168E+02  0.17940815812E+02  0.00000000000E+00 0. -1.
</event>
<event>
 7    1  0.5662448E-012  0.5930197E+02  0.7816164E-02  0.1266605E+00
        -11   -1    0    0    0    0  0.00000000000E+00  0.00000000000E+00  0.45593999997E+02  0.45594000000E+02  0.51100000000E-03 0.  1.
         11   -1    0    0    0    0 -0.00000000000E+00 -0.00000000000E+00 -0.45593999997E+02  0.45594000000E+02  0.51100000000E-03 0. -1.
    9900012    2    1    2    0    0 -0.23045050879E+02 -0.21515568898E+02 -0.47670561824E+01  0.59301970149E+02  0.50000047639E+02 0.  0.
         12    1    1    2    0    0  0.23045050879E+02  0.21515568898E+02  0.47670561824E+01  0.31886029851E+02  0.00000000000E+00 0. -1.
         11    1    3    3    0    0  0.63325507625E+01  0.49567628867E+01  0.60135890334E+01  0.10041610966E+02  0.51100000000E-03 0. -1.
        -11    1    3    3    0    0 -0.18611298451E+02 -0.10491465273E+02  0.75553457371E+01  0.22661300119E+02  0.51100000000E-03 0.  1.
         12    1    3    3    0    0 -0.10766303190E+02 -0.15980866512E+02 -0.18335990953E+02  0.26599059064E+02  0.00000000000E+00 0. -1.
</event>
<event>
 7    1  0.5662448E-012  0.5930195E+02  0.7816164E-02  0.1266605E+00
        -11   -1    0    0    0    0  0.00000000000E+00  0.00000000000E+00  0.45593999997E+02  0.45594000000E+02  0.51100000000E-03 0. -1.
         11   -1    0    0    0    0 -0.00000000000E+00 -0.00000000000E+00 -0.45593999997E+02  0.45594000000E+02  0.51100000000E-03 0.  1.
    9900012    2    1    2    0    0 -0.20007912611E+02  0.24574400443E+02 -0.35358703211E+01  0.59301951278E+02  0.50000013222E+02 0.  0.
         12    1    1    2    0    0  0.20007912611E+02 -0.24574400443E+02  0.35358703211E+01  0.31886048722E+02  0.00000000000E+00 0. -1.
         11    1    3    3    0    0 -0.76080991739E+01 -0.35963174972E+01  0.92140769019E+01  0.12478617151E+02  0.51100000000E-03 0. -1.
        -11    1    3    3    0    0 -0.12120309555E+02  0.29203271410E+02  0.23311260086E+01  0.31704370574E+02  0.51100000000E-03 0.  1.
        -12    1    3    3    0    0 -0.27950388231E+00 -0.10325534700E+01 -0.15081073232E+02  0.15118963553E+02  0.00000000000E+00 0.  1.
</event>
<event>
 7    1  0.5662448E-012  0.5930186E+02  0.7816164E-02  0.1266605E+00
        -11   -1    0    0    0    0  0.00000000000E+00  0.00000000000E+00  0.45593999997E+02  0.45594000000E+02  0.51100000000E-03 0. -1.
         11   -1    0    0    0    0 -0.00000000000E+00 -0.00000000000E+00 -0.45593999997E+02  0.45594000000E+02  0.51100000000E-03 0.  1.
    9900012    2    1    2    0    0  0.29622566459E+02  0.98711778493E+00 -0.11758188110E+02  0.59301861432E+02  0.49999849366E+02 0.  0.
         12    1    1    2    0    0 -0.29622566459E+02 -0.98711778493E+00  0.11758188110E+02  0.31886138568E+02  0.00000000000E+00 0. -1.
         11    1    3    3    0    0  0.17472358839E+02 -0.61956587429E+01 -0.14885672005E+02  0.23775044521E+02  0.51100000000E-03 0.  1.
        -11    1    3    3    0    0  0.18058775026E+02 -0.74770647565E+01  0.91426596348E+00  0.19566852974E+02  0.51100000000E-03 0. -1.
        -12    1    3    3    0    0 -0.59085674057E+01  0.14659841284E+02  0.22132179316E+01  0.15959963937E+02  0.00000000000E+00 0.  1.
</event>
<event>
 7    1  0.5662448E-012  0.5930193E+02  0.7816164E-02  0.1266605E+00
        -11   -1    0    0    0    0  0.00000000000E+00  0.00000000000E+00  0.45593999997E+02  0.45594000000E+02  0.51100000000E-03 0.  1.
         11   -1    0    0    0    0 -0.00000000000E+00 -0.00000000000E+00 -0.45593999997E+02  0.45594000000E+02  0.51100000000E-03 0. -1.
    9900012    2    1    2    0    0 -0.92931306095E+01 -0.27935853351E+02  0.12245292774E+02  0.59301931348E+02  0.49999976875E+02 0.  0.
         12    1    1    2    0    0  0.92931306095E+01  0.27935853351E+02 -0.12245292774E+02  0.31886068652E+02  0.00000000000E+00 0. -1.
         11    1    3    3    0    0  0.31963610677E+01  0.88938790672E+01 -0.38587354857E+01  0.10208214768E+02  0.51100000000E-03 0. -1.
        -11    1    3    3    0    0  0.50895708039E+00  0.37230306905E+01  0.79747999761E+00  0.38413499502E+01  0.51100000000E-03 0.  1.
         12    1    3    3    0    0 -0.12998448758E+02 -0.40552763109E+02  0.15306548262E+02  0.45252366630E+02  0.00000000000E+00 0. -1.
</event>
<event>
 7    1  0.5662448E-012  0.5930194E+02  0.7816164E-02  0.1266605E+00
        -11   -1    0    0    0    0  0.00000000000E+00  0.00000000000E+00  0.45593999997E+02  0.45594000000E+02  0.51100000000E-03 0. -1.
         11   -1    0    0    0    0 -0.00000000000E+00 -0.00000000000E+00 -0.45593999997E+02  0.45594000000E+02  0.51100000000E-03 0.  1.
    9900012    2    1    2    0    0  0.28674415561E+02 -0.55427819389E+01 -0.12797505132E+02  0.59301942279E+02  0.49999996811E+02 0.  0.
         12    1    1    2    0    0 -0.28674415561E+02  0.55427819389E+01  0.12797505132E+02  0.31886057721E+02  0.00000000000E+00 0. -1.
         11    1    3    3    0    0  0.32703781930E+02 -0.96500383280E+01  0.21213529385E+01  0.34163734146E+02  0.51100000000E-03 0.  1.
        -11    1    3    3    0    0  0.75496194327E+01 -0.81052560958E+00 -0.46924442002E+01  0.89259586699E+01  0.51100000000E-03 0. -1.
        -12    1    3    3    0    0 -0.11578985802E+02  0.49177819987E+01 -0.10226413871E+02  0.16212249463E+02  0.00000000000E+00 0.  1.
</event>
<event>
 7    1  0.5662448E-012  0.5930200E+02  0.7816164E-02  0.1266605E+00
        -11   -1    0    0    0    0  0.00000000000E+00  0.00000000000E+00  0.45593999997E+02  0.45594000000E+02  0.51100000000E-03 0. -1.
         11   -1    0    0    0    0 -0.00000000000E+00 -0.00000000000E+00 -0.45593999997E+02  0.45594000000E+02  0.51100000000E-03 0.  1.
    9900012    2    1    2    0    0  0.18642219934E+02 -0.15258990864E+02 -0.20888941339E+02  0.59301999364E+02  0.50000100921E+02 0.  0.
         12    1    1    2    0    0 -0.18642219934E+02  0.15258990864E+02  0.20888941339E+02  0.31886000636E+02  0.00000000000E+00 0. -1.
         11    1    3    3    0    0  0.14341251365E+02  0.70350254478E+01  0.19202788954E+01  0.16088832931E+02  0.51100000000E-03 0. -1.
        -11    1    3    3    0    0  0.14556414931E+00  0.47612989908E+01 -0.13476047267E+02  0.14293180444E+02  0.51100000000E-03 0.  1.
         12    1    3    3    0    0  0.41554044195E+01 -0.27055315302E+02 -0.93331729678E+01  0.28919985990E+02  0.00000000000E+00 0. -1.
</event>
<event>
 7    1  0.5662448E-012  0.5930197E+02  0.7816164E-02  0.1266605E+00
        -11   -1    0    0    0    0  0.00000000000E+00  0.00000000000E+00  0.45593999997E+02  0.45594000000E+02  0.51100000000E-03 0. -1.
         11   -1    0    0    0    0 -0.00000000000E+00 -0.00000000000E+00 -0.45593999997E+02  0.45594000000E+02  0.51100000000E-03 0.  1.
    9900012    2    1    2    0    0 -0.30657312594E+02 -0.66844542090E+01  0.56715496543E+01  0.59301965141E+02  0.50000038506E+02 0.  0.
         12    1    1    2    0    0  0.30657312594E+02  0.66844542090E+01 -0.56715496543E+01  0.31886034859E+02  0.00000000000E+00 0. -1.
         11    1    3    3    0    0 -0.97416987110E+01  0.14117599160E+02  0.15998756000E+02  0.23455649504E+02  0.51100000000E-03 0. -1.
        -11    1    3    3    0    0 -0.18587323143E+01  0.82728900925E+00  0.33654690788E+01  0.39326422800E+01  0.51100000000E-03 0.  1.
        -12    1    3    3    0    0 -0.19056881569E+02 -0.21629342379E+02 -0.13692675425E+02  0.31913673357E+02  0.00000000000E+00 0.  1.
</event>
<event>
 7    1  0.5662448E-012  0.5930193E+02  0.7816164E-02  0.1266605E+00
        -11   -1    0    0    0    0  0.00000000000E+00  0.00000000000E+00  0.45593999997E+02  0.45594000000E+02  0.51100000000E-03 0.  1.
         11   -1    0    0    0    0 -0.00000000000E+00 -0.00000000000E+00 -0.45593999997E+02  0.45594000000E+02  0.51100000000E-03 0. -1.
    9900012    2    1    2    0    0  0.15042807525E+02 -0.12307046393E+01  0.28087728593E+02  0.59301934240E+02  0.49999982149E+02 0.  0.
         12    1    1    2    0    0 -0.15042807525E+02  0.12307046393E+01 -0.28087728593E+02  0.31886065760E+02  0.00000000000E+00 0. -1.
         11    1    3    3    0    0  0.49171145808E+01  0.42724504130E+01 -0.17039346334E+01  0.67331450176E+01  0.51100000000E-03 0. -1.
        -11    1    3    3    0    0  0.19120139005E+02  0.12430564149E+02  0.19573870059E+02  0.30053868802E+02  0.51100000000E-03 0.  1.
         12    1    3    3    0    0 -0.89944460601E+01 -0.17933719201E+02  0.10217793167E+02  0.22514920420E+02  0.00000000000E+00 0. -1.
</event>
<event>
 7    1  0.5662448E-012  0.5930190E+02  0.7816164E-02  0.1266605E+00
        -11   -1    0    0    0    0  0.00000000000E+00  0.00000000000E+00  0.45593999997E+02  0.45594000000E+02  0.51100000000E-03 0.  1.
         11   -1    0    0    0    0 -0.00000000000E+00 -0.00000000000E+00 -0.45593999997E+02  0.45594000000E+02  0.51100000000E-03 0. -1.
    9900012    2    1    2    0    0  0.17510454902E+02 -0.19641926453E+02  0.18008385405E+02  0.59301901923E+02  0.49999923212E+02 0.  0.
         12    1    1    2    0    0 -0.17510454902E+02  0.19641926453E+02 -0.18008385405E+02  0.31886098077E+02  0.00000000000E+00 0. -1.
         11    1    3    3    0    0 -0.72303512409E+01  0.11031904429E+02  0.26318799671E+01  0.13450192817E+02  0.51100000000E-03 0. -1.
        -11    1    3    3    0    0  0.18021642748E+02 -0.11370955236E+02  0.13723986983E+02  0.25346124936E+02  0.51100000000E-03 0.  1.
        -12    1    3    3    0    0  0.67191633950E+01 -0.19302875646E+02  0.16525184549E+01  0.20505584170E+02  0.00000000000E+00 0.  1.
</event>
<event>
 7    1  0.5662448E-012  0.5930196E+02  0.7816164E-02  0.1266605E+00
        -11   -1    0    0    0    0  0.00000000000E+00  0.00000000000E+00  0.45593999997E+02  0.45594000000E+02  0.51100000000E-03 0.  1.
         11   -1    0    0    0    0 -0.00000000000E+00 -0.00000000000E+00 -0.45593999997E+02  0.45594000000E+02  0.51100000000E-03 0. -1.
    9900012    2    1    2    0    0  0.24491523686E+02 -0.61136560953E+01 -0.19480961637E+02  0.59301962466E+02  0.50000033627E+02 0.  0.
         12    1    1    2    0    0 -0.24491523686E+02  0.61136560953E+01  0.19480961637E+02  0.31886037534E+02  0.00000000000E+00 0. -1.
         11    1    3    3    0    0  0.30916383765E+02  0.50395682647E+00 -0.23456038279E+02  0.38810597645E+02  0.51100000000E-03 0.  1.
        -11    1    3    3    0    0  0.23877865876E+01 -0.66893544758E+01 -0.43822802648E+01  0.83458593729E+01  0.51100000000E-03 0. -1.
        -12    1    3    3    0    0 -0.88126466671E+01  0.71741554106E-01  0.83573569060E+01  0.12145505448E+02  0.00000000000E+00 0.  1.
</event>
<event>
 7    1  0.5662448E-012  0.5930190E+02  0.7816164E-02  0.1266605E+00
        -11   -1    0    0    0    0  0.00000000000E+00  0.00000000000E+00  0.45593999997E+02  0.45594000000E+02  0.51100000000E-03 0.  1.
         11   -1    0    0    0    0 -0.00000000000E+00 -0.00000000000E+00 -0.45593999997E+02  0.45594000000E+02  0.51100000000E-03 0. -1.
    9900012    2    1    2    0    0  0.25427179998E+02  0.19030478638E+02 -0.28324644987E+01  0.59301898717E+02  0.49999917365E+02 0.  0.
         12    1    1    2    0    0 -0.25427179998E+02 -0.19030478638E+02  0.28324644987E+01  0.31886101283E+02  0.00000000000E+00 0. -1.
         11    1    3    3    0    0  0.12962426900E+02  0.16131762602E+02  0.22612078938E+01  0.20817572798E+02  0.51100000000E-03 0. -1.
        -11    1    3    3    0    0  0.91514634294E+01 -0.16277902147E+02 -0.20329653445E+01  0.18784363965E+02  0.51100000000E-03 0.  1.
         12    1    3    3    0    0  0.33132896687E+01  0.19176618183E+02 -0.30607070480E+01  0.19699961954E+02  0.00000000000E+00 0. -1.
</event>
<event>
 7    1  0.5662448E-012  0.5930197E+02  0.7816164E-02  0.1266605E+00
        -11   -1    0    0    0    0  0.00000000000E+00  0.00000000000E+00  0.45593999997E+02  0.45594000000E+02  0.51100000000E-03 0.  1.
         11   -1    0    0    0    0 -0.00000000000E+00 -0.00000000000E+00 -0.45593999997E+02  0.45594000000E+02  0.51100000000E-03 0. -1.
    9900012    2    1    2    0    0 -0.14485593871E+02 -0.25566301861E+02  0.12379447207E+02  0.59301969614E+02  0.50000046663E+02 0.  0.
         12    1    1    2    0    0  0.14485593871E+02  0.25566301861E+02 -0.12379447207E+02  0.31886030386E+02  0.00000000000E+00 0. -1.
         11    1    3    3    0    0 -0.34064421061E+01  0.77855507311E+00 -0.60835822048E+00  0.35468430766E+01  0.51100000000E-03 0. -1.
        -11    1    3    3    0    0 -0.17696935347E+02 -0.36667872589E+02  0.47689626737E+01  0.40993382468E+02  0.51100000000E-03 0.  1.
         12    1    3    3    0    0  0.66177835815E+01  0.10323015655E+02  0.82188427542E+01  0.14761744069E+02  0.00000000000E+00 0. -1.
</event>
<event>
 7    1  0.5662448E-012  0.5930192E+02  0.7816164E-02  0.1266605E+00
        -11   -1    0    0    0    0  0.00000000000E+00  0.00000000000E+00  0.45593999997E+02  0.45594000000E+02  0.51100000000E-03 0. -1.
         11   -1    0    0    0    0 -0.00000000000E+00 -0.00000000000E+00 -0.45593999997E+02  0.45594000000E+02  0.51100000000E-03 0.  1.
    9900012    2    1    2    0    0 -0.78905127799E+01 -0.65307951246E+01 -0.30196197160E+02  0.59301924672E+02  0.49999964701E+02 0.  0.
         12    1    1    2    0    0  0.78905127799E+01  0.65307951246E+01  0.30196197160E+02  0.31886075328E+02  0.00000000000E+00 0. -1.
         11    1    3    3    0    0 -0.32242419506E+01  0.61501772745E+01 -0.90264124652E+01  0.11388438827E+02  0.51100000000E-03 0. -1.
        -11    1    3    3    0    0  0.43257302648E+00  0.13243952668E+02  0.11847527014E+01  0.13303873155E+02  0.51100000000E-03 0.  1.
         12    1    3    3    0    0 -0.50988438558E+01 -0.25924925067E+02 -0.22354537396E+02  0.34609612690E+02  0.00000000000E+00 0. -1.
</event>
<event>
 7    1  0.5662448E-012  0.5930195E+02  0.7816164E-02  0.1266605E+00
        -11   -1    0    0    0    0  0.00000000000E+00  0.00000000000E+00  0.45593999997E+02  0.45594000000E+02  0.51100000000E-03 0.  1.
         11   -1    0    0    0    0 -0.00000000000E+00 -0.00000000000E+00 -0.45593999997E+02  0.45594000000E+02  0.51100000000E-03 0. -1.
    9900012    2    1    2    0    0 -0.41936550319E+01  0.13311597825E+02  0.28669404132E+02  0.59301951131E+02  0.50000012955E+02 0.  0.
         12    1    1    2    0    0  0.41936550319E+01 -0.13311597825E+02 -0.28669404132E+02  0.31886048869E+02  0.00000000000E+00 0. -1.
         11    1    3    3    0    0  0.50238579490E+01 -0.40660157485E+01  0.20154528720E+02  0.21165459148E+02  0.51100000000E-03 0. -1.
        -11    1    3    3    0    0 -0.51840253617E+01  0.43120083187E+01  0.19476801020E+02  0.20610999804E+02  0.51100000000E-03 0.  1.
         12    1    3    3    0    0 -0.40334876192E+01  0.13065605255E+02 -0.10961925608E+02  0.17525492179E+02  0.00000000000E+00 0. -1.
</event>
<event>
 7    1  0.5662448E-012  0.5930194E+02  0.7816164E-02  0.1266605E+00
        -11   -1    0    0    0    0  0.00000000000E+00  0.00000000000E+00  0.45593999997E+02  0.45594000000E+02  0.51100000000E-03 0.  1.
         11   -1    0    0    0    0 -0.00000000000E+00 -0.00000000000E+00 -0.45593999997E+02  0.45594000000E+02  0.51100000000E-03 0. -1.
    9900012    2    1    2    0    0 -0.16022247366E+02 -0.13785915223E+02  0.23873767339E+02  0.59301942920E+02  0.49999997979E+02 0.  0.
         12    1    1    2    0    0  0.16022247366E+02  0.13785915223E+02 -0.23873767339E+02  0.31886057080E+02  0.00000000000E+00 0. -1.
         11    1    3    3    0    0 -0.14150997776E+02 -0.22387952099E+02  0.50035893853E+01  0.26953794616E+02  0.51100000000E-03 0. -1.
        -11    1    3    3    0    0 -0.71549659356E+01 -0.66188355930E+01  0.99639810144E+01  0.13938559469E+02  0.51100000000E-03 0.  1.
         12    1    3    3    0    0  0.52837163459E+01  0.15220872469E+02  0.89061969393E+01  0.18409588834E+02  0.00000000000E+00 0. -1.
</event>
<event>
 7    1  0.5662448E-012  0.5930204E+02  0.7816164E-02  0.1266604E+00
        -11   -1    0    0    0    0  0.00000000000E+00  0.00000000000E+00  0.45593999997E+02  0.45594000000E+02  0.51100000000E-03 0. -1.
         11   -1    0    0    0    0 -0.00000000000E+00 -0.00000000000E+00 -0.45593999997E+02  0.45594000000E+02  0.51100000000E-03 0.  1.
    9900012    2    1    2    0    0 -0.22619416658E+01 -0.76452659172E+01 -0.30873091029E+02  0.59302043519E+02  0.50000181447E+02 0.  0.
         12    1    1    2    0    0  0.22619416658E+01  0.76452659172E+01  0.30873091029E+02  0.31885956481E+02  0.00000000000E+00 0. -1.
         11    1    3    3    0    0 -0.11003141444E+02  0.45798238412E+01  0.14364673007E+01  0.12004471943E+02  0.51100000000E-03 0. -1.
        -11    1    3    3    0    0  0.11471448429E+02  0.12972487330E+01  0.65471719442E+00  0.11563115419E+02  0.51100000000E-03 0.  1.
        -12    1    3    3    0    0 -0.27302486501E+01 -0.13522338491E+02 -0.32964275524E+02  0.35734456157E+02  0.00000000000E+00 0.  1.
</event>
<event>
 7    1  0.5662448E-012  0.5930196E+02  0.7816164E-02  0.1266605E+00
        -11   -1    0    0    0    0  0.00000000000E+00  0.00000000000E+00  0.45593999997E+02  0.45594000000E+02  0.51100000000E-03 0. -1.
         11   -1    0    0    0    0 -0.00000000000E+00 -0.00000000000E+00 -0.45593999997E+02  0.45594000000E+02  0.51100000000E-03 0.  1.
    9900012    2    1    2    0    0 -0.20702824311E+02  0.22579073259E+02 -0.88486136121E+01  0.59301961574E+02  0.50000032000E+02 0.  0.
         12    1    1    2    0    0  0.20702824311E+02 -0.22579073259E+02  0.88486136121E+01  0.31886038426E+02  0.00000000000E+00 0. -1.
         11    1    3    3    0    0  0.66501252891E+00  0.79209526295E+01 -0.33661489613E+00  0.79559438203E+01  0.51100000000E-03 0. -1.
        -11    1    3    3    0    0 -0.79384744471E+01  0.22139156075E+02 -0.21007740651E+02  0.31535484391E+02  0.51100000000E-03 0.  1.
         12    1    3    3    0    0 -0.13429362393E+02 -0.74810354457E+01  0.12495741935E+02  0.19810533363E+02  0.00000000000E+00 0. -1.
</event>
<event>
 7    1  0.5662448E-012  0.5930195E+02  0.7816164E-02  0.1266605E+00
        -11   -1    0    0    0    0  0.00000000000E+00  0.00000000000E+00  0.45593999997E+02  0.45594000000E+02  0.51100000000E-03 0.  1.
         11   -1    0    0    0    0 -0.00000000000E+00 -0.00000000000E+00 -0.45593999997E+02  0.45594000000E+02  0.51100000000E-03 0. -1.
    9900012    2    1    2    0    0 -0.21021289909E+01 -0.86830518312E+01  0.30608915990E+02  0.59301951742E+02  0.50000014070E+02 0.  0.
         12    1    1    2    0    0  0.21021289909E+01  0.86830518312E+01 -0.30608915990E+02  0.31886048258E+02  0.00000000000E+00 0. -1.
         11    1    3    3    0    0  0.54857629476E+00  0.25452390904E+01  0.53093003846E+01  0.59133618876E+01  0.51100000000E-03 0. -1.
        -11    1    3    3    0    0  0.15616708230E+02 -0.15126416426E+02  0.26962287967E+02  0.34636036472E+02  0.51100000000E-03 0.  1.
         12    1    3    3    0    0 -0.18267413515E+02  0.38981255040E+01 -0.16626723621E+01  0.18752553383E+02  0.00000000000E+00 0. -1.
</event>
<event>
 7    1  0.5662448E-012  0.5930194E+02  0.7816164E-02  0.1266605E+00
        -11   -1    0    0    0    0  0.00000000000E+00  0.00000000000E+00  0.45593999997E+02  0.45594000000E+02  0.51100000000E-03 0.  1.
         11   -1    0    0    0    0 -0.00000000000E+00 -0.00000000000E+00 -0.45593999997E+02  0.45594000000E+02  0.51100000000E-03 0. -1.
    9900012    2    1    2    0    0 -0.25997762269E+02 -0.18018735642E+02 -0.40202619873E+01  0.59301937472E+02  0.49999988043E+02 0.  0.
         12    1    1    2    0    0  0.25997762269E+02  0.18018735642E+02  0.40202619873E+01  0.31886062528E+02  0.00000000000E+00 0. -1.
         11    1    3    3    0    0 -0.16234892981E+02 -0.85632899557E+01 -0.11662994364E+02  0.21746887658E+02  0.51100000000E-03 0. -1.
        -11    1    3    3    0    0 -0.13670675790E+02  0.43491503007E+01 -0.79210890013E+01  0.16387377341E+02  0.51100000000E-03 0.  1.
        -12    1    3    3    0    0  0.39078065026E+01 -0.13804595987E+02  0.15563821378E+02  0.21167672473E+02  0.00000000000E+00 0.  1.
</event>
<event>
 7    1  0.5662448E-012  0.5930196E+02  0.7816164E-02  0.1266605E+00
        -11   -1    0    0    0    0  0.00000000000E+00  0.00000000000E+00  0.45593999997E+02  0.45594000000E+02  0.51100000000E-03 0.  1.
         11   -1    0    0    0    0 -0.00000000000E+00 -0.00000000000E+00 -0.45593999997E+02  0.45594000000E+02  0.51100000000E-03 0. -1.
    9900012    2    1    2    0    0  0.24606587368E+02  0.14583432866E+02  0.14091103185E+02  0.59301955324E+02  0.50000020602E+02 0.  0.
         12    1    1    2    0    0 -0.24606587368E+02 -0.14583432866E+02 -0.14091103185E+02  0.31886044676E+02  0.00000000000E+00 0. -1.
         11    1    3    3    0    0  0.43961906633E+01 -0.44447012647E+01  0.16851330648E+02  0.17973569667E+02  0.51100000000E-03 0. -1.
        -11    1    3    3    0    0  0.19267825732E+02  0.46735539543E+01  0.99040617768E+01  0.22162618414E+02  0.51100000000E-03 0.  1.
         12    1    3    3    0    0  0.94257097288E+00  0.14354580177E+02 -0.12664289240E+02  0.19165767244E+02  0.00000000000E+00 0. -1.
</event>
<event>
 7    1  0.5662448E-012  0.5930190E+02  0.7816164E-02  0.1266605E+00
        -11   -1    0    0    0    0  0.00000000000E+00  0.00000000000E+00  0.45593999997E+02  0.45594000000E+02  0.51100000000E-03 0.  1.
         11   -1    0    0    0    0 -0.00000000000E+00 -0.00000000000E+00 -0.45593999997E+02  0.45594000000E+02  0.51100000000E-03 0. -1.
    9900012    2    1    2    0    0  0.12241873694E+02  0.14570186882E+02  0.25584562123E+02  0.59301895874E+02  0.49999912179E+02 0.  0.
         12    1    1    2    0    0 -0.12241873694E+02 -0.14570186882E+02 -0.25584562123E+02  0.31886104126E+02  0.00000000000E+00 0. -1.
         11    1    3    3    0    0  0.21065520738E+02 -0.52400610530E+01  0.19598455105E+02  0.29245749205E+02  0.51100000000E-03 0. -1.
        -11    1    3    3    0    0  0.60761660810E+01  0.32061537657E+01 -0.30482441418E+00  0.68769276860E+01  0.51100000000E-03 0.  1.
         12    1    3    3    0    0 -0.14899813125E+02  0.16604094169E+02  0.62909314327E+01  0.23179218983E+02  0.00000000000E+00 0. -1.
</event>
<event>
 7    1  0.5662448E-012  0.5930194E+02  0.7816164E-02  0.1266605E+00
        -11   -1    0    0    0    0  0.00000000000E+00  0.00000000000E+00  0.45593999997E+02  0.45594000000E+02  0.51100000000E-03 0.  1.
         11   -1    0    0    0    0 -0.00000000000E+00 -0.00000000000E+00 -0.45593999997E+02  0.45594000000E+02  0.51100000000E-03 0. -1.
    9900012    2    1    2    0    0  0.15204149454E+02 -0.87191527239E+01  0.26637018785E+02  0.59301944198E+02  0.50000000310E+02 0.  0.
         12    1    1    2    0    0 -0.15204149454E+02  0.87191527239E+01 -0.26637018785E+02  0.31886055802E+02  0.00000000000E+00 0. -1.
         11    1    3    3    0    0  0.10909981775E+02  0.89122880564E+01  0.33889392212E+01  0.14489357820E+02  0.51100000000E-03 0.  1.
        -11    1    3    3    0    0  0.17502266295E+02 -0.15259143642E+02  0.20795455551E+02  0.31170847951E+02  0.51100000000E-03 0. -1.
         12    1    3    3    0    0 -0.13208098616E+02 -0.23722971383E+01  0.24526240132E+01  0.13641738427E+02  0.00000000000E+00 0. -1.
</event>
<event>
 7    1  0.5662448E-012  0.5930191E+02  0.7816164E-02  0.1266605E+00
        -11   -1    0    0    0    0  0.00000000000E+00  0.00000000000E+00  0.45593999997E+02  0.45594000000E+02  0.51100000000E-03 0.  1.
         11   -1    0    0    0    0 -0.00000000000E+00 -0.00000000000E+00 -0.45593999997E+02  0.45594000000E+02  0.51100000000E-03 0. -1.
    9900012    2    1    2    0    0 -0.29736078065E+02  0.53933856675E+01  0.10168574712E+02  0.59301908058E+02  0.49999934400E+02 0.  0.
         12    1    1    2    0    0  0.29736078065E+02 -0.53933856675E+01 -0.10168574712E+02  0.31886091942E+02  0.00000000000E+00 0. -1.
         11    1    3    3    0    0 -0.29544060090E+00  0.77356849366E+00 -0.71117945162E+01  0.71598404217E+01  0.51100000000E-03 0. -1.
        -11    1    3    3    0    0 -0.14562808150E+02  0.19847057184E+02  0.18537720621E+02  0.30816037159E+02  0.51100000000E-03 0.  1.
         12    1    3    3    0    0 -0.14877829314E+02 -0.15227240010E+02 -0.12573513925E+01  0.21326030478E+02  0.00000000000E+00 0. -1.
</event>
<event>
 7    1  0.5662448E-012  0.5930210E+02  0.7816164E-02  0.1266604E+00
        -11   -1    0    0    0    0  0.00000000000E+00  0.00000000000E+00  0.45593999997E+02  0.45594000000E+02  0.51100000000E-03 0.  1.
         11   -1    0    0    0    0 -0.00000000000E+00 -0.00000000000E+00 -0.45593999997E+02  0.45594000000E+02  0.51100000000E-03 0. -1.
    9900012    2    1    2    0    0 -0.22238855480E+02  0.14401332124E+02 -0.17741066043E+02  0.59302102108E+02  0.50000288300E+02 0.  0.
         12    1    1    2    0    0  0.22238855480E+02 -0.14401332124E+02  0.17741066043E+02  0.31885897892E+02  0.00000000000E+00 0. -1.
         11    1    3    3    0    0 -0.83979334988E+01  0.43552810835E+01 -0.24424468339E+01  0.97703278944E+01  0.51100000000E-03 0. -1.
        -11    1    3    3    0    0 -0.14697216726E+02  0.95197510492E+01  0.12626560317E+02  0.21588512344E+02  0.51100000000E-03 0.  1.
        -12    1    3    3    0    0  0.85629474489E+00  0.52629999139E+00 -0.27925179526E+02  0.27943261870E+02  0.00000000000E+00 0.  1.
</event>
<event>
 7    1  0.5662448E-012  0.5930208E+02  0.7816164E-02  0.1266604E+00
        -11   -1    0    0    0    0  0.00000000000E+00  0.00000000000E+00  0.45593999997E+02  0.45594000000E+02  0.51100000000E-03 0. -1.
         11   -1    0    0    0    0 -0.00000000000E+00 -0.00000000000E+00 -0.45593999997E+02  0.45594000000E+02  0.51100000000E-03 0.  1.
    9900012    2    1    2    0    0  0.15748057743E+02  0.20191484728E+02 -0.19000376341E+02  0.59302083371E+02  0.50000254127E+02 0.  0.
         12    1    1    2    0    0 -0.15748057743E+02 -0.20191484728E+02  0.19000376341E+02  0.31885916629E+02  0.00000000000E+00 0. -1.
         11    1    3    3    0    0 -0.18726365081E+01  0.95251661766E+01  0.22302386373E+01  0.99603977242E+01  0.51100000000E-03 0. -1.
        -11    1    3    3    0    0 -0.62451255507E+01  0.17234621809E+02 -0.15326175105E+02  0.23894045820E+02  0.51100000000E-03 0.  1.
         12    1    3    3    0    0  0.23865819802E+02 -0.65683032578E+01 -0.59044398730E+01  0.25447639826E+02  0.00000000000E+00 0. -1.
</event>
<event>
 7    1  0.5662448E-012  0.5930196E+02  0.7816164E-02  0.1266605E+00
        -11   -1    0    0    0    0  0.00000000000E+00  0.00000000000E+00  0.45593999997E+02  0.45594000000E+02  0.51100000000E-03 0.  1.
         11   -1    0    0    0    0 -0.00000000000E+00 -0.00000000000E+00 -0.45593999997E+02  0.45594000000E+02  0.51100000000E-03 0. -1.
    9900012    2    1    2    0    0 -0.26917196386E+02  0.15798096047E+02  0.65271923749E+01  0.59301960104E+02  0.50000029319E+02 0.  0.
         12    1    1    2    0    0  0.26917196386E+02 -0.15798096047E+02 -0.65271923749E+01  0.31886039896E+02  0.00000000000E+00 0. -1.
         11    1    3    3    0    0  0.20009866533E+01 -0.57760630242E+00 -0.12271355941E+02  0.12446837089E+02  0.51100000000E-03 0. -1.
        -11    1    3    3    0    0 -0.23384243712E+02 -0.99001443773E+00  0.48461181588E+01  0.23901628481E+02  0.51100000000E-03 0.  1.
         12    1    3    3    0    0 -0.55339393268E+01  0.17365716787E+02  0.13952430158E+02  0.22953494533E+02  0.00000000000E+00 0. -1.
</event>
<event>
 7    1  0.5662448E-012  0.5930194E+02  0.7816164E-02  0.1266605E+00
        -11   -1    0    0    0    0  0.00000000000E+00  0.00000000000E+00  0.45593999997E+02  0.45594000000E+02  0.51100000000E-03 0.  1.
         11   -1    0    0    0    0 -0.00000000000E+00 -0.00000000000E+00 -0.45593999997E+02  0.45594000000E+02  0.51100000000E-03 0. -1.
    9900012    2    1    2    0    0  0.14071477983E+02  0.14133291296E+02  0.24878996134E+02  0.59301939345E+02  0.49999991459E+02 0.  0.
         12    1    1    2    0    0 -0.14071477983E+02 -0.14133291296E+02 -0.24878996134E+02  0.31886060655E+02  0.00000000000E+00 0. -1.
         11    1    3    3    0    0  0.62095994245E+01 -0.52338626245E+01 -0.97151966089E+01  0.12662444013E+02  0.51100000000E-03 0. -1.
        -11    1    3    3    0    0  0.55707768847E+01 -0.25418007102E+01  0.18135962298E+02  0.19141771984E+02  0.51100000000E-03 0.  1.
        -12    1    3    3    0    0  0.22911016737E+01  0.21908954631E+02  0.16458230445E+02  0.27497723347E+02  0.00000000000E+00 0.  1.
</event>
<event>
 7    1  0.5662448E-012  0.5930184E+02  0.7816164E-02  0.1266605E+00
        -11   -1    0    0    0    0  0.00000000000E+00  0.00000000000E+00  0.45593999997E+02  0.45594000000E+02  0.51100000000E-03 0.  1.
         11   -1    0    0    0    0 -0.00000000000E+00 -0.00000000000E+00 -0.45593999997E+02  0.45594000000E+02  0.51100000000E-03 0. -1.
    9900012    2    1    2    0    0 -0.42879507065E+01  0.61247781316E+00  0.31590591378E+02  0.59301841342E+02  0.49999812725E+02 0.  0.
         12    1    1    2    0    0  0.42879507065E+01 -0.61247781316E+00 -0.31590591378E+02  0.31886158658E+02  0.00000000000E+00 0. -1.
         11    1    3    3    0    0 -0.30871976053E+01 -0.25413870512E+01 -0.98935839450E+01  0.10671103070E+02  0.51100000000E-03 0. -1.
        -11    1    3    3    0    0 -0.18697655402E+01  0.11175913823E+02  0.72253217616E+01  0.13438837293E+02  0.51100000000E-03 0.  1.
         12    1    3    3    0    0  0.66901243900E+00 -0.80220489588E+01  0.34258853562E+02  0.35191900979E+02  0.00000000000E+00 0. -1.
</event>
<event>
 7    1  0.5662448E-012  0.5930195E+02  0.7816164E-02  0.1266605E+00
        -11   -1    0    0    0    0  0.00000000000E+00  0.00000000000E+00  0.45593999997E+02  0.45594000000E+02  0.51100000000E-03 0.  1.
         11   -1    0    0    0    0 -0.00000000000E+00 -0.00000000000E+00 -0.45593999997E+02  0.45594000000E+02  0.51100000000E-03 0. -1.
    9900012    2    1    2    0    0 -0.14443069332E+02  0.10569277454E+02  0.26389548290E+02  0.59301950753E+02  0.50000012266E+02 0.  0.
         12    1    1    2    0    0  0.14443069332E+02 -0.10569277454E+02 -0.26389548290E+02  0.31886049247E+02  0.00000000000E+00 0. -1.
         11    1    3    3    0    0 -0.12855950051E+02 -0.30381615952E+01  0.15814494281E+02  0.20605924081E+02  0.51100000000E-03 0. -1.
        -11    1    3    3    0    0  0.12111800836E+02  0.12858748650E+02  0.16104831887E+02  0.23904157519E+02  0.51100000000E-03 0.  1.
         12    1    3    3    0    0 -0.13698920117E+02  0.74869039907E+00 -0.55297778774E+01  0.14791869153E+02  0.00000000000E+00 0. -1.
</event>
<event>
 7    1  0.5662448E-012  0.5930194E+02  0.7816164E-02  0.1266605E+00
        -11   -1    0    0    0    0  0.00000000000E+00  0.00000000000E+00  0.45593999997E+02  0.45594000000E+02  0.51100000000E-03 0.  1.
         11   -1    0    0    0    0 -0.00000000000E+00 -0.00000000000E+00 -0.45593999997E+02  0.45594000000E+02  0.51100000000E-03 0. -1.
    9900012    2    1    2    0    0  0.16349925752E+02 -0.19871869618E+02  0.18828429298E+02  0.59301936837E+02  0.49999986886E+02 0.  0.
         12    1    1    2    0    0 -0.16349925752E+02  0.19871869618E+02 -0.18828429298E+02  0.31886063163E+02  0.00000000000E+00 0. -1.
         11    1    3    3    0    0  0.10915373234E+01  0.52920888632E+01  0.10881605372E+02  0.12149361876E+02  0.51100000000E-03 0.  1.
        -11    1    3    3    0    0 -0.50557477668E+01 -0.53744124392E+01 -0.10855536001E+02  0.13125835466E+02  0.51100000000E-03 0. -1.
        -12    1    3    3    0    0  0.20314136195E+02 -0.19789546042E+02  0.18802359927E+02  0.34026739496E+02  0.00000000000E+00 0.  1.
</event>
<event>
 7    1  0.5662448E-012  0.5930192E+02  0.7816164E-02  0.1266605E+00
        -11   -1    0    0    0    0  0.00000000000E+00  0.00000000000E+00  0.45593999997E+02  0.45594000000E+02  0.51100000000E-03 0.  1.
         11   -1    0    0    0    0 -0.00000000000E+00 -0.00000000000E+00 -0.45593999997E+02  0.45594000000E+02  0.51100000000E-03 0. -1.
    9900012    2    1    2    0    0 -0.63584180526E+01 -0.29072662628E+02  0.11448717085E+02  0.59301916589E+02  0.49999949958E+02 0.  0.
         12    1    1    2    0    0  0.63584180526E+01  0.29072662628E+02 -0.11448717085E+02  0.31886083411E+02  0.00000000000E+00 0. -1.
         11    1    3    3    0    0 -0.18355005856E+02 -0.55313998785E+01 -0.35505162326E+01  0.19496378904E+02  0.51100000000E-03 0.  1.
        -11    1    3    3    0    0  0.87122401725E+01  0.30804780458E+01  0.76417952158E+01  0.11991226301E+02  0.51100000000E-03 0. -1.
        -12    1    3    3    0    0  0.32843476314E+01 -0.26621740795E+02  0.73574381021E+01  0.27814311384E+02  0.00000000000E+00 0.  1.
</event>
<event>
 7    1  0.5662448E-012  0.5930194E+02  0.7816164E-02  0.1266605E+00
        -11   -1    0    0    0    0  0.00000000000E+00  0.00000000000E+00  0.45593999997E+02  0.45594000000E+02  0.51100000000E-03 0. -1.
         11   -1    0    0    0    0 -0.00000000000E+00 -0.00000000000E+00 -0.45593999997E+02  0.45594000000E+02  0.51100000000E-03 0.  1.
    9900012    2    1    2    0    0 -0.14389374284E+02 -0.27748788548E+02 -0.62985120011E+01  0.59301943304E+02  0.49999998681E+02 0.  0.
         12    1    1    2    0    0  0.14389374284E+02  0.27748788548E+02  0.62985120011E+01  0.31886056696E+02  0.00000000000E+00 0. -1.
         11    1    3    3    0    0  0.28409066497E+01  0.28620482035E+01 -0.23067048086E+00  0.40392177019E+01  0.51100000000E-03 0. -1.
        -11    1    3    3    0    0 -0.45552504110E+01 -0.38505990910E+02 -0.95414356721E+01  0.39931198795E+02  0.51100000000E-03 0.  1.
         12    1    3    3    0    0 -0.12675030522E+02  0.78951541579E+01  0.34735941519E+01  0.15331526808E+02  0.00000000000E+00 0. -1.
</event>
<event>
 7    1  0.5662448E-012  0.5930194E+02  0.7816164E-02  0.1266605E+00
        -11   -1    0    0    0    0  0.00000000000E+00  0.00000000000E+00  0.45593999997E+02  0.45594000000E+02  0.51100000000E-03 0.  1.
         11   -1    0    0    0    0 -0.00000000000E+00 -0.00000000000E+00 -0.45593999997E+02  0.45594000000E+02  0.51100000000E-03 0. -1.
    9900012    2    1    2    0    0  0.21904693723E+02 -0.21037805965E+02  0.97116257332E+01  0.59301944093E+02  0.50000000120E+02 0.  0.
         12    1    1    2    0    0 -0.21904693723E+02  0.21037805965E+02 -0.97116257332E+01  0.31886055907E+02  0.00000000000E+00 0. -1.
         11    1    3    3    0    0  0.48570170582E+01  0.11922959647E+01 -0.94317792081E+01  0.10675703427E+02  0.51100000000E-03 0. -1.
        -11    1    3    3    0    0 -0.46455569354E+01 -0.64340905385E+01 -0.74222156052E+01  0.10865910226E+02  0.51100000000E-03 0.  1.
        -12    1    3    3    0    0  0.21693233600E+02 -0.15796011391E+02  0.26565620547E+02  0.37760330440E+02  0.00000000000E+00 0.  1.
</event>
<event>
 7    1  0.5800708E-012  0.5930192E+02  0.7816164E-02  0.1266605E+00
        -11   -1    0    0    0    0  0.00000000000E+00  0.00000000000E+00  0.45593999997E+02  0.45594000000E+02  0.51100000000E-03 0. -1.
         11   -1    0    0    0    0 -0.00000000000E+00 -0.00000000000E+00 -0.45593999997E+02  0.45594000000E+02  0.51100000000E-03 0.  1.
    9900012    2    1    2    0    0 -0.27765991064E+01 -0.25008363662E+02 -0.19585562909E+02  0.59301921061E+02  0.49999958114E+02 0.  0.
         12    1    1    2    0    0  0.27765991064E+01  0.25008363662E+02  0.19585562909E+02  0.31886078939E+02  0.00000000000E+00 0. -1.
         11    1    3    3    0    0 -0.97929204059E+01 -0.79597956885E+00  0.34549283440E+00  0.98312887817E+01  0.51100000000E-03 0. -1.
        -11    1    3    3    0    0  0.44160820084E+01  0.53068929178E+00  0.97648400786E+01  0.10730121782E+02  0.51100000000E-03 0.  1.
        -12    1    3    3    0    0  0.26002392910E+01 -0.24743073385E+02 -0.29695895822E+02  0.38740510497E+02  0.00000000000E+00 0.  1.
</event>
<event>
 7    1  0.5662448E-012  0.5930193E+02  0.7816164E-02  0.1266605E+00
        -11   -1    0    0    0    0  0.00000000000E+00  0.00000000000E+00  0.45593999997E+02  0.45594000000E+02  0.51100000000E-03 0.  1.
         11   -1    0    0    0    0 -0.00000000000E+00 -0.00000000000E+00 -0.45593999997E+02  0.45594000000E+02  0.51100000000E-03 0. -1.
    9900012    2    1    2    0    0 -0.13157359863E+02 -0.21230147951E+02  0.19821354568E+02  0.59301930981E+02  0.49999976206E+02 0.  0.
         12    1    1    2    0    0  0.13157359863E+02  0.21230147951E+02 -0.19821354568E+02  0.31886069019E+02  0.00000000000E+00 0. -1.
         11    1    3    3    0    0 -0.20066289668E+02 -0.12744737559E+02  0.87785657006E+01  0.25340630074E+02  0.51100000000E-03 0. -1.
        -11    1    3    3    0    0  0.74463922545E+01 -0.12127849328E+02 -0.67787488059E+01  0.15763404536E+02  0.51100000000E-03 0.  1.
         12    1    3    3    0    0 -0.53746244909E+00  0.36424389364E+01  0.17821537674E+02  0.18197896371E+02  0.00000000000E+00 0. -1.
</event>
<event>
 7    1  0.5662448E-012  0.5930192E+02  0.7816164E-02  0.1266605E+00
        -11   -1    0    0    0    0  0.00000000000E+00  0.00000000000E+00  0.45593999997E+02  0.45594000000E+02  0.51100000000E-03 0.  1.
         11   -1    0    0    0    0 -0.00000000000E+00 -0.00000000000E+00 -0.45593999997E+02  0.45594000000E+02  0.51100000000E-03 0. -1.
    9900012    2    1    2    0    0  0.18444118124E+02  0.16768482267E+02  0.19883528657E+02  0.59301918354E+02  0.49999953176E+02 0.  0.
         12    1    1    2    0    0 -0.18444118124E+02 -0.16768482267E+02 -0.19883528657E+02  0.31886081646E+02  0.00000000000E+00 0. -1.
         11    1    3    3    0    0  0.16713623395E+02  0.20055634604E+02  0.82528984724E+01  0.27380358285E+02  0.51100000000E-03 0.  1.
        -11    1    3    3    0    0 -0.13719985126E+02  0.42347786450E+00  0.40193416099E+01  0.14302881968E+02  0.51100000000E-03 0. -1.
         12    1    3    3    0    0  0.15450479855E+02 -0.37106302015E+01  0.76112885743E+01  0.17618678100E+02  0.00000000000E+00 0. -1.
</event>
<event>
 7    1  0.5662448E-012  0.5930194E+02  0.7816164E-02  0.1266605E+00
        -11   -1    0    0    0    0  0.00000000000E+00  0.00000000000E+00  0.45593999997E+02  0.45594000000E+02  0.51100000000E-03 0.  1.
         11   -1    0    0    0    0 -0.00000000000E+00 -0.00000000000E+00 -0.45593999997E+02  0.45594000000E+02  0.51100000000E-03 0. -1.
    9900012    2    1    2    0    0 -0.15249863617E+02  0.15437530608E+02  0.23363332972E+02  0.59301936914E+02  0.49999987025E+02 0.  0.
         12    1    1    2    0    0  0.15249863617E+02 -0.15437530608E+02 -0.23363332972E+02  0.31886063086E+02  0.00000000000E+00 0. -1.
         11    1    3    3    0    0 -0.26394631516E+02  0.21021583513E+02  0.11329409184E+02  0.35594087416E+02  0.51100000000E-03 0. -1.
        -11    1    3    3    0    0  0.11142375076E+02  0.30930960198E+01  0.52805685580E+01  0.12712362876E+02  0.51100000000E-03 0.  1.
        -12    1    3    3    0    0  0.23928220400E-02 -0.86771489251E+01  0.67533552296E+01  0.10995486622E+02  0.00000000000E+00 0.  1.
</event>
<event>
 7    1  0.5662448E-012  0.5930189E+02  0.7816164E-02  0.1266605E+00
        -11   -1    0    0    0    0  0.00000000000E+00  0.00000000000E+00  0.45593999997E+02  0.45594000000E+02  0.51100000000E-03 0.  1.
         11   -1    0    0    0    0 -0.00000000000E+00 -0.00000000000E+00 -0.45593999997E+02  0.45594000000E+02  0.51100000000E-03 0. -1.
    9900012    2    1    2    0    0  0.82808566517E+01 -0.17577973490E+02  0.25281733850E+02  0.59301893223E+02  0.49999907344E+02 0.  0.
         12    1    1    2    0    0 -0.82808566517E+01  0.17577973490E+02 -0.25281733850E+02  0.31886106777E+02  0.00000000000E+00 0. -1.
         11    1    3    3    0    0 -0.22584011427E+01 -0.12028147380E+01 -0.49295774221E+01  0.55540861388E+01  0.51100000000E-03 0. -1.
        -11    1    3    3    0    0  0.37144139477E+00  0.11179231209E+02 -0.57311286660E+00  0.11200073114E+02  0.51100000000E-03 0.  1.
        -12    1    3    3    0    0  0.10167816400E+02 -0.27554389961E+02  0.30784424139E+02  0.42547733971E+02  0.00000000000E+00 0.  1.
</event>
<event>
 7    1  0.5662448E-012  0.5930194E+02  0.7816164E-02  0.1266605E+00
        -11   -1    0    0    0    0  0.00000000000E+00  0.00000000000E+00  0.45593999997E+02  0.45594000000E+02  0.51100000000E-03 0. -1.
         11   -1    0    0    0    0 -0.00000000000E+00 -0.00000000000E+00 -0.45593999997E+02  0.45594000000E+02  0.51100000000E-03 0.  1.
    9900012    2    1    2    0    0  0.73891742042E+01  0.13441414553E+02 -0.27954410744E+02  0.59301943476E+02  0.49999998994E+02 0.  0.
         12    1    1    2    0    0 -0.73891742042E+01 -0.13441414553E+02  0.27954410744E+02  0.31886056524E+02  0.00000000000E+00 0. -1.
         11    1    3    3    0    0  0.45677380320E+01  0.81355332224E+01 -0.19945307174E+02  0.22019682333E+02  0.51100000000E-03 0. -1.
        -11    1    3    3    0    0  0.17078484492E+02  0.49491447936E+01  0.44671749643E+01  0.18333693550E+02  0.51100000000E-03 0.  1.
         12    1    3    3    0    0 -0.14257048320E+02  0.35673653740E+00 -0.12476278534E+02  0.18948567593E+02  0.00000000000E+00 0. -1.
</event>
<event>
 7    1  0.5662448E-012  0.5930206E+02  0.7816164E-02  0.1266604E+00
        -11   -1    0    0    0    0  0.00000000000E+00  0.00000000000E+00  0.45593999997E+02  0.45594000000E+02  0.51100000000E-03 0.  1.
         11   -1    0    0    0    0 -0.00000000000E+00 -0.00000000000E+00 -0.45593999997E+02  0.45594000000E+02  0.51100000000E-03 0. -1.
    9900012    2    1    2    0    0  0.33521945174E+01 -0.17825431494E+02  0.26224599882E+02  0.59302064934E+02  0.50000220504E+02 0.  0.
         12    1    1    2    0    0 -0.33521945174E+01  0.17825431494E+02 -0.26224599882E+02  0.31885935066E+02  0.00000000000E+00 0. -1.
         11    1    3    3    0    0 -0.33409987811E+01 -0.48455752411E+01  0.33059509248E+01  0.67506432324E+01  0.51100000000E-03 0. -1.
        -11    1    3    3    0    0 -0.13680904393E+02 -0.20558716492E+02  0.17134697803E+02  0.30057043066E+02  0.51100000000E-03 0.  1.
         12    1    3    3    0    0  0.20374097692E+02  0.75788602388E+01  0.57839511544E+01  0.22494378636E+02  0.00000000000E+00 0. -1.
</event>
<event>
 7    1  0.5662448E-012  0.5930200E+02  0.7816164E-02  0.1266605E+00
        -11   -1    0    0    0    0  0.00000000000E+00  0.00000000000E+00  0.45593999997E+02  0.45594000000E+02  0.51100000000E-03 0.  1.
         11   -1    0    0    0    0 -0.00000000000E+00 -0.00000000000E+00 -0.45593999997E+02  0.45594000000E+02  0.51100000000E-03 0. -1.
    9900012    2    1    2    0    0 -0.26122753168E+02  0.14521743093E+02  0.11110240109E+02  0.59302004785E+02  0.50000110807E+02 0.  0.
         12    1    1    2    0    0  0.26122753168E+02 -0.14521743093E+02 -0.11110240109E+02  0.31885995215E+02  0.00000000000E+00 0. -1.
         11    1    3    3    0    0 -0.16682719221E+02 -0.69175483128E+01  0.52420292937E+00  0.18067661283E+02  0.51100000000E-03 0. -1.
        -11    1    3    3    0    0 -0.17034707128E+01 -0.82767620963E+01  0.55696247361E+01  0.10120638479E+02  0.51100000000E-03 0.  1.
        -12    1    3    3    0    0 -0.77365632347E+01  0.29716053502E+02  0.50164124438E+01  0.31113705023E+02  0.00000000000E+00 0.  1.
</event>
<event>
 7    1  0.5662448E-012  0.5930195E+02  0.7816164E-02  0.1266605E+00
        -11   -1    0    0    0    0  0.00000000000E+00  0.00000000000E+00  0.45593999997E+02  0.45594000000E+02  0.51100000000E-03 0.  1.
         11   -1    0    0    0    0 -0.00000000000E+00 -0.00000000000E+00 -0.45593999997E+02  0.45594000000E+02  0.51100000000E-03 0. -1.
    9900012    2    1    2    0    0  0.18298760370E+02 -0.15787300723E+02  0.20799918502E+02  0.59301951250E+02  0.50000013172E+02 0.  0.
         12    1    1    2    0    0 -0.18298760370E+02  0.15787300723E+02 -0.20799918502E+02  0.31886048750E+02  0.00000000000E+00 0. -1.
         11    1    3    3    0    0  0.18605847980E+02  0.55958846902E+00 -0.20842107739E+01  0.18730580693E+02  0.51100000000E-03 0. -1.
        -11    1    3    3    0    0  0.11388337318E+02 -0.24804603764E+01  0.18571148101E+02  0.21925657404E+02  0.51100000000E-03 0.  1.
         12    1    3    3    0    0 -0.11695424928E+02 -0.13866428816E+02  0.43129811752E+01  0.18645713153E+02  0.00000000000E+00 0. -1.
</event>
<event>
 7    1  0.5662448E-012  0.5930194E+02  0.7816164E-02  0.1266605E+00
        -11   -1    0    0    0    0  0.00000000000E+00  0.00000000000E+00  0.45593999997E+02  0.45594000000E+02  0.51100000000E-03 0. -1.
         11   -1    0    0    0    0 -0.00000000000E+00 -0.00000000000E+00 -0.45593999997E+02  0.45594000000E+02  0.51100000000E-03 0.  1.
    9900012    2    1    2    0    0  0.13683632571E+02  0.43539015074E+01 -0.28469673435E+02  0.59301944048E+02  0.50000000037E+02 0.  0.
         12    1    1    2    0    0 -0.13683632571E+02 -0.43539015074E+01  0.28469673435E+02  0.31886055952E+02  0.00000000000E+00 0. -1.
         11    1    3    3    0    0  0.93809942364E+01  0.51520728149E+01 -0.91255471094E+01  0.14064939298E+02  0.51100000000E-03 0.  1.
        -11    1    3    3    0    0  0.19272425704E+02 -0.10063896361E+02 -0.16740916107E+02  0.27440238244E+02  0.51100000000E-03 0. -1.
        -12    1    3    3    0    0 -0.14969787369E+02  0.92657250538E+01 -0.26032102180E+01  0.17796766506E+02  0.00000000000E+00 0.  1.
</event>
<event>
 7    1  0.5662448E-012  0.5930195E+02  0.7816164E-02  0.1266605E+00
        -11   -1    0    0    0    0  0.00000000000E+00  0.00000000000E+00  0.45593999997E+02  0.45594000000E+02  0.51100000000E-03 0.  1.
         11   -1    0    0    0    0 -0.00000000000E+00 -0.00000000000E+00 -0.45593999997E+02  0.45594000000E+02  0.51100000000E-03 0. -1.
    9900012    2    1    2    0    0 -0.22863192481E+02  0.20300580584E+02  0.90488127493E+01  0.59301950470E+02  0.50000011748E+02 0.  0.
         12    1    1    2    0    0  0.22863192481E+02 -0.20300580584E+02 -0.90488127493E+01  0.31886049530E+02  0.00000000000E+00 0. -1.
         11    1    3    3    0    0 -0.17373956010E+02  0.18050483393E+01  0.98112468782E+01  0.20034298404E+02  0.51100000000E-03 0. -1.
        -11    1    3    3    0    0 -0.18314903151E+02  0.36860978904E+01 -0.47458634216E+01  0.19275534103E+02  0.51100000000E-03 0.  1.
         12    1    3    3    0    0  0.12825666680E+02  0.14809434355E+02  0.39834292927E+01  0.19992117963E+02  0.00000000000E+00 0. -1.
</event>
<event>
 7    1  0.5662448E-012  0.5930169E+02  0.7816164E-02  0.1266606E+00
        -11   -1    0    0    0    0  0.00000000000E+00  0.00000000000E+00  0.45593999997E+02  0.45594000000E+02  0.51100000000E-03 0. -1.
         11   -1    0    0    0    0 -0.00000000000E+00 -0.00000000000E+00 -0.45593999997E+02  0.45594000000E+02  0.51100000000E-03 0.  1.
    9900012    2    1    2    0    0 -0.89784236823E+01  0.18702573463E+02 -0.24214422989E+02  0.59301692176E+02  0.49999540680E+02 0.  0.
         12    1    1    2    0    0  0.89784236823E+01 -0.18702573463E+02  0.24214422989E+02  0.31886307824E+02  0.00000000000E+00 0. -1.
         11    1    3    3    0    0 -0.15774493832E+01  0.16235101013E+02  0.16484228475E+01  0.16394637831E+02  0.51100000000E-03 0. -1.
        -11    1    3    3    0    0 -0.15388576953E+02  0.13395040627E+02 -0.18273305313E+02  0.27388849946E+02  0.51100000000E-03 0.  1.
        -12    1    3    3    0    0  0.79876026539E+01 -0.10927568177E+02 -0.75895405232E+01  0.15518204399E+02  0.00000000000E+00 0.  1.
</event>
<event>
 7    1  0.5662448E-012  0.5930197E+02  0.7816164E-02  0.1266605E+00
        -11   -1    0    0    0    0  0.00000000000E+00  0.00000000000E+00  0.45593999997E+02  0.45594000000E+02  0.51100000000E-03 0. -1.
         11   -1    0    0    0    0 -0.00000000000E+00 -0.00000000000E+00 -0.45593999997E+02  0.45594000000E+02  0.51100000000E-03 0.  1.
    9900012    2    1    2    0    0 -0.22579291893E+02  0.80671359444E+01 -0.21019411844E+02  0.59301972041E+02  0.50000051089E+02 0.  0.
         12    1    1    2    0    0  0.22579291893E+02 -0.80671359444E+01  0.21019411844E+02  0.31886027959E+02  0.00000000000E+00 0. -1.
         11    1    3    3    0    0 -0.11445841753E+02  0.10170840311E+02 -0.97961660076E+01  0.18177407812E+02  0.51100000000E-03 0. -1.
        -11    1    3    3    0    0 -0.23794721986E+02 -0.26135777310E+01 -0.14563844853E+02  0.28020084941E+02  0.51100000000E-03 0.  1.
         12    1    3    3    0    0  0.12661271846E+02  0.50987336465E+00  0.33405990168E+01  0.13104479287E+02  0.00000000000E+00 0. -1.
</event>
<event>
 7    1  0.5662448E-012  0.5930205E+02  0.7816164E-02  0.1266604E+00
        -11   -1    0    0    0    0  0.00000000000E+00  0.00000000000E+00  0.45593999997E+02  0.45594000000E+02  0.51100000000E-03 0. -1.
         11   -1    0    0    0    0 -0.00000000000E+00 -0.00000000000E+00 -0.45593999997E+02  0.45594000000E+02  0.51100000000E-03 0.  1.
    9900012    2    1    2    0    0 -0.21099670604E+02 -0.17625728888E+02 -0.16150888546E+02  0.59302052950E+02  0.50000198648E+02 0.  0.
         12    1    1    2    0    0  0.21099670604E+02  0.17625728888E+02  0.16150888546E+02  0.31885947050E+02  0.00000000000E+00 0. -1.
         11    1    3    3    0    0 -0.11100791439E+02  0.93886957586E+01 -0.24830893230E+01  0.14749268167E+02  0.51100000000E-03 0. -1.
        -11    1    3    3    0    0  0.10558236353E+02 -0.35352425892E+01 -0.25321853060E+01  0.11418680210E+02  0.51100000000E-03 0.  1.
        -12    1    3    3    0    0 -0.20557115519E+02 -0.23479182057E+02 -0.11135613917E+02  0.33134104573E+02  0.00000000000E+00 0.  1.
</event>
<event>
 7    1  0.5662448E-012  0.5930193E+02  0.7816164E-02  0.1266605E+00
        -11   -1    0    0    0    0  0.00000000000E+00  0.00000000000E+00  0.45593999997E+02  0.45594000000E+02  0.51100000000E-03 0.  1.
         11   -1    0    0    0    0 -0.00000000000E+00 -0.00000000000E+00 -0.45593999997E+02  0.45594000000E+02  0.51100000000E-03 0. -1.
    9900012    2    1    2    0    0  0.28427735537E+02  0.12201779288E+02  0.77267118447E+01  0.59301927155E+02  0.49999969228E+02 0.  0.
         12    1    1    2    0    0 -0.28427735537E+02 -0.12201779288E+02 -0.77267118447E+01  0.31886072845E+02  0.00000000000E+00 0. -1.
         11    1    3    3    0    0 -0.22905105900E+01 -0.50348245816E+01  0.12935823563E+02  0.14068810499E+02  0.51100000000E-03 0. -1.
        -11    1    3    3    0    0  0.21275082355E+02  0.10829841275E+02  0.10281762548E+02  0.25992868879E+02  0.51100000000E-03 0.  1.
         12    1    3    3    0    0  0.94431637724E+01  0.64067625948E+01 -0.15490874266E+02  0.19240247777E+02  0.00000000000E+00 0. -1.
</event>
<event>
 7    1  0.5662448E-012  0.5930195E+02  0.7816164E-02  0.1266605E+00
        -11   -1    0    0    0    0  0.00000000000E+00  0.00000000000E+00  0.45593999997E+02  0.45594000000E+02  0.51100000000E-03 0.  1.
         11   -1    0    0    0    0 -0.00000000000E+00 -0.00000000000E+00 -0.45593999997E+02  0.45594000000E+02  0.51100000000E-03 0. -1.
    9900012    2    1    2    0    0 -0.90420014511E+01  0.33149253836E+01  0.30396935317E+02  0.59301949802E+02  0.50000010531E+02 0.  0.
         12    1    1    2    0    0  0.90420014511E+01 -0.33149253836E+01 -0.30396935317E+02  0.31886050198E+02  0.00000000000E+00 0. -1.
         11    1    3    3    0    0  0.87810541716E+01 -0.40539838421E+01 -0.38042086409E+01  0.10392964014E+02  0.51100000000E-03 0. -1.
        -11    1    3    3    0    0  0.28410327531E+01  0.80033742781E+01 -0.50961492029E+00  0.85079477295E+01  0.51100000000E-03 0.  1.
        -12    1    3    3    0    0 -0.20664088376E+02 -0.63446505245E+00  0.34710758878E+02  0.40401038059E+02  0.00000000000E+00 0.  1.
</event>
<event>
 7    1  0.5662448E-012  0.5930201E+02  0.7816164E-02  0.1266605E+00
        -11   -1    0    0    0    0  0.00000000000E+00  0.00000000000E+00  0.45593999997E+02  0.45594000000E+02  0.51100000000E-03 0. -1.
         11   -1    0    0    0    0 -0.00000000000E+00 -0.00000000000E+00 -0.45593999997E+02  0.45594000000E+02  0.51100000000E-03 0.  1.
    9900012    2    1    2    0    0  0.23784252575E+02  0.88959710682E+01 -0.19284376889E+02  0.59302013050E+02  0.50000125880E+02 0.  0.
         12    1    1    2    0    0 -0.23784252575E+02 -0.88959710682E+01  0.19284376889E+02  0.31885986950E+02  0.00000000000E+00 0. -1.
         11    1    3    3    0    0  0.14560988674E+02  0.11393752273E+02 -0.36214518470E+01  0.18840246701E+02  0.51100000000E-03 0. -1.
        -11    1    3    3    0    0  0.16362394556E+02  0.29080155309E+01  0.54813349640E+01  0.17499415509E+02  0.51100000000E-03 0.  1.
         12    1    3    3    0    0 -0.71391306553E+01 -0.54057967353E+01 -0.21144260006E+02  0.22962350839E+02  0.00000000000E+00 0. -1.
</event>
<event>
 7    1  0.5662448E-012  0.5930194E+02  0.7816164E-02  0.1266605E+00
        -11   -1    0    0    0    0  0.00000000000E+00  0.00000000000E+00  0.45593999997E+02  0.45594000000E+02  0.51100000000E-03 0.  1.
         11   -1    0    0    0    0 -0.00000000000E+00 -0.00000000000E+00 -0.45593999997E+02  0.45594000000E+02  0.51100000000E-03 0. -1.
    9900012    2    1    2    0    0 -0.15100816489E+02  0.12551181787E+02  0.25122777457E+02  0.59301940820E+02  0.49999994150E+02 0.  0.
         12    1    1    2    0    0  0.15100816489E+02 -0.12551181787E+02 -0.25122777457E+02  0.31886059180E+02  0.00000000000E+00 0. -1.
         11    1    3    3    0    0 -0.18158402965E+02 -0.38278760510E+00  0.20894573458E+02  0.27684965682E+02  0.51100000000E-03 0. -1.
        -11    1    3    3    0    0  0.37100389142E+01 -0.57138340238E+01  0.99869549225E+01  0.12089315815E+02  0.51100000000E-03 0.  1.
         12    1    3    3    0    0 -0.65245243880E+00  0.18647803416E+02 -0.57587509240E+01  0.19527659322E+02  0.00000000000E+00 0. -1.
</event>
<event>
 7    1  0.5662448E-012  0.5930193E+02  0.7816164E-02  0.1266605E+00
        -11   -1    0    0    0    0  0.00000000000E+00  0.00000000000E+00  0.45593999997E+02  0.45594000000E+02  0.51100000000E-03 0.  1.
         11   -1    0    0    0    0 -0.00000000000E+00 -0.00000000000E+00 -0.45593999997E+02  0.45594000000E+02  0.51100000000E-03 0. -1.
    9900012    2    1    2    0    0 -0.11355010458E+02  0.23786665207E+01  0.29700630064E+02  0.59301925561E+02  0.49999966321E+02 0.  0.
         12    1    1    2    0    0  0.11355010458E+02 -0.23786665207E+01 -0.29700630064E+02  0.31886074439E+02  0.00000000000E+00 0. -1.
         11    1    3    3    0    0  0.10432171009E+02  0.15916935020E+02  0.21952925703E+02  0.29053570514E+02  0.51100000000E-03 0. -1.
        -11    1    3    3    0    0 -0.79234704955E+01 -0.21917962458E+01  0.91230643893E+01  0.12280702732E+02  0.51100000000E-03 0.  1.
        -12    1    3    3    0    0 -0.13863710972E+02 -0.11346472254E+02 -0.13753600282E+01  0.17967652315E+02  0.00000000000E+00 0.  1.
</event>
<event>
 7    1  0.5662448E-012  0.5930180E+02  0.7816164E-02  0.1266605E+00
        -11   -1    0    0    0    0  0.00000000000E+00  0.00000000000E+00  0.45593999997E+02  0.45594000000E+02  0.51100000000E-03 0.  1.
         11   -1    0    0    0    0 -0.00000000000E+00 -0.00000000000E+00 -0.45593999997E+02  0.45594000000E+02  0.51100000000E-03 0. -1.
    9900012    2    1    2    0    0 -0.27298320625E+02 -0.16232592059E+02 -0.28344836921E+01  0.59301801548E+02  0.49999740151E+02 0.  0.
         12    1    1    2    0    0  0.27298320625E+02  0.16232592059E+02  0.28344836921E+01  0.31886198452E+02  0.00000000000E+00 0. -1.
         11    1    3    3    0    0 -0.14096302174E+02 -0.60490127395E+01  0.15657961027E+02  0.21919581061E+02  0.51100000000E-03 0.  1.
        -11    1    3    3    0    0 -0.18351570066E+02  0.26706542322E+01 -0.91613679067E+01  0.20684370431E+02  0.51100000000E-03 0. -1.
        -12    1    3    3    0    0  0.51495516157E+01 -0.12854233552E+02 -0.93310768123E+01  0.16697850057E+02  0.00000000000E+00 0.  1.
</event>
<event>
 7    1  0.5662448E-012  0.5930192E+02  0.7816164E-02  0.1266605E+00
        -11   -1    0    0    0    0  0.00000000000E+00  0.00000000000E+00  0.45593999997E+02  0.45594000000E+02  0.51100000000E-03 0.  1.
         11   -1    0    0    0    0 -0.00000000000E+00 -0.00000000000E+00 -0.45593999997E+02  0.45594000000E+02  0.51100000000E-03 0. -1.
    9900012    2    1    2    0    0  0.47880177320E+00 -0.31013821835E+02  0.73915882029E+01  0.59301921970E+02  0.49999959772E+02 0.  0.
         12    1    1    2    0    0 -0.47880177320E+00  0.31013821835E+02 -0.73915882029E+01  0.31886078030E+02  0.00000000000E+00 0. -1.
         11    1    3    3    0    0  0.17610225861E+01  0.49203465495E+01 -0.61197287116E+00  0.52617033147E+01  0.51100000000E-03 0. -1.
        -11    1    3    3    0    0 -0.87155784159E+01 -0.81634187584E+01  0.19673009426E+02  0.23013691861E+02  0.51100000000E-03 0.  1.
        -12    1    3    3    0    0  0.74333576030E+01 -0.27770749626E+02 -0.11669448352E+02  0.31026526794E+02  0.00000000000E+00 0.  1.
</event>
<event>
 7    1  0.5662448E-012  0.5930191E+02  0.7816164E-02  0.1266605E+00
        -11   -1    0    0    0    0  0.00000000000E+00  0.00000000000E+00  0.45593999997E+02  0.45594000000E+02  0.51100000000E-03 0.  1.
         11   -1    0    0    0    0 -0.00000000000E+00 -0.00000000000E+00 -0.45593999997E+02  0.45594000000E+02  0.51100000000E-03 0. -1.
    9900012    2    1    2    0    0 -0.27452345128E+02  0.13611154567E+02  0.88220064099E+01  0.59301912457E+02  0.49999942423E+02 0.  0.
         12    1    1    2    0    0  0.27452345128E+02 -0.13611154567E+02 -0.88220064099E+01  0.31886087543E+02  0.00000000000E+00 0. -1.
         11    1    3    3    0    0  0.25867156638E+01 -0.77940282993E+01 -0.77494353248E+01  0.11291223280E+02  0.51100000000E-03 0. -1.
        -11    1    3    3    0    0 -0.11231845480E+02 -0.48191901301E+01  0.80447425196E+01  0.14632048006E+02  0.51100000000E-03 0.  1.
         12    1    3    3    0    0 -0.18807215312E+02  0.26224372996E+02  0.85266992150E+01  0.33378641170E+02  0.00000000000E+00 0. -1.
</event>
<event>
 7    1  0.5662448E-012  0.5930192E+02  0.7816164E-02  0.1266605E+00
        -11   -1    0    0    0    0  0.00000000000E+00  0.00000000000E+00  0.45593999997E+02  0.45594000000E+02  0.51100000000E-03 0.  1.
         11   -1    0    0    0    0 -0.00000000000E+00 -0.00000000000E+00 -0.45593999997E+02  0.45594000000E+02  0.51100000000E-03 0. -1.
    9900012    2    1    2    0    0 -0.16570608126E+02 -0.96884977375E+01  0.25461151267E+02  0.59301917364E+02  0.49999951371E+02 0.  0.
         12    1    1    2    0    0  0.16570608126E+02  0.96884977375E+01 -0.25461151267E+02  0.31886082636E+02  0.00000000000E+00 0. -1.
         11    1    3    3    0    0 -0.78758019463E+01 -0.12653618652E+02 -0.89150040830E+01  0.17367199525E+02  0.51100000000E-03 0. -1.
        -11    1    3    3    0    0  0.61538764945E+01 -0.49281946208E+00  0.26163480912E+01  0.67050983980E+01  0.51100000000E-03 0.  1.
        -12    1    3    3    0    0 -0.14848682674E+02  0.34579403769E+01  0.31759807258E+02  0.35229619440E+02  0.00000000000E+00 0.  1.
</event>
<event>
 7    1  0.5662448E-012  0.5930213E+02  0.7816164E-02  0.1266604E+00
        -11   -1    0    0    0    0  0.00000000000E+00  0.00000000000E+00  0.45593999997E+02  0.45594000000E+02  0.51100000000E-03 0. -1.
         11   -1    0    0    0    0 -0.00000000000E+00 -0.00000000000E+00 -0.45593999997E+02  0.45594000000E+02  0.51100000000E-03 0.  1.
    9900012    2    1    2    0    0  0.10644676319E+02  0.28282022946E+02  0.10174799174E+02  0.59302133317E+02  0.50000345218E+02 0.  0.
         12    1    1    2    0    0 -0.10644676319E+02 -0.28282022946E+02 -0.10174799174E+02  0.31885866683E+02  0.00000000000E+00 0. -1.
         11    1    3    3    0    0  0.21838527804E+02  0.21674502973E+02  0.10646277796E+02  0.32558387658E+02  0.51100000000E-03 0. -1.
        -11    1    3    3    0    0  0.68030927366E+01 -0.12859180554E+01 -0.14252557766E+01  0.70687347041E+01  0.51100000000E-03 0.  1.
         12    1    3    3    0    0 -0.17996944221E+02  0.78934380287E+01  0.95377715529E+00  0.19675010955E+02  0.00000000000E+00 0. -1.
</event>
<event>
 7    1  0.5662448E-012  0.5930192E+02  0.7816164E-02  0.1266605E+00
        -11   -1    0    0    0    0  0.00000000000E+00  0.00000000000E+00  0.45593999997E+02  0.45594000000E+02  0.51100000000E-03 0. -1.
         11   -1    0    0    0    0 -0.00000000000E+00 -0.00000000000E+00 -0.45593999997E+02  0.45594000000E+02  0.51100000000E-03 0.  1.
    9900012    2    1    2    0    0  0.15859247904E+02  0.12672170326E+02 -0.24589072289E+02  0.59301919637E+02  0.49999955518E+02 0.  0.
         12    1    1    2    0    0 -0.15859247904E+02 -0.12672170326E+02  0.24589072289E+02  0.31886080363E+02  0.00000000000E+00 0. -1.
         11    1    3    3    0    0 -0.11294553015E+01 -0.84897185375E+01  0.18609578211E+00  0.85665408436E+01  0.51100000000E-03 0. -1.
        -11    1    3    3    0    0 -0.88322119451E+01 -0.35978415625E+00  0.22713253210E+00  0.88424545196E+01  0.51100000000E-03 0.  1.
        -12    1    3    3    0    0  0.25820915150E+02  0.21521673020E+02 -0.25002300603E+02  0.41892924274E+02  0.00000000000E+00 0.  1.
</event>
<event>
 7    1  0.5662448E-012  0.5930194E+02  0.7816164E-02  0.1266605E+00
        -11   -1    0    0    0    0  0.00000000000E+00  0.00000000000E+00  0.45593999997E+02  0.45594000000E+02  0.51100000000E-03 0. -1.
         11   -1    0    0    0    0 -0.00000000000E+00 -0.00000000000E+00 -0.45593999997E+02  0.45594000000E+02  0.51100000000E-03 0.  1.
    9900012    2    1    2    0    0  0.25245073155E+02  0.81363915456E+01 -0.17697636128E+02  0.59301938617E+02  0.49999990132E+02 0.  0.
         12    1    1    2    0    0 -0.25245073155E+02 -0.81363915456E+01  0.17697636128E+02  0.31886061383E+02  0.00000000000E+00 0. -1.
         11    1    3    3    0    0  0.89065807172E+01  0.14298852716E+02 -0.11672200060E+02  0.20494502277E+02  0.51100000000E-03 0. -1.
        -11    1    3    3    0    0  0.26987718321E+02 -0.41174306867E+01 -0.60557404597E+01  0.27963586473E+02  0.51100000000E-03 0.  1.
         12    1    3    3    0    0 -0.10649225883E+02 -0.20450304838E+01  0.30304392073E-01  0.10843849867E+02  0.00000000000E+00 0. -1.
</event>
<event>
 7    1  0.5662448E-012  0.5930196E+02  0.7816164E-02  0.1266605E+00
        -11   -1    0    0    0    0  0.00000000000E+00  0.00000000000E+00  0.45593999997E+02  0.45594000000E+02  0.51100000000E-03 0.  1.
         11   -1    0    0    0    0 -0.00000000000E+00 -0.00000000000E+00 -0.45593999997E+02  0.45594000000E+02  0.51100000000E-03 0. -1.
    9900012    2    1    2    0    0  0.24304556515E+02  0.18774868652E+02 -0.85739543501E+01  0.59301955192E+02  0.50000020362E+02 0.  0.
         12    1    1    2    0    0 -0.24304556515E+02 -0.18774868652E+02  0.85739543501E+01  0.31886044808E+02  0.00000000000E+00 0. -1.
         11    1    3    3    0    0  0.23031606988E+01 -0.30183202898E+01 -0.94133936560E+01  0.10150211178E+02  0.51100000000E-03 0. -1.
        -11    1    3    3    0    0 -0.81625315685E+01  0.10503081879E+02 -0.82918976211E+01  0.15674731799E+02  0.51100000000E-03 0.  1.
        -12    1    3    3    0    0  0.30163927385E+02  0.11290107062E+02  0.91313369271E+01  0.33477012215E+02  0.00000000000E+00 0.  1.
</event>
<event>
 7    1  0.5662448E-012  0.5930194E+02  0.7816164E-02  0.1266605E+00
        -11   -1    0    0    0    0  0.00000000000E+00  0.00000000000E+00  0.45593999997E+02  0.45594000000E+02  0.51100000000E-03 0.  1.
         11   -1    0    0    0    0 -0.00000000000E+00 -0.00000000000E+00 -0.45593999997E+02  0.45594000000E+02  0.51100000000E-03 0. -1.
    9900012    2    1    2    0    0  0.26563745629E+02 -0.12465141946E+01  0.17593585113E+02  0.59301943226E+02  0.49999998538E+02 0.  0.
         12    1    1    2    0    0 -0.26563745629E+02  0.12465141946E+01 -0.17593585113E+02  0.31886056774E+02  0.00000000000E+00 0. -1.
         11    1    3    3    0    0  0.29747469095E+01  0.10304468497E+02  0.45751686732E+01  0.11660332707E+02  0.51100000000E-03 0. -1.
        -11    1    3    3    0    0  0.22207077203E+02  0.95051299702E+01  0.10678587150E+02  0.26410868926E+02  0.51100000000E-03 0.  1.
         12    1    3    3    0    0  0.13819215163E+01 -0.21056112662E+02  0.23398292894E+01  0.21230741593E+02  0.00000000000E+00 0. -1.
</event>
<event>
 7    1  0.5662448E-012  0.5930194E+02  0.7816164E-02  0.1266605E+00
        -11   -1    0    0    0    0  0.00000000000E+00  0.00000000000E+00  0.45593999997E+02  0.45594000000E+02  0.51100000000E-03 0.  1.
         11   -1    0    0    0    0 -0.00000000000E+00 -0.00000000000E+00 -0.45593999997E+02  0.45594000000E+02  0.51100000000E-03 0. -1.
    9900012    2    1    2    0    0 -0.15159724686E+02  0.69957999982E+01  0.27165466363E+02  0.59301936698E+02  0.49999986633E+02 0.  0.
         12    1    1    2    0    0  0.15159724686E+02 -0.69957999982E+01 -0.27165466363E+02  0.31886063302E+02  0.00000000000E+00 0. -1.
         11    1    3    3    0    0 -0.10982901120E+01  0.19926066061E+01  0.16381771146E+02  0.16539018967E+02  0.51100000000E-03 0. -1.
        -11    1    3    3    0    0  0.97502576192E+01 -0.78142988456E+01  0.94886376891E+01  0.15689647400E+02  0.51100000000E-03 0.  1.
         12    1    3    3    0    0 -0.23811692194E+02  0.12817492238E+02  0.12950575274E+01  0.27073270330E+02  0.00000000000E+00 0. -1.
</event>
<event>
 7    1  0.5662448E-012  0.5930196E+02  0.7816164E-02  0.1266605E+00
        -11   -1    0    0    0    0  0.00000000000E+00  0.00000000000E+00  0.45593999997E+02  0.45594000000E+02  0.51100000000E-03 0.  1.
         11   -1    0    0    0    0 -0.00000000000E+00 -0.00000000000E+00 -0.45593999997E+02  0.45594000000E+02  0.51100000000E-03 0. -1.
    9900012    2    1    2    0    0 -0.46014940040E+01 -0.41638510132E+01  0.31276314595E+02  0.59301964546E+02  0.50000037421E+02 0.  0.
         12    1    1    2    0    0  0.46014940040E+01  0.41638510132E+01 -0.31276314595E+02  0.31886035454E+02  0.00000000000E+00 0. -1.
         11    1    3    3    0    0 -0.28337812851E+01 -0.26093206759E+01 -0.51445761434E+01  0.64269382071E+01  0.51100000000E-03 0. -1.
        -11    1    3    3    0    0  0.12530592542E+02 -0.13552983675E+02  0.11531166335E+02  0.21763890122E+02  0.51100000000E-03 0.  1.
        -12    1    3    3    0    0 -0.14298305261E+02  0.11998453337E+02  0.24889724403E+02  0.31111136217E+02  0.00000000000E+00 0.  1.
</event>
<event>
 7    1  0.5662448E-012  0.5930197E+02  0.7816164E-02  0.1266605E+00
        -11   -1    0    0    0    0  0.00000000000E+00  0.00000000000E+00  0.45593999997E+02  0.45594000000E+02  0.51100000000E-03 0. -1.
         11   -1    0    0    0    0 -0.00000000000E+00 -0.00000000000E+00 -0.45593999997E+02  0.45594000000E+02  0.51100000000E-03 0.  1.
    9900012    2    1    2    0    0 -0.55965093424E+01 -0.22470549538E+01 -0.31310522551E+02  0.59301968651E+02  0.50000044907E+02 0.  0.
         12    1    1    2    0    0  0.55965093424E+01  0.22470549538E+01  0.31310522551E+02  0.31886031349E+02  0.00000000000E+00 0. -1.
         11    1    3    3    0    0  0.31962302106E+01  0.45823642290E+01  0.64499233402E+01  0.85331975743E+01  0.51100000000E-03 0. -1.
        -11    1    3    3    0    0 -0.13793705748E+02 -0.13993952424E+02 -0.10787045676E+02  0.22415561054E+02  0.51100000000E-03 0.  1.
        -12    1    3    3    0    0  0.50009661945E+01  0.71645332413E+01 -0.26973400215E+02  0.28353210023E+02  0.00000000000E+00 0.  1.
</event>
<event>
 7    1  0.5662448E-012  0.5930195E+02  0.7816164E-02  0.1266605E+00
        -11   -1    0    0    0    0  0.00000000000E+00  0.00000000000E+00  0.45593999997E+02  0.45594000000E+02  0.51100000000E-03 0.  1.
         11   -1    0    0    0    0 -0.00000000000E+00 -0.00000000000E+00 -0.45593999997E+02  0.45594000000E+02  0.51100000000E-03 0. -1.
    9900012    2    1    2    0    0  0.10316609556E+02  0.15482443091E+01  0.30131221860E+02  0.59301952519E+02  0.50000015487E+02 0.  0.
         12    1    1    2    0    0 -0.10316609556E+02 -0.15482443091E+01 -0.30131221860E+02  0.31886047481E+02  0.00000000000E+00 0. -1.
         11    1    3    3    0    0  0.12795985474E+02  0.13095050485E+02  0.22427053160E+02  0.28951516457E+02  0.51100000000E-03 0. -1.
        -11    1    3    3    0    0 -0.13329370298E+01 -0.12718591550E+02  0.16796950287E+02  0.21111059455E+02  0.51100000000E-03 0.  1.
        -12    1    3    3    0    0 -0.11464388875E+01  0.11717853733E+01 -0.90927815875E+01  0.92393766068E+01  0.00000000000E+00 0.  1.
</event>
<event>
 7    1  0.5662448E-012  0.5930175E+02  0.7816164E-02  0.1266605E+00
        -11   -1    0    0    0    0  0.00000000000E+00  0.00000000000E+00  0.45593999997E+02  0.45594000000E+02  0.51100000000E-03 0.  1.
         11   -1    0    0    0    0 -0.00000000000E+00 -0.00000000000E+00 -0.45593999997E+02  0.45594000000E+02  0.51100000000E-03 0. -1.
    9900012    2    1    2    0    0 -0.31555490123E+02 -0.13347379273E+01 -0.43820370819E+01  0.59301753259E+02  0.49999652083E+02 0.  0.
         12    1    1    2    0    0  0.31555490123E+02  0.13347379273E+01  0.43820370819E+01  0.31886246741E+02  0.00000000000E+00 0. -1.
         11    1    3    3    0    0 -0.13550235808E+02 -0.92555732299E+01  0.17383378479E+01  0.16501404334E+02  0.51100000000E-03 0. -1.
        -11    1    3    3    0    0 -0.18302695046E+02 -0.81457366172E+00  0.12535209401E+02  0.22198730846E+02  0.51100000000E-03 0.  1.
         12    1    3    3    0    0  0.29744073107E+00  0.87354089642E+01 -0.18655584331E+02  0.20601618079E+02  0.00000000000E+00 0. -1.
</event>
<event>
 7    1  0.5662448E-012  0.5930197E+02  0.7816164E-02  0.1266605E+00
        -11   -1    0    0    0    0  0.00000000000E+00  0.00000000000E+00  0.45593999997E+02  0.45594000000E+02  0.51100000000E-03 0. -1.
         11   -1    0    0    0    0 -0.00000000000E+00 -0.00000000000E+00 -0.45593999997E+02  0.45594000000E+02  0.51100000000E-03 0.  1.
    9900012    2    1    2    0    0 -0.16213503454E+02 -0.13164210714E+02 -0.24094500573E+02  0.59301967073E+02  0.50000042029E+02 0.  0.
         12    1    1    2    0    0  0.16213503454E+02  0.13164210714E+02  0.24094500573E+02  0.31886032927E+02  0.00000000000E+00 0. -1.
         11    1    3    3    0    0 -0.12734348056E+02 -0.97769378041E+01  0.45537555570E+01  0.16687984395E+02  0.51100000000E-03 0. -1.
        -11    1    3    3    0    0  0.24044480067E+01 -0.26081065463E+01  0.62651616279E+01  0.71997111371E+01  0.51100000000E-03 0.  1.
        -12    1    3    3    0    0 -0.58836034042E+01 -0.77916636322E+00 -0.34913417758E+02  0.35414271541E+02  0.00000000000E+00 0.  1.
</event>
<event>
 7    1  0.5662448E-012  0.5930194E+02  0.7816164E-02  0.1266605E+00
        -11   -1    0    0    0    0  0.00000000000E+00  0.00000000000E+00  0.45593999997E+02  0.45594000000E+02  0.51100000000E-03 0.  1.
         11   -1    0    0    0    0 -0.00000000000E+00 -0.00000000000E+00 -0.45593999997E+02  0.45594000000E+02  0.51100000000E-03 0. -1.
    9900012    2    1    2    0    0  0.10492390183E+02 -0.25616690984E+02 -0.15824525144E+02  0.59301941844E+02  0.49999996017E+02 0.  0.
         12    1    1    2    0    0 -0.10492390183E+02  0.25616690984E+02  0.15824525144E+02  0.31886058156E+02  0.00000000000E+00 0. -1.
         11    1    3    3    0    0  0.73158566363E+00  0.25777524107E+01  0.35985293042E+01  0.44865842786E+01  0.51100000000E-03 0. -1.
        -11    1    3    3    0    0 -0.18017568235E+01 -0.22526750259E+02  0.84378756441E+01  0.24122573464E+02  0.51100000000E-03 0.  1.
         12    1    3    3    0    0  0.11562561343E+02 -0.56676931356E+01 -0.27860930092E+02  0.30692784101E+02  0.00000000000E+00 0. -1.
</event>
<event>
 7    1  0.5662448E-012  0.5930190E+02  0.7816164E-02  0.1266605E+00
        -11   -1    0    0    0    0  0.00000000000E+00  0.00000000000E+00  0.45593999997E+02  0.45594000000E+02  0.51100000000E-03 0.  1.
         11   -1    0    0    0    0 -0.00000000000E+00 -0.00000000000E+00 -0.45593999997E+02  0.45594000000E+02  0.51100000000E-03 0. -1.
    9900012    2    1    2    0    0  0.31852133939E+01  0.26198688541E+01  0.31618252679E+02  0.59301902721E+02  0.49999924667E+02 0.  0.
         12    1    1    2    0    0 -0.31852133939E+01 -0.26198688541E+01 -0.31618252679E+02  0.31886097279E+02  0.00000000000E+00 0. -1.
         11    1    3    3    0    0  0.11322544322E+02  0.10267095255E+02 -0.13333187281E+01  0.15342457234E+02  0.51100000000E-03 0.  1.
        -11    1    3    3    0    0 -0.26833000009E+01  0.27418455738E+01 -0.37881711978E+01  0.53914800686E+01  0.51100000000E-03 0. -1.
        -12    1    3    3    0    0 -0.54540309269E+01 -0.10389071975E+02  0.36739742605E+02  0.38567965419E+02  0.00000000000E+00 0.  1.
</event>
<event>
 7    1  0.5662448E-012  0.5930196E+02  0.7816164E-02  0.1266605E+00
        -11   -1    0    0    0    0  0.00000000000E+00  0.00000000000E+00  0.45593999997E+02  0.45594000000E+02  0.51100000000E-03 0.  1.
         11   -1    0    0    0    0 -0.00000000000E+00 -0.00000000000E+00 -0.45593999997E+02  0.45594000000E+02  0.51100000000E-03 0. -1.
    9900012    2    1    2    0    0  0.11594566336E+00 -0.29370435279E+02  0.12413038960E+02  0.59301961549E+02  0.50000031955E+02 0.  0.
         12    1    1    2    0    0 -0.11594566336E+00  0.29370435279E+02 -0.12413038960E+02  0.31886038451E+02  0.00000000000E+00 0. -1.
         11    1    3    3    0    0  0.75909594739E+01 -0.60741430172E+01 -0.70222993607E+01  0.11992938243E+02  0.51100000000E-03 0. -1.
        -11    1    3    3    0    0  0.21392734686E+01 -0.21931210088E+02 -0.35843763004E+01  0.22324923754E+02  0.51100000000E-03 0.  1.
        -12    1    3    3    0    0 -0.96142872791E+01 -0.13650821738E+01  0.23019714621E+02  0.24984099553E+02  0.00000000000E+00 0.  1.
</event>
<event>
 7    1  0.5662448E-012  0.5930197E+02  0.7816164E-02  0.1266605E+00
        -11   -1    0    0    0    0  0.00000000000E+00  0.00000000000E+00  0.45593999997E+02  0.45594000000E+02  0.51100000000E-03 0.  1.
         11   -1    0    0    0    0 -0.00000000000E+00 -0.00000000000E+00 -0.45593999997E+02  0.45594000000E+02  0.51100000000E-03 0. -1.
    9900012    2    1    2    0    0 -0.19485842110E+02  0.20851516488E+02  0.14220942240E+02  0.59301968877E+02  0.50000045319E+02 0.  0.
         12    1    1    2    0    0  0.19485842110E+02 -0.20851516488E+02 -0.14220942240E+02  0.31886031123E+02  0.00000000000E+00 0. -1.
         11    1    3    3    0    0 -0.15725051432E+02 -0.47358753826E+01  0.19992738587E+02  0.25873062336E+02  0.51100000000E-03 0.  1.
        -11    1    3    3    0    0  0.52835926539E+01 -0.50259685076E+00 -0.11703324720E+01  0.54349455640E+01  0.51100000000E-03 0. -1.
        -12    1    3    3    0    0 -0.90443833325E+01  0.26089988722E+02 -0.46014638755E+01  0.27993960977E+02  0.00000000000E+00 0.  1.
</event>
<event>
 7    1  0.5662448E-012  0.5930193E+02  0.7816164E-02  0.1266605E+00
        -11   -1    0    0    0    0  0.00000000000E+00  0.00000000000E+00  0.45593999997E+02  0.45594000000E+02  0.51100000000E-03 0. -1.
         11   -1    0    0    0    0 -0.00000000000E+00 -0.00000000000E+00 -0.45593999997E+02  0.45594000000E+02  0.51100000000E-03 0.  1.
    9900012    2    1    2    0    0 -0.20646573652E+02  0.22550041048E-01 -0.24298968018E+02  0.59301931587E+02  0.49999977312E+02 0.  0.
         12    1    1    2    0    0  0.20646573652E+02 -0.22550041048E-01  0.24298968018E+02  0.31886068413E+02  0.00000000000E+00 0. -1.
         11    1    3    3    0    0  0.12375487929E+02  0.35189735541E+01 -0.11320862170E+02  0.17137613512E+02  0.51100000000E-03 0. -1.
        -11    1    3    3    0    0 -0.92179126793E+01  0.51453361203E+01 -0.13119840640E+02  0.16839673887E+02  0.51100000000E-03 0.  1.
         12    1    3    3    0    0 -0.23804148902E+02 -0.86417596333E+01  0.14173479247E+00  0.25324644188E+02  0.00000000000E+00 0. -1.
</event>
<event>
 7    1  0.5662448E-012  0.5930192E+02  0.7816164E-02  0.1266605E+00
        -11   -1    0    0    0    0  0.00000000000E+00  0.00000000000E+00  0.45593999997E+02  0.45594000000E+02  0.51100000000E-03 0.  1.
         11   -1    0    0    0    0 -0.00000000000E+00 -0.00000000000E+00 -0.45593999997E+02  0.45594000000E+02  0.51100000000E-03 0. -1.
    9900012    2    1    2    0    0  0.80953830558E+01 -0.56616120606E+01  0.30317208254E+02  0.59301918487E+02  0.49999953420E+02 0.  0.
         12    1    1    2    0    0 -0.80953830558E+01  0.56616120606E+01 -0.30317208254E+02  0.31886081513E+02  0.00000000000E+00 0. -1.
         11    1    3    3    0    0  0.79962235951E+01  0.34327196084E+01 -0.90198687565E+01  0.12533203435E+02  0.51100000000E-03 0. -1.
        -11    1    3    3    0    0  0.61294679980E+01  0.34472011338E+01  0.27849931386E+02  0.28724070952E+02  0.51100000000E-03 0.  1.
        -12    1    3    3    0    0 -0.60303085373E+01 -0.12541532803E+02  0.11487145624E+02  0.18044644100E+02  0.00000000000E+00 0.  1.
</event>
<event>
 7    1  0.5662448E-012  0.5930195E+02  0.7816164E-02  0.1266605E+00
        -11   -1    0    0    0    0  0.00000000000E+00  0.00000000000E+00  0.45593999997E+02  0.45594000000E+02  0.51100000000E-03 0. -1.
         11   -1    0    0    0    0 -0.00000000000E+00 -0.00000000000E+00 -0.45593999997E+02  0.45594000000E+02  0.51100000000E-03 0.  1.
    9900012    2    1    2    0    0 -0.21533825125E+02  0.18442006251E+02  0.14591337361E+02  0.59301947484E+02  0.50000006303E+02 0.  0.
         12    1    1    2    0    0  0.21533825125E+02 -0.18442006251E+02 -0.14591337361E+02  0.31886052516E+02  0.00000000000E+00 0. -1.
         11    1    3    3    0    0  0.15126811405E+01  0.13992668801E+02  0.14457229526E+02  0.20176582224E+02  0.51100000000E-03 0. -1.
        -11    1    3    3    0    0 -0.11115415800E+02  0.17534618372E+02  0.36290607221E+01  0.21075706200E+02  0.51100000000E-03 0.  1.
         12    1    3    3    0    0 -0.11931090466E+02 -0.13085280921E+02 -0.34949528872E+01  0.18049659060E+02  0.00000000000E+00 0. -1.
</event>
<event>
 7    1  0.5662448E-012  0.5930193E+02  0.7816164E-02  0.1266605E+00
        -11   -1    0    0    0    0  0.00000000000E+00  0.00000000000E+00  0.45593999997E+02  0.45594000000E+02  0.51100000000E-03 0. -1.
         11   -1    0    0    0    0 -0.00000000000E+00 -0.00000000000E+00 -0.45593999997E+02  0.45594000000E+02  0.51100000000E-03 0.  1.
    9900012    2    1    2    0    0  0.83110433743E+00  0.31022596825E+02  0.73231909421E+01  0.59301931353E+02  0.49999976884E+02 0.  0.
         12    1    1    2    0    0 -0.83110433743E+00 -0.31022596825E+02 -0.73231909421E+01  0.31886068647E+02  0.00000000000E+00 0. -1.
         11    1    3    3    0    0 -0.45199111651E+00  0.19282625703E+02  0.13610283944E+02  0.23606435124E+02  0.51100000000E-03 0.  1.
        -11    1    3    3    0    0  0.48479710041E+01 -0.51665939438E+01 -0.14818931033E+02  0.16425505564E+02  0.51100000000E-03 0. -1.
         12    1    3    3    0    0 -0.35648755502E+01  0.16906565066E+02  0.85318380310E+01  0.19269990664E+02  0.00000000000E+00 0. -1.
</event>
<event>
 7    1  0.5662448E-012  0.5930194E+02  0.7816164E-02  0.1266605E+00
        -11   -1    0    0    0    0  0.00000000000E+00  0.00000000000E+00  0.45593999997E+02  0.45594000000E+02  0.51100000000E-03 0.  1.
         11   -1    0    0    0    0 -0.00000000000E+00 -0.00000000000E+00 -0.45593999997E+02  0.45594000000E+02  0.51100000000E-03 0. -1.
    9900012    2    1    2    0    0  0.13980470793E+02  0.23688591297E+02  0.16128174520E+02  0.59301938240E+02  0.49999989445E+02 0.  0.
         12    1    1    2    0    0 -0.13980470793E+02 -0.23688591297E+02 -0.16128174520E+02  0.31886061760E+02  0.00000000000E+00 0. -1.
         11    1    3    3    0    0  0.26157787001E+01  0.20802186309E+02 -0.48922581479E+01  0.21529223012E+02  0.51100000000E-03 0.  1.
        -11    1    3    3    0    0  0.10719346213E+02 -0.47130011670E+01 -0.33965305322E+01  0.12192341168E+02  0.51100000000E-03 0. -1.
        -12    1    3    3    0    0  0.64534587957E+00  0.75994061549E+01  0.24416963200E+02  0.25580374061E+02  0.00000000000E+00 0.  1.
</event>
<event>
 7    1  0.5662448E-012  0.5930194E+02  0.7816164E-02  0.1266605E+00
        -11   -1    0    0    0    0  0.00000000000E+00  0.00000000000E+00  0.45593999997E+02  0.45594000000E+02  0.51100000000E-03 0.  1.
         11   -1    0    0    0    0 -0.00000000000E+00 -0.00000000000E+00 -0.45593999997E+02  0.45594000000E+02  0.51100000000E-03 0. -1.
    9900012    2    1    2    0    0  0.28460206457E+02 -0.54359635807E+01  0.13311189311E+02  0.59301940154E+02  0.49999992936E+02 0.  0.
         12    1    1    2    0    0 -0.28460206457E+02  0.54359635807E+01 -0.13311189311E+02  0.31886059846E+02  0.00000000000E+00 0. -1.
         11    1    3    3    0    0 -0.37563293601E+01  0.53824896023E+01  0.92424852943E+01  0.11335993086E+02  0.51100000000E-03 0. -1.
        -11    1    3    3    0    0  0.65645730864E+01  0.11798626470E+02 -0.18858723032E+00  0.13503213387E+02  0.51100000000E-03 0.  1.
         12    1    3    3    0    0  0.25651962731E+02 -0.22617079653E+02  0.42572912466E+01  0.34462733680E+02  0.00000000000E+00 0. -1.
</event>
<event>
 7    1  0.5662448E-012  0.5930192E+02  0.7816164E-02  0.1266605E+00
        -11   -1    0    0    0    0  0.00000000000E+00  0.00000000000E+00  0.45593999997E+02  0.45594000000E+02  0.51100000000E-03 0.  1.
         11   -1    0    0    0    0 -0.00000000000E+00 -0.00000000000E+00 -0.45593999997E+02  0.45594000000E+02  0.51100000000E-03 0. -1.
    9900012    2    1    2    0    0 -0.17986643526E+02  0.15679491977E+02  0.21150795348E+02  0.59301922194E+02  0.49999960181E+02 0.  0.
         12    1    1    2    0    0  0.17986643526E+02 -0.15679491977E+02 -0.21150795348E+02  0.31886077806E+02  0.00000000000E+00 0. -1.
         11    1    3    3    0    0  0.81213374343E-01 -0.13141198890E+01 -0.11499516957E+02  0.11574644582E+02  0.51100000000E-03 0. -1.
        -11    1    3    3    0    0 -0.11775552161E+02 -0.33045973319E+01  0.18566672235E+02  0.22232977992E+02  0.51100000000E-03 0.  1.
        -12    1    3    3    0    0 -0.62923047391E+01  0.20298209198E+02  0.14083640069E+02  0.25494299621E+02  0.00000000000E+00 0.  1.
</event>
<event>
 7    1  0.5662448E-012  0.5930196E+02  0.7816164E-02  0.1266605E+00
        -11   -1    0    0    0    0  0.00000000000E+00  0.00000000000E+00  0.45593999997E+02  0.45594000000E+02  0.51100000000E-03 0.  1.
         11   -1    0    0    0    0 -0.00000000000E+00 -0.00000000000E+00 -0.45593999997E+02  0.45594000000E+02  0.51100000000E-03 0. -1.
    9900012    2    1    2    0    0 -0.26278225902E+02 -0.95691589869E+01  0.15316839444E+02  0.59301960252E+02  0.50000029589E+02 0.  0.
         12    1    1    2    0    0  0.26278225902E+02  0.95691589869E+01 -0.15316839444E+02  0.31886039748E+02  0.00000000000E+00 0. -1.
         11    1    3    3    0    0 -0.15404036992E+02 -0.17527148077E+02  0.27498009984E+01  0.23495673669E+02  0.51100000000E-03 0. -1.
        -11    1    3    3    0    0  0.64116094991E+01  0.22537819689E+01  0.15908581536E+02  0.17299457688E+02  0.51100000000E-03 0.  1.
         12    1    3    3    0    0 -0.17285798409E+02  0.57042071210E+01 -0.33415430908E+01  0.18506828895E+02  0.00000000000E+00 0. -1.
</event>
<event>
 7    1  0.5662448E-012  0.5930193E+02  0.7816164E-02  0.1266605E+00
        -11   -1    0    0    0    0  0.00000000000E+00  0.00000000000E+00  0.45593999997E+02  0.45594000000E+02  0.51100000000E-03 0.  1.
         11   -1    0    0    0    0 -0.00000000000E+00 -0.00000000000E+00 -0.45593999997E+02  0.45594000000E+02  0.51100000000E-03 0. -1.
    9900012    2    1    2    0    0  0.17304088553E+02  0.26377564290E+02 -0.46383384678E+01  0.59301928397E+02  0.49999971494E+02 0.  0.
         12    1    1    2    0    0 -0.17304088553E+02 -0.26377564290E+02  0.46383384678E+01  0.31886071603E+02  0.00000000000E+00 0. -1.
         11    1    3    3    0    0  0.10100520463E+02  0.27803755573E-01 -0.11584320339E+02  0.15369377497E+02  0.51100000000E-03 0. -1.
        -11    1    3    3    0    0  0.49937201534E+01  0.29039718876E+02 -0.63889902650E+01  0.30150650246E+02  0.51100000000E-03 0.  1.
         12    1    3    3    0    0  0.22098479368E+01 -0.26899583420E+01  0.13334972136E+02  0.13781900655E+02  0.00000000000E+00 0. -1.
</event>
<event>
 7    1  0.5662448E-012  0.5930196E+02  0.7816164E-02  0.1266605E+00
        -11   -1    0    0    0    0  0.00000000000E+00  0.00000000000E+00  0.45593999997E+02  0.45594000000E+02  0.51100000000E-03 0.  1.
         11   -1    0    0    0    0 -0.00000000000E+00 -0.00000000000E+00 -0.45593999997E+02  0.45594000000E+02  0.51100000000E-03 0. -1.
    9900012    2    1    2    0    0 -0.25057722568E+02 -0.19526038610E+02  0.27502988670E+01  0.59301956220E+02  0.50000022237E+02 0.  0.
         12    1    1    2    0    0  0.25057722568E+02  0.19526038610E+02 -0.27502988670E+01  0.31886043780E+02  0.00000000000E+00 0. -1.
         11    1    3    3    0    0 -0.62456335950E+01 -0.11056848666E+01  0.33342713735E+01  0.71657409862E+01  0.51100000000E-03 0. -1.
        -11    1    3    3    0    0  0.34966825471E+01 -0.10915391470E+02  0.18548267232E+02  0.21803916560E+02  0.51100000000E-03 0.  1.
         12    1    3    3    0    0 -0.22308771520E+02 -0.75049622727E+01 -0.19132239739E+02  0.30332298674E+02  0.00000000000E+00 0. -1.
</event>
<event>
 7    1  0.5662448E-012  0.5930194E+02  0.7816164E-02  0.1266605E+00
        -11   -1    0    0    0    0  0.00000000000E+00  0.00000000000E+00  0.45593999997E+02  0.45594000000E+02  0.51100000000E-03 0. -1.
         11   -1    0    0    0    0 -0.00000000000E+00 -0.00000000000E+00 -0.45593999997E+02  0.45594000000E+02  0.51100000000E-03 0.  1.
    9900012    2    1    2    0    0  0.23797310663E+02 -0.21218208792E+02  0.44343874881E+00  0.59301936947E+02  0.49999987086E+02 0.  0.
         12    1    1    2    0    0 -0.23797310663E+02  0.21218208792E+02 -0.44343874881E+00  0.31886063053E+02  0.00000000000E+00 0. -1.
         11    1    3    3    0    0 -0.10427318684E+02 -0.85246924967E+01 -0.12601394565E+01  0.13527280171E+02  0.51100000000E-03 0. -1.
        -11    1    3    3    0    0 -0.15730790692E+01 -0.20894673783E+01  0.75447575005E+01  0.79852249614E+01  0.51100000000E-03 0.  1.
        -12    1    3    3    0    0  0.35797708416E+02 -0.10604048917E+02 -0.58411792952E+01  0.37789431814E+02  0.00000000000E+00 0.  1.
</event>
<event>
 7    1  0.5662448E-012  0.5930191E+02  0.7816164E-02  0.1266605E+00
        -11   -1    0    0    0    0  0.00000000000E+00  0.00000000000E+00  0.45593999997E+02  0.45594000000E+02  0.51100000000E-03 0. -1.
         11   -1    0    0    0    0 -0.00000000000E+00 -0.00000000000E+00 -0.45593999997E+02  0.45594000000E+02  0.51100000000E-03 0.  1.
    9900012    2    1    2    0    0 -0.11222949020E+02  0.25753732844E+02 -0.15083541298E+02  0.59301912780E+02  0.49999943011E+02 0.  0.
         12    1    1    2    0    0  0.11222949020E+02 -0.25753732844E+02  0.15083541298E+02  0.31886087220E+02  0.00000000000E+00 0. -1.
         11    1    3    3    0    0 -0.21004768615E+01 -0.43028527512E+01  0.11852601844E+02  0.12783220078E+02  0.51100000000E-03 0. -1.
        -11    1    3    3    0    0  0.18059370453E+01  0.77991367018E+01 -0.18781597977E+02  0.20416570836E+02  0.51100000000E-03 0.  1.
        -12    1    3    3    0    0 -0.10928409204E+02  0.22257448894E+02 -0.81545451653E+01  0.26102121865E+02  0.00000000000E+00 0.  1.
</event>
<event>
 7    1  0.5662448E-012  0.5930195E+02  0.7816164E-02  0.1266605E+00
        -11   -1    0    0    0    0  0.00000000000E+00  0.00000000000E+00  0.45593999997E+02  0.45594000000E+02  0.51100000000E-03 0.  1.
         11   -1    0    0    0    0 -0.00000000000E+00 -0.00000000000E+00 -0.45593999997E+02  0.45594000000E+02  0.51100000000E-03 0. -1.
    9900012    2    1    2    0    0  0.47426175712E+01 -0.14935746496E+02  0.27769608645E+02  0.59301951184E+02  0.50000013051E+02 0.  0.
         12    1    1    2    0    0 -0.47426175712E+01  0.14935746496E+02 -0.27769608645E+02  0.31886048816E+02  0.00000000000E+00 0. -1.
         11    1    3    3    0    0 -0.36926533302E+01 -0.90667166001E+01  0.17424694266E+02  0.19986520684E+02  0.51100000000E-03 0. -1.
        -11    1    3    3    0    0  0.12510040811E+02 -0.30805245423E+01  0.22649327041E+02  0.26057297792E+02  0.51100000000E-03 0.  1.
         12    1    3    3    0    0 -0.40747699095E+01 -0.27885053535E+01 -0.12304412663E+02  0.13258132708E+02  0.00000000000E+00 0. -1.
</event>
<event>
 7    1  0.5662448E-012  0.5930198E+02  0.7816164E-02  0.1266605E+00
        -11   -1    0    0    0    0  0.00000000000E+00  0.00000000000E+00  0.45593999997E+02  0.45594000000E+02  0.51100000000E-03 0.  1.
         11   -1    0    0    0    0 -0.00000000000E+00 -0.00000000000E+00 -0.45593999997E+02  0.45594000000E+02  0.51100000000E-03 0. -1.
    9900012    2    1    2    0    0  0.17562651727E+02 -0.25820504841E+01  0.26487815228E+02  0.59301983066E+02  0.50000071196E+02 0.  0.
         12    1    1    2    0    0 -0.17562651727E+02  0.25820504841E+01 -0.26487815228E+02  0.31886016934E+02  0.00000000000E+00 0. -1.
         11    1    3    3    0    0  0.21947058876E+02 -0.10530796693E+02  0.17944448441E+01  0.24408832517E+02  0.51100000000E-03 0. -1.
        -11    1    3    3    0    0 -0.42242792056E+01 -0.32527431634E+00 -0.35092858354E+01  0.55014021416E+01  0.51100000000E-03 0.  1.
        -12    1    3    3    0    0 -0.16012794332E+00  0.82740205250E+01  0.28202656219E+02  0.29391748407E+02  0.00000000000E+00 0.  1.
</event>
<event>
 7    1  0.5662448E-012  0.5930193E+02  0.7816164E-02  0.1266605E+00
        -11   -1    0    0    0    0  0.00000000000E+00  0.00000000000E+00  0.45593999997E+02  0.45594000000E+02  0.51100000000E-03 0. -1.
         11   -1    0    0    0    0 -0.00000000000E+00 -0.00000000000E+00 -0.45593999997E+02  0.45594000000E+02  0.51100000000E-03 0.  1.
    9900012    2    1    2    0    0  0.57469261550E+01 -0.30749192102E+01 -0.31212799808E+02  0.59301934701E+02  0.49999982990E+02 0.  0.
         12    1    1    2    0    0 -0.57469261550E+01  0.30749192102E+01  0.31212799808E+02  0.31886065299E+02  0.00000000000E+00 0. -1.
         11    1    3    3    0    0  0.60250973261E+01  0.35820660011E+01 -0.31429151292E+01  0.76818559213E+01  0.51100000000E-03 0. -1.
        -11    1    3    3    0    0  0.12425031801E+02  0.12169734278E+02 -0.22126558920E+02  0.28143710799E+02  0.51100000000E-03 0.  1.
         12    1    3    3    0    0 -0.12703202972E+02 -0.18826719489E+02 -0.59433257594E+01  0.23476367981E+02  0.00000000000E+00 0. -1.
</event>
<event>
 7    1  0.5662448E-012  0.5930194E+02  0.7816164E-02  0.1266605E+00
        -11   -1    0    0    0    0  0.00000000000E+00  0.00000000000E+00  0.45593999997E+02  0.45594000000E+02  0.51100000000E-03 0.  1.
         11   -1    0    0    0    0 -0.00000000000E+00 -0.00000000000E+00 -0.45593999997E+02  0.45594000000E+02  0.51100000000E-03 0. -1.
    9900012    2    1    2    0    0 -0.15257383226E+02  0.17285032090E+02  0.22026366031E+02  0.59301939131E+02  0.49999991069E+02 0.  0.
         12    1    1    2    0    0  0.15257383226E+02 -0.17285032090E+02 -0.22026366031E+02  0.31886060869E+02  0.00000000000E+00 0. -1.
         11    1    3    3    0    0  0.44828674091E+01 -0.10122494066E+01  0.12105828630E+02  0.12948816014E+02  0.51100000000E-03 0. -1.
        -11    1    3    3    0    0  0.10225565223E+02  0.13821295684E+01 -0.69668706189E+00  0.10342042322E+02  0.51100000000E-03 0.  1.
         12    1    3    3    0    0 -0.29965815858E+02  0.16915151928E+02  0.10617224462E+02  0.36011080795E+02  0.00000000000E+00 0. -1.
</event>
<event>
 7    1  0.5662448E-012  0.5930194E+02  0.7816164E-02  0.1266605E+00
        -11   -1    0    0    0    0  0.00000000000E+00  0.00000000000E+00  0.45593999997E+02  0.45594000000E+02  0.51100000000E-03 0. -1.
         11   -1    0    0    0    0 -0.00000000000E+00 -0.00000000000E+00 -0.45593999997E+02  0.45594000000E+02  0.51100000000E-03 0.  1.
    9900012    2    1    2    0    0  0.97781033737E+00 -0.42355763247E+01 -0.31588365822E+02  0.59301936035E+02  0.49999985423E+02 0.  0.
         12    1    1    2    0    0 -0.97781033737E+00  0.42355763247E+01  0.31588365822E+02  0.31886063965E+02  0.00000000000E+00 0. -1.
         11    1    3    3    0    0 -0.91089492762E+01  0.12760804151E+01 -0.87693455835E+01  0.12708373632E+02  0.51100000000E-03 0. -1.
        -11    1    3    3    0    0  0.20625098157E+01  0.15413007287E+02 -0.14330011541E+01  0.15616281022E+02  0.51100000000E-03 0.  1.
         12    1    3    3    0    0  0.80242497978E+01 -0.20924664027E+02 -0.21386019085E+02  0.30977281381E+02  0.00000000000E+00 0. -1.
</event>
<event>
 7    1  0.5662448E-012  0.5930195E+02  0.7816164E-02  0.1266605E+00
        -11   -1    0    0    0    0  0.00000000000E+00  0.00000000000E+00  0.45593999997E+02  0.45594000000E+02  0.51100000000E-03 0.  1.
         11   -1    0    0    0    0 -0.00000000000E+00 -0.00000000000E+00 -0.45593999997E+02  0.45594000000E+02  0.51100000000E-03 0. -1.
    9900012    2    1    2    0    0 -0.11134613423E+02  0.16635974594E+02  0.24819043248E+02  0.59301950158E+02  0.50000011180E+02 0.  0.
         12    1    1    2    0    0  0.11134613423E+02 -0.16635974594E+02 -0.24819043248E+02  0.31886049842E+02  0.00000000000E+00 0. -1.
         11    1    3    3    0    0 -0.19638536126E+02  0.12133153557E+02  0.69628646163E+01  0.24111553255E+02  0.51100000000E-03 0. -1.
        -11    1    3    3    0    0 -0.57444245314E+01  0.97803639989E+01  0.16380975836E+02  0.19924615498E+02  0.51100000000E-03 0.  1.
         12    1    3    3    0    0  0.14248347235E+02 -0.52775429616E+01  0.14752027960E+01  0.15265781405E+02  0.00000000000E+00 0. -1.
</event>
<event>
 7    1  0.5662448E-012  0.5930205E+02  0.7816164E-02  0.1266604E+00
        -11   -1    0    0    0    0  0.00000000000E+00  0.00000000000E+00  0.45593999997E+02  0.45594000000E+02  0.51100000000E-03 0. -1.
         11   -1    0    0    0    0 -0.00000000000E+00 -0.00000000000E+00 -0.45593999997E+02  0.45594000000E+02  0.51100000000E-03 0.  1.
    9900012    2    1    2    0    0 -0.27302025171E+02 -0.15787358947E+02 -0.46981291207E+01  0.59302051713E+02  0.50000196391E+02 0.  0.
         12    1    1    2    0    0  0.27302025171E+02  0.15787358947E+02  0.46981291207E+01  0.31885948287E+02  0.00000000000E+00 0. -1.
         11    1    3    3    0    0 -0.21638864451E+02  0.45838995553E+01 -0.68747937149E+01  0.23162801617E+02  0.51100000000E-03 0. -1.
        -11    1    3    3    0    0 -0.12725684172E+02 -0.14818283223E+02  0.11922787315E+02  0.22883999059E+02  0.51100000000E-03 0.  1.
         12    1    3    3    0    0  0.70625234517E+01 -0.55529752798E+01 -0.97461227207E+01  0.13255251037E+02  0.00000000000E+00 0. -1.
</event>
<event>
 7    1  0.5662448E-012  0.5930192E+02  0.7816164E-02  0.1266605E+00
        -11   -1    0    0    0    0  0.00000000000E+00  0.00000000000E+00  0.45593999997E+02  0.45594000000E+02  0.51100000000E-03 0.  1.
         11   -1    0    0    0    0 -0.00000000000E+00 -0.00000000000E+00 -0.45593999997E+02  0.45594000000E+02  0.51100000000E-03 0. -1.
    9900012    2    1    2    0    0  0.25161447685E+02 -0.15708280086E+02  0.11699308770E+02  0.59301916224E+02  0.49999949292E+02 0.  0.
         12    1    1    2    0    0 -0.25161447685E+02  0.15708280086E+02 -0.11699308770E+02  0.31886083776E+02  0.00000000000E+00 0. -1.
         11    1    3    3    0    0  0.11445969151E+00  0.40605586754E+01 -0.66369528631E+01  0.77814125546E+01  0.51100000000E-03 0. -1.
        -11    1    3    3    0    0 -0.77131500238E+01 -0.55441351519E+01  0.11906272266E+02  0.15231199473E+02  0.51100000000E-03 0.  1.
         12    1    3    3    0    0  0.32760138018E+02 -0.14224703610E+02  0.64299893677E+01  0.36289304196E+02  0.00000000000E+00 0. -1.
</event>
<event>
 7    1  0.5662448E-012  0.5930195E+02  0.7816164E-02  0.1266605E+00
        -11   -1    0    0    0    0  0.00000000000E+00  0.00000000000E+00  0.45593999997E+02  0.45594000000E+02  0.51100000000E-03 0. -1.
         11   -1    0    0    0    0 -0.00000000000E+00 -0.00000000000E+00 -0.45593999997E+02  0.45594000000E+02  0.51100000000E-03 0.  1.
    9900012    2    1    2    0    0  0.13123757449E+02 -0.25179945759E+02 -0.14507151587E+02  0.59301950932E+02  0.50000012592E+02 0.  0.
         12    1    1    2    0    0 -0.13123757449E+02  0.25179945759E+02  0.14507151587E+02  0.31886049068E+02  0.00000000000E+00 0. -1.
         11    1    3    3    0    0 -0.19740828920E+01 -0.23783438170E+02  0.10267292191E+02  0.25980112079E+02  0.51100000000E-03 0. -1.
        -11    1    3    3    0    0  0.83399036138E+01 -0.88922663536E+01 -0.13635825806E+02  0.18291039852E+02  0.51100000000E-03 0.  1.
        -12    1    3    3    0    0  0.67579367269E+01  0.74957587651E+01 -0.11138617973E+02  0.15030799001E+02  0.00000000000E+00 0.  1.
</event>
<event>
 7    1  0.5662448E-012  0.5930201E+02  0.7816164E-02  0.1266605E+00
        -11   -1    0    0    0    0  0.00000000000E+00  0.00000000000E+00  0.45593999997E+02  0.45594000000E+02  0.51100000000E-03 0.  1.
         11   -1    0    0    0    0 -0.00000000000E+00 -0.00000000000E+00 -0.45593999997E+02  0.45594000000E+02  0.51100000000E-03 0. -1.
    9900012    2    1    2    0    0 -0.91335586141E+01 -0.68647100321E+01  0.29768613465E+02  0.59302008022E+02  0.50000116711E+02 0.  0.
         12    1    1    2    0    0  0.91335586141E+01  0.68647100321E+01 -0.29768613465E+02  0.31885991978E+02  0.00000000000E+00 0. -1.
         11    1    3    3    0    0 -0.53141484503E+01  0.13813653898E+02  0.47345936017E+01  0.15539420343E+02  0.51100000000E-03 0. -1.
        -11    1    3    3    0    0  0.11636040889E+02 -0.74427610811E+01  0.16954744389E+02  0.21869053424E+02  0.51100000000E-03 0.  1.
         12    1    3    3    0    0 -0.15455451053E+02 -0.13235602849E+02  0.80792754739E+01  0.21893534256E+02  0.00000000000E+00 0. -1.
</event>
<event>
 7    1  0.5662448E-012  0.5930195E+02  0.7816164E-02  0.1266605E+00
        -11   -1    0    0    0    0  0.00000000000E+00  0.00000000000E+00  0.45593999997E+02  0.45594000000E+02  0.51100000000E-03 0. -1.
         11   -1    0    0    0    0 -0.00000000000E+00 -0.00000000000E+00 -0.45593999997E+02  0.45594000000E+02  0.51100000000E-03 0.  1.
    9900012    2    1    2    0    0  0.16264853995E+02  0.27410378678E+02 -0.91976942335E+00  0.59301948025E+02  0.50000007291E+02 0.  0.
         12    1    1    2    0    0 -0.16264853995E+02 -0.27410378678E+02  0.91976942335E+00  0.31886051975E+02  0.00000000000E+00 0. -1.
         11    1    3    3    0    0  0.24627894100E+02  0.10166361647E+02  0.67845364218E+01  0.27493963186E+02  0.51100000000E-03 0. -1.
        -11    1    3    3    0    0  0.54724391040E+01  0.98584629546E+01  0.42898217449E+01  0.12063973327E+02  0.51100000000E-03 0.  1.
         12    1    3    3    0    0 -0.13835479209E+02  0.73855540759E+01 -0.11994127590E+02  0.19744011512E+02  0.00000000000E+00 0. -1.
</event>
<event>
 7    1  0.5662448E-012  0.5930194E+02  0.7816164E-02  0.1266605E+00
        -11   -1    0    0    0    0  0.00000000000E+00  0.00000000000E+00  0.45593999997E+02  0.45594000000E+02  0.51100000000E-03 0.  1.
         11   -1    0    0    0    0 -0.00000000000E+00 -0.00000000000E+00 -0.45593999997E+02  0.45594000000E+02  0.51100000000E-03 0. -1.
    9900012    2    1    2    0    0  0.30301551162E+02 -0.79247704915E+01  0.59778849397E+01  0.59301935669E+02  0.49999984756E+02 0.  0.
         12    1    1    2    0    0 -0.30301551162E+02  0.79247704915E+01 -0.59778849397E+01  0.31886064331E+02  0.00000000000E+00 0. -1.
         11    1    3    3    0    0  0.18446496226E+01  0.86983722999E+01 -0.10361413842E+01  0.89519831393E+01  0.51100000000E-03 0.  1.
        -11    1    3    3    0    0  0.36154074286E+02 -0.15518674855E+02  0.11975256525E+02  0.41126063826E+02  0.51100000000E-03 0. -1.
         12    1    3    3    0    0 -0.76971727463E+01 -0.11044679361E+01 -0.49612302013E+01  0.92238887037E+01  0.00000000000E+00 0. -1.
</event>
<event>
 7    1  0.5662448E-012  0.5930191E+02  0.7816164E-02  0.1266605E+00
        -11   -1    0    0    0    0  0.00000000000E+00  0.00000000000E+00  0.45593999997E+02  0.45594000000E+02  0.51100000000E-03 0. -1.
         11   -1    0    0    0    0 -0.00000000000E+00 -0.00000000000E+00 -0.45593999997E+02  0.45594000000E+02  0.51100000000E-03 0.  1.
    9900012    2    1    2    0    0  0.29450906974E+02  0.51120148463E+01 -0.11101087153E+02  0.59301909719E+02  0.49999937430E+02 0.  0.
         12    1    1    2    0    0 -0.29450906974E+02 -0.51120148463E+01  0.11101087153E+02  0.31886090281E+02  0.00000000000E+00 0. -1.
         11    1    3    3    0    0  0.10694383484E+02  0.18189509782E+02 -0.40788605672E+01  0.21491049486E+02  0.51100000000E-03 0. -1.
        -11    1    3    3    0    0  0.19466025441E+01  0.67771958973E+01 -0.93287068937E+01  0.11693776903E+02  0.51100000000E-03 0.  1.
         12    1    3    3    0    0  0.16809920946E+02 -0.19854690833E+02  0.23064803074E+01  0.26117083330E+02  0.00000000000E+00 0. -1.
</event>
<event>
 7    1  0.5662448E-012  0.5930196E+02  0.7816164E-02  0.1266605E+00
        -11   -1    0    0    0    0  0.00000000000E+00  0.00000000000E+00  0.45593999997E+02  0.45594000000E+02  0.51100000000E-03 0.  1.
         11   -1    0    0    0    0 -0.00000000000E+00 -0.00000000000E+00 -0.45593999997E+02  0.45594000000E+02  0.51100000000E-03 0. -1.
    9900012    2    1    2    0    0  0.78597658784E+01 -0.26932612857E+02  0.15151834983E+02  0.59301958253E+02  0.50000025943E+02 0.  0.
         12    1    1    2    0    0 -0.78597658784E+01  0.26932612857E+02 -0.15151834983E+02  0.31886041747E+02  0.00000000000E+00 0. -1.
         11    1    3    3    0    0 -0.11547122770E+02 -0.18047694331E+02  0.27185224145E+01  0.21597353526E+02  0.51100000000E-03 0. -1.
        -11    1    3    3    0    0 -0.35164146389E+01 -0.36775021631E+01  0.13239374549E+02  0.14183449256E+02  0.51100000000E-03 0.  1.
        -12    1    3    3    0    0  0.22923303287E+02 -0.52074163629E+01 -0.80606198122E+00  0.23521155471E+02  0.00000000000E+00 0.  1.
</event>
<event>
 7    1  0.5662448E-012  0.5930211E+02  0.7816164E-02  0.1266604E+00
        -11   -1    0    0    0    0  0.00000000000E+00  0.00000000000E+00  0.45593999997E+02  0.45594000000E+02  0.51100000000E-03 0.  1.
         11   -1    0    0    0    0 -0.00000000000E+00 -0.00000000000E+00 -0.45593999997E+02  0.45594000000E+02  0.51100000000E-03 0. -1.
    9900012    2    1    2    0    0  0.44796977592E+01 -0.20571452212E+01  0.31502546229E+02  0.59302110371E+02  0.50000303370E+02 0.  0.
         12    1    1    2    0    0 -0.44796977592E+01  0.20571452212E+01 -0.31502546229E+02  0.31885889629E+02  0.00000000000E+00 0. -1.
         11    1    3    3    0    0  0.13967210794E+02 -0.15082943907E+02  0.80759747423E+01  0.22086184428E+02  0.51100000000E-03 0. -1.
        -11    1    3    3    0    0  0.68930004560E+01  0.26294747629E+01  0.13590589657E+02  0.15463884386E+02  0.51100000000E-03 0.  1.
         12    1    3    3    0    0 -0.16380513491E+02  0.10396323923E+02  0.98359818296E+01  0.21752041557E+02  0.00000000000E+00 0. -1.
</event>
<event>
 7    1  0.5662448E-012  0.5930195E+02  0.7816164E-02  0.1266605E+00
        -11   -1    0    0    0    0  0.00000000000E+00  0.00000000000E+00  0.45593999997E+02  0.45594000000E+02  0.51100000000E-03 0. -1.
         11   -1    0    0    0    0 -0.00000000000E+00 -0.00000000000E+00 -0.45593999997E+02  0.45594000000E+02  0.51100000000E-03 0.  1.
    9900012    2    1    2    0    0 -0.21569477390E+02 -0.19846791993E+02 -0.12553188367E+02  0.59301952182E+02  0.50000014871E+02 0.  0.
         12    1    1    2    0    0  0.21569477390E+02  0.19846791993E+02  0.12553188367E+02  0.31886047818E+02  0.00000000000E+00 0. -1.
         11    1    3    3    0    0  0.58898772997E+00  0.37358068034E-01  0.11172923112E+02  0.11188499153E+02  0.51100000000E-03 0. -1.
        -11    1    3    3    0    0 -0.17581283044E+02 -0.40522464221E+01  0.13652958629E+01  0.18093817938E+02  0.51100000000E-03 0.  1.
        -12    1    3    3    0    0 -0.45771820763E+01 -0.15831903639E+02 -0.25091407342E+02  0.30019635091E+02  0.00000000000E+00 0.  1.
</event>
<event>
 7    1  0.5662448E-012  0.5930195E+02  0.7816164E-02  0.1266605E+00
        -11   -1    0    0    0    0  0.00000000000E+00  0.00000000000E+00  0.45593999997E+02  0.45594000000E+02  0.51100000000E-03 0.  1.
         11   -1    0    0    0    0 -0.00000000000E+00 -0.00000000000E+00 -0.45593999997E+02  0.45594000000E+02  0.51100000000E-03 0. -1.
    9900012    2    1    2    0    0 -0.21719634361E+01  0.12817559892E+02  0.29115513374E+02  0.59301946846E+02  0.50000005139E+02 0.  0.
         12    1    1    2    0    0  0.21719634361E+01 -0.12817559892E+02 -0.29115513374E+02  0.31886053154E+02  0.00000000000E+00 0. -1.
         11    1    3    3    0    0 -0.71087104321E+01 -0.11511399377E+02 -0.54434368476E+01  0.14583452424E+02  0.51100000000E-03 0. -1.
        -11    1    3    3    0    0 -0.15088796200E+01  0.11281362892E+01 -0.71007629238E+00  0.20133598279E+01  0.51100000000E-03 0.  1.
        -12    1    3    3    0    0  0.64456266160E+01  0.23200822980E+02  0.35269026514E+02  0.42705134594E+02  0.00000000000E+00 0.  1.
</event>
<event>
 7    1  0.5662448E-012  0.5930194E+02  0.7816164E-02  0.1266605E+00
        -11   -1    0    0    0    0  0.00000000000E+00  0.00000000000E+00  0.45593999997E+02  0.45594000000E+02  0.51100000000E-03 0. -1.
         11   -1    0    0    0    0 -0.00000000000E+00 -0.00000000000E+00 -0.45593999997E+02  0.45594000000E+02  0.51100000000E-03 0.  1.
    9900012    2    1    2    0    0 -0.17536857342E+02  0.26608556689E+02  0.10788870688E+01  0.59301942674E+02  0.49999997531E+02 0.  0.
         12    1    1    2    0    0  0.17536857342E+02 -0.26608556689E+02 -0.10788870688E+01  0.31886057326E+02  0.00000000000E+00 0. -1.
         11    1    3    3    0    0 -0.74193138168E+01 -0.10840765445E+02  0.69437073993E+01  0.14858784797E+02  0.51100000000E-03 0. -1.
        -11    1    3    3    0    0 -0.27994530053E+01  0.37656449227E+01 -0.86714954335E+01  0.98596070980E+01  0.51100000000E-03 0.  1.
        -12    1    3    3    0    0 -0.73180905196E+01  0.33683677211E+02  0.28066751030E+01  0.34583550779E+02  0.00000000000E+00 0.  1.
</event>
<event>
 7    1  0.5662448E-012  0.5930200E+02  0.7816164E-02  0.1266605E+00
        -11   -1    0    0    0    0  0.00000000000E+00  0.00000000000E+00  0.45593999997E+02  0.45594000000E+02  0.51100000000E-03 0. -1.
         11   -1    0    0    0    0 -0.00000000000E+00 -0.00000000000E+00 -0.45593999997E+02  0.45594000000E+02  0.51100000000E-03 0.  1.
    9900012    2    1    2    0    0  0.31512313797E+02  0.47299116434E+01 -0.11484330376E+01  0.59302001765E+02  0.50000105300E+02 0.  0.
         12    1    1    2    0    0 -0.31512313797E+02 -0.47299116434E+01  0.11484330376E+01  0.31885998235E+02  0.00000000000E+00 0. -1.
         11    1    3    3    0    0  0.18681668729E+02 -0.14562387040E+02  0.21901126480E+01  0.23787905676E+02  0.51100000000E-03 0. -1.
        -11    1    3    3    0    0  0.78517993458E+01 -0.72340676520E+00 -0.10980432522E+02  0.13518282766E+02  0.51100000000E-03 0.  1.
         12    1    3    3    0    0  0.49788457220E+01  0.20015705449E+02  0.76418868360E+01  0.21995813323E+02  0.00000000000E+00 0. -1.
</event>
<event>
 7    1  0.5662448E-012  0.5930194E+02  0.7816164E-02  0.1266605E+00
        -11   -1    0    0    0    0  0.00000000000E+00  0.00000000000E+00  0.45593999997E+02  0.45594000000E+02  0.51100000000E-03 0.  1.
         11   -1    0    0    0    0 -0.00000000000E+00 -0.00000000000E+00 -0.45593999997E+02  0.45594000000E+02  0.51100000000E-03 0. -1.
    9900012    2    1    2    0    0  0.88343396106E+01 -0.46886524089E+01  0.30276915888E+02  0.59301942648E+02  0.49999997484E+02 0.  0.
         12    1    1    2    0    0 -0.88343396106E+01  0.46886524089E+01 -0.30276915888E+02  0.31886057352E+02  0.00000000000E+00 0. -1.
         11    1    3    3    0    0  0.83978621527E+01  0.36982480746E+01  0.21304706128E+02  0.23196802173E+02  0.51100000000E-03 0. -1.
        -11    1    3    3    0    0  0.25920599742E+01 -0.12356545340E+02  0.20302248866E+02  0.23907829197E+02  0.51100000000E-03 0.  1.
         12    1    3    3    0    0 -0.21555825163E+01  0.39696448561E+01 -0.11330039106E+02  0.12197311278E+02  0.00000000000E+00 0. -1.
</event>
<event>
 7    1  0.5662448E-012  0.5930194E+02  0.7816164E-02  0.1266605E+00
        -11   -1    0    0    0    0  0.00000000000E+00  0.00000000000E+00  0.45593999997E+02  0.45594000000E+02  0.51100000000E-03 0. -1.
         11   -1    0    0    0    0 -0.00000000000E+00 -0.00000000000E+00 -0.45593999997E+02  0.45594000000E+02  0.51100000000E-03 0.  1.
    9900012    2    1    2    0    0  0.25719608269E+02  0.17048179512E+02 -0.80362904845E+01  0.59301942876E+02  0.49999997899E+02 0.  0.
         12    1    1    2    0    0 -0.25719608269E+02 -0.17048179512E+02  0.80362904845E+01  0.31886057124E+02  0.00000000000E+00 0. -1.
         11    1    3    3    0    0  0.51033043710E+01  0.23272628389E+02  0.78634209634E+01  0.25089685872E+02  0.51100000000E-03 0. -1.
        -11    1    3    3    0    0  0.64111357128E+00  0.63808486277E+01 -0.53145830720E+01  0.83289284611E+01  0.51100000000E-03 0.  1.
        -12    1    3    3    0    0  0.19975190326E+02 -0.12605297504E+02 -0.10585128376E+02  0.25883328543E+02  0.00000000000E+00 0.  1.
</event>
<event>
 7    1  0.5662448E-012  0.5930190E+02  0.7816164E-02  0.1266605E+00
        -11   -1    0    0    0    0  0.00000000000E+00  0.00000000000E+00  0.45593999997E+02  0.45594000000E+02  0.51100000000E-03 0. -1.
         11   -1    0    0    0    0 -0.00000000000E+00 -0.00000000000E+00 -0.45593999997E+02  0.45594000000E+02  0.51100000000E-03 0.  1.
    9900012    2    1    2    0    0  0.45405492063E+00  0.20303882649E+02 -0.24581892103E+02  0.59301902154E+02  0.49999923632E+02 0.  0.
         12    1    1    2    0    0 -0.45405492063E+00 -0.20303882649E+02  0.24581892103E+02  0.31886097846E+02  0.00000000000E+00 0. -1.
         11    1    3    3    0    0  0.50626471014E+01 -0.31488008872E+01  0.32292352451E+01  0.67803615855E+01  0.51100000000E-03 0. -1.
        -11    1    3    3    0    0  0.15500476313E+02  0.15597327590E+02 -0.85630794372E+01  0.23598044910E+02  0.51100000000E-03 0.  1.
        -12    1    3    3    0    0 -0.20109068493E+02  0.78553559468E+01 -0.19248047911E+02  0.28923495658E+02  0.00000000000E+00 0.  1.
</event>
<event>
 7    1  0.5662448E-012  0.5930196E+02  0.7816164E-02  0.1266605E+00
        -11   -1    0    0    0    0  0.00000000000E+00  0.00000000000E+00  0.45593999997E+02  0.45594000000E+02  0.51100000000E-03 0.  1.
         11   -1    0    0    0    0 -0.00000000000E+00 -0.00000000000E+00 -0.45593999997E+02  0.45594000000E+02  0.51100000000E-03 0. -1.
    9900012    2    1    2    0    0  0.31771347153E+02  0.25304092413E+01  0.94769182931E+00  0.59301959313E+02  0.50000027877E+02 0.  0.
         12    1    1    2    0    0 -0.31771347153E+02 -0.25304092413E+01 -0.94769182931E+00  0.31886040687E+02  0.00000000000E+00 0. -1.
         11    1    3    3    0    0  0.65536083200E+00  0.84515278442E+01 -0.10003869212E+02  0.13112407109E+02  0.51100000000E-03 0. -1.
        -11    1    3    3    0    0  0.59032099113E+01 -0.57211397816E+01 -0.10325339887E+02  0.13198180621E+02  0.51100000000E-03 0.  1.
         12    1    3    3    0    0  0.25212776410E+02 -0.19997882128E+00  0.21276900928E+02  0.32991371583E+02  0.00000000000E+00 0. -1.
</event>
<event>
 7    1  0.5662448E-012  0.5930191E+02  0.7816164E-02  0.1266605E+00
        -11   -1    0    0    0    0  0.00000000000E+00  0.00000000000E+00  0.45593999997E+02  0.45594000000E+02  0.51100000000E-03 0.  1.
         11   -1    0    0    0    0 -0.00000000000E+00 -0.00000000000E+00 -0.45593999997E+02  0.45594000000E+02  0.51100000000E-03 0. -1.
    9900012    2    1    2    0    0  0.12154262514E+02 -0.59154497556E+01  0.28879128759E+02  0.59301910228E+02  0.49999938357E+02 0.  0.
         12    1    1    2    0    0 -0.12154262514E+02  0.59154497556E+01 -0.28879128759E+02  0.31886089772E+02  0.00000000000E+00 0. -1.
         11    1    3    3    0    0  0.12991298430E+02  0.12651275650E+02  0.55678793430E+01  0.18969182668E+02  0.51100000000E-03 0. -1.
        -11    1    3    3    0    0 -0.91156984727E+01 -0.62325506379E+01  0.22955655385E+02  0.25473569842E+02  0.51100000000E-03 0.  1.
         12    1    3    3    0    0  0.82786625575E+01 -0.12334174768E+02  0.35559403160E+00  0.14859157717E+02  0.00000000000E+00 0. -1.
</event>
<event>
 7    1  0.5662448E-012  0.5930197E+02  0.7816164E-02  0.1266605E+00
        -11   -1    0    0    0    0  0.00000000000E+00  0.00000000000E+00  0.45593999997E+02  0.45594000000E+02  0.51100000000E-03 0. -1.
         11   -1    0    0    0    0 -0.00000000000E+00 -0.00000000000E+00 -0.45593999997E+02  0.45594000000E+02  0.51100000000E-03 0.  1.
    9900012    2    1    2    0    0 -0.79768224820E+01 -0.28381807579E+02 -0.12147526987E+02  0.59301966846E+02  0.50000041616E+02 0.  0.
         12    1    1    2    0    0  0.79768224820E+01  0.28381807579E+02  0.12147526987E+02  0.31886033154E+02  0.00000000000E+00 0. -1.
         11    1    3    3    0    0 -0.76821189912E+01  0.63687349893E+01  0.90797281532E+01  0.13491375065E+02  0.51100000000E-03 0.  1.
        -11    1    3    3    0    0 -0.91436042031E+01 -0.10606441189E+02 -0.30827237663E+01  0.14338942730E+02  0.51100000000E-03 0. -1.
        -12    1    3    3    0    0  0.88489007124E+01 -0.24144101379E+02 -0.18144531374E+02  0.31471649051E+02  0.00000000000E+00 0.  1.
</event>
<event>
 7    1  0.5662448E-012  0.5930193E+02  0.7816164E-02  0.1266605E+00
        -11   -1    0    0    0    0  0.00000000000E+00  0.00000000000E+00  0.45593999997E+02  0.45594000000E+02  0.51100000000E-03 0.  1.
         11   -1    0    0    0    0 -0.00000000000E+00 -0.00000000000E+00 -0.45593999997E+02  0.45594000000E+02  0.51100000000E-03 0. -1.
    9900012    2    1    2    0    0  0.21771225056E+01  0.28467427338E+02  0.14198137627E+02  0.59301931040E+02  0.49999976313E+02 0.  0.
         12    1    1    2    0    0 -0.21771225056E+01 -0.28467427338E+02 -0.14198137627E+02  0.31886068960E+02  0.00000000000E+00 0. -1.
         11    1    3    3    0    0 -0.12509482000E+02  0.15618066432E+02 -0.28763998355E+01  0.20215954473E+02  0.51100000000E-03 0. -1.
        -11    1    3    3    0    0 -0.17812599189E+01  0.17385111949E+02  0.50306845184E+01  0.18185785420E+02  0.51100000000E-03 0.  1.
        -12    1    3    3    0    0  0.16467864424E+02 -0.45357510425E+01  0.12043852944E+02  0.20900191146E+02  0.00000000000E+00 0.  1.
</event>
<event>
 7    1  0.5662448E-012  0.5930194E+02  0.7816164E-02  0.1266605E+00
        -11   -1    0    0    0    0  0.00000000000E+00  0.00000000000E+00  0.45593999997E+02  0.45594000000E+02  0.51100000000E-03 0.  1.
         11   -1    0    0    0    0 -0.00000000000E+00 -0.00000000000E+00 -0.45593999997E+02  0.45594000000E+02  0.51100000000E-03 0. -1.
    9900012    2    1    2    0    0  0.15793699718E+02 -0.60936601221E+01  0.27021234021E+02  0.59301941409E+02  0.49999995225E+02 0.  0.
         12    1    1    2    0    0 -0.15793699718E+02  0.60936601221E+01 -0.27021234021E+02  0.31886058591E+02  0.00000000000E+00 0. -1.
         11    1    3    3    0    0  0.19316298083E+01  0.51485047361E+01 -0.15135681628E+01  0.57034361203E+01  0.51100000000E-03 0. -1.
        -11    1    3    3    0    0 -0.13241744120E+02  0.27963875805E+01  0.15016296268E+02  0.20215160764E+02  0.51100000000E-03 0.  1.
         12    1    3    3    0    0  0.27103814029E+02 -0.14038552439E+02  0.13518505915E+02  0.33383344525E+02  0.00000000000E+00 0. -1.
</event>
<event>
 7    1  0.5662448E-012  0.5930191E+02  0.7816164E-02  0.1266605E+00
        -11   -1    0    0    0    0  0.00000000000E+00  0.00000000000E+00  0.45593999997E+02  0.45594000000E+02  0.51100000000E-03 0.  1.
         11   -1    0    0    0    0 -0.00000000000E+00 -0.00000000000E+00 -0.45593999997E+02  0.45594000000E+02  0.51100000000E-03 0. -1.
    9900012    2    1    2    0    0  0.14329106620E+02  0.22744525854E+02  0.17148939557E+02  0.59301907722E+02  0.49999933786E+02 0.  0.
         12    1    1    2    0    0 -0.14329106620E+02 -0.22744525854E+02 -0.17148939557E+02  0.31886092278E+02  0.00000000000E+00 0. -1.
         11    1    3    3    0    0  0.18756283850E+00  0.60751958868E+01  0.20863723196E+01  0.64262068593E+01  0.51100000000E-03 0. -1.
        -11    1    3    3    0    0  0.29053138180E+02  0.20114585574E+02  0.11514546536E+02  0.37165389452E+02  0.51100000000E-03 0.  1.
        -12    1    3    3    0    0 -0.14911594399E+02 -0.34452556068E+01  0.35480207020E+01  0.15710311410E+02  0.00000000000E+00 0.  1.
</event>
<event>
 7    1  0.5662448E-012  0.5930193E+02  0.7816164E-02  0.1266605E+00
        -11   -1    0    0    0    0  0.00000000000E+00  0.00000000000E+00  0.45593999997E+02  0.45594000000E+02  0.51100000000E-03 0. -1.
         11   -1    0    0    0    0 -0.00000000000E+00 -0.00000000000E+00 -0.45593999997E+02  0.45594000000E+02  0.51100000000E-03 0.  1.
    9900012    2    1    2    0    0 -0.19592256784E+02  0.68650992685E+01 -0.24201971572E+02  0.59301928718E+02  0.49999972078E+02 0.  0.
         12    1    1    2    0    0  0.19592256784E+02 -0.68650992685E+01  0.24201971572E+02  0.31886071282E+02  0.00000000000E+00 0. -1.
         11    1    3    3    0    0 -0.69662773083E+01  0.77740669041E+00 -0.13029218028E+02  0.14795063481E+02  0.51100000000E-03 0. -1.
        -11    1    3    3    0    0 -0.10261867002E+02  0.23284220684E+02 -0.41484577216E+01  0.25781205343E+02  0.51100000000E-03 0.  1.
         12    1    3    3    0    0 -0.23641124735E+01 -0.17196528106E+02 -0.70242958219E+01  0.18725659894E+02  0.00000000000E+00 0. -1.
</event>
<event>
 7    1  0.5662448E-012  0.5930192E+02  0.7816164E-02  0.1266605E+00
        -11   -1    0    0    0    0  0.00000000000E+00  0.00000000000E+00  0.45593999997E+02  0.45594000000E+02  0.51100000000E-03 0.  1.
         11   -1    0    0    0    0 -0.00000000000E+00 -0.00000000000E+00 -0.45593999997E+02  0.45594000000E+02  0.51100000000E-03 0. -1.
    9900012    2    1    2    0    0 -0.27915785619E+02  0.15089920869E+02  0.31184976154E+01  0.59301924262E+02  0.49999963953E+02 0.  0.
         12    1    1    2    0    0  0.27915785619E+02 -0.15089920869E+02 -0.31184976154E+01  0.31886075738E+02  0.00000000000E+00 0. -1.
         11    1    3    3    0    0  0.47548036362E-01 -0.64224172654E+00 -0.12440419273E+02  0.12457076993E+02  0.51100000000E-03 0. -1.
        -11    1    3    3    0    0  0.66258470384E+01  0.21746712387E+01  0.33696507635E+01  0.77450365075E+01  0.51100000000E-03 0.  1.
         12    1    3    3    0    0 -0.34589180694E+02  0.13557491357E+02  0.12189266125E+02  0.39099810762E+02  0.00000000000E+00 0. -1.
</event>
<event>
 7    1  0.5662448E-012  0.5930193E+02  0.7816164E-02  0.1266605E+00
        -11   -1    0    0    0    0  0.00000000000E+00  0.00000000000E+00  0.45593999997E+02  0.45594000000E+02  0.51100000000E-03 0.  1.
         11   -1    0    0    0    0 -0.00000000000E+00 -0.00000000000E+00 -0.45593999997E+02  0.45594000000E+02  0.51100000000E-03 0. -1.
    9900012    2    1    2    0    0  0.28260500771E+02 -0.13312228065E+02 -0.63914248572E+01  0.59301927310E+02  0.49999969511E+02 0.  0.
         12    1    1    2    0    0 -0.28260500771E+02  0.13312228065E+02  0.63914248572E+01  0.31886072690E+02  0.00000000000E+00 0. -1.
         11    1    3    3    0    0  0.16277487852E+02 -0.54957674089E+01 -0.19539158668E+02  0.26018047427E+02  0.51100000000E-03 0. -1.
        -11    1    3    3    0    0  0.18554314511E+02  0.16954955060E+01  0.10633722859E+02  0.21452583856E+02  0.51100000000E-03 0.  1.
         12    1    3    3    0    0 -0.65713015915E+01 -0.95119561617E+01  0.25140109517E+01  0.11831296028E+02  0.00000000000E+00 0. -1.
</event>
<event>
 7    1  0.5662448E-012  0.5930193E+02  0.7816164E-02  0.1266605E+00
        -11   -1    0    0    0    0  0.00000000000E+00  0.00000000000E+00  0.45593999997E+02  0.45594000000E+02  0.51100000000E-03 0.  1.
         11   -1    0    0    0    0 -0.00000000000E+00 -0.00000000000E+00 -0.45593999997E+02  0.45594000000E+02  0.51100000000E-03 0. -1.
    9900012    2    1    2    0    0  0.27587200381E+02 -0.96498822517E+01  0.12749409087E+02  0.59301932754E+02  0.49999979440E+02 0.  0.
         12    1    1    2    0    0 -0.27587200381E+02  0.96498822517E+01 -0.12749409087E+02  0.31886067246E+02  0.00000000000E+00 0. -1.
         11    1    3    3    0    0  0.10638877114E+02 -0.10814664624E+02 -0.74577555099E+01  0.16904460792E+02  0.51100000000E-03 0. -1.
        -11    1    3    3    0    0 -0.67805829978E+00 -0.94534017025E+01  0.19645573293E+02  0.21812269875E+02  0.51100000000E-03 0.  1.
         12    1    3    3    0    0  0.17626381567E+02  0.10618184074E+02  0.56159130348E+00  0.20585202087E+02  0.00000000000E+00 0. -1.
</event>
<event>
 7    1  0.5662448E-012  0.5930192E+02  0.7816164E-02  0.1266605E+00
        -11   -1    0    0    0    0  0.00000000000E+00  0.00000000000E+00  0.45593999997E+02  0.45594000000E+02  0.51100000000E-03 0. -1.
         11   -1    0    0    0    0 -0.00000000000E+00 -0.00000000000E+00 -0.45593999997E+02  0.45594000000E+02  0.51100000000E-03 0.  1.
    9900012    2    1    2    0    0  0.27684663345E+02  0.12385114845E+02 -0.98432978346E+01  0.59301918922E+02  0.49999954213E+02 0.  0.
         12    1    1    2    0    0 -0.27684663345E+02 -0.12385114845E+02  0.98432978346E+01  0.31886081078E+02  0.00000000000E+00 0. -1.
         11    1    3    3    0    0  0.15089238837E+02 -0.53608525409E+01  0.54597991553E+01  0.16918430061E+02  0.51100000000E-03 0. -1.
        -11    1    3    3    0    0  0.21566042433E+02  0.10878486530E+02 -0.18743461604E+02  0.30573730694E+02  0.51100000000E-03 0.  1.
        -12    1    3    3    0    0 -0.89706179253E+01  0.68674808562E+01  0.34403646141E+01  0.11809758166E+02  0.00000000000E+00 0.  1.
</event>
<event>
 7    1  0.5662448E-012  0.5930194E+02  0.7816164E-02  0.1266605E+00
        -11   -1    0    0    0    0  0.00000000000E+00  0.00000000000E+00  0.45593999997E+02  0.45594000000E+02  0.51100000000E-03 0.  1.
         11   -1    0    0    0    0 -0.00000000000E+00 -0.00000000000E+00 -0.45593999997E+02  0.45594000000E+02  0.51100000000E-03 0. -1.
    9900012    2    1    2    0    0 -0.62751332317E+01 -0.27194631422E+02  0.15420623037E+02  0.59301938937E+02  0.49999990715E+02 0.  0.
         12    1    1    2    0    0  0.62751332317E+01  0.27194631422E+02 -0.15420623037E+02  0.31886061063E+02  0.00000000000E+00 0. -1.
         11    1    3    3    0    0  0.40083878743E+01 -0.64707213062E+00 -0.16351966202E+01  0.43771844764E+01  0.51100000000E-03 0. -1.
        -11    1    3    3    0    0 -0.22678821594E+02 -0.36924954186E+01 -0.14316730737E+01  0.23022014667E+02  0.51100000000E-03 0.  1.
         12    1    3    3    0    0  0.12395300488E+02 -0.22855063873E+02  0.18487492731E+02  0.31902739793E+02  0.00000000000E+00 0. -1.
</event>
<event>
 7    1  0.5662448E-012  0.5930194E+02  0.7816164E-02  0.1266605E+00
        -11   -1    0    0    0    0  0.00000000000E+00  0.00000000000E+00  0.45593999997E+02  0.45594000000E+02  0.51100000000E-03 0.  1.
         11   -1    0    0    0    0 -0.00000000000E+00 -0.00000000000E+00 -0.45593999997E+02  0.45594000000E+02  0.51100000000E-03 0. -1.
    9900012    2    1    2    0    0  0.21058546897E+01  0.30561229191E+02 -0.88486006492E+01  0.59301935849E+02  0.49999985083E+02 0.  0.
         12    1    1    2    0    0 -0.21058546897E+01 -0.30561229191E+02  0.88486006492E+01  0.31886064151E+02  0.00000000000E+00 0. -1.
         11    1    3    3    0    0 -0.99036038588E+01 -0.17670258107E+01 -0.51602406589E+01  0.11306274078E+02  0.51100000000E-03 0. -1.
        -11    1    3    3    0    0 -0.43322415361E+01  0.77850574891E+01  0.11723664650E+02  0.14724800506E+02  0.51100000000E-03 0.  1.
         12    1    3    3    0    0  0.16341700085E+02  0.24543197512E+02 -0.15412024641E+02  0.33270861265E+02  0.00000000000E+00 0. -1.
</event>
<event>
 7    1  0.5662448E-012  0.5930195E+02  0.7816164E-02  0.1266605E+00
        -11   -1    0    0    0    0  0.00000000000E+00  0.00000000000E+00  0.45593999997E+02  0.45594000000E+02  0.51100000000E-03 0.  1.
         11   -1    0    0    0    0 -0.00000000000E+00 -0.00000000000E+00 -0.45593999997E+02  0.45594000000E+02  0.51100000000E-03 0. -1.
    9900012    2    1    2    0    0 -0.16607760136E+02 -0.22916483458E+02  0.14687990751E+02  0.59301953159E+02  0.50000016654E+02 0.  0.
         12    1    1    2    0    0  0.16607760136E+02  0.22916483458E+02 -0.14687990751E+02  0.31886046841E+02  0.00000000000E+00 0. -1.
         11    1    3    3    0    0 -0.13393239397E+02 -0.90712196112E+01  0.62047814578E+01  0.17325276332E+02  0.51100000000E-03 0.  1.
        -11    1    3    3    0    0 -0.12101952172E+02 -0.15507807391E+01  0.19656792260E+02  0.23135506251E+02  0.51100000000E-03 0. -1.
         12    1    3    3    0    0  0.88874314323E+01 -0.12294483108E+02 -0.11173582967E+02  0.18841170576E+02  0.00000000000E+00 0. -1.
</event>
<event>
 7    1  0.5662448E-012  0.5930193E+02  0.7816164E-02  0.1266605E+00
        -11   -1    0    0    0    0  0.00000000000E+00  0.00000000000E+00  0.45593999997E+02  0.45594000000E+02  0.51100000000E-03 0. -1.
         11   -1    0    0    0    0 -0.00000000000E+00 -0.00000000000E+00 -0.45593999997E+02  0.45594000000E+02  0.51100000000E-03 0.  1.
    9900012    2    1    2    0    0 -0.21627728896E+02  0.18641496480E+01 -0.23355674109E+02  0.59301933698E+02  0.49999981162E+02 0.  0.
         12    1    1    2    0    0  0.21627728896E+02 -0.18641496480E+01  0.23355674109E+02  0.31886066302E+02  0.00000000000E+00 0. -1.
         11    1    3    3    0    0 -0.43734876123E+01 -0.92674292837E+01  0.10985437282E+02  0.15023064666E+02  0.51100000000E-03 0. -1.
        -11    1    3    3    0    0 -0.10222552432E+02 -0.34363675982E+01 -0.82428942879E+01  0.13574037977E+02  0.51100000000E-03 0.  1.
        -12    1    3    3    0    0 -0.70316888521E+01  0.14567946530E+02 -0.26098217103E+02  0.30704831056E+02  0.00000000000E+00 0.  1.
</event>
<event>
 7    1  0.5662448E-012  0.5930195E+02  0.7816164E-02  0.1266605E+00
        -11   -1    0    0    0    0  0.00000000000E+00  0.00000000000E+00  0.45593999997E+02  0.45594000000E+02  0.51100000000E-03 0. -1.
         11   -1    0    0    0    0 -0.00000000000E+00 -0.00000000000E+00 -0.45593999997E+02  0.45594000000E+02  0.51100000000E-03 0.  1.
    9900012    2    1    2    0    0  0.99864376568E+01  0.28023923861E+02 -0.11473931988E+02  0.59301947236E+02  0.50000005851E+02 0.  0.
         12    1    1    2    0    0 -0.99864376568E+01 -0.28023923861E+02  0.11473931988E+02  0.31886052764E+02  0.00000000000E+00 0. -1.
         11    1    3    3    0    0 -0.87606580187E+01 -0.22434009884E+01  0.26925837626E+01  0.94356761546E+01  0.51100000000E-03 0. -1.
        -11    1    3    3    0    0 -0.27588939066E+01  0.39043527504E+01 -0.15092330027E+02  0.15831421032E+02  0.51100000000E-03 0.  1.
        -12    1    3    3    0    0  0.21505989582E+02  0.26362972099E+02  0.92581427687E+00  0.34034850049E+02  0.00000000000E+00 0.  1.
</event>
<event>
 7    1  0.5662448E-012  0.5930193E+02  0.7816164E-02  0.1266605E+00
        -11   -1    0    0    0    0  0.00000000000E+00  0.00000000000E+00  0.45593999997E+02  0.45594000000E+02  0.51100000000E-03 0.  1.
         11   -1    0    0    0    0 -0.00000000000E+00 -0.00000000000E+00 -0.45593999997E+02  0.45594000000E+02  0.51100000000E-03 0. -1.
    9900012    2    1    2    0    0  0.18273009701E+02 -0.25849538228E+02  0.38236210245E+01  0.59301927995E+02  0.49999970761E+02 0.  0.
         12    1    1    2    0    0 -0.18273009701E+02  0.25849538228E+02 -0.38236210245E+01  0.31886072005E+02  0.00000000000E+00 0. -1.
         11    1    3    3    0    0  0.57944260032E+01 -0.16768041278E+02 -0.16968969900E+02  0.24549715289E+02  0.51100000000E-03 0. -1.
        -11    1    3    3    0    0  0.10598434128E+02 -0.21550743410E+01 -0.18740189768E+01  0.10976479343E+02  0.51100000000E-03 0.  1.
         12    1    3    3    0    0  0.18801495703E+01 -0.69264226089E+01  0.22666609902E+02  0.23775733364E+02  0.00000000000E+00 0. -1.
</event>
<event>
 7    1  0.5662448E-012  0.5930193E+02  0.7816164E-02  0.1266605E+00
        -11   -1    0    0    0    0  0.00000000000E+00  0.00000000000E+00  0.45593999997E+02  0.45594000000E+02  0.51100000000E-03 0.  1.
         11   -1    0    0    0    0 -0.00000000000E+00 -0.00000000000E+00 -0.45593999997E+02  0.45594000000E+02  0.51100000000E-03 0. -1.
    9900012    2    1    2    0    0 -0.11609806543E+02 -0.23043947723E+02  0.18732605122E+02  0.59301927346E+02  0.49999969577E+02 0.  0.
         12    1    1    2    0    0  0.11609806543E+02  0.23043947723E+02 -0.18732605122E+02  0.31886072654E+02  0.00000000000E+00 0. -1.
         11    1    3    3    0    0  0.60097273454E+01 -0.87193283214E+01  0.23167452037E+02  0.25473012058E+02  0.51100000000E-03 0.  1.
        -11    1    3    3    0    0 -0.43255252734E+00 -0.16166359984E+02 -0.33068287929E+01  0.16506768725E+02  0.51100000000E-03 0. -1.
        -12    1    3    3    0    0 -0.17186981361E+02  0.18417405821E+01 -0.11280181225E+01  0.17322146563E+02  0.00000000000E+00 0.  1.
</event>
<event>
 7    1  0.5662448E-012  0.5930194E+02  0.7816164E-02  0.1266605E+00
        -11   -1    0    0    0    0  0.00000000000E+00  0.00000000000E+00  0.45593999997E+02  0.45594000000E+02  0.51100000000E-03 0.  1.
         11   -1    0    0    0    0 -0.00000000000E+00 -0.00000000000E+00 -0.45593999997E+02  0.45594000000E+02  0.51100000000E-03 0. -1.
    9900012    2    1    2    0    0  0.20507634771E+02 -0.24414959304E+02  0.26028560032E+00  0.59301936111E+02  0.49999985562E+02 0.  0.
         12    1    1    2    0    0 -0.20507634771E+02  0.24414959304E+02 -0.26028560032E+00  0.31886063889E+02  0.00000000000E+00 0. -1.
         11    1    3    3    0    0  0.38172278224E+00 -0.16172917472E+02 -0.15924953856E+00  0.16178205479E+02  0.51100000000E-03 0. -1.
        -11    1    3    3    0    0 -0.22236246335E+01 -0.96988098276E+01  0.13815842839E+02  0.17026124991E+02  0.51100000000E-03 0.  1.
         12    1    3    3    0    0  0.22349536622E+02  0.14567679954E+01 -0.13396307700E+02  0.26097605642E+02  0.00000000000E+00 0. -1.
</event>
<event>
 7    1  0.5662448E-012  0.5930190E+02  0.7816164E-02  0.1266605E+00
        -11   -1    0    0    0    0  0.00000000000E+00  0.00000000000E+00  0.45593999997E+02  0.45594000000E+02  0.51100000000E-03 0.  1.
         11   -1    0    0    0    0 -0.00000000000E+00 -0.00000000000E+00 -0.45593999997E+02  0.45594000000E+02  0.51100000000E-03 0. -1.
    9900012    2    1    2    0    0 -0.12585820163E+02  0.18863336769E+02  0.22416393944E+02  0.59301904901E+02  0.49999928642E+02 0.  0.
         12    1    1    2    0    0  0.12585820163E+02 -0.18863336769E+02 -0.22416393944E+02  0.31886095099E+02  0.00000000000E+00 0. -1.
         11    1    3    3    0    0  0.43761918268E-01 -0.17961385521E+00 -0.53552556323E+01  0.53584456133E+01  0.51100000000E-03 0. -1.
        -11    1    3    3    0    0 -0.15065034883E+02 -0.33233831986E+01 -0.31077438685E+01  0.15737160611E+02  0.51100000000E-03 0.  1.
        -12    1    3    3    0    0  0.24354528010E+01  0.22366333822E+02  0.30879393445E+02  0.38206298676E+02  0.00000000000E+00 0.  1.
</event>
<event>
 7    1  0.5662448E-012  0.5930195E+02  0.7816164E-02  0.1266605E+00
        -11   -1    0    0    0    0  0.00000000000E+00  0.00000000000E+00  0.45593999997E+02  0.45594000000E+02  0.51100000000E-03 0. -1.
         11   -1    0    0    0    0 -0.00000000000E+00 -0.00000000000E+00 -0.45593999997E+02  0.45594000000E+02  0.51100000000E-03 0.  1.
    9900012    2    1    2    0    0 -0.29832516094E+02 -0.55987948480E+01 -0.97670336466E+01  0.59301945580E+02  0.50000002831E+02 0.  0.
         12    1    1    2    0    0  0.29832516094E+02  0.55987948480E+01  0.97670336466E+01  0.31886054420E+02  0.00000000000E+00 0. -1.
         11    1    3    3    0    0 -0.19443183010E+02 -0.12150687708E+02  0.67660180702E+00  0.22937619049E+02  0.51100000000E-03 0. -1.
        -11    1    3    3    0    0  0.38222292281E+01 -0.91967976182E+01 -0.11390095396E+02  0.15130260939E+02  0.51100000000E-03 0.  1.
         12    1    3    3    0    0 -0.14211562311E+02  0.15748690479E+02  0.94645994247E+00  0.21234065592E+02  0.00000000000E+00 0. -1.
</event>
<event>
 7    1  0.5662448E-012  0.5930194E+02  0.7816164E-02  0.1266605E+00
        -11   -1    0    0    0    0  0.00000000000E+00  0.00000000000E+00  0.45593999997E+02  0.45594000000E+02  0.51100000000E-03 0.  1.
         11   -1    0    0    0    0 -0.00000000000E+00 -0.00000000000E+00 -0.45593999997E+02  0.45594000000E+02  0.51100000000E-03 0. -1.
    9900012    2    1    2    0    0  0.20996774487E+02  0.35320069332E+00  0.23994402567E+02  0.59301942794E+02  0.49999997750E+02 0.  0.
         12    1    1    2    0    0 -0.20996774487E+02 -0.35320069332E+00 -0.23994402567E+02  0.31886057206E+02  0.00000000000E+00 0. -1.
         11    1    3    3    0    0 -0.19943297840E+01 -0.27408873849E+01 -0.25309288636E+01  0.42302974030E+01  0.51100000000E-03 0. -1.
        -11    1    3    3    0    0  0.39808460797E+01 -0.53009881813E+01 -0.10613597306E+02  0.12513834714E+02  0.51100000000E-03 0.  1.
        -12    1    3    3    0    0  0.19010258192E+02  0.83950762596E+01  0.37138928737E+02  0.42557810677E+02  0.00000000000E+00 0.  1.
</event>
<event>
 7    1  0.5662448E-012  0.5930197E+02  0.7816164E-02  0.1266605E+00
        -11   -1    0    0    0    0  0.00000000000E+00  0.00000000000E+00  0.45593999997E+02  0.45594000000E+02  0.51100000000E-03 0. -1.
         11   -1    0    0    0    0 -0.00000000000E+00 -0.00000000000E+00 -0.45593999997E+02  0.45594000000E+02  0.51100000000E-03 0.  1.
    9900012    2    1    2    0    0  0.17191137162E+02 -0.43271481130E+01 -0.26503952303E+02  0.59301970216E+02  0.50000047762E+02 0.  0.
         12    1    1    2    0    0 -0.17191137162E+02  0.43271481130E+01  0.26503952303E+02  0.31886029784E+02  0.00000000000E+00 0. -1.
         11    1    3    3    0    0  0.67389009116E+01 -0.10324885878E+00 -0.22105624741E+02  0.23110216167E+02  0.51100000000E-03 0. -1.
        -11    1    3    3    0    0  0.11628960177E+02 -0.11106109139E+02 -0.15978752244E+02  0.22669338291E+02  0.51100000000E-03 0.  1.
         12    1    3    3    0    0 -0.11767239271E+01  0.68822098849E+01  0.11580424683E+02  0.13522415758E+02  0.00000000000E+00 0. -1.
</event>
<event>
 7    1  0.5662448E-012  0.5930195E+02  0.7816164E-02  0.1266605E+00
        -11   -1    0    0    0    0  0.00000000000E+00  0.00000000000E+00  0.45593999997E+02  0.45594000000E+02  0.51100000000E-03 0. -1.
         11   -1    0    0    0    0 -0.00000000000E+00 -0.00000000000E+00 -0.45593999997E+02  0.45594000000E+02  0.51100000000E-03 0.  1.
    9900012    2    1    2    0    0 -0.29446021243E+02  0.10857759259E+02 -0.56357161210E+01  0.59301946633E+02  0.50000004751E+02 0.  0.
         12    1    1    2    0    0  0.29446021243E+02 -0.10857759259E+02  0.56357161210E+01  0.31886053367E+02  0.00000000000E+00 0. -1.
         11    1    3    3    0    0 -0.16320924271E+01 -0.14460206447E+02 -0.13698515702E+02  0.19985260290E+02  0.51100000000E-03 0. -1.
        -11    1    3    3    0    0 -0.51702117307E+01  0.18034638319E+01 -0.69001845574E+00  0.55190304279E+01  0.51100000000E-03 0.  1.
        -12    1    3    3    0    0 -0.22643717085E+02  0.23514501873E+02  0.87528180368E+01  0.33797655915E+02  0.00000000000E+00 0.  1.
</event>
<event>
 7    1  0.5662448E-012  0.5930195E+02  0.7816164E-02  0.1266605E+00
        -11   -1    0    0    0    0  0.00000000000E+00  0.00000000000E+00  0.45593999997E+02  0.45594000000E+02  0.51100000000E-03 0.  1.
         11   -1    0    0    0    0 -0.00000000000E+00 -0.00000000000E+00 -0.45593999997E+02  0.45594000000E+02  0.51100000000E-03 0. -1.
    9900012    2    1    2    0    0  0.12419893629E+02 -0.26280409334E+02 -0.13107498896E+02  0.59301949761E+02  0.50000010457E+02 0.  0.
         12    1    1    2    0    0 -0.12419893629E+02  0.26280409334E+02  0.13107498896E+02  0.31886050239E+02  0.00000000000E+00 0. -1.
         11    1    3    3    0    0 -0.85333622726E+00  0.76927134858E+01  0.19243176348E+01  0.79755264474E+01  0.51100000000E-03 0. -1.
        -11    1    3    3    0    0 -0.91614042372E+01 -0.53163305119E+01  0.25697380563E+01  0.10899461071E+02  0.51100000000E-03 0.  1.
        -12    1    3    3    0    0  0.22434634094E+02 -0.28656792308E+02 -0.17601554587E+02  0.40426962243E+02  0.00000000000E+00 0.  1.
</event>
<event>
 7    1  0.5662448E-012  0.5930197E+02  0.7816164E-02  0.1266605E+00
        -11   -1    0    0    0    0  0.00000000000E+00  0.00000000000E+00  0.45593999997E+02  0.45594000000E+02  0.51100000000E-03 0. -1.
         11   -1    0    0    0    0 -0.00000000000E+00 -0.00000000000E+00 -0.45593999997E+02  0.45594000000E+02  0.51100000000E-03 0.  1.
    9900012    2    1    2    0    0  0.98687697453E+01 -0.21172607881E+02  0.21703620666E+02  0.59301967152E+02  0.50000042174E+02 0.  0.
         12    1    1    2    0    0 -0.98687697453E+01  0.21172607881E+02 -0.21703620666E+02  0.31886032848E+02  0.00000000000E+00 0. -1.
         11    1    3    3    0    0 -0.10897582279E+02  0.44522255648E+01  0.39742403687E+00  0.11778690849E+02  0.51100000000E-03 0. -1.
        -11    1    3    3    0    0 -0.48990143212E+00 -0.13385775145E+02 -0.21719525054E+01  0.13569685243E+02  0.51100000000E-03 0.  1.
         12    1    3    3    0    0  0.21256253456E+02 -0.12239058300E+02  0.23478149134E+02  0.33953591060E+02  0.00000000000E+00 0. -1.
</event>
<event>
 7    1  0.5662448E-012  0.5930193E+02  0.7816164E-02  0.1266605E+00
        -11   -1    0    0    0    0  0.00000000000E+00  0.00000000000E+00  0.45593999997E+02  0.45594000000E+02  0.51100000000E-03 0.  1.
         11   -1    0    0    0    0 -0.00000000000E+00 -0.00000000000E+00 -0.45593999997E+02  0.45594000000E+02  0.51100000000E-03 0. -1.
    9900012    2    1    2    0    0 -0.24491030005E+02 -0.12158633186E+02  0.16403611231E+02  0.59301931363E+02  0.49999976903E+02 0.  0.
         12    1    1    2    0    0  0.24491030005E+02  0.12158633186E+02 -0.16403611231E+02  0.31886068637E+02  0.00000000000E+00 0. -1.
         11    1    3    3    0    0 -0.70711249775E+01  0.35566679608E+01  0.45016660246E+01  0.91058054388E+01  0.51100000000E-03 0. -1.
        -11    1    3    3    0    0 -0.15885769158E+02 -0.83252029980E+01  0.27520878920E+02  0.32849131549E+02  0.51100000000E-03 0.  1.
         12    1    3    3    0    0 -0.15341358695E+01 -0.73900981485E+01 -0.15618933714E+02  0.17346994376E+02  0.00000000000E+00 0. -1.
</event>
<event>
 7    1  0.5662448E-012  0.5930196E+02  0.7816164E-02  0.1266605E+00
        -11   -1    0    0    0    0  0.00000000000E+00  0.00000000000E+00  0.45593999997E+02  0.45594000000E+02  0.51100000000E-03 0.  1.
         11   -1    0    0    0    0 -0.00000000000E+00 -0.00000000000E+00 -0.45593999997E+02  0.45594000000E+02  0.51100000000E-03 0. -1.
    9900012    2    1    2    0    0 -0.12393996556E+02 -0.29006634769E+01  0.29235158153E+02  0.59301961182E+02  0.50000031286E+02 0.  0.
         12    1    1    2    0    0  0.12393996556E+02  0.29006634769E+01 -0.29235158153E+02  0.31886038818E+02  0.00000000000E+00 0. -1.
         11    1    3    3    0    0 -0.19941551553E+01  0.35611052161E+01  0.20900673330E+01  0.45854669185E+01  0.51100000000E-03 0. -1.
        -11    1    3    3    0    0  0.67887183716E+01 -0.91227467568E+01  0.34128873470E+02  0.35973479260E+02  0.51100000000E-03 0.  1.
         12    1    3    3    0    0 -0.17188559773E+02  0.26609780638E+01 -0.69837826496E+01  0.18743015003E+02  0.00000000000E+00 0. -1.
</event>
<event>
 7    1  0.5662448E-012  0.5930197E+02  0.7816164E-02  0.1266605E+00
        -11   -1    0    0    0    0  0.00000000000E+00  0.00000000000E+00  0.45593999997E+02  0.45594000000E+02  0.51100000000E-03 0.  1.
         11   -1    0    0    0    0 -0.00000000000E+00 -0.00000000000E+00 -0.45593999997E+02  0.45594000000E+02  0.51100000000E-03 0. -1.
    9900012    2    1    2    0    0 -0.88530077279E+01  0.26717215181E+02  0.14984437859E+02  0.59301973111E+02  0.50000053040E+02 0.  0.
         12    1    1    2    0    0  0.88530077279E+01 -0.26717215181E+02 -0.14984437859E+02  0.31886026889E+02  0.00000000000E+00 0. -1.
         11    1    3    3    0    0 -0.16380452253E+02  0.12086447501E+02  0.14295243201E+02  0.24874794625E+02  0.51100000000E-03 0. -1.
        -11    1    3    3    0    0 -0.20652776387E+01  0.88817649644E+01  0.14207765459E+02  0.16882290135E+02  0.51100000000E-03 0.  1.
         12    1    3    3    0    0  0.95927221635E+01  0.57490027148E+01 -0.13518570801E+02  0.17544888350E+02  0.00000000000E+00 0. -1.
</event>
<event>
 7    1  0.5662448E-012  0.5930189E+02  0.7816164E-02  0.1266605E+00
        -11   -1    0    0    0    0  0.00000000000E+00  0.00000000000E+00  0.45593999997E+02  0.45594000000E+02  0.51100000000E-03 0.  1.
         11   -1    0    0    0    0 -0.00000000000E+00 -0.00000000000E+00 -0.45593999997E+02  0.45594000000E+02  0.51100000000E-03 0. -1.
    9900012    2    1    2    0    0  0.38482730141E+01  0.30528907204E+02  0.83606690783E+01  0.59301887542E+02  0.49999896983E+02 0.  0.
         12    1    1    2    0    0 -0.38482730141E+01 -0.30528907204E+02 -0.83606690783E+01  0.31886112458E+02  0.00000000000E+00 0. -1.
         11    1    3    3    0    0 -0.11982171417E+02  0.16093716980E+02  0.27977999152E+01  0.20258525186E+02  0.51100000000E-03 0. -1.
        -11    1    3    3    0    0  0.11625241904E+02  0.17111296020E+02  0.16865399504E+02  0.26690530184E+02  0.51100000000E-03 0.  1.
         12    1    3    3    0    0  0.42052025271E+01 -0.26761057959E+01 -0.11302530341E+02  0.12352832171E+02  0.00000000000E+00 0. -1.
</event>
<event>
 7    1  0.5662448E-012  0.5930188E+02  0.7816164E-02  0.1266605E+00
        -11   -1    0    0    0    0  0.00000000000E+00  0.00000000000E+00  0.45593999997E+02  0.45594000000E+02  0.51100000000E-03 0.  1.
         11   -1    0    0    0    0 -0.00000000000E+00 -0.00000000000E+00 -0.45593999997E+02  0.45594000000E+02  0.51100000000E-03 0. -1.
    9900012    2    1    2    0    0 -0.14278738301E+02  0.27528315052E+02  0.74184966214E+01  0.59301880932E+02  0.49999884929E+02 0.  0.
         12    1    1    2    0    0  0.14278738301E+02 -0.27528315052E+02 -0.74184966214E+01  0.31886119068E+02  0.00000000000E+00 0. -1.
         11    1    3    3    0    0 -0.16251218015E+02 -0.26057873283E+01 -0.59227242760E+01  0.17492023259E+02  0.51100000000E-03 0. -1.
        -11    1    3    3    0    0  0.13129697206E+02  0.96361861239E+01  0.55389011233E+01  0.17202454989E+02  0.51100000000E-03 0.  1.
        -12    1    3    3    0    0 -0.11157217492E+02  0.20497916257E+02  0.78023197741E+01  0.24607402685E+02  0.00000000000E+00 0.  1.
</event>
<event>
 7    1  0.5662448E-012  0.5930195E+02  0.7816164E-02  0.1266605E+00
        -11   -1    0    0    0    0  0.00000000000E+00  0.00000000000E+00  0.45593999997E+02  0.45594000000E+02  0.51100000000E-03 0.  1.
         11   -1    0    0    0    0 -0.00000000000E+00 -0.00000000000E+00 -0.45593999997E+02  0.45594000000E+02  0.51100000000E-03 0. -1.
    9900012    2    1    2    0    0 -0.23468494491E+02  0.20413980152E+02 -0.70156403313E+01  0.59301952446E+02  0.50000015353E+02 0.  0.
         12    1    1    2    0    0  0.23468494491E+02 -0.20413980152E+02  0.70156403313E+01  0.31886047554E+02  0.00000000000E+00 0. -1.
         11    1    3    3    0    0  0.38823279424E+01  0.16625829838E+02  0.23817424873E+01  0.17238427584E+02  0.51100000000E-03 0. -1.
        -11    1    3    3    0    0 -0.16115073685E+02  0.11921957470E+01  0.10354329517E+02  0.19191901171E+02  0.51100000000E-03 0.  1.
        -12    1    3    3    0    0 -0.11235748749E+02  0.25959545679E+01 -0.19751712336E+02  0.22871623691E+02  0.00000000000E+00 0.  1.
</event>
<event>
 7    1  0.5662448E-012  0.5930194E+02  0.7816164E-02  0.1266605E+00
        -11   -1    0    0    0    0  0.00000000000E+00  0.00000000000E+00  0.45593999997E+02  0.45594000000E+02  0.51100000000E-03 0. -1.
         11   -1    0    0    0    0 -0.00000000000E+00 -0.00000000000E+00 -0.45593999997E+02  0.45594000000E+02  0.51100000000E-03 0.  1.
    9900012    2    1    2    0    0 -0.18172131587E+02  0.24505075572E+02 -0.92733840115E+01  0.59301941193E+02  0.49999994831E+02 0.  0.
         12    1    1    2    0    0  0.18172131587E+02 -0.24505075572E+02  0.92733840115E+01  0.31886058807E+02  0.00000000000E+00 0. -1.
         11    1    3    3    0    0 -0.12918289936E+01  0.48817225613E+01 -0.79040379030E+01  0.93794377629E+01  0.51100000000E-03 0. -1.
        -11    1    3    3    0    0  0.13587003899E+02  0.47339152658E+01 -0.62040335865E+01  0.15668652198E+02  0.51100000000E-03 0.  1.
         12    1    3    3    0    0 -0.30467306492E+02  0.14889437745E+02  0.48346874781E+01  0.34253851232E+02  0.00000000000E+00 0. -1.
</event>
<event>
 7    1  0.5662448E-012  0.5930194E+02  0.7816164E-02  0.1266605E+00
        -11   -1    0    0    0    0  0.00000000000E+00  0.00000000000E+00  0.45593999997E+02  0.45594000000E+02  0.51100000000E-03 0.  1.
         11   -1    0    0    0    0 -0.00000000000E+00 -0.00000000000E+00 -0.45593999997E+02  0.45594000000E+02  0.51100000000E-03 0. -1.
    9900012    2    1    2    0    0  0.18508470574E+01 -0.27834153966E+02  0.15445219169E+02  0.59301944160E+02  0.50000000242E+02 0.  0.
         12    1    1    2    0    0 -0.18508470574E+01  0.27834153966E+02 -0.15445219169E+02  0.31886055840E+02  0.00000000000E+00 0. -1.
         11    1    3    3    0    0  0.21463759653E+01  0.76031921909E+01  0.88710301848E+01  0.11878999877E+02  0.51100000000E-03 0. -1.
        -11    1    3    3    0    0  0.13326180624E+01 -0.20248036035E+02  0.18948683082E+02  0.27763490864E+02  0.51100000000E-03 0.  1.
         12    1    3    3    0    0 -0.16281469703E+01 -0.15189310123E+02 -0.12374494098E+02  0.19659453419E+02  0.00000000000E+00 0. -1.
</event>
<event>
 7    1  0.5662448E-012  0.5930195E+02  0.7816164E-02  0.1266605E+00
        -11   -1    0    0    0    0  0.00000000000E+00  0.00000000000E+00  0.45593999997E+02  0.45594000000E+02  0.51100000000E-03 0.  1.
         11   -1    0    0    0    0 -0.00000000000E+00 -0.00000000000E+00 -0.45593999997E+02  0.45594000000E+02  0.51100000000E-03 0. -1.
    9900012    2    1    2    0    0  0.14212589281E+02  0.13990742575E+02  0.24879339430E+02  0.59301951290E+02  0.50000013244E+02 0.  0.
         12    1    1    2    0    0 -0.14212589281E+02 -0.13990742575E+02 -0.24879339430E+02  0.31886048710E+02  0.00000000000E+00 0. -1.
         11    1    3    3    0    0 -0.95860658544E+01  0.86909178087E+01 -0.24985346854E+01  0.13178292255E+02  0.51100000000E-03 0. -1.
        -11    1    3    3    0    0  0.11835116039E+02  0.16710231990E+02  0.13375510295E+02  0.24458252201E+02  0.51100000000E-03 0.  1.
        -12    1    3    3    0    0  0.11963539097E+02 -0.11410407224E+02  0.14002363820E+02  0.21665406834E+02  0.00000000000E+00 0.  1.
</event>
<event>
 7    1  0.5662448E-012  0.5930193E+02  0.7816164E-02  0.1266605E+00
        -11   -1    0    0    0    0  0.00000000000E+00  0.00000000000E+00  0.45593999997E+02  0.45594000000E+02  0.51100000000E-03 0.  1.
         11   -1    0    0    0    0 -0.00000000000E+00 -0.00000000000E+00 -0.45593999997E+02  0.45594000000E+02  0.51100000000E-03 0. -1.
    9900012    2    1    2    0    0 -0.21432784044E+02 -0.10347089343E+02  0.21220150578E+02  0.59301932818E+02  0.49999979556E+02 0.  0.
         12    1    1    2    0    0  0.21432784044E+02  0.10347089343E+02 -0.21220150578E+02  0.31886067182E+02  0.00000000000E+00 0. -1.
         11    1    3    3    0    0 -0.15708772330E+02  0.15615179580E+02  0.10171816042E+02  0.24373452839E+02  0.51100000000E-03 0. -1.
        -11    1    3    3    0    0 -0.59246064470E+01 -0.10581794768E+02 -0.46145141754E+01  0.12975711287E+02  0.51100000000E-03 0.  1.
        -12    1    3    3    0    0  0.20059473249E+00 -0.15380474155E+02  0.15662848712E+02  0.21952768692E+02  0.00000000000E+00 0.  1.
</event>
<event>
 7    1  0.5662448E-012  0.5930194E+02  0.7816164E-02  0.1266605E+00
        -11   -1    0    0    0    0  0.00000000000E+00  0.00000000000E+00  0.45593999997E+02  0.45594000000E+02  0.51100000000E-03 0.  1.
         11   -1    0    0    0    0 -0.00000000000E+00 -0.00000000000E+00 -0.45593999997E+02  0.45594000000E+02  0.51100000000E-03 0. -1.
    9900012    2    1    2    0    0 -0.44628220036E+01  0.28516730884E+02  0.13549909786E+02  0.59301940730E+02  0.49999993985E+02 0.  0.
         12    1    1    2    0    0  0.44628220036E+01 -0.28516730884E+02 -0.13549909786E+02  0.31886059270E+02  0.00000000000E+00 0. -1.
         11    1    3    3    0    0  0.39247337374E+01  0.10778134010E+02 -0.99601254032E+01  0.15191306920E+02  0.51100000000E-03 0. -1.
        -11    1    3    3    0    0  0.12256545444E+01 -0.51984692551E+01 -0.42601125698E+01  0.68319009819E+01  0.51100000000E-03 0.  1.
        -12    1    3    3    0    0 -0.96132102855E+01  0.22937066130E+02  0.27770147759E+02  0.37278732827E+02  0.00000000000E+00 0.  1.
</event>
<event>
 7    1  0.5662448E-012  0.5930194E+02  0.7816164E-02  0.1266605E+00
        -11   -1    0    0    0    0  0.00000000000E+00  0.00000000000E+00  0.45593999997E+02  0.45594000000E+02  0.51100000000E-03 0. -1.
         11   -1    0    0    0    0 -0.00000000000E+00 -0.00000000000E+00 -0.45593999997E+02  0.45594000000E+02  0.51100000000E-03 0.  1.
    9900012    2    1    2    0    0 -0.25386953114E+02  0.42151555725E+01 -0.18826998690E+02  0.59301940278E+02  0.49999993161E+02 0.  0.
         12    1    1    2    0    0  0.25386953114E+02 -0.42151555725E+01  0.18826998690E+02  0.31886059722E+02  0.00000000000E+00 0. -1.
         11    1    3    3    0    0 -0.14666771260E+01  0.13105879827E+01 -0.10086216460E+02  0.10276212600E+02  0.51100000000E-03 0. -1.
        -11    1    3    3    0    0 -0.16399360706E+02 -0.17224601467E+02 -0.13022797022E+02  0.27114925222E+02  0.51100000000E-03 0.  1.
         12    1    3    3    0    0 -0.75209152828E+01  0.20129169056E+02  0.42820147928E+01  0.21910802456E+02  0.00000000000E+00 0. -1.
</event>
<event>
 7    1  0.5662448E-012  0.5930194E+02  0.7816164E-02  0.1266605E+00
        -11   -1    0    0    0    0  0.00000000000E+00  0.00000000000E+00  0.45593999997E+02  0.45594000000E+02  0.51100000000E-03 0.  1.
         11   -1    0    0    0    0 -0.00000000000E+00 -0.00000000000E+00 -0.45593999997E+02  0.45594000000E+02  0.51100000000E-03 0. -1.
    9900012    2    1    2    0    0 -0.27959556018E+02 -0.12150570152E+02  0.93459852019E+01  0.59301944002E+02  0.49999999953E+02 0.  0.
         12    1    1    2    0    0  0.27959556018E+02  0.12150570152E+02 -0.93459852019E+01  0.31886055998E+02  0.00000000000E+00 0. -1.
         11    1    3    3    0    0 -0.65874565146E+01 -0.18619487036E+02  0.21602231311E+00  0.19751621370E+02  0.51100000000E-03 0. -1.
        -11    1    3    3    0    0 -0.14457820531E+02 -0.11164443575E+02 -0.55942483786E+00  0.18275292919E+02  0.51100000000E-03 0.  1.
         12    1    3    3    0    0 -0.69142789716E+01  0.17633360459E+02  0.96893877266E+01  0.21275029713E+02  0.00000000000E+00 0. -1.
</event>
<event>
 7    1  0.5662448E-012  0.5930193E+02  0.7816164E-02  0.1266605E+00
        -11   -1    0    0    0    0  0.00000000000E+00  0.00000000000E+00  0.45593999997E+02  0.45594000000E+02  0.51100000000E-03 0.  1.
         11   -1    0    0    0    0 -0.00000000000E+00 -0.00000000000E+00 -0.45593999997E+02  0.45594000000E+02  0.51100000000E-03 0. -1.
    9900012    2    1    2    0    0 -0.18836861404E+02 -0.52927803273E+01  0.25176984492E+02  0.59301930640E+02  0.49999975584E+02 0.  0.
         12    1    1    2    0    0  0.18836861404E+02  0.52927803273E+01 -0.25176984492E+02  0.31886069360E+02  0.00000000000E+00 0. -1.
         11    1    3    3    0    0 -0.11882002314E+02  0.88749281289E+01 -0.88202770787E+01  0.17255248949E+02  0.51100000000E-03 0. -1.
        -11    1    3    3    0    0  0.38992485821E+01  0.17945400049E+01  0.21365982837E+01  0.47947435615E+01  0.51100000000E-03 0.  1.
        -12    1    3    3    0    0 -0.10854107671E+02 -0.15962248461E+02  0.31860663287E+02  0.37251938129E+02  0.00000000000E+00 0.  1.
</event>
<event>
 7    1  0.5662448E-012  0.5930195E+02  0.7816164E-02  0.1266605E+00
        -11   -1    0    0    0    0  0.00000000000E+00  0.00000000000E+00  0.45593999997E+02  0.45594000000E+02  0.51100000000E-03 0.  1.
         11   -1    0    0    0    0 -0.00000000000E+00 -0.00000000000E+00 -0.45593999997E+02  0.45594000000E+02  0.51100000000E-03 0. -1.
    9900012    2    1    2    0    0  0.22730304162E+02  0.22290526734E+02 -0.17849876180E+01  0.59301945208E+02  0.50000002153E+02 0.  0.
         12    1    1    2    0    0 -0.22730304162E+02 -0.22290526734E+02  0.17849876180E+01  0.31886054792E+02  0.00000000000E+00 0. -1.
         11    1    3    3    0    0  0.74281700184E+01 -0.30560318832E+01 -0.16392144346E+02  0.18254299143E+02  0.51100000000E-03 0. -1.
        -11    1    3    3    0    0  0.11303406610E+02  0.17170643264E+02 -0.34327842742E+01  0.20841832914E+02  0.51100000000E-03 0.  1.
        -12    1    3    3    0    0  0.39987275335E+01  0.81759153537E+01  0.18039941002E+02  0.20205813151E+02  0.00000000000E+00 0.  1.
</event>
<event>
 7    1  0.5662448E-012  0.5930196E+02  0.7816164E-02  0.1266605E+00
        -11   -1    0    0    0    0  0.00000000000E+00  0.00000000000E+00  0.45593999997E+02  0.45594000000E+02  0.51100000000E-03 0.  1.
         11   -1    0    0    0    0 -0.00000000000E+00 -0.00000000000E+00 -0.45593999997E+02  0.45594000000E+02  0.51100000000E-03 0. -1.
    9900012    2    1    2    0    0  0.15240235866E+02  0.27436222196E+02  0.56310304668E+01  0.59301959453E+02  0.50000028132E+02 0.  0.
         12    1    1    2    0    0 -0.15240235866E+02 -0.27436222196E+02 -0.56310304668E+01  0.31886040547E+02  0.00000000000E+00 0. -1.
         11    1    3    3    0    0  0.19683426713E+02  0.27154357681E+02 -0.12722783985E+01  0.33562108409E+02  0.51100000000E-03 0. -1.
        -11    1    3    3    0    0 -0.11137723816E+01  0.10673540392E+02  0.97103376929E+01  0.14472581380E+02  0.51100000000E-03 0.  1.
         12    1    3    3    0    0 -0.33294184658E+01 -0.10391675877E+02 -0.28070288276E+01  0.11267269665E+02  0.00000000000E+00 0. -1.
</event>
<event>
 7    1  0.5662448E-012  0.5930193E+02  0.7816164E-02  0.1266605E+00
        -11   -1    0    0    0    0  0.00000000000E+00  0.00000000000E+00  0.45593999997E+02  0.45594000000E+02  0.51100000000E-03 0.  1.
         11   -1    0    0    0    0 -0.00000000000E+00 -0.00000000000E+00 -0.45593999997E+02  0.45594000000E+02  0.51100000000E-03 0. -1.
    9900012    2    1    2    0    0 -0.28114302326E+01  0.73302609872E+01  0.30904443078E+02  0.59301929874E+02  0.49999974187E+02 0.  0.
         12    1    1    2    0    0  0.28114302326E+01 -0.73302609872E+01 -0.30904443078E+02  0.31886070126E+02  0.00000000000E+00 0. -1.
         11    1    3    3    0    0  0.17303668523E+02 -0.11260650477E+01  0.69378026537E+01  0.18676671887E+02  0.51100000000E-03 0. -1.
        -11    1    3    3    0    0  0.37662980188E+01 -0.11016538295E+01  0.11281412187E+02  0.11944408865E+02  0.51100000000E-03 0.  1.
        -12    1    3    3    0    0 -0.23881396774E+02  0.95579798644E+01  0.12685228237E+02  0.28680849123E+02  0.00000000000E+00 0.  1.
</event>
<event>
 7    1  0.5662448E-012  0.5930195E+02  0.7816164E-02  0.1266605E+00
        -11   -1    0    0    0    0  0.00000000000E+00  0.00000000000E+00  0.45593999997E+02  0.45594000000E+02  0.51100000000E-03 0.  1.
         11   -1    0    0    0    0 -0.00000000000E+00 -0.00000000000E+00 -0.45593999997E+02  0.45594000000E+02  0.51100000000E-03 0. -1.
    9900012    2    1    2    0    0  0.16523830007E+02  0.15798629613E+02  0.22228062668E+02  0.59301946219E+02  0.50000003997E+02 0.  0.
         12    1    1    2    0    0 -0.16523830007E+02 -0.15798629613E+02 -0.22228062668E+02  0.31886053781E+02  0.00000000000E+00 0. -1.
         11    1    3    3    0    0  0.10861734988E+02 -0.29534563865E+01  0.15273875376E+01  0.11359273944E+02  0.51100000000E-03 0. -1.
        -11    1    3    3    0    0  0.21493997262E+02  0.16725296206E+02  0.11961263121E+02  0.29745575590E+02  0.51100000000E-03 0.  1.
        -12    1    3    3    0    0 -0.15831902243E+02  0.20267897929E+01  0.87394120094E+01  0.18197096685E+02  0.00000000000E+00 0.  1.
</event>
<event>
 7    1  0.5662448E-012  0.5930193E+02  0.7816164E-02  0.1266605E+00
        -11   -1    0    0    0    0  0.00000000000E+00  0.00000000000E+00  0.45593999997E+02  0.45594000000E+02  0.51100000000E-03 0.  1.
         11   -1    0    0    0    0 -0.00000000000E+00 -0.00000000000E+00 -0.45593999997E+02  0.45594000000E+02  0.51100000000E-03 0. -1.
    9900012    2    1    2    0    0 -0.15869545896E+02  0.18320853191E+02 -0.20717748598E+02  0.59301933206E+02  0.49999980264E+02 0.  0.
         12    1    1    2    0    0  0.15869545896E+02 -0.18320853191E+02  0.20717748598E+02  0.31886066794E+02  0.00000000000E+00 0. -1.
         11    1    3    3    0    0  0.87107726765E+01  0.14467905025E+02 -0.14924628501E+02  0.22537576902E+02  0.51100000000E-03 0. -1.
        -11    1    3    3    0    0 -0.56247529845E+01 -0.71560073542E+01  0.69111018259E+01  0.11428456418E+02  0.51100000000E-03 0.  1.
         12    1    3    3    0    0 -0.18955565588E+02  0.11008955521E+02 -0.12704221922E+02  0.25335899887E+02  0.00000000000E+00 0. -1.
</event>
<event>
 7    1  0.5662448E-012  0.5930194E+02  0.7816164E-02  0.1266605E+00
        -11   -1    0    0    0    0  0.00000000000E+00  0.00000000000E+00  0.45593999997E+02  0.45594000000E+02  0.51100000000E-03 0. -1.
         11   -1    0    0    0    0 -0.00000000000E+00 -0.00000000000E+00 -0.45593999997E+02  0.45594000000E+02  0.51100000000E-03 0.  1.
    9900012    2    1    2    0    0  0.31268394653E+02  0.16735430521E+01 -0.60172687923E+01  0.59301940754E+02  0.49999994030E+02 0.  0.
         12    1    1    2    0    0 -0.31268394653E+02 -0.16735430521E+01  0.60172687923E+01  0.31886059246E+02  0.00000000000E+00 0. -1.
         11    1    3    3    0    0  0.89137592848E+01  0.15344081104E+00 -0.48532001472E+01  0.10150477851E+02  0.51100000000E-03 0. -1.
        -11    1    3    3    0    0  0.30680864114E+02  0.25840576330E+01  0.12406177677E+02  0.33194969822E+02  0.51100000000E-03 0.  1.
         12    1    3    3    0    0 -0.83262287461E+01 -0.10639553919E+01 -0.13570246322E+02  0.15956493082E+02  0.00000000000E+00 0. -1.
</event>
<event>
 7    1  0.5662448E-012  0.5930189E+02  0.7816164E-02  0.1266605E+00
        -11   -1    0    0    0    0  0.00000000000E+00  0.00000000000E+00  0.45593999997E+02  0.45594000000E+02  0.51100000000E-03 0. -1.
         11   -1    0    0    0    0 -0.00000000000E+00 -0.00000000000E+00 -0.45593999997E+02  0.45594000000E+02  0.51100000000E-03 0.  1.
    9900012    2    1    2    0    0 -0.25653245881E+02 -0.18856390833E+02  0.17524867516E+01  0.59301894730E+02  0.49999910092E+02 0.  0.
         12    1    1    2    0    0  0.25653245881E+02  0.18856390833E+02 -0.17524867516E+01  0.31886105270E+02  0.00000000000E+00 0. -1.
         11    1    3    3    0    0  0.65614830507E+00 -0.71672313238E+01  0.96702788806E+01  0.12054626885E+02  0.51100000000E-03 0. -1.
        -11    1    3    3    0    0  0.58414851766E+01  0.18516564802E+00 -0.11386286832E+02  0.12798623499E+02  0.51100000000E-03 0.  1.
        -12    1    3    3    0    0 -0.32150879363E+02 -0.11874325158E+02  0.34684947029E+01  0.34448644346E+02  0.00000000000E+00 0.  1.
</event>
<event>
 7    1  0.5662448E-012  0.5930196E+02  0.7816164E-02  0.1266605E+00
        -11   -1    0    0    0    0  0.00000000000E+00  0.00000000000E+00  0.45593999997E+02  0.45594000000E+02  0.51100000000E-03 0.  1.
         11   -1    0    0    0    0 -0.00000000000E+00 -0.00000000000E+00 -0.45593999997E+02  0.45594000000E+02  0.51100000000E-03 0. -1.
    9900012    2    1    2    0    0  0.17620639327E+02  0.96720250542E+01  0.24752471597E+02  0.59301955262E+02  0.50000020488E+02 0.  0.
         12    1    1    2    0    0 -0.17620639327E+02 -0.96720250542E+01 -0.24752471597E+02  0.31886044738E+02  0.00000000000E+00 0. -1.
         11    1    3    3    0    0  0.84896347450E+00  0.81828930032E+01  0.11328183202E+02  0.14000293276E+02  0.51100000000E-03 0.  1.
        -11    1    3    3    0    0  0.22137123783E+02  0.12350074446E+01  0.24469124769E+02  0.33019926711E+02  0.51100000000E-03 0. -1.
         12    1    3    3    0    0 -0.53654479313E+01  0.25412460638E+00 -0.11044836375E+02  0.12281735275E+02  0.00000000000E+00 0. -1.
</event>
<event>
 7    1  0.5662448E-012  0.5930195E+02  0.7816164E-02  0.1266605E+00
        -11   -1    0    0    0    0  0.00000000000E+00  0.00000000000E+00  0.45593999997E+02  0.45594000000E+02  0.51100000000E-03 0. -1.
         11   -1    0    0    0    0 -0.00000000000E+00 -0.00000000000E+00 -0.45593999997E+02  0.45594000000E+02  0.51100000000E-03 0.  1.
    9900012    2    1    2    0    0 -0.42464486981E+01  0.11369579706E+02 -0.29485933273E+02  0.59301953989E+02  0.50000018167E+02 0.  0.
         12    1    1    2    0    0  0.42464486981E+01 -0.11369579706E+02  0.29485933273E+02  0.31886046011E+02  0.00000000000E+00 0. -1.
         11    1    3    3    0    0 -0.17123330895E+02  0.16820566964E+01 -0.30126503322E+02  0.34693572579E+02  0.51100000000E-03 0. -1.
        -11    1    3    3    0    0 -0.47826889918E+01  0.33413128306E+01  0.22099992328E+00  0.58384352914E+01  0.51100000000E-03 0.  1.
         12    1    3    3    0    0  0.17659571189E+02  0.63462101790E+01  0.41957012555E+00  0.18769946118E+02  0.00000000000E+00 0. -1.
</event>
<event>
 7    1  0.5662448E-012  0.5930183E+02  0.7816164E-02  0.1266605E+00
        -11   -1    0    0    0    0  0.00000000000E+00  0.00000000000E+00  0.45593999997E+02  0.45594000000E+02  0.51100000000E-03 0.  1.
         11   -1    0    0    0    0 -0.00000000000E+00 -0.00000000000E+00 -0.45593999997E+02  0.45594000000E+02  0.51100000000E-03 0. -1.
    9900012    2    1    2    0    0 -0.39330225085E+01  0.28956498535E+02 -0.12758541232E+02  0.59301829834E+02  0.49999791738E+02 0.  0.
         12    1    1    2    0    0  0.39330225085E+01 -0.28956498535E+02  0.12758541232E+02  0.31886170166E+02  0.00000000000E+00 0. -1.
         11    1    3    3    0    0 -0.46421689792E+01  0.82340034836E+01 -0.23231244766E+02  0.25080655491E+02  0.51100000000E-03 0. -1.
        -11    1    3    3    0    0  0.53528126642E+01  0.17879568866E+02 -0.37103770401E+01  0.19028885524E+02  0.51100000000E-03 0.  1.
         12    1    3    3    0    0 -0.46436661935E+01  0.28429261852E+01  0.14183080574E+02  0.15192288819E+02  0.00000000000E+00 0. -1.
</event>
<event>
 7    1  0.5662448E-012  0.5930196E+02  0.7816164E-02  0.1266605E+00
        -11   -1    0    0    0    0  0.00000000000E+00  0.00000000000E+00  0.45593999997E+02  0.45594000000E+02  0.51100000000E-03 0.  1.
         11   -1    0    0    0    0 -0.00000000000E+00 -0.00000000000E+00 -0.45593999997E+02  0.45594000000E+02  0.51100000000E-03 0. -1.
    9900012    2    1    2    0    0 -0.13051671237E+02 -0.55286781131E+01  0.28562341398E+02  0.59301956816E+02  0.50000023324E+02 0.  0.
         12    1    1    2    0    0  0.13051671237E+02  0.55286781131E+01 -0.28562341398E+02  0.31886043184E+02  0.00000000000E+00 0. -1.
         11    1    3    3    0    0  0.72780371815E+01  0.54779589924E+01 -0.24835387255E+01  0.94417066678E+01  0.51100000000E-03 0. -1.
        -11    1    3    3    0    0 -0.11007709978E+02  0.32275973673E+01 -0.29496860036E+01  0.11844311356E+02  0.51100000000E-03 0.  1.
         12    1    3    3    0    0 -0.93219984404E+01 -0.14234234473E+02  0.33995566127E+02  0.38015938792E+02  0.00000000000E+00 0. -1.
</event>
<event>
 7    1  0.5662448E-012  0.5930194E+02  0.7816164E-02  0.1266605E+00
        -11   -1    0    0    0    0  0.00000000000E+00  0.00000000000E+00  0.45593999997E+02  0.45594000000E+02  0.51100000000E-03 0.  1.
         11   -1    0    0    0    0 -0.00000000000E+00 -0.00000000000E+00 -0.45593999997E+02  0.45594000000E+02  0.51100000000E-03 0. -1.
    9900012    2    1    2    0    0  0.27940990501E+01  0.26897975090E+02  0.16894160714E+02  0.59301941610E+02  0.49999995590E+02 0.  0.
         12    1    1    2    0    0 -0.27940990501E+01 -0.26897975090E+02 -0.16894160714E+02  0.31886058390E+02  0.00000000000E+00 0. -1.
         11    1    3    3    0    0 -0.23527707744E+01  0.23595123295E+02 -0.11062796245E+02  0.26165833345E+02  0.51100000000E-03 0. -1.
        -11    1    3    3    0    0  0.97447865314E+01  0.46620937536E+01  0.10620884124E+02  0.15149229767E+02  0.51100000000E-03 0.  1.
        -12    1    3    3    0    0 -0.45979167068E+01 -0.13592419580E+01  0.17336072835E+02  0.17986878498E+02  0.00000000000E+00 0.  1.
</event>
<event>
 7    1  0.5662448E-012  0.5930191E+02  0.7816164E-02  0.1266605E+00
        -11   -1    0    0    0    0  0.00000000000E+00  0.00000000000E+00  0.45593999997E+02  0.45594000000E+02  0.51100000000E-03 0.  1.
         11   -1    0    0    0    0 -0.00000000000E+00 -0.00000000000E+00 -0.45593999997E+02  0.45594000000E+02  0.51100000000E-03 0. -1.
    9900012    2    1    2    0    0 -0.20039763800E+01  0.26293882867E+02  0.17925915159E+02  0.59301911625E+02  0.49999940905E+02 0.  0.
         12    1    1    2    0    0  0.20039763800E+01 -0.26293882867E+02 -0.17925915159E+02  0.31886088375E+02  0.00000000000E+00 0. -1.
         11    1    3    3    0    0  0.84749366749E+01  0.12594993265E+02  0.18232109555E+02  0.23724844069E+02  0.51100000000E-03 0. -1.
        -11    1    3    3    0    0  0.10850281086E+02  0.80034932699E+01 -0.64175096887E+00  0.13498012769E+02  0.51100000000E-03 0.  1.
         12    1    3    3    0    0 -0.21329194141E+02  0.56953963325E+01  0.33555657307E+00  0.22079054787E+02  0.00000000000E+00 0. -1.
</event>
<event>
 7    1  0.5662448E-012  0.5930194E+02  0.7816164E-02  0.1266605E+00
        -11   -1    0    0    0    0  0.00000000000E+00  0.00000000000E+00  0.45593999997E+02  0.45594000000E+02  0.51100000000E-03 0.  1.
         11   -1    0    0    0    0 -0.00000000000E+00 -0.00000000000E+00 -0.45593999997E+02  0.45594000000E+02  0.51100000000E-03 0. -1.
    9900012    2    1    2    0    0 -0.44838851072E+01  0.19493120387E+02  0.24832113498E+02  0.59301939898E+02  0.49999992468E+02 0.  0.
         12    1    1    2    0    0  0.44838851072E+01 -0.19493120387E+02 -0.24832113498E+02  0.31886060102E+02  0.00000000000E+00 0. -1.
         11    1    3    3    0    0 -0.30693301566E+01  0.67916154302E+01 -0.13864698356E+02  0.15740924005E+02  0.51100000000E-03 0. -1.
        -11    1    3    3    0    0 -0.52058721950E+01 -0.32878363180E+00  0.18553649870E+02  0.19272963648E+02  0.51100000000E-03 0.  1.
        -12    1    3    3    0    0  0.37913172444E+01  0.13030288588E+02  0.20143161984E+02  0.24288052245E+02  0.00000000000E+00 0.  1.
</event>
<event>
 7    1  0.5662448E-012  0.5930194E+02  0.7816164E-02  0.1266605E+00
        -11   -1    0    0    0    0  0.00000000000E+00  0.00000000000E+00  0.45593999997E+02  0.45594000000E+02  0.51100000000E-03 0. -1.
         11   -1    0    0    0    0 -0.00000000000E+00 -0.00000000000E+00 -0.45593999997E+02  0.45594000000E+02  0.51100000000E-03 0.  1.
    9900012    2    1    2    0    0 -0.24956497970E+02  0.30131739433E+00  0.19844480666E+02  0.59301937276E+02  0.49999987687E+02 0.  0.
         12    1    1    2    0    0  0.24956497970E+02 -0.30131739433E+00 -0.19844480666E+02  0.31886062724E+02  0.00000000000E+00 0. -1.
         11    1    3    3    0    0 -0.10265439369E+02  0.17301261917E+02  0.44881150463E+01  0.20612037412E+02  0.51100000000E-03 0. -1.
        -11    1    3    3    0    0  0.43694028492E+01  0.22195479403E+01 -0.32168353040E+01  0.58622609932E+01  0.51100000000E-03 0.  1.
         12    1    3    3    0    0 -0.19060461451E+02 -0.19219492463E+02  0.18573200924E+02  0.32827638871E+02  0.00000000000E+00 0. -1.
</event>
<event>
 7    1  0.5662448E-012  0.5930194E+02  0.7816164E-02  0.1266605E+00
        -11   -1    0    0    0    0  0.00000000000E+00  0.00000000000E+00  0.45593999997E+02  0.45594000000E+02  0.51100000000E-03 0. -1.
         11   -1    0    0    0    0 -0.00000000000E+00 -0.00000000000E+00 -0.45593999997E+02  0.45594000000E+02  0.51100000000E-03 0.  1.
    9900012    2    1    2    0    0 -0.15223614412E+02  0.81269040234E+01 -0.26812602156E+02  0.59301942872E+02  0.49999997893E+02 0.  0.
         12    1    1    2    0    0  0.15223614412E+02 -0.81269040234E+01  0.26812602156E+02  0.31886057128E+02  0.00000000000E+00 0. -1.
         11    1    3    3    0    0 -0.15202396632E+02 -0.44685197813E+01 -0.16936793448E+02  0.23193436679E+02  0.51100000000E-03 0. -1.
        -11    1    3    3    0    0 -0.15739227424E+02  0.58992405300E+01 -0.88422175693E+01  0.18992343998E+02  0.51100000000E-03 0.  1.
        -12    1    3    3    0    0  0.15718009645E+02  0.66961832747E+01 -0.10335911385E+01  0.17116162195E+02  0.00000000000E+00 0.  1.
</event>
<event>
 7    1  0.5662448E-012  0.5930195E+02  0.7816164E-02  0.1266605E+00
        -11   -1    0    0    0    0  0.00000000000E+00  0.00000000000E+00  0.45593999997E+02  0.45594000000E+02  0.51100000000E-03 0.  1.
         11   -1    0    0    0    0 -0.00000000000E+00 -0.00000000000E+00 -0.45593999997E+02  0.45594000000E+02  0.51100000000E-03 0. -1.
    9900012    2    1    2    0    0 -0.13717548911E+02  0.87531830344E+00  0.28771218958E+02  0.59301947083E+02  0.50000005573E+02 0.  0.
         12    1    1    2    0    0  0.13717548911E+02 -0.87531830344E+00 -0.28771218958E+02  0.31886052917E+02  0.00000000000E+00 0. -1.
         11    1    3    3    0    0 -0.17013169140E+02  0.66158840876E+00  0.10211650437E+02  0.19853549514E+02  0.51100000000E-03 0. -1.
        -11    1    3    3    0    0 -0.39285145314E+01 -0.93974175940E+01  0.24134212977E+02  0.26195513359E+02  0.51100000000E-03 0.  1.
        -12    1    3    3    0    0  0.72241347597E+01  0.96111474887E+01 -0.55746444561E+01  0.13252884210E+02  0.00000000000E+00 0.  1.
</event>
<event>
 7    1  0.5662448E-012  0.5930193E+02  0.7816164E-02  0.1266605E+00
        -11   -1    0    0    0    0  0.00000000000E+00  0.00000000000E+00  0.45593999997E+02  0.45594000000E+02  0.51100000000E-03 0.  1.
         11   -1    0    0    0    0 -0.00000000000E+00 -0.00000000000E+00 -0.45593999997E+02  0.45594000000E+02  0.51100000000E-03 0. -1.
    9900012    2    1    2    0    0  0.21945237677E+02 -0.21986848160E+02 -0.71907074538E+01  0.59301933726E+02  0.49999981212E+02 0.  0.
         12    1    1    2    0    0 -0.21945237677E+02  0.21986848160E+02  0.71907074538E+01  0.31886066274E+02  0.00000000000E+00 0. -1.
         11    1    3    3    0    0 -0.52970807355E+01  0.80779119389E+01  0.42038213478E+01  0.10534886796E+02  0.51100000000E-03 0. -1.
        -11    1    3    3    0    0  0.29543564211E+01 -0.56728558267E+01  0.72107654136E+01  0.96387059922E+01  0.51100000000E-03 0.  1.
         12    1    3    3    0    0  0.24287961992E+02 -0.24391904273E+02 -0.18605294215E+02  0.39128340938E+02  0.00000000000E+00 0. -1.
</event>
<event>
 7    1  0.5662448E-012  0.5930195E+02  0.7816164E-02  0.1266605E+00
        -11   -1    0    0    0    0  0.00000000000E+00  0.00000000000E+00  0.45593999997E+02  0.45594000000E+02  0.51100000000E-03 0.  1.
         11   -1    0    0    0    0 -0.00000000000E+00 -0.00000000000E+00 -0.45593999997E+02  0.45594000000E+02  0.51100000000E-03 0. -1.
    9900012    2    1    2    0    0 -0.17628067707E+02 -0.10153302824E+02  0.24553651818E+02  0.59301950591E+02  0.50000011970E+02 0.  0.
         12    1    1    2    0    0  0.17628067707E+02  0.10153302824E+02 -0.24553651818E+02  0.31886049409E+02  0.00000000000E+00 0. -1.
         11    1    3    3    0    0 -0.92120482148E-02 -0.10578722728E+02  0.33031614032E+01  0.11082433620E+02  0.51100000000E-03 0. -1.
        -11    1    3    3    0    0 -0.60323928215E+01 -0.11550351193E+02  0.27493438655E+02  0.30425146592E+02  0.51100000000E-03 0.  1.
        -12    1    3    3    0    0 -0.11586462837E+02  0.11975771097E+02 -0.62429482403E+01  0.17794370379E+02  0.00000000000E+00 0.  1.
</event>
<event>
 7    1  0.5662448E-012  0.5930193E+02  0.7816164E-02  0.1266605E+00
        -11   -1    0    0    0    0  0.00000000000E+00  0.00000000000E+00  0.45593999997E+02  0.45594000000E+02  0.51100000000E-03 0. -1.
         11   -1    0    0    0    0 -0.00000000000E+00 -0.00000000000E+00 -0.45593999997E+02  0.45594000000E+02  0.51100000000E-03 0.  1.
    9900012    2    1    2    0    0  0.78356727572E+01 -0.12192661298E+02 -0.28401806952E+02  0.59301931016E+02  0.49999976270E+02 0.  0.
         12    1    1    2    0    0 -0.78356727572E+01  0.12192661298E+02  0.28401806952E+02  0.31886068984E+02  0.00000000000E+00 0. -1.
         11    1    3    3    0    0 -0.12058026895E+02 -0.69498658874E+00 -0.22523754847E+02  0.25557749346E+02  0.51100000000E-03 0. -1.
        -11    1    3    3    0    0  0.34425941046E+01 -0.15412927882E+02 -0.58272993065E+01  0.16833514711E+02  0.51100000000E-03 0.  1.
        -12    1    3    3    0    0  0.16451105548E+02  0.39152531724E+01 -0.50752798283E-01  0.16910666959E+02  0.00000000000E+00 0.  1.
</event>
<event>
 7    1  0.5662448E-012  0.5930195E+02  0.7816164E-02  0.1266605E+00
        -11   -1    0    0    0    0  0.00000000000E+00  0.00000000000E+00  0.45593999997E+02  0.45594000000E+02  0.51100000000E-03 0.  1.
         11   -1    0    0    0    0 -0.00000000000E+00 -0.00000000000E+00 -0.45593999997E+02  0.45594000000E+02  0.51100000000E-03 0. -1.
    9900012    2    1    2    0    0  0.15060892077E+02 -0.66603813847E+01  0.27304383101E+02  0.59301945260E+02  0.50000002248E+02 0.  0.
         12    1    1    2    0    0 -0.15060892077E+02  0.66603813847E+01 -0.27304383101E+02  0.31886054740E+02  0.00000000000E+00 0. -1.
         11    1    3    3    0    0 -0.10001363798E+02 -0.34253754197E+01  0.16194728534E+01  0.10695006646E+02  0.51100000000E-03 0. -1.
        -11    1    3    3    0    0  0.87975647087E+01 -0.70715727836E+01  0.29396188988E+02  0.31488731536E+02  0.51100000000E-03 0.  1.
         12    1    3    3    0    0  0.16264691166E+02  0.38365668185E+01 -0.37112787412E+01  0.17118207078E+02  0.00000000000E+00 0. -1.
</event>
<event>
 7    1  0.5662448E-012  0.5930192E+02  0.7816164E-02  0.1266605E+00
        -11   -1    0    0    0    0  0.00000000000E+00  0.00000000000E+00  0.45593999997E+02  0.45594000000E+02  0.51100000000E-03 0. -1.
         11   -1    0    0    0    0 -0.00000000000E+00 -0.00000000000E+00 -0.45593999997E+02  0.45594000000E+02  0.51100000000E-03 0.  1.
    9900012    2    1    2    0    0 -0.10874855452E+02 -0.20964892191E+02 -0.21422719426E+02  0.59301920070E+02  0.49999956307E+02 0.  0.
         12    1    1    2    0    0  0.10874855452E+02  0.20964892191E+02  0.21422719426E+02  0.31886079930E+02  0.00000000000E+00 0. -1.
         11    1    3    3    0    0  0.76596277710E+01 -0.68893237731E+01 -0.17712717246E+02  0.20490803599E+02  0.51100000000E-03 0. -1.
        -11    1    3    3    0    0  0.25335998300E+01 -0.13786740890E+02 -0.95320244775E+01  0.16951484990E+02  0.51100000000E-03 0.  1.
         12    1    3    3    0    0 -0.21068083053E+02 -0.28882752860E+00  0.58220222972E+01  0.21859631481E+02  0.00000000000E+00 0. -1.
</event>
<event>
 7    1  0.5662448E-012  0.5930194E+02  0.7816164E-02  0.1266605E+00
        -11   -1    0    0    0    0  0.00000000000E+00  0.00000000000E+00  0.45593999997E+02  0.45594000000E+02  0.51100000000E-03 0.  1.
         11   -1    0    0    0    0 -0.00000000000E+00 -0.00000000000E+00 -0.45593999997E+02  0.45594000000E+02  0.51100000000E-03 0. -1.
    9900012    2    1    2    0    0 -0.22614210409E+02 -0.21981925374E+02 -0.47025005969E+01  0.59301936157E+02  0.49999985646E+02 0.  0.
         12    1    1    2    0    0  0.22614210409E+02  0.21981925374E+02  0.47025005969E+01  0.31886063843E+02  0.00000000000E+00 0. -1.
         11    1    3    3    0    0 -0.21302401914E+02 -0.13310155259E+02 -0.69724544369E+01  0.26068518973E+02  0.51100000000E-03 0. -1.
        -11    1    3    3    0    0 -0.62505975556E+01 -0.17986973228E+02 -0.58557019900E+01  0.19922108868E+02  0.51100000000E-03 0.  1.
         12    1    3    3    0    0  0.49387890605E+01  0.93152031129E+01  0.81256558299E+01  0.13311308316E+02  0.00000000000E+00 0. -1.
</event>
<event>
 7    1  0.5662448E-012  0.5930195E+02  0.7816164E-02  0.1266605E+00
        -11   -1    0    0    0    0  0.00000000000E+00  0.00000000000E+00  0.45593999997E+02  0.45594000000E+02  0.51100000000E-03 0.  1.
         11   -1    0    0    0    0 -0.00000000000E+00 -0.00000000000E+00 -0.45593999997E+02  0.45594000000E+02  0.51100000000E-03 0. -1.
    9900012    2    1    2    0    0 -0.19742173572E+02  0.22399482094E+02  0.11190626387E+02  0.59301947651E+02  0.50000006608E+02 0.  0.
         12    1    1    2    0    0  0.19742173572E+02 -0.22399482094E+02 -0.11190626387E+02  0.31886052349E+02  0.00000000000E+00 0. -1.
         11    1    3    3    0    0  0.33643874362E+01 -0.66234836264E+01 -0.11049269072E+01  0.75106925048E+01  0.51100000000E-03 0. -1.
        -11    1    3    3    0    0 -0.92349280263E+01 -0.70784449374E+01  0.27817892418E+01  0.11963554239E+02  0.51100000000E-03 0.  1.
        -12    1    3    3    0    0 -0.13871632982E+02  0.36101410658E+02  0.95137640527E+01  0.39827700907E+02  0.00000000000E+00 0.  1.
</event>
<event>
 7    1  0.5662448E-012  0.5930194E+02  0.7816164E-02  0.1266605E+00
        -11   -1    0    0    0    0  0.00000000000E+00  0.00000000000E+00  0.45593999997E+02  0.45594000000E+02  0.51100000000E-03 0.  1.
         11   -1    0    0    0    0 -0.00000000000E+00 -0.00000000000E+00 -0.45593999997E+02  0.45594000000E+02  0.51100000000E-03 0. -1.
    9900012    2    1    2    0    0 -0.22342427781E+02 -0.61365904060E+01  0.21906134357E+02  0.59301944373E+02  0.50000000630E+02 0.  0.
         12    1    1    2    0    0  0.22342427781E+02  0.61365904060E+01 -0.21906134357E+02  0.31886055627E+02  0.00000000000E+00 0. -1.
         11    1    3    3    0    0 -0.12913213980E+02 -0.10002398093E+02 -0.72851518433E+01  0.17884979747E+02  0.51100000000E-03 0. -1.
        -11    1    3    3    0    0 -0.13519068989E+02 -0.80466894696E+01  0.10634886689E+02  0.18989872377E+02  0.51100000000E-03 0.  1.
        -12    1    3    3    0    0  0.40898551875E+01  0.11912497157E+02  0.18556399512E+02  0.22427092250E+02  0.00000000000E+00 0.  1.
</event>
<event>
 7    1  0.5662448E-012  0.5930188E+02  0.7816164E-02  0.1266605E+00
        -11   -1    0    0    0    0  0.00000000000E+00  0.00000000000E+00  0.45593999997E+02  0.45594000000E+02  0.51100000000E-03 0.  1.
         11   -1    0    0    0    0 -0.00000000000E+00 -0.00000000000E+00 -0.45593999997E+02  0.45594000000E+02  0.51100000000E-03 0. -1.
    9900012    2    1    2    0    0  0.17181715749E+02  0.67676935770E+01  0.25994449744E+02  0.59301883116E+02  0.49999888911E+02 0.  0.
         12    1    1    2    0    0 -0.17181715749E+02 -0.67676935770E+01 -0.25994449744E+02  0.31886116884E+02  0.00000000000E+00 0. -1.
         11    1    3    3    0    0  0.44605799391E+01  0.62143093620E+01  0.12857042631E+02  0.14960546772E+02  0.51100000000E-03 0. -1.
        -11    1    3    3    0    0  0.24161693389E+02 -0.97100714459E+00 -0.31432527778E+01  0.24384632878E+02  0.51100000000E-03 0.  1.
         12    1    3    3    0    0 -0.11440557579E+02  0.15243913596E+01  0.16280659892E+02  0.19956703466E+02  0.00000000000E+00 0. -1.
</event>
<event>
 7    1  0.5662448E-012  0.5930195E+02  0.7816164E-02  0.1266605E+00
        -11   -1    0    0    0    0  0.00000000000E+00  0.00000000000E+00  0.45593999997E+02  0.45594000000E+02  0.51100000000E-03 0. -1.
         11   -1    0    0    0    0 -0.00000000000E+00 -0.00000000000E+00 -0.45593999997E+02  0.45594000000E+02  0.51100000000E-03 0.  1.
    9900012    2    1    2    0    0  0.16624147343E+02 -0.25285656911E+02 -0.10049550678E+02  0.59301949930E+02  0.50000010764E+02 0.  0.
         12    1    1    2    0    0 -0.16624147343E+02  0.25285656911E+02  0.10049550678E+02  0.31886050070E+02  0.00000000000E+00 0. -1.
         11    1    3    3    0    0 -0.43185304866E+01  0.19669262096E+01 -0.80017045477E+01  0.93029984525E+01  0.51100000000E-03 0. -1.
        -11    1    3    3    0    0 -0.42873206220E+00  0.82609203207E+01  0.14707031384E+01  0.84017607504E+01  0.51100000000E-03 0.  1.
        -12    1    3    3    0    0  0.21371409891E+02 -0.35513503441E+02 -0.35185492682E+01  0.41597190727E+02  0.00000000000E+00 0.  1.
</event>
<event>
 7    1  0.5662448E-012  0.5930199E+02  0.7816164E-02  0.1266605E+00
        -11   -1    0    0    0    0  0.00000000000E+00  0.00000000000E+00  0.45593999997E+02  0.45594000000E+02  0.51100000000E-03 0. -1.
         11   -1    0    0    0    0 -0.00000000000E+00 -0.00000000000E+00 -0.45593999997E+02  0.45594000000E+02  0.51100000000E-03 0.  1.
    9900012    2    1    2    0    0 -0.99630521226E+01 -0.30289024933E+02 -0.17320568694E+00  0.59301993050E+02  0.50000089405E+02 0.  0.
         12    1    1    2    0    0  0.99630521226E+01  0.30289024933E+02  0.17320568694E+00  0.31886006950E+02  0.00000000000E+00 0. -1.
         11    1    3    3    0    0  0.13842804579E+02  0.11254295401E+01 -0.85527961049E+01  0.16310737314E+02  0.51100000000E-03 0. -1.
        -11    1    3    3    0    0 -0.95734252199E+01 -0.68120317096E+01  0.86119272688E+01  0.14567756794E+02  0.51100000000E-03 0.  1.
        -12    1    3    3    0    0 -0.14232431482E+02 -0.24602422763E+02 -0.23233685090E+00  0.28423498942E+02  0.00000000000E+00 0.  1.
</event>
<event>
 7    1  0.5662448E-012  0.5930191E+02  0.7816164E-02  0.1266605E+00
        -11   -1    0    0    0    0  0.00000000000E+00  0.00000000000E+00  0.45593999997E+02  0.45594000000E+02  0.51100000000E-03 0.  1.
         11   -1    0    0    0    0 -0.00000000000E+00 -0.00000000000E+00 -0.45593999997E+02  0.45594000000E+02  0.51100000000E-03 0. -1.
    9900012    2    1    2    0    0 -0.18070912057E+01  0.24375456071E+02  0.20476670304E+02  0.59301914257E+02  0.49999945705E+02 0.  0.
         12    1    1    2    0    0  0.18070912057E+01 -0.24375456071E+02 -0.20476670304E+02  0.31886085743E+02  0.00000000000E+00 0. -1.
         11    1    3    3    0    0  0.13529341987E+02  0.68480052489E+01 -0.87418802742E+01  0.17503106623E+02  0.51100000000E-03 0. -1.
        -11    1    3    3    0    0 -0.66124842482E+01  0.82062838511E+01  0.71073738104E+00  0.10562821141E+02  0.51100000000E-03 0.  1.
         12    1    3    3    0    0 -0.87239489443E+01  0.93211669707E+01  0.28507813197E+02  0.31235986492E+02  0.00000000000E+00 0. -1.
</event>
<event>
 7    1  0.5662448E-012  0.5930204E+02  0.7816164E-02  0.1266604E+00
        -11   -1    0    0    0    0  0.00000000000E+00  0.00000000000E+00  0.45593999997E+02  0.45594000000E+02  0.51100000000E-03 0.  1.
         11   -1    0    0    0    0 -0.00000000000E+00 -0.00000000000E+00 -0.45593999997E+02  0.45594000000E+02  0.51100000000E-03 0. -1.
    9900012    2    1    2    0    0 -0.23679338537E+02 -0.21024553563E+02 -0.37378081836E+01  0.59302044846E+02  0.50000183868E+02 0.  0.
         12    1    1    2    0    0  0.23679338537E+02  0.21024553563E+02  0.37378081836E+01  0.31885955154E+02  0.00000000000E+00 0. -1.
         11    1    3    3    0    0  0.14487821043E+00  0.13431729322E+02 -0.57576041454E+01  0.14614456816E+02  0.51100000000E-03 0. -1.
        -11    1    3    3    0    0 -0.65927888554E+01 -0.14319661385E+02  0.77589074948E+01  0.17570378848E+02  0.51100000000E-03 0.  1.
        -12    1    3    3    0    0 -0.17231427892E+02 -0.20136621499E+02 -0.57391115330E+01  0.27117209182E+02  0.00000000000E+00 0.  1.
</event>
<event>
 7    1  0.5662448E-012  0.5930193E+02  0.7816164E-02  0.1266605E+00
        -11   -1    0    0    0    0  0.00000000000E+00  0.00000000000E+00  0.45593999997E+02  0.45594000000E+02  0.51100000000E-03 0.  1.
         11   -1    0    0    0    0 -0.00000000000E+00 -0.00000000000E+00 -0.45593999997E+02  0.45594000000E+02  0.51100000000E-03 0. -1.
    9900012    2    1    2    0    0 -0.28768780850E+01 -0.10951278950E+02  0.29807958901E+02  0.59301931694E+02  0.49999977507E+02 0.  0.
         12    1    1    2    0    0  0.28768780850E+01  0.10951278950E+02 -0.29807958901E+02  0.31886068306E+02  0.00000000000E+00 0. -1.
         11    1    3    3    0    0  0.61217377112E+01  0.10579225908E+02  0.86373771075E+01  0.14966628778E+02  0.51100000000E-03 0. -1.
        -11    1    3    3    0    0  0.27889884136E+01 -0.16297326744E+02  0.25790759284E+02  0.30635674957E+02  0.51100000000E-03 0.  1.
        -12    1    3    3    0    0 -0.11787604210E+02 -0.52331781142E+01 -0.46201774904E+01  0.13699627959E+02  0.00000000000E+00 0.  1.
</event>
<event>
 7    1  0.5662448E-012  0.5930209E+02  0.7816164E-02  0.1266604E+00
        -11   -1    0    0    0    0  0.00000000000E+00  0.00000000000E+00  0.45593999997E+02  0.45594000000E+02  0.51100000000E-03 0.  1.
         11   -1    0    0    0    0 -0.00000000000E+00 -0.00000000000E+00 -0.45593999997E+02  0.45594000000E+02  0.51100000000E-03 0. -1.
    9900012    2    1    2    0    0 -0.31561936803E+02 -0.22395566311E+01 -0.39420617946E+01  0.59302089007E+02  0.50000264407E+02 0.  0.
         12    1    1    2    0    0  0.31561936803E+02  0.22395566311E+01  0.39420617946E+01  0.31885910993E+02  0.00000000000E+00 0. -1.
         11    1    3    3    0    0 -0.35727406155E+02 -0.14436005078E+02  0.68535976184E+00  0.38539791274E+02  0.51100000000E-03 0.  1.
        -11    1    3    3    0    0 -0.75510533630E+00  0.43778570167E+01 -0.93759984807E+01  0.10375218740E+02  0.51100000000E-03 0. -1.
        -12    1    3    3    0    0  0.49205746885E+01  0.78185914303E+01  0.47485769242E+01  0.10387078994E+02  0.00000000000E+00 0.  1.
</event>
<event>
 7    1  0.5662448E-012  0.5930197E+02  0.7816164E-02  0.1266605E+00
        -11   -1    0    0    0    0  0.00000000000E+00  0.00000000000E+00  0.45593999997E+02  0.45594000000E+02  0.51100000000E-03 0. -1.
         11   -1    0    0    0    0 -0.00000000000E+00 -0.00000000000E+00 -0.45593999997E+02  0.45594000000E+02  0.51100000000E-03 0.  1.
    9900012    2    1    2    0    0  0.13538126619E+01  0.15835837920E+02 -0.27642586440E+02  0.59301966122E+02  0.50000040295E+02 0.  0.
         12    1    1    2    0    0 -0.13538126619E+01 -0.15835837920E+02  0.27642586440E+02  0.31886033878E+02  0.00000000000E+00 0. -1.
         11    1    3    3    0    0  0.97718016472E+00  0.15490756697E+02 -0.69472338869E+01  0.17005366302E+02  0.51100000000E-03 0. -1.
        -11    1    3    3    0    0 -0.74519386846E+00  0.95132819152E+01 -0.28593408780E+02  0.30143670523E+02  0.51100000000E-03 0.  1.
         12    1    3    3    0    0  0.11218263656E+01 -0.91682006926E+01  0.78980562266E+01  0.12152929297E+02  0.00000000000E+00 0. -1.
</event>
<event>
 7    1  0.5662448E-012  0.5930199E+02  0.7816164E-02  0.1266605E+00
        -11   -1    0    0    0    0  0.00000000000E+00  0.00000000000E+00  0.45593999997E+02  0.45594000000E+02  0.51100000000E-03 0.  1.
         11   -1    0    0    0    0 -0.00000000000E+00 -0.00000000000E+00 -0.45593999997E+02  0.45594000000E+02  0.51100000000E-03 0. -1.
    9900012    2    1    2    0    0 -0.23505632053E+02  0.87658470082E-01  0.21545193912E+02  0.59301987347E+02  0.50000079003E+02 0.  0.
         12    1    1    2    0    0  0.23505632053E+02 -0.87658470082E-01 -0.21545193912E+02  0.31886012653E+02  0.00000000000E+00 0. -1.
         11    1    3    3    0    0 -0.19967742775E+01 -0.13259773131E+02 -0.72431697129E+01  0.15240478954E+02  0.51100000000E-03 0. -1.
        -11    1    3    3    0    0 -0.59780974728E+01 -0.47306705850E+01  0.14202705035E+02  0.16119358676E+02  0.51100000000E-03 0.  1.
         12    1    3    3    0    0 -0.15530760302E+02  0.18078102186E+02  0.14585658591E+02  0.27942149716E+02  0.00000000000E+00 0. -1.
</event>
<event>
 7    1  0.5662448E-012  0.5930192E+02  0.7816164E-02  0.1266605E+00
        -11   -1    0    0    0    0  0.00000000000E+00  0.00000000000E+00  0.45593999997E+02  0.45594000000E+02  0.51100000000E-03 0. -1.
         11   -1    0    0    0    0 -0.00000000000E+00 -0.00000000000E+00 -0.45593999997E+02  0.45594000000E+02  0.51100000000E-03 0.  1.
    9900012    2    1    2    0    0 -0.15217777012E+02  0.81143918759E+01 -0.26819734600E+02  0.59301917507E+02  0.49999951633E+02 0.  0.
         12    1    1    2    0    0  0.15217777012E+02 -0.81143918759E+01  0.26819734600E+02  0.31886082493E+02  0.00000000000E+00 0. -1.
         11    1    3    3    0    0 -0.24216089105E+02  0.18247080742E+02 -0.25884088623E+02  0.39866790330E+02  0.51100000000E-03 0. -1.
        -11    1    3    3    0    0 -0.97842388243E+00 -0.19910350500E+01 -0.53745023729E+01  0.58143623796E+01  0.51100000000E-03 0.  1.
         12    1    3    3    0    0  0.99767359750E+01 -0.81416538157E+01  0.44388563957E+01  0.13620764798E+02  0.00000000000E+00 0. -1.
</event>
<event>
 7    1  0.5662448E-012  0.5930196E+02  0.7816164E-02  0.1266605E+00
        -11   -1    0    0    0    0  0.00000000000E+00  0.00000000000E+00  0.45593999997E+02  0.45594000000E+02  0.51100000000E-03 0. -1.
         11   -1    0    0    0    0 -0.00000000000E+00 -0.00000000000E+00 -0.45593999997E+02  0.45594000000E+02  0.51100000000E-03 0.  1.
    9900012    2    1    2    0    0 -0.88493790678E+01 -0.27089484235E+02 -0.14302715171E+02  0.59301963444E+02  0.50000035410E+02 0.  0.
         12    1    1    2    0    0  0.88493790678E+01  0.27089484235E+02  0.14302715171E+02  0.31886036556E+02  0.00000000000E+00 0. -1.
         11    1    3    3    0    0 -0.18071621347E+01 -0.37726766332E+01  0.68016706043E+01  0.79850890559E+01  0.51100000000E-03 0. -1.
        -11    1    3    3    0    0  0.66706954190E+01 -0.18632691594E+02  0.59159579123E+01  0.20656087037E+02  0.51100000000E-03 0.  1.
         12    1    3    3    0    0 -0.13712912352E+02 -0.46841160073E+01 -0.27020343688E+02  0.30660787351E+02  0.00000000000E+00 0. -1.
</event>
<event>
 7    1  0.5662448E-012  0.5930195E+02  0.7816164E-02  0.1266605E+00
        -11   -1    0    0    0    0  0.00000000000E+00  0.00000000000E+00  0.45593999997E+02  0.45594000000E+02  0.51100000000E-03 0.  1.
         11   -1    0    0    0    0 -0.00000000000E+00 -0.00000000000E+00 -0.45593999997E+02  0.45594000000E+02  0.51100000000E-03 0. -1.
    9900012    2    1    2    0    0 -0.28111210315E+02 -0.14828787932E+02 -0.25665493963E+01  0.59301948618E+02  0.50000008371E+02 0.  0.
         12    1    1    2    0    0  0.28111210315E+02  0.14828787932E+02  0.25665493963E+01  0.31886051382E+02  0.00000000000E+00 0. -1.
         11    1    3    3    0    0  0.16889545214E+01 -0.45465285917E+01  0.12861012690E+02  0.13745149591E+02  0.51100000000E-03 0.  1.
        -11    1    3    3    0    0  0.43142202058E+01 -0.27099581410E+01 -0.85333442125E+01  0.99385276988E+01  0.51100000000E-03 0. -1.
         12    1    3    3    0    0 -0.34114385042E+02 -0.75723011998E+01 -0.68942178739E+01  0.35618271328E+02  0.00000000000E+00 0. -1.
</event>
<event>
 7    1  0.5662448E-012  0.5930200E+02  0.7816164E-02  0.1266605E+00
        -11   -1    0    0    0    0  0.00000000000E+00  0.00000000000E+00  0.45593999997E+02  0.45594000000E+02  0.51100000000E-03 0. -1.
         11   -1    0    0    0    0 -0.00000000000E+00 -0.00000000000E+00 -0.45593999997E+02  0.45594000000E+02  0.51100000000E-03 0.  1.
    9900012    2    1    2    0    0  0.21851601046E+01 -0.29280163436E+00 -0.31809691126E+02  0.59301998259E+02  0.50000098905E+02 0.  0.
         12    1    1    2    0    0 -0.21851601046E+01  0.29280163436E+00  0.31809691126E+02  0.31886001741E+02  0.00000000000E+00 0. -1.
         11    1    3    3    0    0 -0.67975742353E+01  0.40863415063E+01 -0.13585060634E+02  0.15730831989E+02  0.51100000000E-03 0. -1.
        -11    1    3    3    0    0  0.18680681802E+02  0.57506124451E+00  0.37354173160E+01  0.19059168681E+02  0.51100000000E-03 0.  1.
         12    1    3    3    0    0 -0.96979474619E+01 -0.49542043851E+01 -0.21960047808E+02  0.24511997589E+02  0.00000000000E+00 0. -1.
</event>
<event>
 7    1  0.5662448E-012  0.5930193E+02  0.7816164E-02  0.1266605E+00
        -11   -1    0    0    0    0  0.00000000000E+00  0.00000000000E+00  0.45593999997E+02  0.45594000000E+02  0.51100000000E-03 0.  1.
         11   -1    0    0    0    0 -0.00000000000E+00 -0.00000000000E+00 -0.45593999997E+02  0.45594000000E+02  0.51100000000E-03 0. -1.
    9900012    2    1    2    0    0  0.39804305876E+01  0.63706704315E+01  0.30988576504E+02  0.59301934969E+02  0.49999983479E+02 0.  0.
         12    1    1    2    0    0 -0.39804305876E+01 -0.63706704315E+01 -0.30988576504E+02  0.31886065031E+02  0.00000000000E+00 0. -1.
         11    1    3    3    0    0  0.16820714120E+02  0.11792365091E+02  0.18459334454E+02  0.27617808144E+02  0.51100000000E-03 0. -1.
        -11    1    3    3    0    0  0.77419318158E+01 -0.23121934294E+01  0.52341208301E+01  0.96270331785E+01  0.51100000000E-03 0.  1.
         12    1    3    3    0    0 -0.20582215348E+02 -0.31095012298E+01  0.72951212195E+01  0.22057093646E+02  0.00000000000E+00 0. -1.
</event>
<event>
 7    1  0.5662448E-012  0.5930195E+02  0.7816164E-02  0.1266605E+00
        -11   -1    0    0    0    0  0.00000000000E+00  0.00000000000E+00  0.45593999997E+02  0.45594000000E+02  0.51100000000E-03 0.  1.
         11   -1    0    0    0    0 -0.00000000000E+00 -0.00000000000E+00 -0.45593999997E+02  0.45594000000E+02  0.51100000000E-03 0. -1.
    9900012    2    1    2    0    0  0.83811699249E+01 -0.27497324332E+02  0.13797592042E+02  0.59301946608E+02  0.50000004706E+02 0.  0.
         12    1    1    2    0    0 -0.83811699249E+01  0.27497324332E+02 -0.13797592042E+02  0.31886053392E+02  0.00000000000E+00 0. -1.
         11    1    3    3    0    0 -0.60584132937E+01 -0.36771504416E+01  0.70657080430E+01  0.10007499059E+02  0.51100000000E-03 0. -1.
        -11    1    3    3    0    0 -0.13526010080E+02 -0.47346018599E+01  0.56955413681E+01  0.15421043907E+02  0.51100000000E-03 0.  1.
         12    1    3    3    0    0  0.27965593298E+02 -0.19085572031E+02  0.10363426307E+01  0.33873403642E+02  0.00000000000E+00 0. -1.
</event>
<event>
 7    1  0.5662448E-012  0.5930194E+02  0.7816164E-02  0.1266605E+00
        -11   -1    0    0    0    0  0.00000000000E+00  0.00000000000E+00  0.45593999997E+02  0.45594000000E+02  0.51100000000E-03 0.  1.
         11   -1    0    0    0    0 -0.00000000000E+00 -0.00000000000E+00 -0.45593999997E+02  0.45594000000E+02  0.51100000000E-03 0. -1.
    9900012    2    1    2    0    0 -0.11261186453E+02  0.28867159164E+02  0.75228899608E+01  0.59301936087E+02  0.49999985517E+02 0.  0.
         12    1    1    2    0    0  0.11261186453E+02 -0.28867159164E+02 -0.75228899608E+01  0.31886063913E+02  0.00000000000E+00 0. -1.
         11    1    3    3    0    0  0.58099748432E+01  0.13016502495E+02  0.14467993408E+02  0.20310292425E+02  0.51100000000E-03 0. -1.
        -11    1    3    3    0    0  0.87892612329E+01  0.20261184889E+01 -0.10430388654E+01  0.90798788255E+01  0.51100000000E-03 0.  1.
        -12    1    3    3    0    0 -0.25860422529E+02  0.13824538180E+02 -0.59020645818E+01  0.29911764836E+02  0.00000000000E+00 0.  1.
</event>
<event>
 7    1  0.5662448E-012  0.5930189E+02  0.7816164E-02  0.1266605E+00
        -11   -1    0    0    0    0  0.00000000000E+00  0.00000000000E+00  0.45593999997E+02  0.45594000000E+02  0.51100000000E-03 0. -1.
         11   -1    0    0    0    0 -0.00000000000E+00 -0.00000000000E+00 -0.45593999997E+02  0.45594000000E+02  0.51100000000E-03 0.  1.
    9900012    2    1    2    0    0 -0.21959366203E+02 -0.27375316157E+01 -0.22956836248E+02  0.59301887445E+02  0.49999896806E+02 0.  0.
         12    1    1    2    0    0  0.21959366203E+02  0.27375316157E+01  0.22956836248E+02  0.31886112555E+02  0.00000000000E+00 0. -1.
         11    1    3    3    0    0 -0.34566627960E+01  0.11229185221E+01 -0.11763140040E+02  0.12311820643E+02  0.51100000000E-03 0. -1.
        -11    1    3    3    0    0 -0.89107862518E+01 -0.14305758886E+02 -0.23016120406E+02  0.28527156320E+02  0.51100000000E-03 0.  1.
         12    1    3    3    0    0 -0.95919171550E+01  0.10445308748E+02  0.11822424197E+02  0.18462910481E+02  0.00000000000E+00 0. -1.
</event>
<event>
 7    1  0.5662448E-012  0.5930197E+02  0.7816164E-02  0.1266605E+00
        -11   -1    0    0    0    0  0.00000000000E+00  0.00000000000E+00  0.45593999997E+02  0.45594000000E+02  0.51100000000E-03 0.  1.
         11   -1    0    0    0    0 -0.00000000000E+00 -0.00000000000E+00 -0.45593999997E+02  0.45594000000E+02  0.51100000000E-03 0. -1.
    9900012    2    1    2    0    0 -0.12612501033E+02 -0.26566723862E+02 -0.12322871938E+02  0.59301965880E+02  0.50000039854E+02 0.  0.
         12    1    1    2    0    0  0.12612501033E+02  0.26566723862E+02  0.12322871938E+02  0.31886034120E+02  0.00000000000E+00 0. -1.
         11    1    3    3    0    0 -0.20139828028E+02 -0.62549526759E+01 -0.76262319293E+01  0.22425354394E+02  0.51100000000E-03 0. -1.
        -11    1    3    3    0    0 -0.65677247418E+01 -0.23555884617E+00 -0.98209624993E+01  0.11817013198E+02  0.51100000000E-03 0.  1.
        -12    1    3    3    0    0  0.14095051737E+02 -0.20076212340E+02  0.51243224905E+01  0.25059598288E+02  0.00000000000E+00 0.  1.
</event>
<event>
 7    1  0.5662448E-012  0.5930189E+02  0.7816164E-02  0.1266605E+00
        -11   -1    0    0    0    0  0.00000000000E+00  0.00000000000E+00  0.45593999997E+02  0.45594000000E+02  0.51100000000E-03 0. -1.
         11   -1    0    0    0    0 -0.00000000000E+00 -0.00000000000E+00 -0.45593999997E+02  0.45594000000E+02  0.51100000000E-03 0.  1.
    9900012    2    1    2    0    0  0.81528918644E+01  0.73638778462E+01 -0.29933722577E+02  0.59301888760E+02  0.49999899204E+02 0.  0.
         12    1    1    2    0    0 -0.81528918644E+01 -0.73638778462E+01  0.29933722577E+02  0.31886111240E+02  0.00000000000E+00 0. -1.
         11    1    3    3    0    0  0.12975409703E+02  0.49958950135E+01 -0.65726115020E+01  0.15379188736E+02  0.51100000000E-03 0. -1.
        -11    1    3    3    0    0 -0.14599618746E+01 -0.10105219920E+02 -0.28305237244E+02  0.30090420635E+02  0.51100000000E-03 0.  1.
         12    1    3    3    0    0 -0.33625559642E+01  0.12473202752E+02  0.49441261687E+01  0.13832279389E+02  0.00000000000E+00 0. -1.
</event>
<event>
 7    1  0.5662448E-012  0.5930194E+02  0.7816164E-02  0.1266605E+00
        -11   -1    0    0    0    0  0.00000000000E+00  0.00000000000E+00  0.45593999997E+02  0.45594000000E+02  0.51100000000E-03 0.  1.
         11   -1    0    0    0    0 -0.00000000000E+00 -0.00000000000E+00 -0.45593999997E+02  0.45594000000E+02  0.51100000000E-03 0. -1.
    9900012    2    1    2    0    0  0.75369116040E+01 -0.10068878796E+02  0.29300737769E+02  0.59301943634E+02  0.49999999282E+02 0.  0.
         12    1    1    2    0    0 -0.75369116040E+01  0.10068878796E+02 -0.29300737769E+02  0.31886056366E+02  0.00000000000E+00 0. -1.
         11    1    3    3    0    0 -0.53292536162E+01  0.58959720437E+01  0.39104477540E+01  0.88574845381E+01  0.51100000000E-03 0. -1.
        -11    1    3    3    0    0  0.52949705146E+01 -0.12305184936E+02  0.35117732385E+02  0.37586026888E+02  0.51100000000E-03 0.  1.
         12    1    3    3    0    0  0.75711947056E+01 -0.36596659032E+01 -0.97274423698E+01  0.12858432208E+02  0.00000000000E+00 0. -1.
</event>
<event>
 7    1  0.5662448E-012  0.5930193E+02  0.7816164E-02  0.1266605E+00
        -11   -1    0    0    0    0  0.00000000000E+00  0.00000000000E+00  0.45593999997E+02  0.45594000000E+02  0.51100000000E-03 0.  1.
         11   -1    0    0    0    0 -0.00000000000E+00 -0.00000000000E+00 -0.45593999997E+02  0.45594000000E+02  0.51100000000E-03 0. -1.
    9900012    2    1    2    0    0 -0.15745241667E+02 -0.59521147330E+00  0.27721013051E+02  0.59301929743E+02  0.49999973948E+02 0.  0.
         12    1    1    2    0    0  0.15745241667E+02  0.59521147330E+00 -0.27721013051E+02  0.31886070257E+02  0.00000000000E+00 0. -1.
         11    1    3    3    0    0 -0.80572621795E+01 -0.51913252302E+01  0.20321712726E+02  0.22468674635E+02  0.51100000000E-03 0. -1.
        -11    1    3    3    0    0 -0.13680508113E+01 -0.11753321182E+01  0.20829674830E+02  0.20907613981E+02  0.51100000000E-03 0.  1.
         12    1    3    3    0    0 -0.63199286767E+01  0.57714458751E+01 -0.13430374504E+02  0.15925641127E+02  0.00000000000E+00 0. -1.
</event>
<event>
 7    1  0.5662448E-012  0.5930193E+02  0.7816164E-02  0.1266605E+00
        -11   -1    0    0    0    0  0.00000000000E+00  0.00000000000E+00  0.45593999997E+02  0.45594000000E+02  0.51100000000E-03 0. -1.
         11   -1    0    0    0    0 -0.00000000000E+00 -0.00000000000E+00 -0.45593999997E+02  0.45594000000E+02  0.51100000000E-03 0.  1.
    9900012    2    1    2    0    0  0.13399120981E+02  0.28674467661E+02  0.38678085411E+01  0.59301929661E+02  0.49999973799E+02 0.  0.
         12    1    1    2    0    0 -0.13399120981E+02 -0.28674467661E+02 -0.38678085411E+01  0.31886070339E+02  0.00000000000E+00 0. -1.
         11    1    3    3    0    0  0.26340297626E+00  0.10133522955E+02  0.90332454961E+00  0.10177114724E+02  0.51100000000E-03 0. -1.
        -11    1    3    3    0    0  0.39769424164E+00  0.18532779885E+02 -0.17191060371E+02  0.25281508023E+02  0.51100000000E-03 0.  1.
         12    1    3    3    0    0  0.12738023763E+02  0.81648210173E-02  0.20155544362E+02  0.23843306914E+02  0.00000000000E+00 0. -1.
</event>
<event>
 7    1  0.5662448E-012  0.5930194E+02  0.7816164E-02  0.1266605E+00
        -11   -1    0    0    0    0  0.00000000000E+00  0.00000000000E+00  0.45593999997E+02  0.45594000000E+02  0.51100000000E-03 0.  1.
         11   -1    0    0    0    0 -0.00000000000E+00 -0.00000000000E+00 -0.45593999997E+02  0.45594000000E+02  0.51100000000E-03 0. -1.
    9900012    2    1    2    0    0 -0.33848084429E+01 -0.86893534015E+01  0.30491952558E+02  0.59301937817E+02  0.49999988673E+02 0.  0.
         12    1    1    2    0    0  0.33848084429E+01  0.86893534015E+01 -0.30491952558E+02  0.31886062183E+02  0.00000000000E+00 0. -1.
         11    1    3    3    0    0 -0.23955668007E+01 -0.11288005350E+02  0.95388493108E+01  0.14971554746E+02  0.51100000000E-03 0. -1.
        -11    1    3    3    0    0 -0.10569510092E+02  0.74948253343E+01  0.28419948663E+02  0.31234282970E+02  0.51100000000E-03 0.  1.
        -12    1    3    3    0    0  0.95802684501E+01 -0.48961733856E+01 -0.74668454157E+01  0.13096100101E+02  0.00000000000E+00 0.  1.
</event>
<event>
 7    1  0.5662448E-012  0.5930198E+02  0.7816164E-02  0.1266605E+00
        -11   -1    0    0    0    0  0.00000000000E+00  0.00000000000E+00  0.45593999997E+02  0.45594000000E+02  0.51100000000E-03 0.  1.
         11   -1    0    0    0    0 -0.00000000000E+00 -0.00000000000E+00 -0.45593999997E+02  0.45594000000E+02  0.51100000000E-03 0. -1.
    9900012    2    1    2    0    0  0.74930908774E+01  0.30296679409E+02 -0.65332353642E+01  0.59301978636E+02  0.50000063118E+02 0.  0.
         12    1    1    2    0    0 -0.74930908774E+01 -0.30296679409E+02  0.65332353642E+01  0.31886021364E+02  0.00000000000E+00 0. -1.
         11    1    3    3    0    0  0.58532336795E+01  0.69225349015E+01  0.23321624664E+01  0.93605991262E+01  0.51100000000E-03 0. -1.
        -11    1    3    3    0    0  0.29032900608E+01  0.36151900667E+02 -0.74277287051E+01  0.37021077362E+02  0.51100000000E-03 0.  1.
        -12    1    3    3    0    0 -0.12634328630E+01 -0.12777756160E+02 -0.14376691256E+01  0.12920302148E+02  0.00000000000E+00 0.  1.
</event>
<event>
 7    1  0.5662448E-012  0.5930195E+02  0.7816164E-02  0.1266605E+00
        -11   -1    0    0    0    0  0.00000000000E+00  0.00000000000E+00  0.45593999997E+02  0.45594000000E+02  0.51100000000E-03 0.  1.
         11   -1    0    0    0    0 -0.00000000000E+00 -0.00000000000E+00 -0.45593999997E+02  0.45594000000E+02  0.51100000000E-03 0. -1.
    9900012    2    1    2    0    0  0.22753145969E+02  0.21333037437E+02 -0.66269107065E+01  0.59301951589E+02  0.50000013790E+02 0.  0.
         12    1    1    2    0    0 -0.22753145969E+02 -0.21333037437E+02  0.66269107065E+01  0.31886048411E+02  0.00000000000E+00 0. -1.
         11    1    3    3    0    0 -0.80765410213E+01 -0.79918263189E+01 -0.26529184108E+01  0.11667809526E+02  0.51100000000E-03 0. -1.
        -11    1    3    3    0    0  0.47423949595E+01  0.12443108257E+02 -0.91170970280E+01  0.16138237559E+02  0.51100000000E-03 0.  1.
        -12    1    3    3    0    0  0.26087292031E+02  0.16881755499E+02  0.51431047323E+01  0.31495904504E+02  0.00000000000E+00 0.  1.
</event>
<event>
 7    1  0.5662448E-012  0.5930194E+02  0.7816164E-02  0.1266605E+00
        -11   -1    0    0    0    0  0.00000000000E+00  0.00000000000E+00  0.45593999997E+02  0.45594000000E+02  0.51100000000E-03 0. -1.
         11   -1    0    0    0    0 -0.00000000000E+00 -0.00000000000E+00 -0.45593999997E+02  0.45594000000E+02  0.51100000000E-03 0.  1.
    9900012    2    1    2    0    0 -0.13761836953E+00 -0.16165840770E+02 -0.27483948220E+02  0.59301941033E+02  0.49999994539E+02 0.  0.
         12    1    1    2    0    0  0.13761836953E+00  0.16165840770E+02  0.27483948220E+02  0.31886058967E+02  0.00000000000E+00 0. -1.
         11    1    3    3    0    0  0.15014138148E+02  0.14584177704E-01 -0.35635107320E+01  0.15431239938E+02  0.51100000000E-03 0. -1.
        -11    1    3    3    0    0 -0.55013372902E+01  0.76654567128E+01 -0.12660681369E+02  0.15789768573E+02  0.51100000000E-03 0.  1.
        -12    1    3    3    0    0 -0.96504192278E+01 -0.23845881661E+02 -0.11259756120E+02  0.28080932523E+02  0.00000000000E+00 0.  1.
</event>
<event>
 7    1  0.5662448E-012  0.5930201E+02  0.7816164E-02  0.1266605E+00
        -11   -1    0    0    0    0  0.00000000000E+00  0.00000000000E+00  0.45593999997E+02  0.45594000000E+02  0.51100000000E-03 0. -1.
         11   -1    0    0    0    0 -0.00000000000E+00 -0.00000000000E+00 -0.45593999997E+02  0.45594000000E+02  0.51100000000E-03 0.  1.
    9900012    2    1    2    0    0  0.19163581564E+02  0.74588440506E+01 -0.24368810844E+02  0.59302013190E+02  0.50000126135E+02 0.  0.
         12    1    1    2    0    0 -0.19163581564E+02 -0.74588440506E+01  0.24368810844E+02  0.31885986810E+02  0.00000000000E+00 0. -1.
         11    1    3    3    0    0 -0.63392410786E+01 -0.20187210245E+01  0.32726244425E+01  0.74142621366E+01  0.51100000000E-03 0. -1.
        -11    1    3    3    0    0  0.10152039412E+02  0.21774112543E+02 -0.17761475633E+02  0.29877180225E+02  0.51100000000E-03 0.  1.
         12    1    3    3    0    0  0.15350783231E+02 -0.12296547468E+02 -0.98799596533E+01  0.22010570828E+02  0.00000000000E+00 0. -1.
</event>
<event>
 7    1  0.5662448E-012  0.5930207E+02  0.7816164E-02  0.1266604E+00
        -11   -1    0    0    0    0  0.00000000000E+00  0.00000000000E+00  0.45593999997E+02  0.45594000000E+02  0.51100000000E-03 0.  1.
         11   -1    0    0    0    0 -0.00000000000E+00 -0.00000000000E+00 -0.45593999997E+02  0.45594000000E+02  0.51100000000E-03 0. -1.
    9900012    2    1    2    0    0  0.11242249584E+02 -0.16098067600E+02  0.25123232922E+02  0.59302065976E+02  0.50000222404E+02 0.  0.
         12    1    1    2    0    0 -0.11242249584E+02  0.16098067600E+02 -0.25123232922E+02  0.31885934024E+02  0.00000000000E+00 0. -1.
         11    1    3    3    0    0  0.37418650700E+01 -0.13021164268E+02 -0.65380462413E+01  0.15043215149E+02  0.51100000000E-03 0. -1.
        -11    1    3    3    0    0  0.67860040680E+01  0.42651328458E+01 -0.31965941511E+01  0.86289874163E+01  0.51100000000E-03 0.  1.
        -12    1    3    3    0    0  0.71438044563E+00 -0.73420361772E+01  0.34857873314E+02  0.35629863410E+02  0.00000000000E+00 0.  1.
</event>
<event>
 7    1  0.5662448E-012  0.5930194E+02  0.7816164E-02  0.1266605E+00
        -11   -1    0    0    0    0  0.00000000000E+00  0.00000000000E+00  0.45593999997E+02  0.45594000000E+02  0.51100000000E-03 0.  1.
         11   -1    0    0    0    0 -0.00000000000E+00 -0.00000000000E+00 -0.45593999997E+02  0.45594000000E+02  0.51100000000E-03 0. -1.
    9900012    2    1    2    0    0  0.10493394755E+02 -0.19328156662E+02  0.23087486295E+02  0.59301937263E+02  0.49999987663E+02 0.  0.
         12    1    1    2    0    0 -0.10493394755E+02  0.19328156662E+02 -0.23087486295E+02  0.31886062737E+02  0.00000000000E+00 0. -1.
         11    1    3    3    0    0  0.53382260015E+01 -0.67238464111E+01 -0.11757015142E+02  0.14557959085E+02  0.51100000000E-03 0. -1.
        -11    1    3    3    0    0  0.36560060910E+01 -0.11701211216E+02  0.27012900097E+01  0.12553154681E+02  0.51100000000E-03 0.  1.
        -12    1    3    3    0    0  0.14991626621E+01 -0.90309903517E+00  0.32143211428E+02  0.32190823497E+02  0.00000000000E+00 0.  1.
</event>
<event>
 7    1  0.5662448E-012  0.5930194E+02  0.7816164E-02  0.1266605E+00
        -11   -1    0    0    0    0  0.00000000000E+00  0.00000000000E+00  0.45593999997E+02  0.45594000000E+02  0.51100000000E-03 0. -1.
         11   -1    0    0    0    0 -0.00000000000E+00 -0.00000000000E+00 -0.45593999997E+02  0.45594000000E+02  0.51100000000E-03 0.  1.
    9900012    2    1    2    0    0 -0.22365795291E+02  0.16028781858E+02  0.16111176107E+02  0.59301942821E+02  0.49999997800E+02 0.  0.
         12    1    1    2    0    0  0.22365795291E+02 -0.16028781858E+02 -0.16111176107E+02  0.31886057179E+02  0.00000000000E+00 0. -1.
         11    1    3    3    0    0  0.51863879589E+01  0.22200333719E+02  0.12915689176E+01  0.22834657603E+02  0.51100000000E-03 0. -1.
        -11    1    3    3    0    0  0.77241271612E+00 -0.12249226186E+01 -0.25083211805E+01  0.28963308222E+01  0.51100000000E-03 0.  1.
        -12    1    3    3    0    0 -0.28324595966E+02 -0.49466292427E+01  0.17327928370E+02  0.33570954397E+02  0.00000000000E+00 0.  1.
</event>
<event>
 7    1  0.5662448E-012  0.5930196E+02  0.7816164E-02  0.1266605E+00
        -11   -1    0    0    0    0  0.00000000000E+00  0.00000000000E+00  0.45593999997E+02  0.45594000000E+02  0.51100000000E-03 0.  1.
         11   -1    0    0    0    0 -0.00000000000E+00 -0.00000000000E+00 -0.45593999997E+02  0.45594000000E+02  0.51100000000E-03 0. -1.
    9900012    2    1    2    0    0  0.12102984003E+02  0.27359572511E+02  0.11031381651E+02  0.59301955861E+02  0.50000021580E+02 0.  0.
         12    1    1    2    0    0 -0.12102984003E+02 -0.27359572511E+02 -0.11031381651E+02  0.31886044139E+02  0.00000000000E+00 0. -1.
         11    1    3    3    0    0  0.17323342934E+02  0.10802406386E+02 -0.33776935502E+01  0.20692970016E+02  0.51100000000E-03 0.  1.
        -11    1    3    3    0    0  0.36738326058E+01  0.23856616622E+02  0.79463848573E+01  0.25412206422E+02  0.51100000000E-03 0. -1.
         12    1    3    3    0    0 -0.88941915363E+01 -0.72994504973E+01  0.64626903437E+01  0.13196779422E+02  0.00000000000E+00 0. -1.
</event>
<event>
 7    1  0.5662448E-012  0.5930194E+02  0.7816164E-02  0.1266605E+00
        -11   -1    0    0    0    0  0.00000000000E+00  0.00000000000E+00  0.45593999997E+02  0.45594000000E+02  0.51100000000E-03 0.  1.
         11   -1    0    0    0    0 -0.00000000000E+00 -0.00000000000E+00 -0.45593999997E+02  0.45594000000E+02  0.51100000000E-03 0. -1.
    9900012    2    1    2    0    0  0.12249644803E+02 -0.20977695714E+01  0.29364367395E+02  0.59301944937E+02  0.50000001658E+02 0.  0.
         12    1    1    2    0    0 -0.12249644803E+02  0.20977695714E+01 -0.29364367395E+02  0.31886055063E+02  0.00000000000E+00 0. -1.
         11    1    3    3    0    0 -0.10870063835E+02 -0.14013008844E+01 -0.49575361099E+00  0.10971221621E+02  0.51100000000E-03 0. -1.
        -11    1    3    3    0    0  0.40883529331E+01  0.73577409724E+01  0.25972917514E+02  0.27302809862E+02  0.51100000000E-03 0.  1.
        -12    1    3    3    0    0  0.19031355705E+02 -0.80542096594E+01  0.38872034927E+01  0.21027913454E+02  0.00000000000E+00 0.  1.
</event>
<event>
 7    1  0.5662448E-012  0.5930194E+02  0.7816164E-02  0.1266605E+00
        -11   -1    0    0    0    0  0.00000000000E+00  0.00000000000E+00  0.45593999997E+02  0.45594000000E+02  0.51100000000E-03 0.  1.
         11   -1    0    0    0    0 -0.00000000000E+00 -0.00000000000E+00 -0.45593999997E+02  0.45594000000E+02  0.51100000000E-03 0. -1.
    9900012    2    1    2    0    0 -0.27846812917E+01  0.28006747806E+02  0.14986268763E+02  0.59301943110E+02  0.49999998327E+02 0.  0.
         12    1    1    2    0    0  0.27846812917E+01 -0.28006747806E+02 -0.14986268763E+02  0.31886056890E+02  0.00000000000E+00 0. -1.
         11    1    3    3    0    0  0.35667969873E+01 -0.39145193891E+01 -0.57794802821E+00  0.53272438447E+01  0.51100000000E-03 0. -1.
        -11    1    3    3    0    0 -0.11041103420E+02 -0.46773190356E+01 -0.34341646300E+01  0.12473041532E+02  0.51100000000E-03 0.  1.
        -12    1    3    3    0    0  0.46896251410E+01  0.36598586230E+02  0.18998381421E+02  0.41501657734E+02  0.00000000000E+00 0.  1.
</event>
<event>
 7    1  0.5662448E-012  0.5930197E+02  0.7816164E-02  0.1266605E+00
        -11   -1    0    0    0    0  0.00000000000E+00  0.00000000000E+00  0.45593999997E+02  0.45594000000E+02  0.51100000000E-03 0.  1.
         11   -1    0    0    0    0 -0.00000000000E+00 -0.00000000000E+00 -0.45593999997E+02  0.45594000000E+02  0.51100000000E-03 0. -1.
    9900012    2    1    2    0    0 -0.84736576128E+01  0.47552905851E+01  0.30369447338E+02  0.59301968677E+02  0.50000044955E+02 0.  0.
         12    1    1    2    0    0  0.84736576128E+01 -0.47552905851E+01 -0.30369447338E+02  0.31886031323E+02  0.00000000000E+00 0. -1.
         11    1    3    3    0    0 -0.35613730310E+01  0.13153392717E+02  0.16033445429E+02  0.21042017261E+02  0.51100000000E-03 0. -1.
        -11    1    3    3    0    0 -0.83235465193E+01 -0.11753025929E+02  0.23706683251E+02  0.27738454826E+02  0.51100000000E-03 0.  1.
         12    1    3    3    0    0  0.34112619375E+01  0.33549237971E+01 -0.93706813413E+01  0.10521496590E+02  0.00000000000E+00 0. -1.
</event>
<event>
 7    1  0.5662448E-012  0.5930186E+02  0.7816164E-02  0.1266605E+00
        -11   -1    0    0    0    0  0.00000000000E+00  0.00000000000E+00  0.45593999997E+02  0.45594000000E+02  0.51100000000E-03 0.  1.
         11   -1    0    0    0    0 -0.00000000000E+00 -0.00000000000E+00 -0.45593999997E+02  0.45594000000E+02  0.51100000000E-03 0. -1.
    9900012    2    1    2    0    0 -0.24251760603E+01 -0.12003057717E+02  0.29440972714E+02  0.59301862764E+02  0.49999851794E+02 0.  0.
         12    1    1    2    0    0  0.24251760603E+01  0.12003057717E+02 -0.29440972714E+02  0.31886137236E+02  0.00000000000E+00 0. -1.
         11    1    3    3    0    0 -0.60945685498E+01 -0.12157236390E+02  0.82367191538E+01  0.15899235992E+02  0.51100000000E-03 0. -1.
        -11    1    3    3    0    0 -0.89182162971E+01  0.10485722776E+02 -0.31351819550E+01  0.14117872722E+02  0.51100000000E-03 0.  1.
        -12    1    3    3    0    0  0.12587608787E+02 -0.10331544103E+02  0.24339435516E+02  0.29284754049E+02  0.00000000000E+00 0.  1.
</event>
<event>
 7    1  0.5662448E-012  0.5930188E+02  0.7816164E-02  0.1266605E+00
        -11   -1    0    0    0    0  0.00000000000E+00  0.00000000000E+00  0.45593999997E+02  0.45594000000E+02  0.51100000000E-03 0.  1.
         11   -1    0    0    0    0 -0.00000000000E+00 -0.00000000000E+00 -0.45593999997E+02  0.45594000000E+02  0.51100000000E-03 0. -1.
    9900012    2    1    2    0    0  0.30742503058E+02  0.22607919860E+01  0.81554898086E+01  0.59301879372E+02  0.49999882083E+02 0.  0.
         12    1    1    2    0    0 -0.30742503058E+02 -0.22607919860E+01 -0.81554898086E+01  0.31886120628E+02  0.00000000000E+00 0. -1.
         11    1    3    3    0    0  0.66228913080E+01 -0.13474245824E+02 -0.10478909347E+01  0.15050450673E+02  0.51100000000E-03 0. -1.
        -11    1    3    3    0    0 -0.64443944945E+01 -0.33075987648E+01  0.21536524788E+01  0.75570264820E+01  0.51100000000E-03 0.  1.
         12    1    3    3    0    0  0.30564006245E+02  0.19042636574E+02  0.70497282645E+01  0.36694402217E+02  0.00000000000E+00 0. -1.
</event>
<event>
 7    1  0.5662448E-012  0.5930195E+02  0.7816164E-02  0.1266605E+00
        -11   -1    0    0    0    0  0.00000000000E+00  0.00000000000E+00  0.45593999997E+02  0.45594000000E+02  0.51100000000E-03 0.  1.
         11   -1    0    0    0    0 -0.00000000000E+00 -0.00000000000E+00 -0.45593999997E+02  0.45594000000E+02  0.51100000000E-03 0. -1.
    9900012    2    1    2    0    0  0.99407978751E+01 -0.15060656541E+02  0.26288349407E+02  0.59301950505E+02  0.50000011813E+02 0.  0.
         12    1    1    2    0    0 -0.99407978751E+01  0.15060656541E+02 -0.26288349407E+02  0.31886049495E+02  0.00000000000E+00 0. -1.
         11    1    3    3    0    0 -0.80441122092E+01  0.18049340343E+01  0.14640815073E+02  0.16802350858E+02  0.51100000000E-03 0. -1.
        -11    1    3    3    0    0  0.10376541619E+02  0.90899345782E+01  0.47041718605E+01  0.14574936012E+02  0.51100000000E-03 0.  1.
         12    1    3    3    0    0  0.76083684659E+01 -0.25955525153E+02  0.69433624736E+01  0.27924663635E+02  0.00000000000E+00 0. -1.
</event>
<event>
 7    1  0.5662448E-012  0.5930193E+02  0.7816164E-02  0.1266605E+00
        -11   -1    0    0    0    0  0.00000000000E+00  0.00000000000E+00  0.45593999997E+02  0.45594000000E+02  0.51100000000E-03 0. -1.
         11   -1    0    0    0    0 -0.00000000000E+00 -0.00000000000E+00 -0.45593999997E+02  0.45594000000E+02  0.51100000000E-03 0.  1.
    9900012    2    1    2    0    0  0.12361255279E+01 -0.17193992142E+02  0.26824611934E+02  0.59301934430E+02  0.49999982497E+02 0.  0.
         12    1    1    2    0    0 -0.12361255279E+01  0.17193992142E+02 -0.26824611934E+02  0.31886065570E+02  0.00000000000E+00 0. -1.
         11    1    3    3    0    0  0.87700461456E+01  0.11295499132E+02  0.21104921374E+02  0.25493523031E+02  0.51100000000E-03 0. -1.
        -11    1    3    3    0    0  0.16819294561E+01 -0.24389615237E+01  0.54168643102E+01  0.61741265962E+01  0.51100000000E-03 0.  1.
        -12    1    3    3    0    0 -0.92158500738E+01 -0.26050529750E+02  0.30282624931E+00  0.27634284803E+02  0.00000000000E+00 0.  1.
</event>
<event>
 7    1  0.5662448E-012  0.5930186E+02  0.7816164E-02  0.1266605E+00
        -11   -1    0    0    0    0  0.00000000000E+00  0.00000000000E+00  0.45593999997E+02  0.45594000000E+02  0.51100000000E-03 0.  1.
         11   -1    0    0    0    0 -0.00000000000E+00 -0.00000000000E+00 -0.45593999997E+02  0.45594000000E+02  0.51100000000E-03 0. -1.
    9900012    2    1    2    0    0 -0.13195969749E+01  0.21540774244E+01  0.31785914156E+02  0.59301863130E+02  0.49999852462E+02 0.  0.
         12    1    1    2    0    0  0.13195969749E+01 -0.21540774244E+01 -0.31785914156E+02  0.31886136870E+02  0.00000000000E+00 0. -1.
         11    1    3    3    0    0  0.14406315902E+01 -0.12083326703E+02 -0.68921240263E+00  0.12188405047E+02  0.51100000000E-03 0. -1.
        -11    1    3    3    0    0 -0.57432666955E+01 -0.90076504617E+01  0.95424101665E+01  0.14324122005E+02  0.51100000000E-03 0.  1.
         12    1    3    3    0    0  0.29830381304E+01  0.23245054589E+02  0.22932716392E+02  0.32789336078E+02  0.00000000000E+00 0. -1.
</event>
<event>
 7    1  0.5662448E-012  0.5930200E+02  0.7816164E-02  0.1266605E+00
        -11   -1    0    0    0    0  0.00000000000E+00  0.00000000000E+00  0.45593999997E+02  0.45594000000E+02  0.51100000000E-03 0.  1.
         11   -1    0    0    0    0 -0.00000000000E+00 -0.00000000000E+00 -0.45593999997E+02  0.45594000000E+02  0.51100000000E-03 0. -1.
    9900012    2    1    2    0    0  0.15385185508E+02 -0.23672587442E+02  0.14819647311E+02  0.59301995614E+02  0.50000094080E+02 0.  0.
         12    1    1    2    0    0 -0.15385185508E+02  0.23672587442E+02 -0.14819647311E+02  0.31886004386E+02  0.00000000000E+00 0. -1.
         11    1    3    3    0    0  0.20349058558E+02 -0.63098291544E+01  0.53892005013E+01  0.21975932527E+02  0.51100000000E-03 0. -1.
        -11    1    3    3    0    0  0.10699000109E+02 -0.91262929748E+01  0.13138584917E+02  0.19245265409E+02  0.51100000000E-03 0.  1.
         12    1    3    3    0    0 -0.15662873159E+02 -0.82364653127E+01 -0.37081381069E+01  0.18080797677E+02  0.00000000000E+00 0. -1.
</event>
<event>
 7    1  0.5662448E-012  0.5930205E+02  0.7816164E-02  0.1266604E+00
        -11   -1    0    0    0    0  0.00000000000E+00  0.00000000000E+00  0.45593999997E+02  0.45594000000E+02  0.51100000000E-03 0.  1.
         11   -1    0    0    0    0 -0.00000000000E+00 -0.00000000000E+00 -0.45593999997E+02  0.45594000000E+02  0.51100000000E-03 0. -1.
    9900012    2    1    2    0    0  0.42509544378E+01  0.25822154592E+02  0.18217006163E+02  0.59302053331E+02  0.50000199343E+02 0.  0.
         12    1    1    2    0    0 -0.42509544378E+01 -0.25822154592E+02 -0.18217006163E+02  0.31885946669E+02  0.00000000000E+00 0. -1.
         11    1    3    3    0    0  0.71550819086E+01  0.11887934919E+02  0.87051244721E+01  0.16379785899E+02  0.51100000000E-03 0. -1.
        -11    1    3    3    0    0 -0.14709391268E+02  0.22069651882E+02  0.10559303103E+02  0.28547059533E+02  0.51100000000E-03 0.  1.
         12    1    3    3    0    0  0.11805263798E+02 -0.81354322085E+01 -0.10474214117E+01  0.14375207900E+02  0.00000000000E+00 0. -1.
</event>
<event>
 7    1  0.5662448E-012  0.5930190E+02  0.7816164E-02  0.1266605E+00
        -11   -1    0    0    0    0  0.00000000000E+00  0.00000000000E+00  0.45593999997E+02  0.45594000000E+02  0.51100000000E-03 0. -1.
         11   -1    0    0    0    0 -0.00000000000E+00 -0.00000000000E+00 -0.45593999997E+02  0.45594000000E+02  0.51100000000E-03 0.  1.
    9900012    2    1    2    0    0  0.23425457806E+02 -0.21512924978E+02  0.22727697665E+01  0.59301898060E+02  0.49999916165E+02 0.  0.
         12    1    1    2    0    0 -0.23425457806E+02  0.21512924978E+02 -0.22727697665E+01  0.31886101940E+02  0.00000000000E+00 0. -1.
         11    1    3    3    0    0 -0.51559160683E+01 -0.64810061223E+01 -0.31568179530E+01  0.88629797873E+01  0.51100000000E-03 0. -1.
        -11    1    3    3    0    0  0.14884988287E+02  0.23794941566E-01 -0.15329018061E+02  0.21366849030E+02  0.51100000000E-03 0.  1.
         12    1    3    3    0    0  0.13696385588E+02 -0.15055713797E+02  0.20758605780E+02  0.29072069243E+02  0.00000000000E+00 0. -1.
</event>
<event>
 7    1  0.5662448E-012  0.5930196E+02  0.7816164E-02  0.1266605E+00
        -11   -1    0    0    0    0  0.00000000000E+00  0.00000000000E+00  0.45593999997E+02  0.45594000000E+02  0.51100000000E-03 0.  1.
         11   -1    0    0    0    0 -0.00000000000E+00 -0.00000000000E+00 -0.45593999997E+02  0.45594000000E+02  0.51100000000E-03 0. -1.
    9900012    2    1    2    0    0  0.18351616880E+02 -0.25140552088E+02  0.69202661896E+01  0.59301964098E+02  0.50000036604E+02 0.  0.
         12    1    1    2    0    0 -0.18351616880E+02  0.25140552088E+02 -0.69202661896E+01  0.31886035902E+02  0.00000000000E+00 0. -1.
         11    1    3    3    0    0  0.18823107190E+02 -0.13918240071E+02  0.18585939021E+00  0.23410709407E+02  0.51100000000E-03 0. -1.
        -11    1    3    3    0    0 -0.12020159387E+02 -0.18152728041E+02  0.46434279578E+01  0.22261338470E+02  0.51100000000E-03 0.  1.
         12    1    3    3    0    0  0.11548669077E+02  0.69304160236E+01  0.20909788416E+01  0.13629916222E+02  0.00000000000E+00 0. -1.
</event>
<event>
 7    1  0.5662448E-012  0.5930195E+02  0.7816164E-02  0.1266605E+00
        -11   -1    0    0    0    0  0.00000000000E+00  0.00000000000E+00  0.45593999997E+02  0.45594000000E+02  0.51100000000E-03 0.  1.
         11   -1    0    0    0    0 -0.00000000000E+00 -0.00000000000E+00 -0.45593999997E+02  0.45594000000E+02  0.51100000000E-03 0. -1.
    9900012    2    1    2    0    0  0.60812813996E+01  0.17427636181E+02  0.26000305927E+02  0.59301946706E+02  0.50000004885E+02 0.  0.
         12    1    1    2    0    0 -0.60812813996E+01 -0.17427636181E+02 -0.26000305927E+02  0.31886053294E+02  0.00000000000E+00 0. -1.
         11    1    3    3    0    0 -0.22300441369E+01 -0.49669801045E+01  0.26815861129E+01  0.60691756073E+01  0.51100000000E-03 0. -1.
        -11    1    3    3    0    0 -0.12918972927E+02  0.14812736170E+02  0.23567532622E+02  0.30687873965E+02  0.51100000000E-03 0.  1.
        -12    1    3    3    0    0  0.21230298464E+02  0.75818801157E+01 -0.24881280790E+00  0.22544897134E+02  0.00000000000E+00 0.  1.
</event>
<event>
 7    1  0.5662448E-012  0.5930194E+02  0.7816164E-02  0.1266605E+00
        -11   -1    0    0    0    0  0.00000000000E+00  0.00000000000E+00  0.45593999997E+02  0.45594000000E+02  0.51100000000E-03 0.  1.
         11   -1    0    0    0    0 -0.00000000000E+00 -0.00000000000E+00 -0.45593999997E+02  0.45594000000E+02  0.51100000000E-03 0. -1.
    9900012    2    1    2    0    0  0.24188526395E+02 -0.11408776133E+01  0.20744501958E+02  0.59301940783E+02  0.49999994083E+02 0.  0.
         12    1    1    2    0    0 -0.24188526395E+02  0.11408776133E+01 -0.20744501958E+02  0.31886059217E+02  0.00000000000E+00 0. -1.
         11    1    3    3    0    0 -0.52697631791E+01 -0.29049363426E+01  0.42809035356E+01  0.73847948151E+01  0.51100000000E-03 0. -1.
        -11    1    3    3    0    0 -0.53105519111E+01  0.65558721787E+01 -0.59045529311E+01  0.10297823421E+02  0.51100000000E-03 0.  1.
        -12    1    3    3    0    0  0.34768841485E+02 -0.47918134494E+01  0.22368151354E+02  0.41619322548E+02  0.00000000000E+00 0.  1.
</event>
<event>
 7    1  0.5662448E-012  0.5930197E+02  0.7816164E-02  0.1266605E+00
        -11   -1    0    0    0    0  0.00000000000E+00  0.00000000000E+00  0.45593999997E+02  0.45594000000E+02  0.51100000000E-03 0. -1.
         11   -1    0    0    0    0 -0.00000000000E+00 -0.00000000000E+00 -0.45593999997E+02  0.45594000000E+02  0.51100000000E-03 0.  1.
    9900012    2    1    2    0    0  0.16508866617E+02  0.19765606483E+02 -0.18801521918E+02  0.59301966959E+02  0.50000041821E+02 0.  0.
         12    1    1    2    0    0 -0.16508866617E+02 -0.19765606483E+02  0.18801521918E+02  0.31886033041E+02  0.00000000000E+00 0. -1.
         11    1    3    3    0    0  0.17559987139E+02 -0.53626079923E+01  0.67540512300E+01  0.19563433264E+02  0.51100000000E-03 0. -1.
        -11    1    3    3    0    0  0.53658393305E+01  0.13060524161E+02 -0.48516822580E+01  0.14930115340E+02  0.51100000000E-03 0.  1.
        -12    1    3    3    0    0 -0.64169598517E+01  0.12067690315E+02 -0.20703890890E+02  0.24808418355E+02  0.00000000000E+00 0.  1.
</event>
<event>
 7    1  0.5662448E-012  0.5930192E+02  0.7816164E-02  0.1266605E+00
        -11   -1    0    0    0    0  0.00000000000E+00  0.00000000000E+00  0.45593999997E+02  0.45594000000E+02  0.51100000000E-03 0.  1.
         11   -1    0    0    0    0 -0.00000000000E+00 -0.00000000000E+00 -0.45593999997E+02  0.45594000000E+02  0.51100000000E-03 0. -1.
    9900012    2    1    2    0    0  0.28774276314E+02 -0.11319732113E+02  0.77863328623E+01  0.59301916955E+02  0.49999950627E+02 0.  0.
         12    1    1    2    0    0 -0.28774276314E+02  0.11319732113E+02 -0.77863328623E+01  0.31886083045E+02  0.00000000000E+00 0. -1.
         11    1    3    3    0    0  0.18656549912E+01 -0.17741476330E+01 -0.11274746893E+01  0.28105991899E+01  0.51100000000E-03 0. -1.
        -11    1    3    3    0    0  0.27474923825E+02  0.10803344255E+02  0.17586829781E+02  0.34363938487E+02  0.51100000000E-03 0.  1.
         12    1    3    3    0    0 -0.56630250272E+00 -0.20348928734E+02 -0.86730222297E+01  0.22127379279E+02  0.00000000000E+00 0. -1.
</event>
<event>
 7    1  0.5662448E-012  0.5930194E+02  0.7816164E-02  0.1266605E+00
        -11   -1    0    0    0    0  0.00000000000E+00  0.00000000000E+00  0.45593999997E+02  0.45594000000E+02  0.51100000000E-03 0.  1.
         11   -1    0    0    0    0 -0.00000000000E+00 -0.00000000000E+00 -0.45593999997E+02  0.45594000000E+02  0.51100000000E-03 0. -1.
    9900012    2    1    2    0    0 -0.23135058636E+02  0.11924804399E+02  0.18419789338E+02  0.59301944470E+02  0.50000000806E+02 0.  0.
         12    1    1    2    0    0  0.23135058636E+02 -0.11924804399E+02 -0.18419789338E+02  0.31886055530E+02  0.00000000000E+00 0. -1.
         11    1    3    3    0    0 -0.23581554297E+01 -0.71574613686E+00  0.57082049528E+01  0.62174587741E+01  0.51100000000E-03 0. -1.
        -11    1    3    3    0    0  0.13325484996E+02  0.59192616383E+01  0.11034372621E+02  0.18285611506E+02  0.51100000000E-03 0.  1.
         12    1    3    3    0    0 -0.34102388203E+02  0.67212888974E+01  0.16772117633E+01  0.34798874190E+02  0.00000000000E+00 0. -1.
</event>
<event>
 7    1  0.5662448E-012  0.5930204E+02  0.7816164E-02  0.1266604E+00
        -11   -1    0    0    0    0  0.00000000000E+00  0.00000000000E+00  0.45593999997E+02  0.45594000000E+02  0.51100000000E-03 0.  1.
         11   -1    0    0    0    0 -0.00000000000E+00 -0.00000000000E+00 -0.45593999997E+02  0.45594000000E+02  0.51100000000E-03 0. -1.
    9900012    2    1    2    0    0  0.14490004382E+02  0.38358818368E+01  0.28143209853E+02  0.59302039496E+02  0.50000174110E+02 0.  0.
         12    1    1    2    0    0 -0.14490004382E+02 -0.38358818368E+01 -0.28143209853E+02  0.31885960504E+02  0.00000000000E+00 0. -1.
         11    1    3    3    0    0 -0.10302332721E+02 -0.12518665835E+02  0.83921265691E+01  0.18256035780E+02  0.51100000000E-03 0.  1.
        -11    1    3    3    0    0 -0.12553679757E+01  0.76604571223E+01  0.10753434746E+01  0.78367669307E+01  0.51100000000E-03 0. -1.
        -12    1    3    3    0    0  0.26047705079E+02  0.86940905500E+01  0.18675739809E+02  0.33209236784E+02  0.00000000000E+00 0.  1.
</event>
<event>
 7    1  0.5662448E-012  0.5930194E+02  0.7816164E-02  0.1266605E+00
        -11   -1    0    0    0    0  0.00000000000E+00  0.00000000000E+00  0.45593999997E+02  0.45594000000E+02  0.51100000000E-03 0.  1.
         11   -1    0    0    0    0 -0.00000000000E+00 -0.00000000000E+00 -0.45593999997E+02  0.45594000000E+02  0.51100000000E-03 0. -1.
    9900012    2    1    2    0    0  0.23752841782E+02 -0.17388670549E+02  0.12253882527E+02  0.59301937321E+02  0.49999987769E+02 0.  0.
         12    1    1    2    0    0 -0.23752841782E+02  0.17388670549E+02 -0.12253882527E+02  0.31886062679E+02  0.00000000000E+00 0. -1.
         11    1    3    3    0    0  0.46534176772E+01 -0.59261014779E+01  0.72366295677E+01  0.10447094456E+02  0.51100000000E-03 0.  1.
        -11    1    3    3    0    0  0.96775783291E+01 -0.27766422949E+02  0.14784367702E+00  0.29404959169E+02  0.51100000000E-03 0. -1.
        -12    1    3    3    0    0  0.94218457752E+01  0.16303853878E+02  0.48694092818E+01  0.19449883697E+02  0.00000000000E+00 0.  1.
</event>
<event>
 7    1  0.5662448E-012  0.5930194E+02  0.7816164E-02  0.1266605E+00
        -11   -1    0    0    0    0  0.00000000000E+00  0.00000000000E+00  0.45593999997E+02  0.45594000000E+02  0.51100000000E-03 0.  1.
         11   -1    0    0    0    0 -0.00000000000E+00 -0.00000000000E+00 -0.45593999997E+02  0.45594000000E+02  0.51100000000E-03 0. -1.
    9900012    2    1    2    0    0  0.15296441359E+02 -0.27972544172E+02 -0.52599991767E+00  0.59301936875E+02  0.49999986956E+02 0.  0.
         12    1    1    2    0    0 -0.15296441359E+02  0.27972544172E+02  0.52599991767E+00  0.31886063125E+02  0.00000000000E+00 0. -1.
         11    1    3    3    0    0  0.19747956261E+01 -0.68236661639E+01 -0.94716198592E+01  0.11839502553E+02  0.51100000000E-03 0. -1.
        -11    1    3    3    0    0 -0.76109699991E+01 -0.23929978050E+02  0.78819130707E+01  0.26319104615E+02  0.51100000000E-03 0.  1.
         12    1    3    3    0    0  0.20932615732E+02  0.27811000427E+01  0.10637068709E+01  0.21143329707E+02  0.00000000000E+00 0. -1.
</event>
<event>
 7    1  0.5662448E-012  0.5930194E+02  0.7816164E-02  0.1266605E+00
        -11   -1    0    0    0    0  0.00000000000E+00  0.00000000000E+00  0.45593999997E+02  0.45594000000E+02  0.51100000000E-03 0.  1.
         11   -1    0    0    0    0 -0.00000000000E+00 -0.00000000000E+00 -0.45593999997E+02  0.45594000000E+02  0.51100000000E-03 0. -1.
    9900012    2    1    2    0    0 -0.25023794786E+02 -0.12820525074E+02  0.15038780378E+02  0.59301935898E+02  0.49999985174E+02 0.  0.
         12    1    1    2    0    0  0.25023794786E+02  0.12820525074E+02 -0.15038780378E+02  0.31886064102E+02  0.00000000000E+00 0. -1.
         11    1    3    3    0    0 -0.65177260068E+00 -0.64449764056E+01  0.97387462723E+01  0.11696397206E+02  0.51100000000E-03 0. -1.
        -11    1    3    3    0    0 -0.23563566759E+02 -0.16773711949E+02  0.15671680611E+02  0.32896818454E+02  0.51100000000E-03 0.  1.
         12    1    3    3    0    0 -0.80845542614E+00  0.10398163281E+02 -0.10371646506E+02  0.14708720238E+02  0.00000000000E+00 0. -1.
</event>
<event>
 7    1  0.5662448E-012  0.5930196E+02  0.7816164E-02  0.1266605E+00
        -11   -1    0    0    0    0  0.00000000000E+00  0.00000000000E+00  0.45593999997E+02  0.45594000000E+02  0.51100000000E-03 0. -1.
         11   -1    0    0    0    0 -0.00000000000E+00 -0.00000000000E+00 -0.45593999997E+02  0.45594000000E+02  0.51100000000E-03 0.  1.
    9900012    2    1    2    0    0  0.53901829706E+01  0.29149754763E+02  0.11745525562E+02  0.59301958446E+02  0.50000026296E+02 0.  0.
         12    1    1    2    0    0 -0.53901829706E+01 -0.29149754763E+02 -0.11745525562E+02  0.31886041554E+02  0.00000000000E+00 0. -1.
         11    1    3    3    0    0  0.55473440240E+01  0.24779311187E+02  0.15634997064E+02  0.29820134508E+02  0.51100000000E-03 0. -1.
        -11    1    3    3    0    0  0.10749107641E+01  0.16691460841E+02 -0.35280967848E+01  0.17094085683E+02  0.51100000000E-03 0.  1.
        -12    1    3    3    0    0 -0.12320718175E+01 -0.12321017264E+02 -0.36137471684E+00  0.12387738255E+02  0.00000000000E+00 0.  1.
</event>
<event>
 7    1  0.5662448E-012  0.5930194E+02  0.7816164E-02  0.1266605E+00
        -11   -1    0    0    0    0  0.00000000000E+00  0.00000000000E+00  0.45593999997E+02  0.45594000000E+02  0.51100000000E-03 0.  1.
         11   -1    0    0    0    0 -0.00000000000E+00 -0.00000000000E+00 -0.45593999997E+02  0.45594000000E+02  0.51100000000E-03 0. -1.
    9900012    2    1    2    0    0 -0.18439313127E+02  0.21391764231E+02  0.14802185086E+02  0.59301944602E+02  0.50000001047E+02 0.  0.
         12    1    1    2    0    0  0.18439313127E+02 -0.21391764231E+02 -0.14802185086E+02  0.31886055398E+02  0.00000000000E+00 0. -1.
         11    1    3    3    0    0  0.17689736228E+00  0.99751290450E+01 -0.92824339019E+01  0.13627107967E+02  0.51100000000E-03 0. -1.
        -11    1    3    3    0    0 -0.11741292323E+02  0.21025288642E+02  0.73280520267E+01  0.25171830579E+02  0.51100000000E-03 0.  1.
         12    1    3    3    0    0 -0.68749181661E+01 -0.96086534560E+01  0.16756566961E+02  0.20503006056E+02  0.00000000000E+00 0. -1.
</event>
<event>
 7    1  0.5662448E-012  0.5930196E+02  0.7816164E-02  0.1266605E+00
        -11   -1    0    0    0    0  0.00000000000E+00  0.00000000000E+00  0.45593999997E+02  0.45594000000E+02  0.51100000000E-03 0.  1.
         11   -1    0    0    0    0 -0.00000000000E+00 -0.00000000000E+00 -0.45593999997E+02  0.45594000000E+02  0.51100000000E-03 0. -1.
    9900012    2    1    2    0    0 -0.91056178607E+01  0.11241882646E+02  0.28415269937E+02  0.59301956538E+02  0.50000022815E+02 0.  0.
         12    1    1    2    0    0  0.91056178607E+01 -0.11241882646E+02 -0.28415269937E+02  0.31886043462E+02  0.00000000000E+00 0. -1.
         11    1    3    3    0    0  0.14127849189E+02 -0.80903600662E+01  0.85206785920E+01  0.18375309865E+02  0.51100000000E-03 0. -1.
        -11    1    3    3    0    0  0.69805520616E+00  0.98230412910E+01  0.73110824671E+01  0.12265045796E+02  0.51100000000E-03 0.  1.
        -12    1    3    3    0    0 -0.23931522255E+02  0.95092014217E+01  0.12583508878E+02  0.28661600877E+02  0.00000000000E+00 0.  1.
</event>
<event>
 7    1  0.5662448E-012  0.5930193E+02  0.7816164E-02  0.1266605E+00
        -11   -1    0    0    0    0  0.00000000000E+00  0.00000000000E+00  0.45593999997E+02  0.45594000000E+02  0.51100000000E-03 0. -1.
         11   -1    0    0    0    0 -0.00000000000E+00 -0.00000000000E+00 -0.45593999997E+02  0.45594000000E+02  0.51100000000E-03 0.  1.
    9900012    2    1    2    0    0  0.13740743275E+02 -0.24713571291E+02  0.14736096191E+02  0.59301934663E+02  0.49999982921E+02 0.  0.
         12    1    1    2    0    0 -0.13740743275E+02  0.24713571291E+02 -0.14736096191E+02  0.31886065337E+02  0.00000000000E+00 0. -1.
         11    1    3    3    0    0 -0.24785065958E+01 -0.57362863077E+01  0.11440461944E+02  0.13035802442E+02  0.51100000000E-03 0. -1.
        -11    1    3    3    0    0  0.14255614434E+02 -0.28446685455E+02  0.11245042321E+02  0.33747406321E+02  0.51100000000E-03 0.  1.
        -12    1    3    3    0    0  0.19636354368E+01  0.94694004719E+01 -0.79494080748E+01  0.12518725900E+02  0.00000000000E+00 0.  1.
</event>
<event>
 7    1  0.5662448E-012  0.5930193E+02  0.7816164E-02  0.1266605E+00
        -11   -1    0    0    0    0  0.00000000000E+00  0.00000000000E+00  0.45593999997E+02  0.45594000000E+02  0.51100000000E-03 0. -1.
         11   -1    0    0    0    0 -0.00000000000E+00 -0.00000000000E+00 -0.45593999997E+02  0.45594000000E+02  0.51100000000E-03 0.  1.
    9900012    2    1    2    0    0  0.67208784562E+01 -0.10589564329E+02 -0.29315740466E+02  0.59301925940E+02  0.49999967013E+02 0.  0.
         12    1    1    2    0    0 -0.67208784562E+01  0.10589564329E+02  0.29315740466E+02  0.31886074060E+02  0.00000000000E+00 0. -1.
         11    1    3    3    0    0  0.13678480995E+02  0.19692979013E+01 -0.12554931498E+02  0.18670974311E+02  0.51100000000E-03 0. -1.
        -11    1    3    3    0    0  0.10960027320E+02 -0.11521759601E+02  0.24827325200E+00  0.15903923511E+02  0.51100000000E-03 0.  1.
        -12    1    3    3    0    0 -0.17917629859E+02 -0.10371026294E+01 -0.17009082220E+02  0.24727028119E+02  0.00000000000E+00 0.  1.
</event>
<event>
 7    1  0.5662448E-012  0.5930213E+02  0.7816164E-02  0.1266604E+00
        -11   -1    0    0    0    0  0.00000000000E+00  0.00000000000E+00  0.45593999997E+02  0.45594000000E+02  0.51100000000E-03 0.  1.
         11   -1    0    0    0    0 -0.00000000000E+00 -0.00000000000E+00 -0.45593999997E+02  0.45594000000E+02  0.51100000000E-03 0. -1.
    9900012    2    1    2    0    0  0.25522999066E+02  0.13418633342E+01  0.19065273204E+02  0.59302129761E+02  0.50000338731E+02 0.  0.
         12    1    1    2    0    0 -0.25522999066E+02 -0.13418633342E+01 -0.19065273204E+02  0.31885870239E+02  0.00000000000E+00 0. -1.
         11    1    3    3    0    0  0.11688708067E+02 -0.20219299672E+02  0.14561103179E+01  0.23400133183E+02  0.51100000000E-03 0. -1.
        -11    1    3    3    0    0  0.12717080695E+02  0.41942574278E+01  0.10842006316E+02  0.17229771850E+02  0.51100000000E-03 0.  1.
        -12    1    3    3    0    0  0.11172103039E+01  0.17366905578E+02  0.67671565702E+01  0.18672224727E+02  0.00000000000E+00 0.  1.
</event>
<event>
 7    1  0.5662448E-012  0.5930194E+02  0.7816164E-02  0.1266605E+00
        -11   -1    0    0    0    0  0.00000000000E+00  0.00000000000E+00  0.45593999997E+02  0.45594000000E+02  0.51100000000E-03 0.  1.
         11   -1    0    0    0    0 -0.00000000000E+00 -0.00000000000E+00 -0.45593999997E+02  0.45594000000E+02  0.51100000000E-03 0. -1.
    9900012    2    1    2    0    0 -0.58876980124E+01 -0.60570550761E+01  0.30746834392E+02  0.59301941460E+02  0.49999995317E+02 0.  0.
         12    1    1    2    0    0  0.58876980124E+01  0.60570550761E+01 -0.30746834392E+02  0.31886058540E+02  0.00000000000E+00 0. -1.
         11    1    3    3    0    0 -0.17926629202E+02  0.40097842767E+01  0.19753734619E+01  0.18475510955E+02  0.51100000000E-03 0. -1.
        -11    1    3    3    0    0  0.44500117732E+00  0.72683958030E+01  0.12119842647E+02  0.14139242895E+02  0.51100000000E-03 0.  1.
        -12    1    3    3    0    0  0.11593930012E+02 -0.17335235156E+02  0.16651618284E+02  0.26687187609E+02  0.00000000000E+00 0.  1.
</event>
<event>
 7    1  0.5662448E-012  0.5930190E+02  0.7816164E-02  0.1266605E+00
        -11   -1    0    0    0    0  0.00000000000E+00  0.00000000000E+00  0.45593999997E+02  0.45594000000E+02  0.51100000000E-03 0. -1.
         11   -1    0    0    0    0 -0.00000000000E+00 -0.00000000000E+00 -0.45593999997E+02  0.45594000000E+02  0.51100000000E-03 0.  1.
    9900012    2    1    2    0    0  0.28942699853E+02  0.78518571395E+01 -0.10834762097E+02  0.59301896365E+02  0.49999913074E+02 0.  0.
         12    1    1    2    0    0 -0.28942699853E+02 -0.78518571395E+01  0.10834762097E+02  0.31886103635E+02  0.00000000000E+00 0. -1.
         11    1    3    3    0    0  0.83257478825E+00  0.96745238981E+00 -0.54011495252E+01  0.55499154371E+01  0.51100000000E-03 0. -1.
        -11    1    3    3    0    0  0.28188348482E+02  0.16813190798E+02 -0.18238315405E+02  0.37548668738E+02  0.51100000000E-03 0.  1.
         12    1    3    3    0    0 -0.78223416721E-01 -0.99287860481E+01  0.12804702833E+02  0.16203312190E+02  0.00000000000E+00 0. -1.
</event>
<event>
 7    1  0.5662448E-012  0.5930196E+02  0.7816164E-02  0.1266605E+00
        -11   -1    0    0    0    0  0.00000000000E+00  0.00000000000E+00  0.45593999997E+02  0.45594000000E+02  0.51100000000E-03 0.  1.
         11   -1    0    0    0    0 -0.00000000000E+00 -0.00000000000E+00 -0.45593999997E+02  0.45594000000E+02  0.51100000000E-03 0. -1.
    9900012    2    1    2    0    0 -0.17900059244E+02  0.16119403940E+02  0.20891918646E+02  0.59301959652E+02  0.50000028495E+02 0.  0.
         12    1    1    2    0    0  0.17900059244E+02 -0.16119403940E+02 -0.20891918646E+02  0.31886040348E+02  0.00000000000E+00 0. -1.
         11    1    3    3    0    0  0.49022469732E+01  0.12807506444E+00  0.83545060845E+01  0.96874248789E+01  0.51100000000E-03 0.  1.
        -11    1    3    3    0    0 -0.33404478723E+02  0.10295082727E+02  0.47422629488E+01  0.35275161024E+02  0.51100000000E-03 0. -1.
         12    1    3    3    0    0  0.10602172506E+02  0.56962461485E+01  0.77951496132E+01  0.14339373749E+02  0.00000000000E+00 0. -1.
</event>
<event>
 7    1  0.5662448E-012  0.5930195E+02  0.7816164E-02  0.1266605E+00
        -11   -1    0    0    0    0  0.00000000000E+00  0.00000000000E+00  0.45593999997E+02  0.45594000000E+02  0.51100000000E-03 0.  1.
         11   -1    0    0    0    0 -0.00000000000E+00 -0.00000000000E+00 -0.45593999997E+02  0.45594000000E+02  0.51100000000E-03 0. -1.
    9900012    2    1    2    0    0 -0.19631771491E+02  0.32543534880E+01  0.24914316938E+02  0.59301945729E+02  0.50000003103E+02 0.  0.
         12    1    1    2    0    0  0.19631771491E+02 -0.32543534880E+01 -0.24914316938E+02  0.31886054271E+02  0.00000000000E+00 0. -1.
         11    1    3    3    0    0 -0.78710672668E+01 -0.10973784584E+02  0.15991803883E+02  0.20931207316E+02  0.51100000000E-03 0. -1.
        -11    1    3    3    0    0 -0.85664777428E+01 -0.62196837649E+01  0.13518956308E+02  0.17170648997E+02  0.51100000000E-03 0.  1.
         12    1    3    3    0    0 -0.31942264811E+01  0.20447821837E+02 -0.45964432528E+01  0.21200089417E+02  0.00000000000E+00 0. -1.
</event>
<event>
 7    1  0.5662448E-012  0.5930196E+02  0.7816164E-02  0.1266605E+00
        -11   -1    0    0    0    0  0.00000000000E+00  0.00000000000E+00  0.45593999997E+02  0.45594000000E+02  0.51100000000E-03 0.  1.
         11   -1    0    0    0    0 -0.00000000000E+00 -0.00000000000E+00 -0.45593999997E+02  0.45594000000E+02  0.51100000000E-03 0. -1.
    9900012    2    1    2    0    0 -0.27591657248E+02  0.10926102833E+02  0.11663639013E+02  0.59301956849E+02  0.50000023383E+02 0.  0.
         12    1    1    2    0    0  0.27591657248E+02 -0.10926102833E+02 -0.11663639013E+02  0.31886043151E+02  0.00000000000E+00 0. -1.
         11    1    3    3    0    0 -0.76396909484E+01 -0.83976431519E-01 -0.88798727110E+01  0.11714267773E+02  0.51100000000E-03 0. -1.
        -11    1    3    3    0    0  0.96478209967E+01  0.18385260646E+01 -0.96180257174E+00  0.98684189474E+01  0.51100000000E-03 0.  1.
        -12    1    3    3    0    0 -0.29599787296E+02  0.91715532002E+01  0.21505314296E+02  0.37719270129E+02  0.00000000000E+00 0.  1.
</event>
<event>
 7    1  0.5662448E-012  0.5930194E+02  0.7816164E-02  0.1266605E+00
        -11   -1    0    0    0    0  0.00000000000E+00  0.00000000000E+00  0.45593999997E+02  0.45594000000E+02  0.51100000000E-03 0. -1.
         11   -1    0    0    0    0 -0.00000000000E+00 -0.00000000000E+00 -0.45593999997E+02  0.45594000000E+02  0.51100000000E-03 0.  1.
    9900012    2    1    2    0    0 -0.24265636800E+02  0.20664692841E+02 -0.93297819573E+00  0.59301935523E+02  0.49999984489E+02 0.  0.
         12    1    1    2    0    0  0.24265636800E+02 -0.20664692841E+02  0.93297819573E+00  0.31886064477E+02  0.00000000000E+00 0. -1.
         11    1    3    3    0    0  0.37823013426E+01 -0.38109777319E+00 -0.11898569172E+02  0.12491076317E+02  0.51100000000E-03 0. -1.
        -11    1    3    3    0    0 -0.21766974982E+02  0.15014145734E+02 -0.65570155056E+01  0.27243718994E+02  0.51100000000E-03 0.  1.
        -12    1    3    3    0    0 -0.62809631606E+01  0.60316448802E+01  0.17522606481E+02  0.19567140212E+02  0.00000000000E+00 0.  1.
</event>
<event>
 7    1  0.5662448E-012  0.5930196E+02  0.7816164E-02  0.1266605E+00
        -11   -1    0    0    0    0  0.00000000000E+00  0.00000000000E+00  0.45593999997E+02  0.45594000000E+02  0.51100000000E-03 0.  1.
         11   -1    0    0    0    0 -0.00000000000E+00 -0.00000000000E+00 -0.45593999997E+02  0.45594000000E+02  0.51100000000E-03 0. -1.
    9900012    2    1    2    0    0 -0.26326515740E+02 -0.81326407408E+01  0.16046635793E+02  0.59301956083E+02  0.50000021986E+02 0.  0.
         12    1    1    2    0    0  0.26326515740E+02  0.81326407408E+01 -0.16046635793E+02  0.31886043917E+02  0.00000000000E+00 0. -1.
         11    1    3    3    0    0  0.67033065714E+01  0.25680157980E+01  0.11725443508E+02  0.13748274432E+02  0.51100000000E-03 0. -1.
        -11    1    3    3    0    0 -0.12170684716E+02 -0.17717050046E+02  0.85693138386E+01  0.23139848070E+02  0.51100000000E-03 0.  1.
         12    1    3    3    0    0 -0.20859137595E+02  0.70163935073E+01 -0.42481215540E+01  0.22413833581E+02  0.00000000000E+00 0. -1.
</event>
<event>
 7    1  0.5662448E-012  0.5930195E+02  0.7816164E-02  0.1266605E+00
        -11   -1    0    0    0    0  0.00000000000E+00  0.00000000000E+00  0.45593999997E+02  0.45594000000E+02  0.51100000000E-03 0.  1.
         11   -1    0    0    0    0 -0.00000000000E+00 -0.00000000000E+00 -0.45593999997E+02  0.45594000000E+02  0.51100000000E-03 0. -1.
    9900012    2    1    2    0    0  0.29581504049E+02  0.67387123983E+01 -0.98104236074E+01  0.59301952300E+02  0.50000015086E+02 0.  0.
         12    1    1    2    0    0 -0.29581504049E+02 -0.67387123983E+01  0.98104236074E+01  0.31886047700E+02  0.00000000000E+00 0. -1.
         11    1    3    3    0    0 -0.36869436895E+01  0.47337385300E+01  0.70662552982E+01  0.92700484594E+01  0.51100000000E-03 0. -1.
        -11    1    3    3    0    0  0.38263507587E+02  0.57840024593E+01 -0.85826706256E+01  0.39638528386E+02  0.51100000000E-03 0.  1.
         12    1    3    3    0    0 -0.49950598485E+01 -0.37790285910E+01 -0.82940082800E+01  0.10393375454E+02  0.00000000000E+00 0. -1.
</event>
<event>
 7    1  0.5662448E-012  0.5930193E+02  0.7816164E-02  0.1266605E+00
        -11   -1    0    0    0    0  0.00000000000E+00  0.00000000000E+00  0.45593999997E+02  0.45594000000E+02  0.51100000000E-03 0.  1.
         11   -1    0    0    0    0 -0.00000000000E+00 -0.00000000000E+00 -0.45593999997E+02  0.45594000000E+02  0.51100000000E-03 0. -1.
    9900012    2    1    2    0    0 -0.21509291887E+02  0.13704889917E+02  0.19137604603E+02  0.59301928510E+02  0.49999971699E+02 0.  0.
         12    1    1    2    0    0  0.21509291887E+02 -0.13704889917E+02 -0.19137604603E+02  0.31886071490E+02  0.00000000000E+00 0. -1.
         11    1    3    3    0    0 -0.24760853075E+01 -0.40949350632E+01 -0.79932124825E+00  0.48516395518E+01  0.51100000000E-03 0. -1.
        -11    1    3    3    0    0 -0.12754105639E+01  0.94570589195E+01 -0.12991648363E+02  0.16119725896E+02  0.51100000000E-03 0.  1.
        -12    1    3    3    0    0 -0.17757796016E+02  0.83427660608E+01  0.32928574214E+02  0.38330563062E+02  0.00000000000E+00 0.  1.
</event>
<event>
 7    1  0.5662448E-012  0.5930194E+02  0.7816164E-02  0.1266605E+00
        -11   -1    0    0    0    0  0.00000000000E+00  0.00000000000E+00  0.45593999997E+02  0.45594000000E+02  0.51100000000E-03 0.  1.
         11   -1    0    0    0    0 -0.00000000000E+00 -0.00000000000E+00 -0.45593999997E+02  0.45594000000E+02  0.51100000000E-03 0. -1.
    9900012    2    1    2    0    0 -0.12372474010E+02  0.29064181436E+02  0.43492360804E+01  0.59301943327E+02  0.49999998722E+02 0.  0.
         12    1    1    2    0    0  0.12372474010E+02 -0.29064181436E+02 -0.43492360804E+01  0.31886056673E+02  0.00000000000E+00 0. -1.
         11    1    3    3    0    0  0.61745361316E+01  0.19326414520E+02 -0.82425592986E+01  0.21899200412E+02  0.51100000000E-03 0. -1.
        -11    1    3    3    0    0  0.48217571751E+01  0.10671991593E+02  0.56790367369E+01  0.13015076079E+02  0.51100000000E-03 0.  1.
        -12    1    3    3    0    0 -0.23368767317E+02 -0.93422467724E+00  0.69127586420E+01  0.24387666836E+02  0.00000000000E+00 0.  1.
</event>
<event>
 7    1  0.5662448E-012  0.5930197E+02  0.7816164E-02  0.1266605E+00
        -11   -1    0    0    0    0  0.00000000000E+00  0.00000000000E+00  0.45593999997E+02  0.45594000000E+02  0.51100000000E-03 0. -1.
         11   -1    0    0    0    0 -0.00000000000E+00 -0.00000000000E+00 -0.45593999997E+02  0.45594000000E+02  0.51100000000E-03 0.  1.
    9900012    2    1    2    0    0 -0.24088920471E+02  0.17055339993E+02 -0.12064741724E+02  0.59301973207E+02  0.50000053216E+02 0.  0.
         12    1    1    2    0    0  0.24088920471E+02 -0.17055339993E+02  0.12064741724E+02  0.31886026793E+02  0.00000000000E+00 0. -1.
         11    1    3    3    0    0 -0.61841330540E+01  0.75304288379E-01  0.70113948730E+01  0.93492689924E+01  0.51100000000E-03 0. -1.
        -11    1    3    3    0    0 -0.28805619460E+02  0.11502777326E+02 -0.21199335067E+02  0.37569793801E+02  0.51100000000E-03 0.  1.
         12    1    3    3    0    0  0.10900832043E+02  0.54772583794E+01  0.21231984694E+01  0.12382910414E+02  0.00000000000E+00 0. -1.
</event>
<event>
 7    1  0.5662448E-012  0.5930199E+02  0.7816164E-02  0.1266605E+00
        -11   -1    0    0    0    0  0.00000000000E+00  0.00000000000E+00  0.45593999997E+02  0.45594000000E+02  0.51100000000E-03 0.  1.
         11   -1    0    0    0    0 -0.00000000000E+00 -0.00000000000E+00 -0.45593999997E+02  0.45594000000E+02  0.51100000000E-03 0. -1.
    9900012    2    1    2    0    0  0.20471440677E+02  0.13331939361E+02  0.20491399180E+02  0.59301985340E+02  0.50000075344E+02 0.  0.
         12    1    1    2    0    0 -0.20471440677E+02 -0.13331939361E+02 -0.20491399180E+02  0.31886014660E+02  0.00000000000E+00 0. -1.
         11    1    3    3    0    0  0.10069067909E+02 -0.27017851490E+00 -0.89264044678E+01  0.13458819486E+02  0.51100000000E-03 0. -1.
        -11    1    3    3    0    0  0.74199373607E+01 -0.86064685540E+01  0.42165485239E+01  0.12120480730E+02  0.51100000000E-03 0.  1.
        -12    1    3    3    0    0  0.29824354077E+01  0.22208586430E+02  0.25201255124E+02  0.33722685124E+02  0.00000000000E+00 0.  1.
</event>
<event>
 7    1  0.5662448E-012  0.5930195E+02  0.7816164E-02  0.1266605E+00
        -11   -1    0    0    0    0  0.00000000000E+00  0.00000000000E+00  0.45593999997E+02  0.45594000000E+02  0.51100000000E-03 0. -1.
         11   -1    0    0    0    0 -0.00000000000E+00 -0.00000000000E+00 -0.45593999997E+02  0.45594000000E+02  0.51100000000E-03 0.  1.
    9900012    2    1    2    0    0 -0.25598988971E+02 -0.12597726937E+02 -0.14237589058E+02  0.59301954424E+02  0.50000018959E+02 0.  0.
         12    1    1    2    0    0  0.25598988971E+02  0.12597726937E+02  0.14237589058E+02  0.31886045576E+02  0.00000000000E+00 0. -1.
         11    1    3    3    0    0  0.68081279508E+01 -0.86948661578E+01 -0.98643456672E+01  0.14807316415E+02  0.51100000000E-03 0. -1.
        -11    1    3    3    0    0 -0.56717173387E+00  0.13979472986E+01 -0.11367667554E+02  0.11467336496E+02  0.51100000000E-03 0.  1.
        -12    1    3    3    0    0 -0.31839945188E+02 -0.53008080777E+01  0.69944241635E+01  0.33027301513E+02  0.00000000000E+00 0.  1.
</event>
<event>
 7    1  0.5662448E-012  0.5930200E+02  0.7816164E-02  0.1266605E+00
        -11   -1    0    0    0    0  0.00000000000E+00  0.00000000000E+00  0.45593999997E+02  0.45594000000E+02  0.51100000000E-03 0. -1.
         11   -1    0    0    0    0 -0.00000000000E+00 -0.00000000000E+00 -0.45593999997E+02  0.45594000000E+02  0.51100000000E-03 0.  1.
    9900012    2    1    2    0    0  0.24469228494E+02 -0.14564993391E+02 -0.14346940145E+02  0.59302002021E+02  0.50000105766E+02 0.  0.
         12    1    1    2    0    0 -0.24469228494E+02  0.14564993391E+02  0.14346940145E+02  0.31885997979E+02  0.00000000000E+00 0. -1.
         11    1    3    3    0    0  0.49045746249E+00  0.43582504476E+01  0.75846610667E+01  0.87613913988E+01  0.51100000000E-03 0.  1.
        -11    1    3    3    0    0  0.61064599388E+01 -0.84533116122E+01  0.86879897205E+01  0.13573079822E+02  0.51100000000E-03 0. -1.
        -12    1    3    3    0    0  0.17872311093E+02 -0.10469932226E+02 -0.30619590933E+02  0.36967530801E+02  0.00000000000E+00 0.  1.
</event>
<event>
 7    1  0.5662448E-012  0.5930201E+02  0.7816164E-02  0.1266605E+00
        -11   -1    0    0    0    0  0.00000000000E+00  0.00000000000E+00  0.45593999997E+02  0.45594000000E+02  0.51100000000E-03 0. -1.
         11   -1    0    0    0    0 -0.00000000000E+00 -0.00000000000E+00 -0.45593999997E+02  0.45594000000E+02  0.51100000000E-03 0.  1.
    9900012    2    1    2    0    0 -0.22868724505E+02  0.35900660867E+01 -0.21928273253E+02  0.59302010869E+02  0.50000121902E+02 0.  0.
         12    1    1    2    0    0  0.22868724505E+02 -0.35900660867E+01  0.21928273253E+02  0.31885989131E+02  0.00000000000E+00 0. -1.
         11    1    3    3    0    0 -0.14457203291E+02  0.59122310402E+01 -0.15035453045E+01  0.15691585376E+02  0.51100000000E-03 0.  1.
        -11    1    3    3    0    0 -0.77497456968E+01  0.13176448691E+02  0.29382064794E+01  0.15566323139E+02  0.51100000000E-03 0. -1.
         12    1    3    3    0    0 -0.66177551707E+00 -0.15498613645E+02 -0.23362934428E+02  0.28044102354E+02  0.00000000000E+00 0. -1.
</event>
<event>
 7    1  0.5662448E-012  0.5930194E+02  0.7816164E-02  0.1266605E+00
        -11   -1    0    0    0    0  0.00000000000E+00  0.00000000000E+00  0.45593999997E+02  0.45594000000E+02  0.51100000000E-03 0.  1.
         11   -1    0    0    0    0 -0.00000000000E+00 -0.00000000000E+00 -0.45593999997E+02  0.45594000000E+02  0.51100000000E-03 0. -1.
    9900012    2    1    2    0    0 -0.12838671457E+02  0.29063014006E+02 -0.26889756219E+01  0.59301939444E+02  0.49999991640E+02 0.  0.
         12    1    1    2    0    0  0.12838671457E+02 -0.29063014006E+02  0.26889756219E+01  0.31886060556E+02  0.00000000000E+00 0. -1.
         11    1    3    3    0    0 -0.17753020356E+02  0.72562702249E+01 -0.11811977036E+01  0.19215057055E+02  0.51100000000E-03 0. -1.
        -11    1    3    3    0    0 -0.51591487935E+01  0.23141057162E+02 -0.11040629399E+02  0.26153792089E+02  0.51100000000E-03 0.  1.
        -12    1    3    3    0    0  0.10073497693E+02 -0.13343133803E+01  0.95328514806E+01  0.13933090300E+02  0.00000000000E+00 0.  1.
</event>
<event>
 7    1  0.5662448E-012  0.5930194E+02  0.7816164E-02  0.1266605E+00
        -11   -1    0    0    0    0  0.00000000000E+00  0.00000000000E+00  0.45593999997E+02  0.45594000000E+02  0.51100000000E-03 0. -1.
         11   -1    0    0    0    0 -0.00000000000E+00 -0.00000000000E+00 -0.45593999997E+02  0.45594000000E+02  0.51100000000E-03 0.  1.
    9900012    2    1    2    0    0 -0.21796268110E+02 -0.22147286177E+01 -0.23167611789E+02  0.59301944076E+02  0.50000000089E+02 0.  0.
         12    1    1    2    0    0  0.21796268110E+02  0.22147286177E+01  0.23167611789E+02  0.31886055924E+02  0.00000000000E+00 0. -1.
         11    1    3    3    0    0 -0.25941610263E+02 -0.10145314488E+02 -0.56317721102E+01  0.28418504648E+02  0.51100000000E-03 0. -1.
        -11    1    3    3    0    0 -0.65655514055E+01  0.39890769883E+01  0.22819722944E+01  0.80141498794E+01  0.51100000000E-03 0.  1.
        -12    1    3    3    0    0  0.10710893558E+02  0.39415088816E+01 -0.19817811973E+02  0.22869289549E+02  0.00000000000E+00 0.  1.
</event>
<event>
 7    1  0.5662448E-012  0.5930194E+02  0.7816164E-02  0.1266605E+00
        -11   -1    0    0    0    0  0.00000000000E+00  0.00000000000E+00  0.45593999997E+02  0.45594000000E+02  0.51100000000E-03 0. -1.
         11   -1    0    0    0    0 -0.00000000000E+00 -0.00000000000E+00 -0.45593999997E+02  0.45594000000E+02  0.51100000000E-03 0.  1.
    9900012    2    1    2    0    0 -0.11291005858E+02  0.29773190053E+02 -0.16707692837E+01  0.59301935187E+02  0.49999983877E+02 0.  0.
         12    1    1    2    0    0  0.11291005858E+02 -0.29773190053E+02  0.16707692837E+01  0.31886064813E+02  0.00000000000E+00 0. -1.
         11    1    3    3    0    0 -0.99090620002E+01  0.38288669159E+01 -0.80727258329E+01  0.13342362393E+02  0.51100000000E-03 0. -1.
        -11    1    3    3    0    0 -0.57541219243E+01  0.32357780415E+02 -0.38615214686E+01  0.33091497712E+02  0.51100000000E-03 0.  1.
         12    1    3    3    0    0  0.43721780661E+01 -0.64134572783E+01  0.10263478018E+02  0.12868075082E+02  0.00000000000E+00 0. -1.
</event>
<event>
 7    1  0.5662448E-012  0.5930191E+02  0.7816164E-02  0.1266605E+00
        -11   -1    0    0    0    0  0.00000000000E+00  0.00000000000E+00  0.45593999997E+02  0.45594000000E+02  0.51100000000E-03 0.  1.
         11   -1    0    0    0    0 -0.00000000000E+00 -0.00000000000E+00 -0.45593999997E+02  0.45594000000E+02  0.51100000000E-03 0. -1.
    9900012    2    1    2    0    0 -0.30345922206E+02  0.65489468399E+01 -0.72772774371E+01  0.59301914224E+02  0.49999945645E+02 0.  0.
         12    1    1    2    0    0  0.30345922206E+02 -0.65489468399E+01  0.72772774371E+01  0.31886085776E+02  0.00000000000E+00 0. -1.
         11    1    3    3    0    0 -0.59501921649E+01  0.54925901859E+01 -0.18338830643E+02  0.20047095635E+02  0.51100000000E-03 0. -1.
        -11    1    3    3    0    0 -0.10621151168E+02 -0.13492898202E+02  0.20761913525E+01  0.17296754748E+02  0.51100000000E-03 0.  1.
        -12    1    3    3    0    0 -0.13774578873E+02  0.14549254856E+02  0.89853618539E+01  0.21958063841E+02  0.00000000000E+00 0.  1.
</event>
<event>
 7    1  0.5662448E-012  0.5930191E+02  0.7816164E-02  0.1266605E+00
        -11   -1    0    0    0    0  0.00000000000E+00  0.00000000000E+00  0.45593999997E+02  0.45594000000E+02  0.51100000000E-03 0.  1.
         11   -1    0    0    0    0 -0.00000000000E+00 -0.00000000000E+00 -0.45593999997E+02  0.45594000000E+02  0.51100000000E-03 0. -1.
    9900012    2    1    2    0    0  0.31314296408E+02  0.19653762305E+01 -0.56810707641E+01  0.59301914817E+02  0.49999946727E+02 0.  0.
         12    1    1    2    0    0 -0.31314296408E+02 -0.19653762305E+01  0.56810707641E+01  0.31886085183E+02  0.00000000000E+00 0. -1.
         11    1    3    3    0    0  0.14423535253E+02  0.40737494188E+01  0.92990292799E+01  0.17638190081E+02  0.51100000000E-03 0. -1.
        -11    1    3    3    0    0  0.22414705652E+02  0.67092485390E+01  0.33143077244E-01  0.23397310618E+02  0.51100000000E-03 0.  1.
         12    1    3    3    0    0 -0.55239444967E+01 -0.88176217272E+01 -0.15013243121E+02  0.18266414118E+02  0.00000000000E+00 0. -1.
</event>
<event>
 7    1  0.5662448E-012  0.5930189E+02  0.7816164E-02  0.1266605E+00
        -11   -1    0    0    0    0  0.00000000000E+00  0.00000000000E+00  0.45593999997E+02  0.45594000000E+02  0.51100000000E-03 0.  1.
         11   -1    0    0    0    0 -0.00000000000E+00 -0.00000000000E+00 -0.45593999997E+02  0.45594000000E+02  0.51100000000E-03 0. -1.
    9900012    2    1    2    0    0 -0.25014903795E+02  0.84675609234E+01 -0.17868388916E+02  0.59301885117E+02  0.49999892561E+02 0.  0.
         12    1    1    2    0    0  0.25014903795E+02 -0.84675609234E+01  0.17868388916E+02  0.31886114883E+02  0.00000000000E+00 0. -1.
         11    1    3    3    0    0 -0.14196451543E+02 -0.65300270408E+01  0.10427910590E+02  0.18786213272E+02  0.51100000000E-03 0.  1.
        -11    1    3    3    0    0 -0.19454328095E+01 -0.58109291833E+01 -0.39953510652E+01  0.73153562582E+01  0.51100000000E-03 0. -1.
        -12    1    3    3    0    0 -0.88730194432E+01  0.20808517148E+02 -0.24300948441E+02  0.33200315587E+02  0.00000000000E+00 0.  1.
</event>
<event>
 7    1  0.5662448E-012  0.5930194E+02  0.7816164E-02  0.1266605E+00
        -11   -1    0    0    0    0  0.00000000000E+00  0.00000000000E+00  0.45593999997E+02  0.45594000000E+02  0.51100000000E-03 0.  1.
         11   -1    0    0    0    0 -0.00000000000E+00 -0.00000000000E+00 -0.45593999997E+02  0.45594000000E+02  0.51100000000E-03 0. -1.
    9900012    2    1    2    0    0 -0.77861740519E+01  0.91842756797E+01  0.29525331915E+02  0.59301942689E+02  0.49999997559E+02 0.  0.
         12    1    1    2    0    0  0.77861740519E+01 -0.91842756797E+01 -0.29525331915E+02  0.31886057311E+02  0.00000000000E+00 0. -1.
         11    1    3    3    0    0 -0.62594946974E+01  0.12233628109E+02  0.17275783612E+02  0.22074773617E+02  0.51100000000E-03 0. -1.
        -11    1    3    3    0    0 -0.74320803340E+01  0.10820690677E+02 -0.52426990598E+01  0.14135383211E+02  0.51100000000E-03 0.  1.
        -12    1    3    3    0    0  0.59054009795E+01 -0.13870043106E+02  0.17492247363E+02  0.23091785862E+02  0.00000000000E+00 0.  1.
</event>
<event>
 7    1  0.5662448E-012  0.5930194E+02  0.7816164E-02  0.1266605E+00
        -11   -1    0    0    0    0  0.00000000000E+00  0.00000000000E+00  0.45593999997E+02  0.45594000000E+02  0.51100000000E-03 0.  1.
         11   -1    0    0    0    0 -0.00000000000E+00 -0.00000000000E+00 -0.45593999997E+02  0.45594000000E+02  0.51100000000E-03 0. -1.
    9900012    2    1    2    0    0 -0.83426315450E+00  0.18995629605E+02  0.25596692018E+02  0.59301943778E+02  0.49999999545E+02 0.  0.
         12    1    1    2    0    0  0.83426315450E+00 -0.18995629605E+02 -0.25596692018E+02  0.31886056222E+02  0.00000000000E+00 0. -1.
         11    1    3    3    0    0  0.95781515020E+01  0.35099714413E+01 -0.48446598381E+01  0.11292989636E+02  0.51100000000E-03 0. -1.
        -11    1    3    3    0    0  0.10943336323E+02  0.10150326666E+02  0.99756804658E+01  0.17952714066E+02  0.51100000000E-03 0.  1.
         12    1    3    3    0    0 -0.21355750980E+02  0.53353314977E+01  0.20465671390E+02  0.30056240077E+02  0.00000000000E+00 0. -1.
</event>
<event>
 7    1  0.5662448E-012  0.5930195E+02  0.7816164E-02  0.1266605E+00
        -11   -1    0    0    0    0  0.00000000000E+00  0.00000000000E+00  0.45593999997E+02  0.45594000000E+02  0.51100000000E-03 0.  1.
         11   -1    0    0    0    0 -0.00000000000E+00 -0.00000000000E+00 -0.45593999997E+02  0.45594000000E+02  0.51100000000E-03 0. -1.
    9900012    2    1    2    0    0  0.14644359311E+02  0.70383169114E+01  0.27435838557E+02  0.59301946592E+02  0.50000004677E+02 0.  0.
         12    1    1    2    0    0 -0.14644359311E+02 -0.70383169114E+01 -0.27435838557E+02  0.31886053408E+02  0.00000000000E+00 0. -1.
         11    1    3    3    0    0  0.56155370181E+00 -0.50785627160E+01  0.34897139936E+01  0.61875072394E+01  0.51100000000E-03 0. -1.
        -11    1    3    3    0    0 -0.96159443943E+01  0.20197178524E+02  0.11035951783E+02  0.24943629226E+02  0.51100000000E-03 0.  1.
         12    1    3    3    0    0  0.23698750004E+02 -0.80802988965E+01  0.12910172781E+02  0.28170810127E+02  0.00000000000E+00 0. -1.
</event>
<event>
 7    1  0.5662448E-012  0.5930194E+02  0.7816164E-02  0.1266605E+00
        -11   -1    0    0    0    0  0.00000000000E+00  0.00000000000E+00  0.45593999997E+02  0.45594000000E+02  0.51100000000E-03 0. -1.
         11   -1    0    0    0    0 -0.00000000000E+00 -0.00000000000E+00 -0.45593999997E+02  0.45594000000E+02  0.51100000000E-03 0.  1.
    9900012    2    1    2    0    0  0.46914600306E+01  0.10888365859E+01 -0.31520234207E+02  0.59301944634E+02  0.50000001105E+02 0.  0.
         12    1    1    2    0    0 -0.46914600306E+01 -0.10888365859E+01  0.31520234207E+02  0.31886055366E+02  0.00000000000E+00 0. -1.
         11    1    3    3    0    0  0.10110056575E+02 -0.27807599694E+00  0.47364243527E+01  0.11168002781E+02  0.51100000000E-03 0. -1.
        -11    1    3    3    0    0  0.46716712254E+01  0.10403556444E+02 -0.23804857157E+01  0.11650116361E+02  0.51100000000E-03 0.  1.
        -12    1    3    3    0    0 -0.10090267769E+02 -0.90366438611E+01 -0.33876172844E+02  0.36483825492E+02  0.00000000000E+00 0.  1.
</event>
<event>
 7    1  0.5662448E-012  0.5930206E+02  0.7816164E-02  0.1266604E+00
        -11   -1    0    0    0    0  0.00000000000E+00  0.00000000000E+00  0.45593999997E+02  0.45594000000E+02  0.51100000000E-03 0.  1.
         11   -1    0    0    0    0 -0.00000000000E+00 -0.00000000000E+00 -0.45593999997E+02  0.45594000000E+02  0.51100000000E-03 0. -1.
    9900012    2    1    2    0    0  0.17437153310E+02  0.73443020396E+01  0.25665540680E+02  0.59302061620E+02  0.50000214459E+02 0.  0.
         12    1    1    2    0    0 -0.17437153310E+02 -0.73443020396E+01 -0.25665540680E+02  0.31885938380E+02  0.00000000000E+00 0. -1.
         11    1    3    3    0    0  0.98809548824E+01  0.96869346209E+01 -0.81532930419E+01  0.16060702333E+02  0.51100000000E-03 0. -1.
        -11    1    3    3    0    0  0.17922792299E-01  0.83395092781E+01  0.16281839655E+01  0.84969829653E+01  0.51100000000E-03 0.  1.
        -12    1    3    3    0    0  0.75382756350E+01 -0.10682141859E+02  0.32190649756E+02  0.34744376322E+02  0.00000000000E+00 0.  1.
</event>
<event>
 7    1  0.5662448E-012  0.5930195E+02  0.7816164E-02  0.1266605E+00
        -11   -1    0    0    0    0  0.00000000000E+00  0.00000000000E+00  0.45593999997E+02  0.45594000000E+02  0.51100000000E-03 0.  1.
         11   -1    0    0    0    0 -0.00000000000E+00 -0.00000000000E+00 -0.45593999997E+02  0.45594000000E+02  0.51100000000E-03 0. -1.
    9900012    2    1    2    0    0  0.11465886178E+02 -0.17165882927E+01  0.29703653507E+02  0.59301948930E+02  0.50000008940E+02 0.  0.
         12    1    1    2    0    0 -0.11465886178E+02  0.17165882927E+01 -0.29703653507E+02  0.31886051070E+02  0.00000000000E+00 0. -1.
         11    1    3    3    0    0 -0.62683155550E+01 -0.53302435360E+01  0.12014707657E+02  0.14562159057E+02  0.51100000000E-03 0.  1.
        -11    1    3    3    0    0 -0.46621327256E+01  0.63760392457E+00 -0.87666532591E+01  0.99496849168E+01  0.51100000000E-03 0. -1.
         12    1    3    3    0    0  0.22396334459E+02  0.29760513186E+01  0.26455599109E+02  0.34790104956E+02  0.00000000000E+00 0. -1.
</event>
<event>
 7    1  0.5662448E-012  0.5930194E+02  0.7816164E-02  0.1266605E+00
        -11   -1    0    0    0    0  0.00000000000E+00  0.00000000000E+00  0.45593999997E+02  0.45594000000E+02  0.51100000000E-03 0.  1.
         11   -1    0    0    0    0 -0.00000000000E+00 -0.00000000000E+00 -0.45593999997E+02  0.45594000000E+02  0.51100000000E-03 0. -1.
    9900012    2    1    2    0    0  0.32052977438E+01 -0.30008353289E+02  0.10292995890E+02  0.59301937760E+02  0.49999988569E+02 0.  0.
         12    1    1    2    0    0 -0.32052977438E+01  0.30008353289E+02 -0.10292995890E+02  0.31886062240E+02  0.00000000000E+00 0. -1.
         11    1    3    3    0    0 -0.90830561335E+01 -0.17034711909E+02 -0.24390325752E+01  0.19458473699E+02  0.51100000000E-03 0. -1.
        -11    1    3    3    0    0 -0.10190778599E+02  0.23732805552E+01  0.24398128030E+01  0.10744166595E+02  0.51100000000E-03 0.  1.
         12    1    3    3    0    0  0.22479132476E+02 -0.15346921936E+02  0.10292215662E+02  0.29099297466E+02  0.00000000000E+00 0. -1.
</event>
<event>
 7    1  0.5662448E-012  0.5930196E+02  0.7816164E-02  0.1266605E+00
        -11   -1    0    0    0    0  0.00000000000E+00  0.00000000000E+00  0.45593999997E+02  0.45594000000E+02  0.51100000000E-03 0. -1.
         11   -1    0    0    0    0 -0.00000000000E+00 -0.00000000000E+00 -0.45593999997E+02  0.45594000000E+02  0.51100000000E-03 0.  1.
    9900012    2    1    2    0    0 -0.30050038571E+02 -0.87244397569E+01 -0.61318180000E+01  0.59301955103E+02  0.50000020198E+02 0.  0.
         12    1    1    2    0    0  0.30050038571E+02  0.87244397569E+01  0.61318180000E+01  0.31886044897E+02  0.00000000000E+00 0. -1.
         11    1    3    3    0    0 -0.35721494226E+01  0.48629845687E+00  0.80130179538E+01  0.87866486600E+01  0.51100000000E-03 0. -1.
        -11    1    3    3    0    0 -0.24262468141E+02 -0.20464747349E+02  0.70869366142E+00  0.31748629755E+02  0.51100000000E-03 0.  1.
        -12    1    3    3    0    0 -0.22154210079E+01  0.11254009136E+02 -0.14853529615E+02  0.18766676688E+02  0.00000000000E+00 0.  1.
</event>
<event>
 7    1  0.5662448E-012  0.5930196E+02  0.7816164E-02  0.1266605E+00
        -11   -1    0    0    0    0  0.00000000000E+00  0.00000000000E+00  0.45593999997E+02  0.45594000000E+02  0.51100000000E-03 0. -1.
         11   -1    0    0    0    0 -0.00000000000E+00 -0.00000000000E+00 -0.45593999997E+02  0.45594000000E+02  0.51100000000E-03 0.  1.
    9900012    2    1    2    0    0  0.37390139901E+01 -0.74074715560E+01 -0.30787480610E+02  0.59301955673E+02  0.50000021239E+02 0.  0.
         12    1    1    2    0    0 -0.37390139901E+01  0.74074715560E+01  0.30787480610E+02  0.31886044327E+02  0.00000000000E+00 0. -1.
         11    1    3    3    0    0 -0.74584603491E+01 -0.53849158761E+01  0.62466180605E+01  0.11119630715E+02  0.51100000000E-03 0. -1.
        -11    1    3    3    0    0  0.50793633355E+01 -0.25258018448E+01  0.38397522846E+01  0.68500587386E+01  0.51100000000E-03 0.  1.
        -12    1    3    3    0    0  0.61181110037E+01  0.50324616496E+00 -0.40873850956E+02  0.41332266220E+02  0.00000000000E+00 0.  1.
</event>
<event>
 7    1  0.5662448E-012  0.5930194E+02  0.7816164E-02  0.1266605E+00
        -11   -1    0    0    0    0  0.00000000000E+00  0.00000000000E+00  0.45593999997E+02  0.45594000000E+02  0.51100000000E-03 0.  1.
         11   -1    0    0    0    0 -0.00000000000E+00 -0.00000000000E+00 -0.45593999997E+02  0.45594000000E+02  0.51100000000E-03 0. -1.
    9900012    2    1    2    0    0  0.71153349913E+01 -0.28591286919E+02 -0.12191434033E+02  0.59301941236E+02  0.49999994908E+02 0.  0.
         12    1    1    2    0    0 -0.71153349913E+01  0.28591286919E+02  0.12191434033E+02  0.31886058764E+02  0.00000000000E+00 0. -1.
         11    1    3    3    0    0 -0.86770024372E+01 -0.24608118646E+02  0.47718249034E+01  0.26525840001E+02  0.51100000000E-03 0. -1.
        -11    1    3    3    0    0 -0.31752499599E+01 -0.53811264875E+01  0.13291675422E+01  0.63879121158E+01  0.51100000000E-03 0.  1.
         12    1    3    3    0    0  0.18967587388E+02  0.13979582141E+01 -0.18292426479E+02  0.26388189119E+02  0.00000000000E+00 0. -1.
</event>
<event>
 7    1  0.5662448E-012  0.5930196E+02  0.7816164E-02  0.1266605E+00
        -11   -1    0    0    0    0  0.00000000000E+00  0.00000000000E+00  0.45593999997E+02  0.45594000000E+02  0.51100000000E-03 0.  1.
         11   -1    0    0    0    0 -0.00000000000E+00 -0.00000000000E+00 -0.45593999997E+02  0.45594000000E+02  0.51100000000E-03 0. -1.
    9900012    2    1    2    0    0  0.36254624651E+01  0.57950589403E+01  0.31144704089E+02  0.59301964200E+02  0.50000036790E+02 0.  0.
         12    1    1    2    0    0 -0.36254624651E+01 -0.57950589403E+01 -0.31144704089E+02  0.31886035800E+02  0.00000000000E+00 0. -1.
         11    1    3    3    0    0  0.11376586792E+02 -0.44610865664E+01  0.33197512405E+01  0.12662889439E+02  0.51100000000E-03 0. -1.
        -11    1    3    3    0    0 -0.20137165384E+00  0.12398340525E+02 -0.46395354792E+01  0.13239512380E+02  0.51100000000E-03 0.  1.
        -12    1    3    3    0    0 -0.75497526727E+01 -0.21421950187E+01  0.32464488328E+02  0.33399562382E+02  0.00000000000E+00 0.  1.
</event>
<event>
 7    1  0.5662448E-012  0.5930195E+02  0.7816164E-02  0.1266605E+00
        -11   -1    0    0    0    0  0.00000000000E+00  0.00000000000E+00  0.45593999997E+02  0.45594000000E+02  0.51100000000E-03 0. -1.
         11   -1    0    0    0    0 -0.00000000000E+00 -0.00000000000E+00 -0.45593999997E+02  0.45594000000E+02  0.51100000000E-03 0.  1.
    9900012    2    1    2    0    0  0.72232376457E+01  0.29074175810E+02  0.10919573789E+02  0.59301953634E+02  0.50000017519E+02 0.  0.
         12    1    1    2    0    0 -0.72232376457E+01 -0.29074175810E+02 -0.10919573789E+02  0.31886046366E+02  0.00000000000E+00 0. -1.
         11    1    3    3    0    0 -0.24345399649E+00  0.20696215911E+01 -0.77247450525E+00  0.22224582113E+01  0.51100000000E-03 0. -1.
        -11    1    3    3    0    0  0.23137894031E+01  0.50133591496E+00 -0.17300690071E+02  0.17461925332E+02  0.51100000000E-03 0.  1.
         12    1    3    3    0    0  0.51529022391E+01  0.26503218304E+02  0.28992738365E+02  0.39617570091E+02  0.00000000000E+00 0. -1.
</event>
<event>
 7    1  0.5662448E-012  0.5930195E+02  0.7816164E-02  0.1266605E+00
        -11   -1    0    0    0    0  0.00000000000E+00  0.00000000000E+00  0.45593999997E+02  0.45594000000E+02  0.51100000000E-03 0.  1.
         11   -1    0    0    0    0 -0.00000000000E+00 -0.00000000000E+00 -0.45593999997E+02  0.45594000000E+02  0.51100000000E-03 0. -1.
    9900012    2    1    2    0    0  0.10839177559E+02 -0.29255647240E+02 -0.65832517660E+01  0.59301954942E+02  0.50000019905E+02 0.  0.
         12    1    1    2    0    0 -0.10839177559E+02  0.29255647240E+02  0.65832517660E+01  0.31886045058E+02  0.00000000000E+00 0. -1.
         11    1    3    3    0    0  0.58221475027E+01 -0.13603440298E+02 -0.12003131112E+01  0.14845596698E+02  0.51100000000E-03 0. -1.
        -11    1    3    3    0    0 -0.12545156001E+01  0.28895611857E+01  0.15510150468E+02  0.15826817149E+02  0.51100000000E-03 0.  1.
         12    1    3    3    0    0  0.62715456567E+01 -0.18541768128E+02 -0.20893089123E+02  0.28629541096E+02  0.00000000000E+00 0. -1.
</event>
<event>
 7    1  0.5662448E-012  0.5930195E+02  0.7816164E-02  0.1266605E+00
        -11   -1    0    0    0    0  0.00000000000E+00  0.00000000000E+00  0.45593999997E+02  0.45594000000E+02  0.51100000000E-03 0.  1.
         11   -1    0    0    0    0 -0.00000000000E+00 -0.00000000000E+00 -0.45593999997E+02  0.45594000000E+02  0.51100000000E-03 0. -1.
    9900012    2    1    2    0    0  0.31465944118E+02  0.50957032282E+01 -0.80514951248E+00  0.59301951383E+02  0.50000013415E+02 0.  0.
         12    1    1    2    0    0 -0.31465944118E+02 -0.50957032282E+01  0.80514951248E+00  0.31886048617E+02  0.00000000000E+00 0. -1.
         11    1    3    3    0    0  0.14525792331E+02 -0.35582679562E+01 -0.11358116232E+02  0.18779422736E+02  0.51100000000E-03 0. -1.
        -11    1    3    3    0    0  0.59804718511E+01 -0.12821032825E+02 -0.13947095231E+00  0.14147946094E+02  0.51100000000E-03 0.  1.
        -12    1    3    3    0    0  0.10959679937E+02  0.21475004009E+02  0.10692437672E+02  0.26374582554E+02  0.00000000000E+00 0.  1.
</event>
<event>
 7    1  0.5662448E-012  0.5930199E+02  0.7816164E-02  0.1266605E+00
        -11   -1    0    0    0    0  0.00000000000E+00  0.00000000000E+00  0.45593999997E+02  0.45594000000E+02  0.51100000000E-03 0.  1.
         11   -1    0    0    0    0 -0.00000000000E+00 -0.00000000000E+00 -0.45593999997E+02  0.45594000000E+02  0.51100000000E-03 0. -1.
    9900012    2    1    2    0    0  0.19453950597E+02  0.88101354004E+01  0.23677903969E+02  0.59301987142E+02  0.50000078630E+02 0.  0.
         12    1    1    2    0    0 -0.19453950597E+02 -0.88101354004E+01 -0.23677903969E+02  0.31886012858E+02  0.00000000000E+00 0. -1.
         11    1    3    3    0    0  0.25679111774E+02 -0.32692611215E+01  0.86899081033E+01  0.27306031438E+02  0.51100000000E-03 0. -1.
        -11    1    3    3    0    0 -0.12019854974E+01 -0.53285891573E+01  0.12584626737E+02  0.13719018256E+02  0.51100000000E-03 0.  1.
        -12    1    3    3    0    0 -0.50231756792E+01  0.17407985679E+02  0.24033691284E+01  0.18276937448E+02  0.00000000000E+00 0.  1.
</event>
<event>
 7    1  0.5662448E-012  0.5930193E+02  0.7816164E-02  0.1266605E+00
        -11   -1    0    0    0    0  0.00000000000E+00  0.00000000000E+00  0.45593999997E+02  0.45594000000E+02  0.51100000000E-03 0. -1.
         11   -1    0    0    0    0 -0.00000000000E+00 -0.00000000000E+00 -0.45593999997E+02  0.45594000000E+02  0.51100000000E-03 0.  1.
    9900012    2    1    2    0    0  0.14905888011E+02  0.66862996615E+01 -0.27383010074E+02  0.59301931862E+02  0.49999977813E+02 0.  0.
         12    1    1    2    0    0 -0.14905888011E+02 -0.66862996615E+01  0.27383010074E+02  0.31886068138E+02  0.00000000000E+00 0. -1.
         11    1    3    3    0    0 -0.15416726277E+01  0.32745501374E+01  0.13932209086E+01  0.38782080726E+01  0.51100000000E-03 0. -1.
        -11    1    3    3    0    0  0.43029636262E+01 -0.92902451762E+01  0.90816886210E+01  0.13685803589E+02  0.51100000000E-03 0.  1.
        -12    1    3    3    0    0  0.12144597013E+02  0.12701994700E+02 -0.37857919604E+02  0.41737920201E+02  0.00000000000E+00 0.  1.
</event>
<event>
 7    1  0.5662448E-012  0.5930195E+02  0.7816164E-02  0.1266605E+00
        -11   -1    0    0    0    0  0.00000000000E+00  0.00000000000E+00  0.45593999997E+02  0.45594000000E+02  0.51100000000E-03 0.  1.
         11   -1    0    0    0    0 -0.00000000000E+00 -0.00000000000E+00 -0.45593999997E+02  0.45594000000E+02  0.51100000000E-03 0. -1.
    9900012    2    1    2    0    0 -0.16493773192E+01 -0.22140671848E+02  0.22886474237E+02  0.59301945079E+02  0.50000001917E+02 0.  0.
         12    1    1    2    0    0  0.16493773192E+01  0.22140671848E+02 -0.22886474237E+02  0.31886054921E+02  0.00000000000E+00 0. -1.
         11    1    3    3    0    0  0.21085066296E+01  0.11246747218E+02  0.20226591429E+02  0.23238978555E+02  0.51100000000E-03 0. -1.
        -11    1    3    3    0    0 -0.40785732757E+01 -0.31658894238E+01  0.27283672839E+01  0.58396578757E+01  0.51100000000E-03 0.  1.
        -12    1    3    3    0    0  0.32068932688E+00 -0.30221529642E+02 -0.68484475717E-01  0.30223308648E+02  0.00000000000E+00 0.  1.
</event>
<event>
 7    1  0.5662448E-012  0.5930196E+02  0.7816164E-02  0.1266605E+00
        -11   -1    0    0    0    0  0.00000000000E+00  0.00000000000E+00  0.45593999997E+02  0.45594000000E+02  0.51100000000E-03 0.  1.
         11   -1    0    0    0    0 -0.00000000000E+00 -0.00000000000E+00 -0.45593999997E+02  0.45594000000E+02  0.51100000000E-03 0. -1.
    9900012    2    1    2    0    0 -0.11578143922E+02  0.12414010714E+02  0.26991824288E+02  0.59301958272E+02  0.50000025978E+02 0.  0.
         12    1    1    2    0    0  0.11578143922E+02 -0.12414010714E+02 -0.26991824288E+02  0.31886041728E+02  0.00000000000E+00 0. -1.
         11    1    3    3    0    0 -0.40444584396E+01 -0.80562803551E+01  0.21316077061E+01  0.92631014733E+01  0.51100000000E-03 0. -1.
        -11    1    3    3    0    0 -0.72523887165E+01 -0.47112757470E+01  0.23247626750E+02  0.24804141006E+02  0.51100000000E-03 0.  1.
         12    1    3    3    0    0 -0.28129676594E+00  0.25181566816E+02  0.16125898316E+01  0.25234715793E+02  0.00000000000E+00 0. -1.
</event>
<event>
 7    1  0.5662448E-012  0.5930192E+02  0.7816164E-02  0.1266605E+00
        -11   -1    0    0    0    0  0.00000000000E+00  0.00000000000E+00  0.45593999997E+02  0.45594000000E+02  0.51100000000E-03 0.  1.
         11   -1    0    0    0    0 -0.00000000000E+00 -0.00000000000E+00 -0.45593999997E+02  0.45594000000E+02  0.51100000000E-03 0. -1.
    9900012    2    1    2    0    0  0.22612660535E+02  0.25169593978E+01  0.22339524132E+02  0.59301924049E+02  0.49999963564E+02 0.  0.
         12    1    1    2    0    0 -0.22612660535E+02 -0.25169593978E+01 -0.22339524132E+02  0.31886075951E+02  0.00000000000E+00 0. -1.
         11    1    3    3    0    0 -0.74130566875E-01  0.25225525843E+01 -0.76321000651E+01  0.80385146978E+01  0.51100000000E-03 0. -1.
        -11    1    3    3    0    0 -0.20901540359E+01  0.18138923251E+01 -0.65398230103E+01  0.71012840056E+01  0.51100000000E-03 0.  1.
        -12    1    3    3    0    0  0.24776945138E+02 -0.18194855116E+01  0.36511447207E+02  0.44162125346E+02  0.00000000000E+00 0.  1.
</event>
<event>
 7    1  0.5662448E-012  0.5930195E+02  0.7816164E-02  0.1266605E+00
        -11   -1    0    0    0    0  0.00000000000E+00  0.00000000000E+00  0.45593999997E+02  0.45594000000E+02  0.51100000000E-03 0. -1.
         11   -1    0    0    0    0 -0.00000000000E+00 -0.00000000000E+00 -0.45593999997E+02  0.45594000000E+02  0.51100000000E-03 0.  1.
    9900012    2    1    2    0    0 -0.13074772955E+02 -0.26079019251E+02 -0.12870713245E+02  0.59301949878E+02  0.50000010670E+02 0.  0.
         12    1    1    2    0    0  0.13074772955E+02  0.26079019251E+02  0.12870713245E+02  0.31886050122E+02  0.00000000000E+00 0. -1.
         11    1    3    3    0    0  0.40442409249E+01 -0.25565846443E+02  0.35436677833E+01  0.26125198001E+02  0.51100000000E-03 0. -1.
        -11    1    3    3    0    0 -0.11191013141E+02 -0.10803759182E+02 -0.41377929142E+01  0.16096003170E+02  0.51100000000E-03 0.  1.
         12    1    3    3    0    0 -0.59280007387E+01  0.10290586373E+02 -0.12276588114E+02  0.17080748707E+02  0.00000000000E+00 0. -1.
</event>
<event>
 7    1  0.5662448E-012  0.5930193E+02  0.7816164E-02  0.1266605E+00
        -11   -1    0    0    0    0  0.00000000000E+00  0.00000000000E+00  0.45593999997E+02  0.45594000000E+02  0.51100000000E-03 0.  1.
         11   -1    0    0    0    0 -0.00000000000E+00 -0.00000000000E+00 -0.45593999997E+02  0.45594000000E+02  0.51100000000E-03 0. -1.
    9900012    2    1    2    0    0  0.15015018834E+02  0.27953013229E+02 -0.31464156042E+01  0.59301926703E+02  0.49999968403E+02 0.  0.
         12    1    1    2    0    0 -0.15015018834E+02 -0.27953013229E+02  0.31464156042E+01  0.31886073297E+02  0.00000000000E+00 0. -1.
         11    1    3    3    0    0  0.11566434029E+02 -0.41250451380E+01 -0.42270086299E+01  0.12987147329E+02  0.51100000000E-03 0. -1.
        -11    1    3    3    0    0 -0.57099100233E+01  0.32461846546E+01 -0.11744941658E+02  0.13456761947E+02  0.51100000000E-03 0.  1.
        -12    1    3    3    0    0  0.91584948286E+01  0.28831873712E+02  0.12825534683E+02  0.32858017427E+02  0.00000000000E+00 0.  1.
</event>
<event>
 7    1  0.5662448E-012  0.5930208E+02  0.7816164E-02  0.1266604E+00
        -11   -1    0    0    0    0  0.00000000000E+00  0.00000000000E+00  0.45593999997E+02  0.45594000000E+02  0.51100000000E-03 0.  1.
         11   -1    0    0    0    0 -0.00000000000E+00 -0.00000000000E+00 -0.45593999997E+02  0.45594000000E+02  0.51100000000E-03 0. -1.
    9900012    2    1    2    0    0  0.62028058476E+01  0.60286408430E+01  0.30690268694E+02  0.59302079858E+02  0.50000247721E+02 0.  0.
         12    1    1    2    0    0 -0.62028058476E+01 -0.60286408430E+01 -0.30690268694E+02  0.31885920142E+02  0.00000000000E+00 0. -1.
         11    1    3    3    0    0  0.38662351813E+01 -0.13706819157E+02 -0.33169751995E+01  0.14622824303E+02  0.51100000000E-03 0. -1.
        -11    1    3    3    0    0  0.60888458851E+01  0.35867322796E+01  0.25066384295E+00  0.70711756647E+01  0.51100000000E-03 0.  1.
        -12    1    3    3    0    0 -0.37522752188E+01  0.16148727720E+02  0.33756580050E+02  0.37608079890E+02  0.00000000000E+00 0.  1.
</event>
<event>
 7    1  0.5662448E-012  0.5930194E+02  0.7816164E-02  0.1266605E+00
        -11   -1    0    0    0    0  0.00000000000E+00  0.00000000000E+00  0.45593999997E+02  0.45594000000E+02  0.51100000000E-03 0. -1.
         11   -1    0    0    0    0 -0.00000000000E+00 -0.00000000000E+00 -0.45593999997E+02  0.45594000000E+02  0.51100000000E-03 0.  1.
    9900012    2    1    2    0    0  0.21106254049E+02  0.90357899684E+01 -0.22126935687E+02  0.59301941240E+02  0.49999994917E+02 0.  0.
         12    1    1    2    0    0 -0.21106254049E+02 -0.90357899684E+01  0.22126935687E+02  0.31886058760E+02  0.00000000000E+00 0. -1.
         11    1    3    3    0    0 -0.95718797258E+01  0.22099079609E+01  0.28422364276E+01  0.10226577279E+02  0.51100000000E-03 0. -1.
        -11    1    3    3    0    0  0.49247547299E+00 -0.16337590736E+01 -0.16520182085E+02  0.16608073855E+02  0.51100000000E-03 0.  1.
         12    1    3    3    0    0  0.30185658301E+02  0.84596410810E+01 -0.84489900302E+01  0.32467290106E+02  0.00000000000E+00 0. -1.
</event>
<event>
 7    1  0.5662448E-012  0.5930194E+02  0.7816164E-02  0.1266605E+00
        -11   -1    0    0    0    0  0.00000000000E+00  0.00000000000E+00  0.45593999997E+02  0.45594000000E+02  0.51100000000E-03 0. -1.
         11   -1    0    0    0    0 -0.00000000000E+00 -0.00000000000E+00 -0.45593999997E+02  0.45594000000E+02  0.51100000000E-03 0.  1.
    9900012    2    1    2    0    0 -0.31138893876E+02 -0.68606628428E+01 -0.14622497914E+00  0.59301940535E+02  0.49999993630E+02 0.  0.
         12    1    1    2    0    0  0.31138893876E+02  0.68606628428E+01  0.14622497914E+00  0.31886059465E+02  0.00000000000E+00 0. -1.
         11    1    3    3    0    0 -0.26182496452E+01 -0.11092106661E+02  0.42628826194E+00  0.11404901724E+02  0.51100000000E-03 0. -1.
        -11    1    3    3    0    0 -0.15706736850E+02 -0.11150447276E+02 -0.13981322403E+02  0.23801500653E+02  0.51100000000E-03 0.  1.
         12    1    3    3    0    0 -0.12813907381E+02  0.15381891094E+02  0.13408809162E+02  0.24095538158E+02  0.00000000000E+00 0. -1.
</event>
<event>
 7    1  0.5662448E-012  0.5930220E+02  0.7816164E-02  0.1266604E+00
        -11   -1    0    0    0    0  0.00000000000E+00  0.00000000000E+00  0.45593999997E+02  0.45594000000E+02  0.51100000000E-03 0.  1.
         11   -1    0    0    0    0 -0.00000000000E+00 -0.00000000000E+00 -0.45593999997E+02  0.45594000000E+02  0.51100000000E-03 0. -1.
    9900012    2    1    2    0    0  0.14551830753E+01 -0.93413147132E+01  0.30452031569E+02  0.59302204651E+02  0.50000475312E+02 0.  0.
         12    1    1    2    0    0 -0.14551830753E+01  0.93413147132E+01 -0.30452031569E+02  0.31885795349E+02  0.00000000000E+00 0. -1.
         11    1    3    3    0    0  0.59163145860E+01  0.81984673952E+01  0.25250768760E+02  0.27199613400E+02  0.51100000000E-03 0. -1.
        -11    1    3    3    0    0 -0.10105574578E+02 -0.20069011431E+00  0.89337671780E+01  0.13489815059E+02  0.51100000000E-03 0.  1.
         12    1    3    3    0    0  0.56444430670E+01 -0.17339091994E+02 -0.37325043684E+01  0.18612776192E+02  0.00000000000E+00 0. -1.
</event>
<event>
 7    1  0.5662448E-012  0.5930194E+02  0.7816164E-02  0.1266605E+00
        -11   -1    0    0    0    0  0.00000000000E+00  0.00000000000E+00  0.45593999997E+02  0.45594000000E+02  0.51100000000E-03 0. -1.
         11   -1    0    0    0    0 -0.00000000000E+00 -0.00000000000E+00 -0.45593999997E+02  0.45594000000E+02  0.51100000000E-03 0.  1.
    9900012    2    1    2    0    0  0.12977254366E+02  0.71515284509E+01 -0.28234147642E+02  0.59301943751E+02  0.49999999495E+02 0.  0.
         12    1    1    2    0    0 -0.12977254366E+02 -0.71515284509E+01  0.28234147642E+02  0.31886056249E+02  0.00000000000E+00 0. -1.
         11    1    3    3    0    0 -0.15471961967E+01 -0.26239558548E+01 -0.26614439698E+01  0.40450271525E+01  0.51100000000E-03 0. -1.
        -11    1    3    3    0    0 -0.12677149517E+01 -0.48527938090E+01  0.11411028117E+02  0.12464680979E+02  0.51100000000E-03 0.  1.
        -12    1    3    3    0    0  0.15792165514E+02  0.14628278115E+02 -0.36983731789E+02  0.42792235619E+02  0.00000000000E+00 0.  1.
</event>
<event>
 7    1  0.5662448E-012  0.5930196E+02  0.7816164E-02  0.1266605E+00
        -11   -1    0    0    0    0  0.00000000000E+00  0.00000000000E+00  0.45593999997E+02  0.45594000000E+02  0.51100000000E-03 0.  1.
         11   -1    0    0    0    0 -0.00000000000E+00 -0.00000000000E+00 -0.45593999997E+02  0.45594000000E+02  0.51100000000E-03 0. -1.
    9900012    2    1    2    0    0  0.24073894324E+02  0.20386789027E+02  0.46418000681E+01  0.59301955049E+02  0.50000020100E+02 0.  0.
         12    1    1    2    0    0 -0.24073894324E+02 -0.20386789027E+02 -0.46418000681E+01  0.31886044951E+02  0.00000000000E+00 0. -1.
         11    1    3    3    0    0 -0.65245358652E+01 -0.51982762301E+01  0.12493891691E-01  0.83421700042E+01  0.51100000000E-03 0. -1.
        -11    1    3    3    0    0  0.22204110983E+02 -0.16052074250E+01  0.11561126551E+01  0.22292057602E+02  0.51100000000E-03 0.  1.
         12    1    3    3    0    0  0.83943192068E+01  0.27190272682E+02  0.34731935213E+01  0.28667727442E+02  0.00000000000E+00 0. -1.
</event>
<event>
 7    1  0.5662448E-012  0.5930194E+02  0.7816164E-02  0.1266605E+00
        -11   -1    0    0    0    0  0.00000000000E+00  0.00000000000E+00  0.45593999997E+02  0.45594000000E+02  0.51100000000E-03 0.  1.
         11   -1    0    0    0    0 -0.00000000000E+00 -0.00000000000E+00 -0.45593999997E+02  0.45594000000E+02  0.51100000000E-03 0. -1.
    9900012    2    1    2    0    0 -0.97671032726E+01  0.10551647645E+02  0.28460274608E+02  0.59301940270E+02  0.49999993147E+02 0.  0.
         12    1    1    2    0    0  0.97671032726E+01 -0.10551647645E+02 -0.28460274608E+02  0.31886059730E+02  0.00000000000E+00 0. -1.
         11    1    3    3    0    0 -0.11511999371E+02 -0.12116947912E+02  0.73986577476E+01  0.18278038542E+02  0.51100000000E-03 0. -1.
        -11    1    3    3    0    0 -0.96675442899E+00  0.15328630494E+02  0.27093409983E+02  0.31144090800E+02  0.51100000000E-03 0.  1.
         12    1    3    3    0    0  0.27116505276E+01  0.73399650624E+01 -0.60317931233E+01  0.98798109285E+01  0.00000000000E+00 0. -1.
</event>
<event>
 7    1  0.5662448E-012  0.5930199E+02  0.7816164E-02  0.1266605E+00
        -11   -1    0    0    0    0  0.00000000000E+00  0.00000000000E+00  0.45593999997E+02  0.45594000000E+02  0.51100000000E-03 0.  1.
         11   -1    0    0    0    0 -0.00000000000E+00 -0.00000000000E+00 -0.45593999997E+02  0.45594000000E+02  0.51100000000E-03 0. -1.
    9900012    2    1    2    0    0  0.16765229164E+02  0.25283990710E+02  0.98165452453E+01  0.59301989656E+02  0.50000083214E+02 0.  0.
         12    1    1    2    0    0 -0.16765229164E+02 -0.25283990710E+02 -0.98165452453E+01  0.31886010344E+02  0.00000000000E+00 0. -1.
         11    1    3    3    0    0  0.21501530907E+01 -0.82713901922E+01  0.65100318097E+01  0.10743349964E+02  0.51100000000E-03 0. -1.
        -11    1    3    3    0    0  0.16588323155E+02  0.23119381815E+02  0.15488270825E+02  0.32396987731E+02  0.51100000000E-03 0.  1.
         12    1    3    3    0    0 -0.19732470824E+01  0.10435999087E+02 -0.12181757390E+02  0.16161651960E+02  0.00000000000E+00 0. -1.
</event>
<event>
 7    1  0.5662448E-012  0.5930196E+02  0.7816164E-02  0.1266605E+00
        -11   -1    0    0    0    0  0.00000000000E+00  0.00000000000E+00  0.45593999997E+02  0.45594000000E+02  0.51100000000E-03 0.  1.
         11   -1    0    0    0    0 -0.00000000000E+00 -0.00000000000E+00 -0.45593999997E+02  0.45594000000E+02  0.51100000000E-03 0. -1.
    9900012    2    1    2    0    0 -0.29067042576E+02  0.12847306186E+02 -0.26025913981E+01  0.59301957249E+02  0.50000024112E+02 0.  0.
         12    1    1    2    0    0  0.29067042576E+02 -0.12847306186E+02  0.26025913981E+01  0.31886042751E+02  0.00000000000E+00 0. -1.
         11    1    3    3    0    0 -0.31997849270E+02  0.45410604638E+01 -0.87191426047E+01  0.33473975504E+02  0.51100000000E-03 0. -1.
        -11    1    3    3    0    0 -0.98192465458E+01  0.54330014150E+01  0.60691162869E+01  0.12758106437E+02  0.51100000000E-03 0.  1.
         12    1    3    3    0    0  0.12750053240E+02  0.28732443072E+01  0.47434919683E-01  0.13069875307E+02  0.00000000000E+00 0. -1.
</event>
<event>
 7    1  0.5662448E-012  0.5930197E+02  0.7816164E-02  0.1266605E+00
        -11   -1    0    0    0    0  0.00000000000E+00  0.00000000000E+00  0.45593999997E+02  0.45594000000E+02  0.51100000000E-03 0.  1.
         11   -1    0    0    0    0 -0.00000000000E+00 -0.00000000000E+00 -0.45593999997E+02  0.45594000000E+02  0.51100000000E-03 0. -1.
    9900012    2    1    2    0    0  0.24427449708E+01  0.27202112443E+02  0.16455907689E+02  0.59301971363E+02  0.50000049854E+02 0.  0.
         12    1    1    2    0    0 -0.24427449708E+01 -0.27202112443E+02 -0.16455907689E+02  0.31886028637E+02  0.00000000000E+00 0. -1.
         11    1    3    3    0    0  0.62494509478E+01  0.12401842982E+02  0.82673892631E+01  0.16162025616E+02  0.51100000000E-03 0. -1.
        -11    1    3    3    0    0 -0.17932682250E+02  0.29156355981E+01  0.14900725269E+02  0.23497098490E+02  0.51100000000E-03 0.  1.
         12    1    3    3    0    0  0.14125976273E+02  0.11884633862E+02 -0.67122068424E+01  0.19642847258E+02  0.00000000000E+00 0. -1.
</event>
<event>
 7    1  0.5662448E-012  0.5930189E+02  0.7816164E-02  0.1266605E+00
        -11   -1    0    0    0    0  0.00000000000E+00  0.00000000000E+00  0.45593999997E+02  0.45594000000E+02  0.51100000000E-03 0. -1.
         11   -1    0    0    0    0 -0.00000000000E+00 -0.00000000000E+00 -0.45593999997E+02  0.45594000000E+02  0.51100000000E-03 0.  1.
    9900012    2    1    2    0    0 -0.19802666123E+02 -0.89987802409E+01  0.23315235958E+02  0.59301892380E+02  0.49999905806E+02 0.  0.
         12    1    1    2    0    0  0.19802666123E+02  0.89987802409E+01 -0.23315235958E+02  0.31886107620E+02  0.00000000000E+00 0. -1.
         11    1    3    3    0    0  0.54976115176E+00 -0.39677471156E+01 -0.25233675380E+01  0.47341988224E+01  0.51100000000E-03 0. -1.
        -11    1    3    3    0    0 -0.32969477712E+02 -0.10070167920E+02  0.18248592092E+02  0.39005202937E+02  0.51100000000E-03 0.  1.
         12    1    3    3    0    0  0.12617050437E+02  0.50391347943E+01  0.75900114033E+01  0.15562490621E+02  0.00000000000E+00 0. -1.
</event>
<event>
 7    1  0.5662448E-012  0.5930187E+02  0.7816164E-02  0.1266605E+00
        -11   -1    0    0    0    0  0.00000000000E+00  0.00000000000E+00  0.45593999997E+02  0.45594000000E+02  0.51100000000E-03 0.  1.
         11   -1    0    0    0    0 -0.00000000000E+00 -0.00000000000E+00 -0.45593999997E+02  0.45594000000E+02  0.51100000000E-03 0. -1.
    9900012    2    1    2    0    0 -0.13378522365E+02 -0.23088526588E+02  0.17454517635E+02  0.59301872820E+02  0.49999870134E+02 0.  0.
         12    1    1    2    0    0  0.13378522365E+02  0.23088526588E+02 -0.17454517635E+02  0.31886127180E+02  0.00000000000E+00 0. -1.
         11    1    3    3    0    0 -0.73923625957E+01 -0.11958837326E+02  0.39028405325E+01  0.14590852594E+02  0.51100000000E-03 0. -1.
        -11    1    3    3    0    0 -0.60881437907E+01 -0.69930322611E+01 -0.14032059061E+02  0.16818640753E+02  0.51100000000E-03 0.  1.
        -12    1    3    3    0    0  0.10198402183E+00 -0.41366570013E+01  0.27583736164E+02  0.27892379473E+02  0.00000000000E+00 0.  1.
</event>
<event>
 7    1  0.5662448E-012  0.5930197E+02  0.7816164E-02  0.1266605E+00
        -11   -1    0    0    0    0  0.00000000000E+00  0.00000000000E+00  0.45593999997E+02  0.45594000000E+02  0.51100000000E-03 0.  1.
         11   -1    0    0    0    0 -0.00000000000E+00 -0.00000000000E+00 -0.45593999997E+02  0.45594000000E+02  0.51100000000E-03 0. -1.
    9900012    2    1    2    0    0 -0.23022435277E+02 -0.22044945777E+02 -0.84068080635E+00  0.59301970072E+02  0.50000047498E+02 0.  0.
         12    1    1    2    0    0  0.23022435277E+02  0.22044945777E+02  0.84068080635E+00  0.31886029928E+02  0.00000000000E+00 0. -1.
         11    1    3    3    0    0  0.25473460562E+01  0.22671641748E+01 -0.30453171177E+01  0.45719757145E+01  0.51100000000E-03 0. -1.
        -11    1    3    3    0    0 -0.36800455082E+02 -0.18086160208E+02  0.57567118057E+01  0.41406791912E+02  0.51100000000E-03 0.  1.
         12    1    3    3    0    0  0.11230673750E+02 -0.62259497440E+01 -0.35520754943E+01  0.13323202446E+02  0.00000000000E+00 0. -1.
</event>
<event>
 7    1  0.5662448E-012  0.5930195E+02  0.7816164E-02  0.1266605E+00
        -11   -1    0    0    0    0  0.00000000000E+00  0.00000000000E+00  0.45593999997E+02  0.45594000000E+02  0.51100000000E-03 0. -1.
         11   -1    0    0    0    0 -0.00000000000E+00 -0.00000000000E+00 -0.45593999997E+02  0.45594000000E+02  0.51100000000E-03 0.  1.
    9900012    2    1    2    0    0 -0.12447366448E+02 -0.21495723386E+02 -0.19992931264E+02  0.59301947314E+02  0.50000005993E+02 0.  0.
         12    1    1    2    0    0  0.12447366448E+02  0.21495723386E+02  0.19992931264E+02  0.31886052686E+02  0.00000000000E+00 0. -1.
         11    1    3    3    0    0 -0.17424989831E+02 -0.28971580682E+01 -0.18305193486E+02  0.25438237052E+02  0.51100000000E-03 0. -1.
        -11    1    3    3    0    0 -0.50786708899E+01  0.55478832272E+01  0.91872459119E+00  0.75773320797E+01  0.51100000000E-03 0.  1.
        -12    1    3    3    0    0  0.10056294273E+02 -0.24146448545E+02 -0.26064623696E+01  0.26286378182E+02  0.00000000000E+00 0.  1.
</event>
<event>
 7    1  0.5662448E-012  0.5930195E+02  0.7816164E-02  0.1266605E+00
        -11   -1    0    0    0    0  0.00000000000E+00  0.00000000000E+00  0.45593999997E+02  0.45594000000E+02  0.51100000000E-03 0. -1.
         11   -1    0    0    0    0 -0.00000000000E+00 -0.00000000000E+00 -0.45593999997E+02  0.45594000000E+02  0.51100000000E-03 0.  1.
    9900012    2    1    2    0    0  0.20139189427E+01 -0.24479602789E+02 -0.20332572637E+02  0.59301947684E+02  0.50000006669E+02 0.  0.
         12    1    1    2    0    0 -0.20139189427E+01  0.24479602789E+02  0.20332572637E+02  0.31886052316E+02  0.00000000000E+00 0. -1.
         11    1    3    3    0    0  0.12155623910E+02  0.38798727103E+01 -0.10811269114E+01  0.12805523830E+02  0.51100000000E-03 0. -1.
        -11    1    3    3    0    0 -0.14283572839E+02 -0.21178932605E+02 -0.10086494867E-01  0.25545405484E+02  0.51100000000E-03 0.  1.
         12    1    3    3    0    0  0.41418678718E+01 -0.71805428948E+01 -0.19241359231E+02  0.20951018371E+02  0.00000000000E+00 0. -1.
</event>
<event>
 7    1  0.5662448E-012  0.5930193E+02  0.7816164E-02  0.1266605E+00
        -11   -1    0    0    0    0  0.00000000000E+00  0.00000000000E+00  0.45593999997E+02  0.45594000000E+02  0.51100000000E-03 0. -1.
         11   -1    0    0    0    0 -0.00000000000E+00 -0.00000000000E+00 -0.45593999997E+02  0.45594000000E+02  0.51100000000E-03 0.  1.
    9900012    2    1    2    0    0  0.25904714627E+02 -0.18576078060E+02  0.77219072332E+00  0.59301934164E+02  0.49999982011E+02 0.  0.
         12    1    1    2    0    0 -0.25904714627E+02  0.18576078060E+02 -0.77219072332E+00  0.31886065836E+02  0.00000000000E+00 0. -1.
         11    1    3    3    0    0  0.17827961389E+02 -0.46336654309E+01  0.24532635212E+01  0.18582937463E+02  0.51100000000E-03 0. -1.
        -11    1    3    3    0    0  0.18499282473E+02 -0.16441288876E+00 -0.10552760789E+02  0.21298151191E+02  0.51100000000E-03 0.  1.
         12    1    3    3    0    0 -0.10422529235E+02 -0.13777999741E+02  0.88716879913E+01  0.19420845510E+02  0.00000000000E+00 0. -1.
</event>
<event>
 7    1  0.5662448E-012  0.5930194E+02  0.7816164E-02  0.1266605E+00
        -11   -1    0    0    0    0  0.00000000000E+00  0.00000000000E+00  0.45593999997E+02  0.45594000000E+02  0.51100000000E-03 0. -1.
         11   -1    0    0    0    0 -0.00000000000E+00 -0.00000000000E+00 -0.45593999997E+02  0.45594000000E+02  0.51100000000E-03 0.  1.
    9900012    2    1    2    0    0 -0.10978790495E+02 -0.24270217968E+02 -0.17525517699E+02  0.59301935778E+02  0.49999984955E+02 0.  0.
         12    1    1    2    0    0  0.10978790495E+02  0.24270217968E+02  0.17525517699E+02  0.31886064222E+02  0.00000000000E+00 0. -1.
         11    1    3    3    0    0  0.11251200621E+02  0.15080962931E+01 -0.41790693597E+01  0.12096631383E+02  0.51100000000E-03 0. -1.
        -11    1    3    3    0    0 -0.53871850343E+00 -0.23064985810E+02 -0.97686152404E+01  0.25054134030E+02  0.51100000000E-03 0.  1.
         12    1    3    3    0    0 -0.21691272613E+02 -0.27133284508E+01 -0.35778330989E+01  0.22151170365E+02  0.00000000000E+00 0. -1.
</event>
<event>
 7    1  0.5662448E-012  0.5930196E+02  0.7816164E-02  0.1266605E+00
        -11   -1    0    0    0    0  0.00000000000E+00  0.00000000000E+00  0.45593999997E+02  0.45594000000E+02  0.51100000000E-03 0.  1.
         11   -1    0    0    0    0 -0.00000000000E+00 -0.00000000000E+00 -0.45593999997E+02  0.45594000000E+02  0.51100000000E-03 0. -1.
    9900012    2    1    2    0    0  0.23815133674E+02  0.17273953406E+02  0.12295112322E+02  0.59301955322E+02  0.50000020598E+02 0.  0.
         12    1    1    2    0    0 -0.23815133674E+02 -0.17273953406E+02 -0.12295112322E+02  0.31886044678E+02  0.00000000000E+00 0. -1.
         11    1    3    3    0    0  0.16681762863E+02 -0.76130198691E+01  0.12452383118E+02  0.22165313653E+02  0.51100000000E-03 0. -1.
        -11    1    3    3    0    0  0.13125947716E+02  0.32987156281E+01 -0.46026647068E+01  0.14295333186E+02  0.51100000000E-03 0.  1.
        -12    1    3    3    0    0 -0.59925769047E+01  0.21588257647E+02  0.44453939105E+01  0.22841308483E+02  0.00000000000E+00 0.  1.
</event>
<event>
 7    1  0.5662448E-012  0.5930194E+02  0.7816164E-02  0.1266605E+00
        -11   -1    0    0    0    0  0.00000000000E+00  0.00000000000E+00  0.45593999997E+02  0.45594000000E+02  0.51100000000E-03 0.  1.
         11   -1    0    0    0    0 -0.00000000000E+00 -0.00000000000E+00 -0.45593999997E+02  0.45594000000E+02  0.51100000000E-03 0. -1.
    9900012    2    1    2    0    0  0.28733683254E+02  0.99582124740E+01 -0.95880149375E+01  0.59301943808E+02  0.49999999599E+02 0.  0.
         12    1    1    2    0    0 -0.28733683254E+02 -0.99582124740E+01  0.95880149375E+01  0.31886056192E+02  0.00000000000E+00 0. -1.
         11    1    3    3    0    0  0.27191902659E+02  0.46849626203E+01 -0.11468215665E+02  0.29880903865E+02  0.51100000000E-03 0.  1.
        -11    1    3    3    0    0  0.69217492948E+01  0.10793100355E+02 -0.93012248388E+01  0.15840278165E+02  0.51100000000E-03 0. -1.
         12    1    3    3    0    0 -0.53799686993E+01 -0.55198505018E+01  0.11181425567E+02  0.13580761778E+02  0.00000000000E+00 0. -1.
</event>
<event>
 7    1  0.5662448E-012  0.5930193E+02  0.7816164E-02  0.1266605E+00
        -11   -1    0    0    0    0  0.00000000000E+00  0.00000000000E+00  0.45593999997E+02  0.45594000000E+02  0.51100000000E-03 0.  1.
         11   -1    0    0    0    0 -0.00000000000E+00 -0.00000000000E+00 -0.45593999997E+02  0.45594000000E+02  0.51100000000E-03 0. -1.
    9900012    2    1    2    0    0  0.21719985389E+02  0.23125168102E+02  0.31922735224E+01  0.59301925057E+02  0.49999965402E+02 0.  0.
         12    1    1    2    0    0 -0.21719985389E+02 -0.23125168102E+02 -0.31922735224E+01  0.31886074943E+02  0.00000000000E+00 0. -1.
         11    1    3    3    0    0  0.43834133969E+01 -0.82167837521E+01 -0.91754377934E+00  0.93579770829E+01  0.51100000000E-03 0. -1.
        -11    1    3    3    0    0 -0.53415132772E+01  0.83306197311E+01 -0.10550434890E+02  0.14465222633E+02  0.51100000000E-03 0.  1.
        -12    1    3    3    0    0  0.22678085269E+02  0.23011332123E+02  0.14660252191E+02  0.35478725341E+02  0.00000000000E+00 0.  1.
</event>
<event>
 7    1  0.5662448E-012  0.5930193E+02  0.7816164E-02  0.1266605E+00
        -11   -1    0    0    0    0  0.00000000000E+00  0.00000000000E+00  0.45593999997E+02  0.45594000000E+02  0.51100000000E-03 0.  1.
         11   -1    0    0    0    0 -0.00000000000E+00 -0.00000000000E+00 -0.45593999997E+02  0.45594000000E+02  0.51100000000E-03 0. -1.
    9900012    2    1    2    0    0 -0.12723243488E+02  0.28738497707E+02  0.53795020876E+01  0.59301933795E+02  0.49999981338E+02 0.  0.
         12    1    1    2    0    0  0.12723243488E+02 -0.28738497707E+02 -0.53795020876E+01  0.31886066205E+02  0.00000000000E+00 0. -1.
         11    1    3    3    0    0 -0.69863829731E+01  0.26792730691E+02 -0.11109663205E+02  0.29834285339E+02  0.51100000000E-03 0. -1.
        -11    1    3    3    0    0  0.29973663488E+01 -0.57420962180E+01 -0.27070641383E+01  0.70202614279E+01  0.51100000000E-03 0.  1.
         12    1    3    3    0    0 -0.87342268635E+01  0.76878632345E+01  0.19196229431E+02  0.22447387028E+02  0.00000000000E+00 0. -1.
</event>
<event>
 7    1  0.5662448E-012  0.5930195E+02  0.7816164E-02  0.1266605E+00
        -11   -1    0    0    0    0  0.00000000000E+00  0.00000000000E+00  0.45593999997E+02  0.45594000000E+02  0.51100000000E-03 0.  1.
         11   -1    0    0    0    0 -0.00000000000E+00 -0.00000000000E+00 -0.45593999997E+02  0.45594000000E+02  0.51100000000E-03 0. -1.
    9900012    2    1    2    0    0  0.25755800777E+02  0.50320876840E+01  0.18111791849E+02  0.59301950008E+02  0.50000010906E+02 0.  0.
         12    1    1    2    0    0 -0.25755800777E+02 -0.50320876840E+01 -0.18111791849E+02  0.31886049992E+02  0.00000000000E+00 0. -1.
         11    1    3    3    0    0  0.21487867567E+02  0.99243025619E+01 -0.21986879621E+01  0.23770874256E+02  0.51100000000E-03 0. -1.
        -11    1    3    3    0    0  0.12724411382E+02 -0.57919128136E+01  0.51941315793E+00  0.13990235501E+02  0.51100000000E-03 0.  1.
         12    1    3    3    0    0 -0.84564781716E+01  0.89969793568E+00  0.19791066653E+02  0.21540840251E+02  0.00000000000E+00 0. -1.
</event>
<event>
 7    1  0.5662448E-012  0.5930194E+02  0.7816164E-02  0.1266605E+00
        -11   -1    0    0    0    0  0.00000000000E+00  0.00000000000E+00  0.45593999997E+02  0.45594000000E+02  0.51100000000E-03 0.  1.
         11   -1    0    0    0    0 -0.00000000000E+00 -0.00000000000E+00 -0.45593999997E+02  0.45594000000E+02  0.51100000000E-03 0. -1.
    9900012    2    1    2    0    0  0.19573464116E+01  0.13677054802E+02  0.28737222516E+02  0.59301937356E+02  0.49999987832E+02 0.  0.
         12    1    1    2    0    0 -0.19573464116E+01 -0.13677054802E+02 -0.28737222516E+02  0.31886062644E+02  0.00000000000E+00 0. -1.
         11    1    3    3    0    0 -0.20018115269E+02  0.12110642624E+02  0.75689020027E+01  0.24590259891E+02  0.51100000000E-03 0. -1.
        -11    1    3    3    0    0 -0.27255937851E+01  0.23907583173E+00  0.26735490052E+01  0.38254258951E+01  0.51100000000E-03 0.  1.
         12    1    3    3    0    0  0.24701055466E+02  0.13273363464E+01  0.18494771508E+02  0.30886251570E+02  0.00000000000E+00 0. -1.
</event>
<event>
 7    1  0.5662448E-012  0.5930194E+02  0.7816164E-02  0.1266605E+00
        -11   -1    0    0    0    0  0.00000000000E+00  0.00000000000E+00  0.45593999997E+02  0.45594000000E+02  0.51100000000E-03 0.  1.
         11   -1    0    0    0    0 -0.00000000000E+00 -0.00000000000E+00 -0.45593999997E+02  0.45594000000E+02  0.51100000000E-03 0. -1.
    9900012    2    1    2    0    0  0.14490954297E+02 -0.20948505674E+02  0.19180543804E+02  0.59301938672E+02  0.49999990233E+02 0.  0.
         12    1    1    2    0    0 -0.14490954297E+02  0.20948505674E+02 -0.19180543804E+02  0.31886061328E+02  0.00000000000E+00 0. -1.
         11    1    3    3    0    0 -0.78799545833E+01 -0.69664698239E+01  0.57949270214E+01  0.12008603811E+02  0.51100000000E-03 0. -1.
        -11    1    3    3    0    0  0.12497767066E+02 -0.25531632790E+02  0.23681687313E+01  0.28524843171E+02  0.51100000000E-03 0.  1.
         12    1    3    3    0    0  0.98731418140E+01  0.11549596940E+02  0.11017448051E+02  0.18768491690E+02  0.00000000000E+00 0. -1.
</event>
<event>
 7    1  0.5662448E-012  0.5930192E+02  0.7816164E-02  0.1266605E+00
        -11   -1    0    0    0    0  0.00000000000E+00  0.00000000000E+00  0.45593999997E+02  0.45594000000E+02  0.51100000000E-03 0. -1.
         11   -1    0    0    0    0 -0.00000000000E+00 -0.00000000000E+00 -0.45593999997E+02  0.45594000000E+02  0.51100000000E-03 0.  1.
    9900012    2    1    2    0    0 -0.17996023476E+02 -0.79054308007E+01 -0.25107157126E+02  0.59301920968E+02  0.49999957945E+02 0.  0.
         12    1    1    2    0    0  0.17996023476E+02  0.79054308007E+01  0.25107157126E+02  0.31886079032E+02  0.00000000000E+00 0. -1.
         11    1    3    3    0    0 -0.13267781309E+02  0.69947110115E+01  0.77590796419E+01  0.16886779449E+02  0.51100000000E-03 0. -1.
        -11    1    3    3    0    0 -0.97025816606E+01 -0.12404500677E+02 -0.94925586355E+01  0.18388050403E+02  0.51100000000E-03 0.  1.
        -12    1    3    3    0    0  0.49743394938E+01 -0.24956411352E+01 -0.23373678132E+02  0.24027091116E+02  0.00000000000E+00 0.  1.
</event>
<event>
 7    1  0.5662448E-012  0.5930198E+02  0.7816164E-02  0.1266605E+00
        -11   -1    0    0    0    0  0.00000000000E+00  0.00000000000E+00  0.45593999997E+02  0.45594000000E+02  0.51100000000E-03 0.  1.
         11   -1    0    0    0    0 -0.00000000000E+00 -0.00000000000E+00 -0.45593999997E+02  0.45594000000E+02  0.51100000000E-03 0. -1.
    9900012    2    1    2    0    0  0.31509166082E+01  0.15919939584E+02  0.27447139320E+02  0.59301980985E+02  0.50000067400E+02 0.  0.
         12    1    1    2    0    0 -0.31509166082E+01 -0.15919939584E+02 -0.27447139320E+02  0.31886019015E+02  0.00000000000E+00 0. -1.
         11    1    3    3    0    0  0.73112102326E+01  0.21648751873E+02  0.43863305454E+01  0.23267190390E+02  0.51100000000E-03 0. -1.
        -11    1    3    3    0    0  0.79299569520E+01  0.30638224871E+01  0.18573241418E+02  0.20426368314E+02  0.51100000000E-03 0.  1.
         12    1    3    3    0    0 -0.12090250576E+02 -0.87926347763E+01  0.44875673568E+01  0.15608422281E+02  0.00000000000E+00 0. -1.
</event>
<event>
 7    1  0.5662448E-012  0.5930194E+02  0.7816164E-02  0.1266605E+00
        -11   -1    0    0    0    0  0.00000000000E+00  0.00000000000E+00  0.45593999997E+02  0.45594000000E+02  0.51100000000E-03 0.  1.
         11   -1    0    0    0    0 -0.00000000000E+00 -0.00000000000E+00 -0.45593999997E+02  0.45594000000E+02  0.51100000000E-03 0. -1.
    9900012    2    1    2    0    0 -0.18705162837E+02 -0.14565523039E+02  0.21323309717E+02  0.59301935404E+02  0.49999984272E+02 0.  0.
         12    1    1    2    0    0  0.18705162837E+02  0.14565523039E+02 -0.21323309717E+02  0.31886064596E+02  0.00000000000E+00 0. -1.
         11    1    3    3    0    0 -0.52861268947E+01  0.13221551351E+02  0.17738949980E+01  0.14349190270E+02  0.51100000000E-03 0. -1.
        -11    1    3    3    0    0 -0.49337317993E+01 -0.96732303696E+00  0.15791821888E+02  0.16572841100E+02  0.51100000000E-03 0.  1.
         12    1    3    3    0    0 -0.84853041431E+01 -0.26819751354E+02  0.37575928310E+01  0.28379904034E+02  0.00000000000E+00 0. -1.
</event>
<event>
 7    1  0.5662448E-012  0.5930184E+02  0.7816164E-02  0.1266605E+00
        -11   -1    0    0    0    0  0.00000000000E+00  0.00000000000E+00  0.45593999997E+02  0.45594000000E+02  0.51100000000E-03 0.  1.
         11   -1    0    0    0    0 -0.00000000000E+00 -0.00000000000E+00 -0.45593999997E+02  0.45594000000E+02  0.51100000000E-03 0. -1.
    9900012    2    1    2    0    0  0.13509951705E+02  0.18253968598E+02  0.22383045428E+02  0.59301844896E+02  0.49999819208E+02 0.  0.
         12    1    1    2    0    0 -0.13509951705E+02 -0.18253968598E+02 -0.22383045428E+02  0.31886155104E+02  0.00000000000E+00 0. -1.
         11    1    3    3    0    0 -0.77188152472E+01 -0.45643328069E+01  0.52032182451E+00  0.89824260562E+01  0.51100000000E-03 0. -1.
        -11    1    3    3    0    0  0.33369178596E+01 -0.35541496056E+00  0.20751824405E+02  0.21021407112E+02  0.51100000000E-03 0.  1.
        -12    1    3    3    0    0  0.17891849093E+02  0.23173716366E+02  0.11108991982E+01  0.29298011728E+02  0.00000000000E+00 0.  1.
</event>
<event>
 7    1  0.5662448E-012  0.5930218E+02  0.7816164E-02  0.1266604E+00
        -11   -1    0    0    0    0  0.00000000000E+00  0.00000000000E+00  0.45593999997E+02  0.45594000000E+02  0.51100000000E-03 0.  1.
         11   -1    0    0    0    0 -0.00000000000E+00 -0.00000000000E+00 -0.45593999997E+02  0.45594000000E+02  0.51100000000E-03 0. -1.
    9900012    2    1    2    0    0 -0.29924946751E+02 -0.56645585010E+01  0.94401154108E+01  0.59302181208E+02  0.50000432558E+02 0.  0.
         12    1    1    2    0    0  0.29924946751E+02  0.56645585010E+01 -0.94401154108E+01  0.31885818792E+02  0.00000000000E+00 0. -1.
         11    1    3    3    0    0 -0.17877714325E+02 -0.13533961168E+02  0.13734799639E+02  0.26294970921E+02  0.51100000000E-03 0. -1.
        -11    1    3    3    0    0 -0.18751212276E+02 -0.10533885024E+00  0.46011168026E+01  0.19307753214E+02  0.51100000000E-03 0.  1.
         12    1    3    3    0    0  0.67039798500E+01  0.79747415175E+01 -0.88958010303E+01  0.13699457072E+02  0.00000000000E+00 0. -1.
</event>
<event>
 7    1  0.5662448E-012  0.5930192E+02  0.7816164E-02  0.1266605E+00
        -11   -1    0    0    0    0  0.00000000000E+00  0.00000000000E+00  0.45593999997E+02  0.45594000000E+02  0.51100000000E-03 0.  1.
         11   -1    0    0    0    0 -0.00000000000E+00 -0.00000000000E+00 -0.45593999997E+02  0.45594000000E+02  0.51100000000E-03 0. -1.
    9900012    2    1    2    0    0  0.10377255850E+02  0.52260079150E+00  0.30145676428E+02  0.59301915921E+02  0.49999948741E+02 0.  0.
         12    1    1    2    0    0 -0.10377255850E+02 -0.52260079150E+00 -0.30145676428E+02  0.31886084079E+02  0.00000000000E+00 0. -1.
         11    1    3    3    0    0  0.85260272114E+01 -0.51825253459E+01  0.38540418695E+01  0.10696043566E+02  0.51100000000E-03 0. -1.
        -11    1    3    3    0    0  0.11693004058E+02 -0.90184135709E+01  0.27116637920E+02  0.30876693145E+02  0.51100000000E-03 0.  1.
         12    1    3    3    0    0 -0.98417754186E+01  0.14723539708E+02 -0.82500336130E+00  0.17729179211E+02  0.00000000000E+00 0. -1.
</event>
<event>
 7    1  0.5662448E-012  0.5930194E+02  0.7816164E-02  0.1266605E+00
        -11   -1    0    0    0    0  0.00000000000E+00  0.00000000000E+00  0.45593999997E+02  0.45594000000E+02  0.51100000000E-03 0.  1.
         11   -1    0    0    0    0 -0.00000000000E+00 -0.00000000000E+00 -0.45593999997E+02  0.45594000000E+02  0.51100000000E-03 0. -1.
    9900012    2    1    2    0    0  0.46137090807E+01 -0.25161145374E+02  0.19035522925E+02  0.59301942215E+02  0.49999996695E+02 0.  0.
         12    1    1    2    0    0 -0.46137090807E+01  0.25161145374E+02 -0.19035522925E+02  0.31886057785E+02  0.00000000000E+00 0. -1.
         11    1    3    3    0    0  0.99178011680E+01 -0.26979757278E+02  0.54579446554E+01  0.29258490099E+02  0.51100000000E-03 0. -1.
        -11    1    3    3    0    0 -0.14368889828E+02 -0.35894874445E+01  0.30218738459E+01  0.15115592506E+02  0.51100000000E-03 0.  1.
        -12    1    3    3    0    0  0.90647977408E+01  0.54080993485E+01  0.10555704424E+02  0.14927859610E+02  0.00000000000E+00 0.  1.
</event>
<event>
 7    1  0.5662448E-012  0.5930196E+02  0.7816164E-02  0.1266605E+00
        -11   -1    0    0    0    0  0.00000000000E+00  0.00000000000E+00  0.45593999997E+02  0.45594000000E+02  0.51100000000E-03 0. -1.
         11   -1    0    0    0    0 -0.00000000000E+00 -0.00000000000E+00 -0.45593999997E+02  0.45594000000E+02  0.51100000000E-03 0.  1.
    9900012    2    1    2    0    0 -0.12220699011E+02 -0.29437329182E+02 -0.90423916759E+00  0.59301961015E+02  0.50000030981E+02 0.  0.
         12    1    1    2    0    0  0.12220699011E+02  0.29437329182E+02  0.90423916759E+00  0.31886038985E+02  0.00000000000E+00 0. -1.
         11    1    3    3    0    0  0.12262289165E+02  0.44647833887E+01 -0.44928445657E+01  0.13801582475E+02  0.51100000000E-03 0.  1.
        -11    1    3    3    0    0 -0.16722309072E+01 -0.74665179169E+01  0.70607856592E+01  0.10411529205E+02  0.51100000000E-03 0. -1.
        -12    1    3    3    0    0 -0.22810757268E+02 -0.26435594654E+02 -0.34721802610E+01  0.35088849334E+02  0.00000000000E+00 0.  1.
</event>
<event>
 7    1  0.5662448E-012  0.5930191E+02  0.7816164E-02  0.1266605E+00
        -11   -1    0    0    0    0  0.00000000000E+00  0.00000000000E+00  0.45593999997E+02  0.45594000000E+02  0.51100000000E-03 0.  1.
         11   -1    0    0    0    0 -0.00000000000E+00 -0.00000000000E+00 -0.45593999997E+02  0.45594000000E+02  0.51100000000E-03 0. -1.
    9900012    2    1    2    0    0 -0.15551041086E+02  0.14868119819E+02  0.23533532845E+02  0.59301905319E+02  0.49999929405E+02 0.  0.
         12    1    1    2    0    0  0.15551041086E+02 -0.14868119819E+02 -0.23533532845E+02  0.31886094681E+02  0.00000000000E+00 0. -1.
         11    1    3    3    0    0  0.27406818210E+01 -0.95284053642E-01 -0.49692251025E+01  0.56757038572E+01  0.51100000000E-03 0. -1.
        -11    1    3    3    0    0  0.48933517935E+01 -0.45175999922E+01  0.21549622565E+02  0.22555261790E+02  0.51100000000E-03 0.  1.
         12    1    3    3    0    0 -0.23185074701E+02  0.19481003865E+02  0.69531353831E+01  0.31070939672E+02  0.00000000000E+00 0. -1.
</event>
<event>
 7    1  0.5662448E-012  0.5930193E+02  0.7816164E-02  0.1266605E+00
        -11   -1    0    0    0    0  0.00000000000E+00  0.00000000000E+00  0.45593999997E+02  0.45594000000E+02  0.51100000000E-03 0.  1.
         11   -1    0    0    0    0 -0.00000000000E+00 -0.00000000000E+00 -0.45593999997E+02  0.45594000000E+02  0.51100000000E-03 0. -1.
    9900012    2    1    2    0    0 -0.11155439641E+02 -0.21483669696E+02  0.20754020685E+02  0.59301932951E+02  0.49999979799E+02 0.  0.
         12    1    1    2    0    0  0.11155439641E+02  0.21483669696E+02 -0.20754020685E+02  0.31886067049E+02  0.00000000000E+00 0. -1.
         11    1    3    3    0    0 -0.38908571970E+01  0.33533549068E+00  0.74147771610E+01  0.83803424887E+01  0.51100000000E-03 0. -1.
        -11    1    3    3    0    0 -0.10172959931E+02 -0.32297783007E+02  0.18823342671E+02  0.38742149275E+02  0.51100000000E-03 0.  1.
         12    1    3    3    0    0  0.29083774862E+01  0.10478777820E+02 -0.54840991464E+01  0.12179441188E+02  0.00000000000E+00 0. -1.
</event>
<event>
 7    1  0.5662448E-012  0.5930195E+02  0.7816164E-02  0.1266605E+00
        -11   -1    0    0    0    0  0.00000000000E+00  0.00000000000E+00  0.45593999997E+02  0.45594000000E+02  0.51100000000E-03 0.  1.
         11   -1    0    0    0    0 -0.00000000000E+00 -0.00000000000E+00 -0.45593999997E+02  0.45594000000E+02  0.51100000000E-03 0. -1.
    9900012    2    1    2    0    0 -0.51098226318E+01 -0.64579318749E+01  0.30804303075E+02  0.59301948827E+02  0.50000008753E+02 0.  0.
         12    1    1    2    0    0  0.51098226318E+01  0.64579318749E+01 -0.30804303075E+02  0.31886051173E+02  0.00000000000E+00 0. -1.
         11    1    3    3    0    0  0.87297467771E+01 -0.44458443339E+01  0.27141183033E+01  0.10165650449E+02  0.51100000000E-03 0. -1.
        -11    1    3    3    0    0 -0.13977675537E+02 -0.18844535440E+02  0.17110034050E+02  0.29038684454E+02  0.51100000000E-03 0.  1.
        -12    1    3    3    0    0  0.13810612800E+00  0.16832447899E+02  0.10980150722E+02  0.20097613924E+02  0.00000000000E+00 0.  1.
</event>
<event>
 7    1  0.5662448E-012  0.5930181E+02  0.7816164E-02  0.1266605E+00
        -11   -1    0    0    0    0  0.00000000000E+00  0.00000000000E+00  0.45593999997E+02  0.45594000000E+02  0.51100000000E-03 0. -1.
         11   -1    0    0    0    0 -0.00000000000E+00 -0.00000000000E+00 -0.45593999997E+02  0.45594000000E+02  0.51100000000E-03 0.  1.
    9900012    2    1    2    0    0  0.29701083149E+01 -0.31697542963E+02  0.17814676732E+01  0.59301805489E+02  0.49999747339E+02 0.  0.
         12    1    1    2    0    0 -0.29701083149E+01  0.31697542963E+02 -0.17814676732E+01  0.31886194511E+02  0.00000000000E+00 0. -1.
         11    1    3    3    0    0 -0.10948096535E+02 -0.10289413794E+02 -0.93382208361E+01  0.17689975200E+02  0.51100000000E-03 0. -1.
        -11    1    3    3    0    0 -0.18310142467E+01 -0.23902158272E+02  0.47334676963E+01  0.24435046551E+02  0.51100000000E-03 0.  1.
         12    1    3    3    0    0  0.15749219096E+02  0.24940291028E+01  0.63862208130E+01  0.17176783738E+02  0.00000000000E+00 0. -1.
</event>
<event>
 7    1  0.5662448E-012  0.5930162E+02  0.7816164E-02  0.1266606E+00
        -11   -1    0    0    0    0  0.00000000000E+00  0.00000000000E+00  0.45593999997E+02  0.45594000000E+02  0.51100000000E-03 0. -1.
         11   -1    0    0    0    0 -0.00000000000E+00 -0.00000000000E+00 -0.45593999997E+02  0.45594000000E+02  0.51100000000E-03 0.  1.
    9900012    2    1    2    0    0  0.16196401723E+01 -0.16341239717E+02  0.27332793638E+02  0.59301624260E+02  0.49999416816E+02 0.  0.
         12    1    1    2    0    0 -0.16196401723E+01  0.16341239717E+02 -0.27332793638E+02  0.31886375740E+02  0.00000000000E+00 0. -1.
         11    1    3    3    0    0 -0.17413920103E+02 -0.22602072793E+01  0.24095900848E+02  0.29815525959E+02  0.51100000000E-03 0. -1.
        -11    1    3    3    0    0  0.26326258412E+01 -0.21732640417E+01  0.79722651873E+01  0.86724164967E+01  0.51100000000E-03 0.  1.
        -12    1    3    3    0    0  0.16400934434E+02 -0.11907768396E+02 -0.47353723970E+01  0.20813681804E+02  0.00000000000E+00 0.  1.
</event>
<event>
 7    1  0.5662448E-012  0.5930191E+02  0.7816164E-02  0.1266605E+00
        -11   -1    0    0    0    0  0.00000000000E+00  0.00000000000E+00  0.45593999997E+02  0.45594000000E+02  0.51100000000E-03 0.  1.
         11   -1    0    0    0    0 -0.00000000000E+00 -0.00000000000E+00 -0.45593999997E+02  0.45594000000E+02  0.51100000000E-03 0. -1.
    9900012    2    1    2    0    0  0.20640251923E+02 -0.26612106726E+01  0.24158244219E+02  0.59301908903E+02  0.49999935941E+02 0.  0.
         12    1    1    2    0    0 -0.20640251923E+02  0.26612106726E+01 -0.24158244219E+02  0.31886091097E+02  0.00000000000E+00 0. -1.
         11    1    3    3    0    0 -0.76283630460E+01 -0.13523946990E+02  0.14690458305E+02  0.21375187260E+02  0.51100000000E-03 0.  1.
        -11    1    3    3    0    0 -0.18100893394E+01 -0.56817001068E+00 -0.28905812004E+01  0.34575570154E+01  0.51100000000E-03 0. -1.
         12    1    3    3    0    0  0.30078704308E+02  0.11430906328E+02  0.12358367115E+02  0.34469164627E+02  0.00000000000E+00 0. -1.
</event>
<event>
 7    1  0.5662448E-012  0.5930187E+02  0.7816164E-02  0.1266605E+00
        -11   -1    0    0    0    0  0.00000000000E+00  0.00000000000E+00  0.45593999997E+02  0.45594000000E+02  0.51100000000E-03 0. -1.
         11   -1    0    0    0    0 -0.00000000000E+00 -0.00000000000E+00 -0.45593999997E+02  0.45594000000E+02  0.51100000000E-03 0.  1.
    9900012    2    1    2    0    0 -0.30000564688E+01  0.16035058945E+02 -0.27397115739E+02  0.59301868140E+02  0.49999861599E+02 0.  0.
         12    1    1    2    0    0  0.30000564688E+01 -0.16035058945E+02  0.27397115739E+02  0.31886131860E+02  0.00000000000E+00 0. -1.
         11    1    3    3    0    0  0.77947645634E+01  0.20583432472E+02 -0.10075609593E+02  0.24206485822E+02  0.51100000000E-03 0. -1.
        -11    1    3    3    0    0 -0.12402697928E+02  0.55394818162E+01 -0.20326402981E+02  0.24447401357E+02  0.51100000000E-03 0.  1.
        -12    1    3    3    0    0  0.16078768956E+01 -0.10087855344E+02  0.30048968352E+01  0.10647980961E+02  0.00000000000E+00 0.  1.
</event>
<event>
 7    1  0.5662448E-012  0.5930196E+02  0.7816164E-02  0.1266605E+00
        -11   -1    0    0    0    0  0.00000000000E+00  0.00000000000E+00  0.45593999997E+02  0.45594000000E+02  0.51100000000E-03 0. -1.
         11   -1    0    0    0    0 -0.00000000000E+00 -0.00000000000E+00 -0.45593999997E+02  0.45594000000E+02  0.51100000000E-03 0.  1.
    9900012    2    1    2    0    0  0.16030519565E+02  0.21359577042E+02  0.17421547977E+02  0.59301961945E+02  0.50000032677E+02 0.  0.
         12    1    1    2    0    0 -0.16030519565E+02 -0.21359577042E+02 -0.17421547977E+02  0.31886038055E+02  0.00000000000E+00 0. -1.
         11    1    3    3    0    0 -0.93977772982E+01 -0.43556664836E+01  0.95228303562E+01  0.14070335707E+02  0.51100000000E-03 0. -1.
        -11    1    3    3    0    0  0.16395042611E+02  0.69464471488E+01  0.14940860641E+02  0.23243921080E+02  0.51100000000E-03 0.  1.
        -12    1    3    3    0    0  0.90332542527E+01  0.18768796376E+02 -0.70421430207E+01  0.21987705158E+02  0.00000000000E+00 0.  1.
</event>
<event>
 7    1  0.5662448E-012  0.5930205E+02  0.7816164E-02  0.1266604E+00
        -11   -1    0    0    0    0  0.00000000000E+00  0.00000000000E+00  0.45593999997E+02  0.45594000000E+02  0.51100000000E-03 0.  1.
         11   -1    0    0    0    0 -0.00000000000E+00 -0.00000000000E+00 -0.45593999997E+02  0.45594000000E+02  0.51100000000E-03 0. -1.
    9900012    2    1    2    0    0  0.13120282113E+02  0.19851264903E+02  0.21224964698E+02  0.59302052509E+02  0.50000197843E+02 0.  0.
         12    1    1    2    0    0 -0.13120282113E+02 -0.19851264903E+02 -0.21224964698E+02  0.31885947491E+02  0.00000000000E+00 0. -1.
         11    1    3    3    0    0  0.12471070133E+01  0.12376141421E+02  0.20681016263E+02  0.24133557266E+02  0.51100000000E-03 0. -1.
        -11    1    3    3    0    0  0.20521535659E+02  0.12509486427E+01  0.81087955668E+01  0.22100924508E+02  0.51100000000E-03 0.  1.
         12    1    3    3    0    0 -0.86483605586E+01  0.62241748388E+01 -0.75648471320E+01  0.13067570735E+02  0.00000000000E+00 0. -1.
</event>
<event>
 7    1  0.5662448E-012  0.5930192E+02  0.7816164E-02  0.1266605E+00
        -11   -1    0    0    0    0  0.00000000000E+00  0.00000000000E+00  0.45593999997E+02  0.45594000000E+02  0.51100000000E-03 0.  1.
         11   -1    0    0    0    0 -0.00000000000E+00 -0.00000000000E+00 -0.45593999997E+02  0.45594000000E+02  0.51100000000E-03 0. -1.
    9900012    2    1    2    0    0 -0.27506921555E+02 -0.11619163261E+02 -0.11184203677E+02  0.59301919962E+02  0.49999956110E+02 0.  0.
         12    1    1    2    0    0  0.27506921555E+02  0.11619163261E+02  0.11184203677E+02  0.31886080038E+02  0.00000000000E+00 0. -1.
         11    1    3    3    0    0 -0.18095295515E+02 -0.15492298719E+02 -0.22722776836E+02  0.32920747664E+02  0.51100000000E-03 0. -1.
        -11    1    3    3    0    0 -0.97217817474E+01  0.18943219906E+01 -0.40235557706E+01  0.10690673386E+02  0.51100000000E-03 0.  1.
        -12    1    3    3    0    0  0.31015570746E+00  0.19788134666E+01  0.15562128930E+02  0.15690498912E+02  0.00000000000E+00 0.  1.
</event>
<event>
 7    1  0.5662448E-012  0.5930196E+02  0.7816164E-02  0.1266605E+00
        -11   -1    0    0    0    0  0.00000000000E+00  0.00000000000E+00  0.45593999997E+02  0.45594000000E+02  0.51100000000E-03 0.  1.
         11   -1    0    0    0    0 -0.00000000000E+00 -0.00000000000E+00 -0.45593999997E+02  0.45594000000E+02  0.51100000000E-03 0. -1.
    9900012    2    1    2    0    0  0.13843547278E+01  0.93744127133E+01  0.30445422827E+02  0.59301955673E+02  0.50000021238E+02 0.  0.
         12    1    1    2    0    0 -0.13843547278E+01 -0.93744127133E+01 -0.30445422827E+02  0.31886044327E+02  0.00000000000E+00 0. -1.
         11    1    3    3    0    0  0.73196901022E+01 -0.88355315488E+01  0.35062104362E+01  0.11997416090E+02  0.51100000000E-03 0. -1.
        -11    1    3    3    0    0  0.11775529226E+02  0.24017429692E+01  0.87539804760E+00  0.12049804141E+02  0.51100000000E-03 0.  1.
         12    1    3    3    0    0 -0.17710864600E+02  0.15808201293E+02  0.26063814343E+02  0.35254735442E+02  0.00000000000E+00 0. -1.
</event>
<event>
 7    1  0.5662448E-012  0.5930194E+02  0.7816164E-02  0.1266605E+00
        -11   -1    0    0    0    0  0.00000000000E+00  0.00000000000E+00  0.45593999997E+02  0.45594000000E+02  0.51100000000E-03 0.  1.
         11   -1    0    0    0    0 -0.00000000000E+00 -0.00000000000E+00 -0.45593999997E+02  0.45594000000E+02  0.51100000000E-03 0. -1.
    9900012    2    1    2    0    0 -0.41419992715E+01 -0.15418611144E+02  0.27601288264E+02  0.59301939701E+02  0.49999992109E+02 0.  0.
         12    1    1    2    0    0  0.41419992715E+01  0.15418611144E+02 -0.27601288264E+02  0.31886060299E+02  0.00000000000E+00 0. -1.
         11    1    3    3    0    0  0.44617890780E+01  0.78556885661E+01 -0.54037917639E+01  0.10527125454E+02  0.51100000000E-03 0. -1.
        -11    1    3    3    0    0 -0.94270516625E+01 -0.13940831620E+02  0.26873473556E+01  0.17042239447E+02  0.51100000000E-03 0.  1.
        -12    1    3    3    0    0  0.82326331305E+00 -0.93334680909E+01  0.30317732672E+02  0.31732574800E+02  0.00000000000E+00 0.  1.
</event>
<event>
 7    1  0.5662448E-012  0.5930196E+02  0.7816164E-02  0.1266605E+00
        -11   -1    0    0    0    0  0.00000000000E+00  0.00000000000E+00  0.45593999997E+02  0.45594000000E+02  0.51100000000E-03 0. -1.
         11   -1    0    0    0    0 -0.00000000000E+00 -0.00000000000E+00 -0.45593999997E+02  0.45594000000E+02  0.51100000000E-03 0.  1.
    9900012    2    1    2    0    0  0.13238090974E+02  0.24625612827E+02 -0.15331399833E+02  0.59301957904E+02  0.50000025306E+02 0.  0.
         12    1    1    2    0    0 -0.13238090974E+02 -0.24625612827E+02  0.15331399833E+02  0.31886042096E+02  0.00000000000E+00 0. -1.
         11    1    3    3    0    0 -0.13145343579E+02  0.49265467439E+01 -0.53787894561E+01  0.15033372772E+02  0.51100000000E-03 0.  1.
        -11    1    3    3    0    0  0.41877552935E+01  0.13720781004E+02 -0.14977160667E+02  0.20739153012E+02  0.51100000000E-03 0. -1.
         12    1    3    3    0    0  0.22195679259E+02  0.59782850794E+01  0.50245502904E+01  0.23529432119E+02  0.00000000000E+00 0. -1.
</event>
<event>
 7    1  0.5662448E-012  0.5930198E+02  0.7816164E-02  0.1266605E+00
        -11   -1    0    0    0    0  0.00000000000E+00  0.00000000000E+00  0.45593999997E+02  0.45594000000E+02  0.51100000000E-03 0.  1.
         11   -1    0    0    0    0 -0.00000000000E+00 -0.00000000000E+00 -0.45593999997E+02  0.45594000000E+02  0.51100000000E-03 0. -1.
    9900012    2    1    2    0    0  0.20824754354E+02  0.15754439576E+02  0.18298787961E+02  0.59301977966E+02  0.50000061896E+02 0.  0.
         12    1    1    2    0    0 -0.20824754354E+02 -0.15754439576E+02 -0.18298787961E+02  0.31886022034E+02  0.00000000000E+00 0. -1.
         11    1    3    3    0    0  0.14969477280E+02 -0.35029797786E+01  0.11856956517E+02  0.19415033749E+02  0.51100000000E-03 0. -1.
        -11    1    3    3    0    0  0.77451867387E+01  0.90369623106E+01  0.19714694181E+02  0.23028759678E+02  0.51100000000E-03 0.  1.
         12    1    3    3    0    0 -0.18899096646E+01  0.10220457044E+02 -0.13272862736E+02  0.16858184539E+02  0.00000000000E+00 0. -1.
</event>
<event>
 7    1  0.5662448E-012  0.5930195E+02  0.7816164E-02  0.1266605E+00
        -11   -1    0    0    0    0  0.00000000000E+00  0.00000000000E+00  0.45593999997E+02  0.45594000000E+02  0.51100000000E-03 0.  1.
         11   -1    0    0    0    0 -0.00000000000E+00 -0.00000000000E+00 -0.45593999997E+02  0.45594000000E+02  0.51100000000E-03 0. -1.
    9900012    2    1    2    0    0  0.18120942682E+02 -0.64498567298E+01  0.25431294986E+02  0.59301953206E+02  0.50000016739E+02 0.  0.
         12    1    1    2    0    0 -0.18120942682E+02  0.64498567298E+01 -0.25431294986E+02  0.31886046794E+02  0.00000000000E+00 0. -1.
         11    1    3    3    0    0 -0.57486368023E+01 -0.81614423195E+01 -0.64154096436E+01  0.11866484188E+02  0.51100000000E-03 0. -1.
        -11    1    3    3    0    0 -0.28777571750E+01 -0.48044854040E+01  0.12764524394E+02  0.13939069180E+02  0.51100000000E-03 0.  1.
         12    1    3    3    0    0  0.26747336659E+02  0.65160709937E+01  0.19082180235E+02  0.33496399838E+02  0.00000000000E+00 0. -1.
</event>
<event>
 7    1  0.5662448E-012  0.5930196E+02  0.7816164E-02  0.1266605E+00
        -11   -1    0    0    0    0  0.00000000000E+00  0.00000000000E+00  0.45593999997E+02  0.45594000000E+02  0.51100000000E-03 0.  1.
         11   -1    0    0    0    0 -0.00000000000E+00 -0.00000000000E+00 -0.45593999997E+02  0.45594000000E+02  0.51100000000E-03 0. -1.
    9900012    2    1    2    0    0  0.16794094546E+02 -0.27104717735E+02 -0.11170280414E+00  0.59301955833E+02  0.50000021530E+02 0.  0.
         12    1    1    2    0    0 -0.16794094546E+02  0.27104717735E+02  0.11170280414E+00  0.31886044167E+02  0.00000000000E+00 0. -1.
         11    1    3    3    0    0  0.19037692678E+02 -0.16920493537E+02 -0.34864906684E+00  0.25472699120E+02  0.51100000000E-03 0. -1.
        -11    1    3    3    0    0  0.14252404440E+01  0.17917787110E+01  0.14596262278E+02  0.14774730253E+02  0.51100000000E-03 0.  1.
        -12    1    3    3    0    0 -0.36688385761E+01 -0.11976002910E+02 -0.14359316016E+02  0.19054526460E+02  0.00000000000E+00 0.  1.
</event>
<event>
 7    1  0.5662448E-012  0.5930194E+02  0.7816164E-02  0.1266605E+00
        -11   -1    0    0    0    0  0.00000000000E+00  0.00000000000E+00  0.45593999997E+02  0.45594000000E+02  0.51100000000E-03 0.  1.
         11   -1    0    0    0    0 -0.00000000000E+00 -0.00000000000E+00 -0.45593999997E+02  0.45594000000E+02  0.51100000000E-03 0. -1.
    9900012    2    1    2    0    0  0.23238916883E+02 -0.16527913069E+02  0.14265392877E+02  0.59301943450E+02  0.49999998947E+02 0.  0.
         12    1    1    2    0    0 -0.23238916883E+02  0.16527913069E+02 -0.14265392877E+02  0.31886056550E+02  0.00000000000E+00 0. -1.
         11    1    3    3    0    0 -0.10276518409E+02  0.66250585521E+00 -0.20680462491E+01  0.10503454678E+02  0.51100000000E-03 0.  1.
        -11    1    3    3    0    0 -0.67337401153E+00 -0.55796002740E+01  0.10929417535E+02  0.12289733101E+02  0.51100000000E-03 0. -1.
         12    1    3    3    0    0  0.34188809304E+02 -0.11610818650E+02  0.54040215913E+01  0.36508755672E+02  0.00000000000E+00 0. -1.
</event>
<event>
 7    1  0.5662448E-012  0.5930193E+02  0.7816164E-02  0.1266605E+00
        -11   -1    0    0    0    0  0.00000000000E+00  0.00000000000E+00  0.45593999997E+02  0.45594000000E+02  0.51100000000E-03 0.  1.
         11   -1    0    0    0    0 -0.00000000000E+00 -0.00000000000E+00 -0.45593999997E+02  0.45594000000E+02  0.51100000000E-03 0. -1.
    9900012    2    1    2    0    0 -0.18070775751E+02  0.25613365354E+01  0.26145902589E+02  0.59301927754E+02  0.49999970320E+02 0.  0.
         12    1    1    2    0    0  0.18070775751E+02 -0.25613365354E+01 -0.26145902589E+02  0.31886072246E+02  0.00000000000E+00 0. -1.
         11    1    3    3    0    0  0.39319951591E+01 -0.67097902424E+01  0.76868771862E+01  0.10934804624E+02  0.51100000000E-03 0. -1.
        -11    1    3    3    0    0 -0.11631787891E+02 -0.14348488413E+02  0.43970170408E+01  0.18987136919E+02  0.51100000000E-03 0.  1.
        -12    1    3    3    0    0 -0.10370983019E+02  0.23619615191E+02  0.14062008362E+02  0.29379986210E+02  0.00000000000E+00 0.  1.
</event>
<event>
 7    1  0.5662448E-012  0.5930194E+02  0.7816164E-02  0.1266605E+00
        -11   -1    0    0    0    0  0.00000000000E+00  0.00000000000E+00  0.45593999997E+02  0.45594000000E+02  0.51100000000E-03 0. -1.
         11   -1    0    0    0    0 -0.00000000000E+00 -0.00000000000E+00 -0.45593999997E+02  0.45594000000E+02  0.51100000000E-03 0.  1.
    9900012    2    1    2    0    0  0.16906186165E+02  0.17323149504E+02  0.20755971974E+02  0.59301937026E+02  0.49999987231E+02 0.  0.
         12    1    1    2    0    0 -0.16906186165E+02 -0.17323149504E+02 -0.20755971974E+02  0.31886062974E+02  0.00000000000E+00 0. -1.
         11    1    3    3    0    0 -0.56644400650E+01  0.59460286681E+01 -0.30570394211E+01  0.87627979810E+01  0.51100000000E-03 0. -1.
        -11    1    3    3    0    0  0.15802466007E+02 -0.12050706881E+02  0.77099584205E+01  0.21316212781E+02  0.51100000000E-03 0.  1.
         12    1    3    3    0    0  0.67681602238E+01  0.23427827717E+02  0.16103052974E+02  0.29222926264E+02  0.00000000000E+00 0. -1.
</event>
<event>
 7    1  0.5662448E-012  0.5930193E+02  0.7816164E-02  0.1266605E+00
        -11   -1    0    0    0    0  0.00000000000E+00  0.00000000000E+00  0.45593999997E+02  0.45594000000E+02  0.51100000000E-03 0.  1.
         11   -1    0    0    0    0 -0.00000000000E+00 -0.00000000000E+00 -0.45593999997E+02  0.45594000000E+02  0.51100000000E-03 0. -1.
    9900012    2    1    2    0    0 -0.29295106501E+02  0.30373514644E+01  0.12218530249E+02  0.59301933289E+02  0.49999980416E+02 0.  0.
         12    1    1    2    0    0  0.29295106501E+02 -0.30373514644E+01 -0.12218530249E+02  0.31886066711E+02  0.00000000000E+00 0. -1.
         11    1    3    3    0    0 -0.56682635798E+01  0.99801153980E+01  0.23934135114E+01  0.11724348334E+02  0.51100000000E-03 0. -1.
        -11    1    3    3    0    0  0.48454512839E+01  0.10117049183E+02 -0.35886941888E+01  0.11777597742E+02  0.51100000000E-03 0.  1.
         12    1    3    3    0    0 -0.28472294205E+02 -0.17059813117E+02  0.13413810927E+02  0.35799987213E+02  0.00000000000E+00 0. -1.
</event>
<event>
 7    1  0.5662448E-012  0.5930192E+02  0.7816164E-02  0.1266605E+00
        -11   -1    0    0    0    0  0.00000000000E+00  0.00000000000E+00  0.45593999997E+02  0.45594000000E+02  0.51100000000E-03 0.  1.
         11   -1    0    0    0    0 -0.00000000000E+00 -0.00000000000E+00 -0.45593999997E+02  0.45594000000E+02  0.51100000000E-03 0. -1.
    9900012    2    1    2    0    0  0.11530950773E+02 -0.27655354050E+02  0.10906000538E+02  0.59301917125E+02  0.49999950937E+02 0.  0.
         12    1    1    2    0    0 -0.11530950773E+02  0.27655354050E+02 -0.10906000538E+02  0.31886082875E+02  0.00000000000E+00 0. -1.
         11    1    3    3    0    0  0.15649006448E+02  0.25615671537E+01 -0.97829362865E+01  0.18632199863E+02  0.51100000000E-03 0. -1.
        -11    1    3    3    0    0 -0.65985074387E+01 -0.29367543853E+01  0.69554524434E+01  0.10027120508E+02  0.51100000000E-03 0.  1.
        -12    1    3    3    0    0  0.24804517638E+01 -0.27280166818E+02  0.13733484381E+02  0.30642596754E+02  0.00000000000E+00 0.  1.
</event>
<event>
 7    1  0.5662448E-012  0.5930207E+02  0.7816164E-02  0.1266604E+00
        -11   -1    0    0    0    0  0.00000000000E+00  0.00000000000E+00  0.45593999997E+02  0.45594000000E+02  0.51100000000E-03 0. -1.
         11   -1    0    0    0    0 -0.00000000000E+00 -0.00000000000E+00 -0.45593999997E+02  0.45594000000E+02  0.51100000000E-03 0.  1.
    9900012    2    1    2    0    0 -0.13145730110E+02  0.46084870864E+00 -0.29046346453E+02  0.59302065108E+02  0.50000220822E+02 0.  0.
         12    1    1    2    0    0  0.13145730110E+02 -0.46084870864E+00  0.29046346453E+02  0.31885934892E+02  0.00000000000E+00 0. -1.
         11    1    3    3    0    0 -0.34948523992E+01 -0.48185036774E+01 -0.24585571444E+02  0.25295894815E+02  0.51100000000E-03 0. -1.
        -11    1    3    3    0    0 -0.62577075959E+00 -0.10819708263E+02 -0.99898256906E+01  0.14739548620E+02  0.51100000000E-03 0.  1.
         12    1    3    3    0    0 -0.90251069513E+01  0.16099060649E+02  0.55290506819E+01  0.19266621674E+02  0.00000000000E+00 0. -1.
</event>
<event>
 7    1  0.5662448E-012  0.5930191E+02  0.7816164E-02  0.1266605E+00
        -11   -1    0    0    0    0  0.00000000000E+00  0.00000000000E+00  0.45593999997E+02  0.45594000000E+02  0.51100000000E-03 0. -1.
         11   -1    0    0    0    0 -0.00000000000E+00 -0.00000000000E+00 -0.45593999997E+02  0.45594000000E+02  0.51100000000E-03 0.  1.
    9900012    2    1    2    0    0 -0.47015247153E+01 -0.22903513767E+02 -0.21680570748E+02  0.59301914861E+02  0.49999946806E+02 0.  0.
         12    1    1    2    0    0  0.47015247153E+01  0.22903513767E+02  0.21680570748E+02  0.31886085139E+02  0.00000000000E+00 0. -1.
         11    1    3    3    0    0 -0.99657279782E+01 -0.37322925051E+01  0.53369512933E+01  0.11904990166E+02  0.51100000000E-03 0. -1.
        -11    1    3    3    0    0 -0.75015795358E+01 -0.24113294485E+02 -0.17429208604E+02  0.30683904238E+02  0.51100000000E-03 0.  1.
         12    1    3    3    0    0  0.12765782799E+02  0.49420732233E+01 -0.95883134376E+01  0.16713020457E+02  0.00000000000E+00 0. -1.
</event>
<event>
 7    1  0.5662448E-012  0.5930190E+02  0.7816164E-02  0.1266605E+00
        -11   -1    0    0    0    0  0.00000000000E+00  0.00000000000E+00  0.45593999997E+02  0.45594000000E+02  0.51100000000E-03 0.  1.
         11   -1    0    0    0    0 -0.00000000000E+00 -0.00000000000E+00 -0.45593999997E+02  0.45594000000E+02  0.51100000000E-03 0. -1.
    9900012    2    1    2    0    0  0.97506992425E+01 -0.54961639160E+00  0.30353664725E+02  0.59301903091E+02  0.49999925341E+02 0.  0.
         12    1    1    2    0    0 -0.97506992425E+01  0.54961639160E+00 -0.30353664725E+02  0.31886096909E+02  0.00000000000E+00 0. -1.
         11    1    3    3    0    0 -0.23924047407E+01  0.15594570587E+01 -0.44663726983E+01  0.53013198453E+01  0.51100000000E-03 0. -1.
        -11    1    3    3    0    0 -0.75709532236E+01 -0.97259113828E+01 -0.10473523570E+01  0.12369706228E+02  0.51100000000E-03 0.  1.
         12    1    3    3    0    0  0.19714057207E+02  0.76168379325E+01  0.35867389780E+02  0.41630877018E+02  0.00000000000E+00 0. -1.
</event>
<event>
 7    1  0.5662448E-012  0.5930197E+02  0.7816164E-02  0.1266605E+00
        -11   -1    0    0    0    0  0.00000000000E+00  0.00000000000E+00  0.45593999997E+02  0.45594000000E+02  0.51100000000E-03 0.  1.
         11   -1    0    0    0    0 -0.00000000000E+00 -0.00000000000E+00 -0.45593999997E+02  0.45594000000E+02  0.51100000000E-03 0. -1.
    9900012    2    1    2    0    0 -0.23884145064E+02 -0.20530940407E+02  0.49746638096E+01  0.59301965762E+02  0.50000039638E+02 0.  0.
         12    1    1    2    0    0  0.23884145064E+02  0.20530940407E+02 -0.49746638096E+01  0.31886034238E+02  0.00000000000E+00 0. -1.
         11    1    3    3    0    0 -0.22660204706E+02  0.54388759647E+01 -0.42480165468E+01  0.23687800529E+02  0.51100000000E-03 0. -1.
        -11    1    3    3    0    0 -0.33105290642E+01 -0.94826913922E+00 -0.55136818187E+01  0.65007310746E+01  0.51100000000E-03 0.  1.
        -12    1    3    3    0    0  0.20865887059E+01 -0.25021547232E+02  0.14736362175E+02  0.29113434158E+02  0.00000000000E+00 0.  1.
</event>
<event>
 7    1  0.5662448E-012  0.5930204E+02  0.7816164E-02  0.1266604E+00
        -11   -1    0    0    0    0  0.00000000000E+00  0.00000000000E+00  0.45593999997E+02  0.45594000000E+02  0.51100000000E-03 0. -1.
         11   -1    0    0    0    0 -0.00000000000E+00 -0.00000000000E+00 -0.45593999997E+02  0.45594000000E+02  0.51100000000E-03 0.  1.
    9900012    2    1    2    0    0 -0.45519537456E+01 -0.27996541396E+02  0.14566658261E+02  0.59302044691E+02  0.50000183586E+02 0.  0.
         12    1    1    2    0    0  0.45519537456E+01  0.27996541396E+02 -0.14566658261E+02  0.31885955309E+02  0.00000000000E+00 0. -1.
         11    1    3    3    0    0 -0.10870369153E+02 -0.10015522250E+02  0.75839385250E+01  0.16612998985E+02  0.51100000000E-03 0. -1.
        -11    1    3    3    0    0  0.99814089174E+01  0.49040246825E+01  0.14545652051E+02  0.18309941997E+02  0.51100000000E-03 0.  1.
         12    1    3    3    0    0 -0.36629935105E+01 -0.22885043829E+02 -0.75629323151E+01  0.24379103710E+02  0.00000000000E+00 0. -1.
</event>
<event>
 7    1  0.5662448E-012  0.5930194E+02  0.7816164E-02  0.1266605E+00
        -11   -1    0    0    0    0  0.00000000000E+00  0.00000000000E+00  0.45593999997E+02  0.45594000000E+02  0.51100000000E-03 0.  1.
         11   -1    0    0    0    0 -0.00000000000E+00 -0.00000000000E+00 -0.45593999997E+02  0.45594000000E+02  0.51100000000E-03 0. -1.
    9900012    2    1    2    0    0 -0.27464377648E+02  0.15458278387E+02  0.48446561625E+01  0.59301935589E+02  0.49999984610E+02 0.  0.
         12    1    1    2    0    0  0.27464377648E+02 -0.15458278387E+02 -0.48446561625E+01  0.31886064411E+02  0.00000000000E+00 0. -1.
         11    1    3    3    0    0 -0.54053932584E+01 -0.73388148336E+01 -0.52535579863E+01  0.10520282849E+02  0.51100000000E-03 0. -1.
        -11    1    3    3    0    0 -0.20775328132E+01  0.25839348389E+02 -0.56638605694E+00  0.25928919399E+02  0.51100000000E-03 0.  1.
         12    1    3    3    0    0 -0.19981451577E+02 -0.30422551688E+01  0.10664600206E+02  0.22852733342E+02  0.00000000000E+00 0. -1.
</event>
<event>
 7    1  0.5662448E-012  0.5930195E+02  0.7816164E-02  0.1266605E+00
        -11   -1    0    0    0    0  0.00000000000E+00  0.00000000000E+00  0.45593999997E+02  0.45594000000E+02  0.51100000000E-03 0. -1.
         11   -1    0    0    0    0 -0.00000000000E+00 -0.00000000000E+00 -0.45593999997E+02  0.45594000000E+02  0.51100000000E-03 0.  1.
    9900012    2    1    2    0    0  0.23171794726E+02 -0.21903386030E+02 -0.17206405360E+00  0.59301952951E+02  0.50000016274E+02 0.  0.
         12    1    1    2    0    0 -0.23171794726E+02  0.21903386030E+02  0.17206405360E+00  0.31886047049E+02  0.00000000000E+00 0. -1.
         11    1    3    3    0    0 -0.19753184743E+00 -0.23151172337E+01  0.28184642575E+01  0.36527424859E+01  0.51100000000E-03 0. -1.
        -11    1    3    3    0    0 -0.95865854992E+01 -0.69612075440E+01 -0.14317764331E+02  0.18583848033E+02  0.51100000000E-03 0.  1.
        -12    1    3    3    0    0  0.32955912072E+02 -0.12627061252E+02  0.11327236020E+02  0.37065362432E+02  0.00000000000E+00 0.  1.
</event>
<event>
 7    1  0.5662448E-012  0.5930190E+02  0.7816164E-02  0.1266605E+00
        -11   -1    0    0    0    0  0.00000000000E+00  0.00000000000E+00  0.45593999997E+02  0.45594000000E+02  0.51100000000E-03 0. -1.
         11   -1    0    0    0    0 -0.00000000000E+00 -0.00000000000E+00 -0.45593999997E+02  0.45594000000E+02  0.51100000000E-03 0.  1.
    9900012    2    1    2    0    0  0.28779514413E+02 -0.85977388248E+01  0.10702424970E+02  0.59301898592E+02  0.49999917136E+02 0.  0.
         12    1    1    2    0    0 -0.28779514413E+02  0.85977388248E+01 -0.10702424970E+02  0.31886101408E+02  0.00000000000E+00 0. -1.
         11    1    3    3    0    0 -0.95848747299E+00 -0.14035504304E+01  0.17995153518E+01  0.24752591397E+01  0.51100000000E-03 0. -1.
        -11    1    3    3    0    0  0.64692403198E+01  0.18748720954E+02  0.94576050096E+01  0.21972981147E+02  0.51100000000E-03 0.  1.
        -12    1    3    3    0    0  0.23268761567E+02 -0.25942909348E+02 -0.55469539187E+00  0.34853658305E+02  0.00000000000E+00 0.  1.
</event>
<event>
 7    1  0.5662448E-012  0.5930195E+02  0.7816164E-02  0.1266605E+00
        -11   -1    0    0    0    0  0.00000000000E+00  0.00000000000E+00  0.45593999997E+02  0.45594000000E+02  0.51100000000E-03 0.  1.
         11   -1    0    0    0    0 -0.00000000000E+00 -0.00000000000E+00 -0.45593999997E+02  0.45594000000E+02  0.51100000000E-03 0. -1.
    9900012    2    1    2    0    0 -0.30314785563E+02  0.98042431097E+01  0.12691318528E+01  0.59301951290E+02  0.50000013245E+02 0.  0.
         12    1    1    2    0    0  0.30314785563E+02 -0.98042431097E+01 -0.12691318528E+01  0.31886048710E+02  0.00000000000E+00 0. -1.
         11    1    3    3    0    0 -0.33536357099E+02  0.88188326475E+01 -0.46644068291E+00  0.34679628370E+02  0.51100000000E-03 0. -1.
        -11    1    3    3    0    0 -0.56119024289E+01  0.10227353077E+02  0.19948254339E+01  0.11835181815E+02  0.51100000000E-03 0.  1.
         12    1    3    3    0    0  0.88334739646E+01 -0.92419426144E+01 -0.25925289817E+00  0.12787141105E+02  0.00000000000E+00 0. -1.
</event>
<event>
 7    1  0.5662448E-012  0.5930192E+02  0.7816164E-02  0.1266605E+00
        -11   -1    0    0    0    0  0.00000000000E+00  0.00000000000E+00  0.45593999997E+02  0.45594000000E+02  0.51100000000E-03 0.  1.
         11   -1    0    0    0    0 -0.00000000000E+00 -0.00000000000E+00 -0.45593999997E+02  0.45594000000E+02  0.51100000000E-03 0. -1.
    9900012    2    1    2    0    0 -0.24112513092E+02 -0.94512380980E+01  0.18600615632E+02  0.59301920104E+02  0.49999956370E+02 0.  0.
         12    1    1    2    0    0  0.24112513092E+02  0.94512380980E+01 -0.18600615632E+02  0.31886079896E+02  0.00000000000E+00 0. -1.
         11    1    3    3    0    0  0.28602952555E+01  0.11701526328E+02  0.16364433277E+02  0.20319982384E+02  0.51100000000E-03 0. -1.
        -11    1    3    3    0    0 -0.61850457057E+00 -0.10340790908E+02  0.16509254805E+01  0.10489998079E+02  0.51100000000E-03 0.  1.
        -12    1    3    3    0    0 -0.26354303777E+02 -0.10811973518E+02  0.58525687543E+00  0.28491939642E+02  0.00000000000E+00 0.  1.
</event>
<event>
 7    1  0.5662448E-012  0.5930211E+02  0.7816164E-02  0.1266604E+00
        -11   -1    0    0    0    0  0.00000000000E+00  0.00000000000E+00  0.45593999997E+02  0.45594000000E+02  0.51100000000E-03 0.  1.
         11   -1    0    0    0    0 -0.00000000000E+00 -0.00000000000E+00 -0.45593999997E+02  0.45594000000E+02  0.51100000000E-03 0. -1.
    9900012    2    1    2    0    0  0.14725807205E+02  0.18509358847E+02  0.21383737844E+02  0.59302109595E+02  0.50000301954E+02 0.  0.
         12    1    1    2    0    0 -0.14725807205E+02 -0.18509358847E+02 -0.21383737844E+02  0.31885890405E+02  0.00000000000E+00 0. -1.
         11    1    3    3    0    0  0.11401004503E+02  0.13020390953E+02  0.14793661873E+02  0.22767650650E+02  0.51100000000E-03 0. -1.
        -11    1    3    3    0    0  0.88151050189E+01  0.24966202935E+01  0.19856547041E+02  0.21868279540E+02  0.51100000000E-03 0.  1.
         12    1    3    3    0    0 -0.54903023167E+01  0.29923476001E+01 -0.13266471070E+02  0.14666179405E+02  0.00000000000E+00 0. -1.
</event>
<event>
 7    1  0.5662448E-012  0.5930195E+02  0.7816164E-02  0.1266605E+00
        -11   -1    0    0    0    0  0.00000000000E+00  0.00000000000E+00  0.45593999997E+02  0.45594000000E+02  0.51100000000E-03 0.  1.
         11   -1    0    0    0    0 -0.00000000000E+00 -0.00000000000E+00 -0.45593999997E+02  0.45594000000E+02  0.51100000000E-03 0. -1.
    9900012    2    1    2    0    0 -0.19596640599E+02 -0.18825252835E+02 -0.16682372790E+02  0.59301952440E+02  0.50000015342E+02 0.  0.
         12    1    1    2    0    0  0.19596640599E+02  0.18825252835E+02  0.16682372790E+02  0.31886047560E+02  0.00000000000E+00 0. -1.
         11    1    3    3    0    0 -0.91700169692E+01 -0.55758298911E+01 -0.91684391169E+01  0.14115217543E+02  0.51100000000E-03 0. -1.
        -11    1    3    3    0    0 -0.84964894706E+01 -0.26003513336E+02 -0.14019758137E+02  0.30739659361E+02  0.51100000000E-03 0.  1.
         12    1    3    3    0    0 -0.19301341595E+01  0.12754090392E+02  0.65058244634E+01  0.14447075536E+02  0.00000000000E+00 0. -1.
</event>
<event>
 7    1  0.5662448E-012  0.5930193E+02  0.7816164E-02  0.1266605E+00
        -11   -1    0    0    0    0  0.00000000000E+00  0.00000000000E+00  0.45593999997E+02  0.45594000000E+02  0.51100000000E-03 0.  1.
         11   -1    0    0    0    0 -0.00000000000E+00 -0.00000000000E+00 -0.45593999997E+02  0.45594000000E+02  0.51100000000E-03 0. -1.
    9900012    2    1    2    0    0  0.27608690884E+02 -0.52652433472E+01  0.15058510778E+02  0.59301931778E+02  0.49999977659E+02 0.  0.
         12    1    1    2    0    0 -0.27608690884E+02  0.52652433472E+01 -0.15058510778E+02  0.31886068222E+02  0.00000000000E+00 0. -1.
         11    1    3    3    0    0 -0.10273876308E+02 -0.10402804135E+00 -0.72255091293E+01  0.12560706137E+02  0.51100000000E-03 0. -1.
        -11    1    3    3    0    0  0.13972457551E+02  0.46397290683E+01  0.11746233317E+02  0.18834294604E+02  0.51100000000E-03 0.  1.
        -12    1    3    3    0    0  0.23910109641E+02 -0.98009443741E+01  0.10537786590E+02  0.27906931036E+02  0.00000000000E+00 0.  1.
</event>
<event>
 7    1  0.5662448E-012  0.5930201E+02  0.7816164E-02  0.1266605E+00
        -11   -1    0    0    0    0  0.00000000000E+00  0.00000000000E+00  0.45593999997E+02  0.45594000000E+02  0.51100000000E-03 0. -1.
         11   -1    0    0    0    0 -0.00000000000E+00 -0.00000000000E+00 -0.45593999997E+02  0.45594000000E+02  0.51100000000E-03 0.  1.
    9900012    2    1    2    0    0 -0.23210175003E+02 -0.12183518335E+02 -0.18153958452E+02  0.59302006991E+02  0.50000114830E+02 0.  0.
         12    1    1    2    0    0  0.23210175003E+02  0.12183518335E+02  0.18153958452E+02  0.31885993009E+02  0.00000000000E+00 0. -1.
         11    1    3    3    0    0 -0.19589005716E+01 -0.15159104738E+02 -0.77094480067E+01  0.17119326410E+02  0.51100000000E-03 0. -1.
        -11    1    3    3    0    0 -0.17383360485E+02 -0.10258052372E+02 -0.17482480022E+02  0.26702920593E+02  0.51100000000E-03 0.  1.
         12    1    3    3    0    0 -0.38679139461E+01  0.13233638775E+02  0.70379695762E+01  0.15479759988E+02  0.00000000000E+00 0. -1.
</event>
<event>
 7    1  0.5662448E-012  0.5930193E+02  0.7816164E-02  0.1266605E+00
        -11   -1    0    0    0    0  0.00000000000E+00  0.00000000000E+00  0.45593999997E+02  0.45594000000E+02  0.51100000000E-03 0. -1.
         11   -1    0    0    0    0 -0.00000000000E+00 -0.00000000000E+00 -0.45593999997E+02  0.45594000000E+02  0.51100000000E-03 0.  1.
    9900012    2    1    2    0    0  0.17334730114E+02 -0.99136510963E+01  0.24858555804E+02  0.59301934974E+02  0.49999983488E+02 0.  0.
         12    1    1    2    0    0 -0.17334730114E+02  0.99136510963E+01 -0.24858555804E+02  0.31886065026E+02  0.00000000000E+00 0. -1.
         11    1    3    3    0    0 -0.46135430154E+01 -0.32722849579E+01  0.57308688118E+01  0.80520485344E+01  0.51100000000E-03 0. -1.
        -11    1    3    3    0    0 -0.22806378017E+01 -0.62279387190E+01 -0.10841599762E+02  0.12709398693E+02  0.51100000000E-03 0.  1.
        -12    1    3    3    0    0  0.24228910931E+02 -0.41342741936E+00  0.29969286755E+02  0.38540487746E+02  0.00000000000E+00 0.  1.
</event>
<event>
 7    1  0.5662448E-012  0.5930170E+02  0.7816164E-02  0.1266606E+00
        -11   -1    0    0    0    0  0.00000000000E+00  0.00000000000E+00  0.45593999997E+02  0.45594000000E+02  0.51100000000E-03 0. -1.
         11   -1    0    0    0    0 -0.00000000000E+00 -0.00000000000E+00 -0.45593999997E+02  0.45594000000E+02  0.51100000000E-03 0.  1.
    9900012    2    1    2    0    0  0.16686180476E+02  0.11327855161E+01  0.27148187657E+02  0.59301703336E+02  0.49999561033E+02 0.  0.
         12    1    1    2    0    0 -0.16686180476E+02 -0.11327855161E+01 -0.27148187657E+02  0.31886296664E+02  0.00000000000E+00 0. -1.
         11    1    3    3    0    0 -0.74082591218E+01  0.15663801089E+02  0.68838997134E+01  0.18644705503E+02  0.51100000000E-03 0. -1.
        -11    1    3    3    0    0  0.70229047949E+01  0.34239553111E+01 -0.11654167118E+01  0.78995479683E+01  0.51100000000E-03 0.  1.
         12    1    3    3    0    0  0.17071534803E+02 -0.17954970884E+02  0.21429704655E+02  0.32757449864E+02  0.00000000000E+00 0. -1.
</event>
<event>
 7    1  0.5662448E-012  0.5930229E+02  0.7816164E-02  0.1266604E+00
        -11   -1    0    0    0    0  0.00000000000E+00  0.00000000000E+00  0.45593999997E+02  0.45594000000E+02  0.51100000000E-03 0.  1.
         11   -1    0    0    0    0 -0.00000000000E+00 -0.00000000000E+00 -0.45593999997E+02  0.45594000000E+02  0.51100000000E-03 0. -1.
    9900012    2    1    2    0    0 -0.92858268606E+00 -0.26384064358E+02 -0.17880643191E+02  0.59302289740E+02  0.50000630492E+02 0.  0.
         12    1    1    2    0    0  0.92858268606E+00  0.26384064358E+02  0.17880643191E+02  0.31885710260E+02  0.00000000000E+00 0. -1.
         11    1    3    3    0    0  0.22175987598E+01 -0.51975595896E+01 -0.11753621578E+02  0.13041471942E+02  0.51100000000E-03 0. -1.
        -11    1    3    3    0    0  0.60218519483E+01  0.10372895855E+02 -0.59667492606E+01  0.13396334062E+02  0.51100000000E-03 0.  1.
        -12    1    3    3    0    0 -0.91680333942E+01 -0.31559400623E+02 -0.16027235260E+00  0.32864483736E+02  0.00000000000E+00 0.  1.
</event>
<event>
 7    1  0.5662448E-012  0.5930193E+02  0.7816164E-02  0.1266605E+00
        -11   -1    0    0    0    0  0.00000000000E+00  0.00000000000E+00  0.45593999997E+02  0.45594000000E+02  0.51100000000E-03 0. -1.
         11   -1    0    0    0    0 -0.00000000000E+00 -0.00000000000E+00 -0.45593999997E+02  0.45594000000E+02  0.51100000000E-03 0.  1.
    9900012    2    1    2    0    0 -0.27499199711E+02  0.10550506438E+02 -0.12214842396E+02  0.59301928658E+02  0.49999971970E+02 0.  0.
         12    1    1    2    0    0  0.27499199711E+02 -0.10550506438E+02  0.12214842396E+02  0.31886071342E+02  0.00000000000E+00 0. -1.
         11    1    3    3    0    0 -0.10511636179E+02  0.16797474341E+02 -0.11475011828E+01  0.19848586816E+02  0.51100000000E-03 0. -1.
        -11    1    3    3    0    0 -0.18713077738E+02  0.93801790652E+01 -0.11179656285E+02  0.23730818625E+02  0.51100000000E-03 0.  1.
         12    1    3    3    0    0  0.17255142054E+01 -0.15627146968E+02  0.11231507100E+00  0.15722523217E+02  0.00000000000E+00 0. -1.
</event>
<event>
 7    1  0.5662448E-012  0.5930195E+02  0.7816164E-02  0.1266605E+00
        -11   -1    0    0    0    0  0.00000000000E+00  0.00000000000E+00  0.45593999997E+02  0.45594000000E+02  0.51100000000E-03 0. -1.
         11   -1    0    0    0    0 -0.00000000000E+00 -0.00000000000E+00 -0.45593999997E+02  0.45594000000E+02  0.51100000000E-03 0.  1.
    9900012    2    1    2    0    0 -0.61777192874E+01 -0.25707796306E+02 -0.17823156523E+02  0.59301954229E+02  0.50000018605E+02 0.  0.
         12    1    1    2    0    0  0.61777192874E+01  0.25707796306E+02  0.17823156523E+02  0.31886045771E+02  0.00000000000E+00 0. -1.
         11    1    3    3    0    0 -0.61367150851E+01 -0.14344222447E+02  0.12600731547E+02  0.20054785599E+02  0.51100000000E-03 0. -1.
        -11    1    3    3    0    0  0.36448224737E+01  0.23098468362E+01  0.12993896061E+01  0.45064994043E+01  0.51100000000E-03 0.  1.
        -12    1    3    3    0    0 -0.36858266759E+01 -0.13673420694E+02 -0.31723277675E+02  0.34740669226E+02  0.00000000000E+00 0.  1.
</event>
<event>
 7    1  0.5662448E-012  0.5930195E+02  0.7816164E-02  0.1266605E+00
        -11   -1    0    0    0    0  0.00000000000E+00  0.00000000000E+00  0.45593999997E+02  0.45594000000E+02  0.51100000000E-03 0.  1.
         11   -1    0    0    0    0 -0.00000000000E+00 -0.00000000000E+00 -0.45593999997E+02  0.45594000000E+02  0.51100000000E-03 0. -1.
    9900012    2    1    2    0    0 -0.96001842860E+01  0.10029055767E+02  0.28704957212E+02  0.59301951853E+02  0.50000014272E+02 0.  0.
         12    1    1    2    0    0  0.96001842860E+01 -0.10029055767E+02 -0.28704957212E+02  0.31886048147E+02  0.00000000000E+00 0. -1.
         11    1    3    3    0    0  0.68749177684E+01 -0.10788839341E+01 -0.83180224114E+00  0.70085933036E+01  0.51100000000E-03 0. -1.
        -11    1    3    3    0    0  0.10420864041E+02 -0.37304147851E+01  0.14069448479E+02  0.17901390522E+02  0.51100000000E-03 0.  1.
        -12    1    3    3    0    0 -0.26895966096E+02  0.14838354486E+02  0.15467310973E+02  0.34391968028E+02  0.00000000000E+00 0.  1.
</event>
<event>
 7    1  0.5662448E-012  0.5930192E+02  0.7816164E-02  0.1266605E+00
        -11   -1    0    0    0    0  0.00000000000E+00  0.00000000000E+00  0.45593999997E+02  0.45594000000E+02  0.51100000000E-03 0. -1.
         11   -1    0    0    0    0 -0.00000000000E+00 -0.00000000000E+00 -0.45593999997E+02  0.45594000000E+02  0.51100000000E-03 0.  1.
    9900012    2    1    2    0    0  0.11075656676E+01 -0.31593498919E+02 -0.41648866009E+01  0.59301919086E+02  0.49999954513E+02 0.  0.
         12    1    1    2    0    0 -0.11075656676E+01  0.31593498919E+02  0.41648866009E+01  0.31886080914E+02  0.00000000000E+00 0. -1.
         11    1    3    3    0    0  0.13494167072E+02 -0.36300533592E+01  0.43388378235E+01  0.14631997344E+02  0.51100000000E-03 0. -1.
        -11    1    3    3    0    0  0.71361905951E+01  0.21156949035E+01  0.11556046079E+01  0.75323836470E+01  0.51100000000E-03 0.  1.
         12    1    3    3    0    0 -0.19522791999E+02 -0.30079140463E+02 -0.96593290322E+01  0.37137538096E+02  0.00000000000E+00 0. -1.
</event>
<event>
 7    1  0.5662448E-012  0.5930196E+02  0.7816164E-02  0.1266605E+00
        -11   -1    0    0    0    0  0.00000000000E+00  0.00000000000E+00  0.45593999997E+02  0.45594000000E+02  0.51100000000E-03 0.  1.
         11   -1    0    0    0    0 -0.00000000000E+00 -0.00000000000E+00 -0.45593999997E+02  0.45594000000E+02  0.51100000000E-03 0. -1.
    9900012    2    1    2    0    0  0.12402558396E+02  0.17055345665E+02  0.23916761833E+02  0.59301956547E+02  0.50000022832E+02 0.  0.
         12    1    1    2    0    0 -0.12402558396E+02 -0.17055345665E+02 -0.23916761833E+02  0.31886043453E+02  0.00000000000E+00 0. -1.
         11    1    3    3    0    0  0.23198515167E+01  0.74828561451E+01 -0.63317584156E+01  0.10073033905E+02  0.51100000000E-03 0. -1.
        -11    1    3    3    0    0  0.12180593404E+02  0.16036686686E+01 -0.48258797934E+01  0.13199535027E+02  0.51100000000E-03 0.  1.
        -12    1    3    3    0    0 -0.20978865253E+01  0.79688208508E+01  0.35074400043E+02  0.36029387616E+02  0.00000000000E+00 0.  1.
</event>
<event>
 7    1  0.5662448E-012  0.5930192E+02  0.7816164E-02  0.1266605E+00
        -11   -1    0    0    0    0  0.00000000000E+00  0.00000000000E+00  0.45593999997E+02  0.45594000000E+02  0.51100000000E-03 0.  1.
         11   -1    0    0    0    0 -0.00000000000E+00 -0.00000000000E+00 -0.45593999997E+02  0.45594000000E+02  0.51100000000E-03 0. -1.
    9900012    2    1    2    0    0  0.23347847036E+02  0.13533627497E+01  0.21674147783E+02  0.59301917863E+02  0.49999952281E+02 0.  0.
         12    1    1    2    0    0 -0.23347847036E+02 -0.13533627497E+01 -0.21674147783E+02  0.31886082137E+02  0.00000000000E+00 0. -1.
         11    1    3    3    0    0  0.10669276587E+02  0.12470101746E+02  0.10831027149E+02  0.19663368221E+02  0.51100000000E-03 0. -1.
        -11    1    3    3    0    0  0.15593600860E+02  0.99580403138E+00  0.19111495372E+02  0.24686054141E+02  0.51100000000E-03 0.  1.
         12    1    3    3    0    0 -0.29150304101E+01 -0.12112543028E+02 -0.82683747381E+01  0.14952495501E+02  0.00000000000E+00 0. -1.
</event>
<event>
 7    1  0.5662448E-012  0.5930190E+02  0.7816164E-02  0.1266605E+00
        -11   -1    0    0    0    0  0.00000000000E+00  0.00000000000E+00  0.45593999997E+02  0.45594000000E+02  0.51100000000E-03 0.  1.
         11   -1    0    0    0    0 -0.00000000000E+00 -0.00000000000E+00 -0.45593999997E+02  0.45594000000E+02  0.51100000000E-03 0. -1.
    9900012    2    1    2    0    0 -0.24928721764E+02 -0.90556169302E+01  0.17699659575E+02  0.59301900900E+02  0.49999921345E+02 0.  0.
         12    1    1    2    0    0  0.24928721764E+02  0.90556169302E+01 -0.17699659575E+02  0.31886099100E+02  0.00000000000E+00 0. -1.
         11    1    3    3    0    0  0.90496821559E+01 -0.34400036661E+01 -0.28413664544E+01  0.10089783741E+02  0.51100000000E-03 0. -1.
        -11    1    3    3    0    0 -0.34597914925E+02 -0.13231436697E+02  0.16257306293E+02  0.40452276109E+02  0.51100000000E-03 0.  1.
         12    1    3    3    0    0  0.61951100534E+00  0.76158234329E+01  0.42837197365E+01  0.87598410503E+01  0.00000000000E+00 0. -1.
</event>
<event>
 7    1  0.5662448E-012  0.5930194E+02  0.7816164E-02  0.1266605E+00
        -11   -1    0    0    0    0  0.00000000000E+00  0.00000000000E+00  0.45593999997E+02  0.45594000000E+02  0.51100000000E-03 0.  1.
         11   -1    0    0    0    0 -0.00000000000E+00 -0.00000000000E+00 -0.45593999997E+02  0.45594000000E+02  0.51100000000E-03 0. -1.
    9900012    2    1    2    0    0 -0.12921745749E+02 -0.28782980992E+02  0.46140686581E+01  0.59301935057E+02  0.49999983640E+02 0.  0.
         12    1    1    2    0    0  0.12921745749E+02  0.28782980992E+02 -0.46140686581E+01  0.31886064943E+02  0.00000000000E+00 0. -1.
         11    1    3    3    0    0 -0.79064160833E+01 -0.93095462685E+01  0.28243534594E+01  0.12536189203E+02  0.51100000000E-03 0. -1.
        -11    1    3    3    0    0 -0.46331499898E+00 -0.32290629265E+02 -0.27891722644E+01  0.32414177165E+02  0.51100000000E-03 0.  1.
         12    1    3    3    0    0 -0.45520146663E+01  0.12817194542E+02  0.45788874632E+01  0.14351568689E+02  0.00000000000E+00 0. -1.
</event>
<event>
 7    1  0.5662448E-012  0.5930195E+02  0.7816164E-02  0.1266605E+00
        -11   -1    0    0    0    0  0.00000000000E+00  0.00000000000E+00  0.45593999997E+02  0.45594000000E+02  0.51100000000E-03 0.  1.
         11   -1    0    0    0    0 -0.00000000000E+00 -0.00000000000E+00 -0.45593999997E+02  0.45594000000E+02  0.51100000000E-03 0. -1.
    9900012    2    1    2    0    0 -0.69239042071E+01  0.24563992769E+02  0.19115173853E+02  0.59301951928E+02  0.50000014408E+02 0.  0.
         12    1    1    2    0    0  0.69239042071E+01 -0.24563992769E+02 -0.19115173853E+02  0.31886048072E+02  0.00000000000E+00 0. -1.
         11    1    3    3    0    0 -0.96399233939E+01  0.13070915875E+02 -0.66961835579E+01  0.17567465365E+02  0.51100000000E-03 0. -1.
        -11    1    3    3    0    0 -0.11866813846E+02  0.10435470136E+02  0.55506834989E+01  0.16749041626E+02  0.51100000000E-03 0.  1.
         12    1    3    3    0    0  0.14582833033E+02  0.10576067582E+01  0.20260673911E+02  0.24985444937E+02  0.00000000000E+00 0. -1.
</event>
<event>
 7    1  0.5662448E-012  0.5930193E+02  0.7816164E-02  0.1266605E+00
        -11   -1    0    0    0    0  0.00000000000E+00  0.00000000000E+00  0.45593999997E+02  0.45594000000E+02  0.51100000000E-03 0.  1.
         11   -1    0    0    0    0 -0.00000000000E+00 -0.00000000000E+00 -0.45593999997E+02  0.45594000000E+02  0.51100000000E-03 0. -1.
    9900012    2    1    2    0    0 -0.29319336299E+02 -0.44700969118E+01 -0.11709662755E+02  0.59301930169E+02  0.49999974725E+02 0.  0.
         12    1    1    2    0    0  0.29319336299E+02  0.44700969118E+01  0.11709662755E+02  0.31886069831E+02  0.00000000000E+00 0. -1.
         11    1    3    3    0    0 -0.43971713627E+01  0.18246221923E+01  0.83997074285E+01  0.96550218686E+01  0.51100000000E-03 0. -1.
        -11    1    3    3    0    0 -0.32823904400E+02  0.32568955650E+01 -0.14139438417E+02  0.35887878006E+02  0.51100000000E-03 0.  1.
         12    1    3    3    0    0  0.79017394637E+01 -0.95516146690E+01 -0.59699317670E+01  0.13759030294E+02  0.00000000000E+00 0. -1.
</event>
<event>
 7    1  0.5662448E-012  0.5930195E+02  0.7816164E-02  0.1266605E+00
        -11   -1    0    0    0    0  0.00000000000E+00  0.00000000000E+00  0.45593999997E+02  0.45594000000E+02  0.51100000000E-03 0.  1.
         11   -1    0    0    0    0 -0.00000000000E+00 -0.00000000000E+00 -0.45593999997E+02  0.45594000000E+02  0.51100000000E-03 0. -1.
    9900012    2    1    2    0    0  0.30459450996E+02 -0.66992825219E+01  0.66379004141E+01  0.59301948768E+02  0.50000008645E+02 0.  0.
         12    1    1    2    0    0 -0.30459450996E+02  0.66992825219E+01 -0.66379004141E+01  0.31886051232E+02  0.00000000000E+00 0. -1.
         11    1    3    3    0    0  0.10573268225E+02 -0.22344602282E+01 -0.13426435726E+02  0.17235312299E+02  0.51100000000E-03 0. -1.
        -11    1    3    3    0    0  0.21898799084E+02 -0.13525163705E+02  0.20302653345E+02  0.32782391427E+02  0.51100000000E-03 0.  1.
         12    1    3    3    0    0 -0.20126163130E+01  0.90603414108E+01 -0.23831720521E+00  0.92842450417E+01  0.00000000000E+00 0. -1.
</event>
<event>
 7    1  0.5662448E-012  0.5930196E+02  0.7816164E-02  0.1266605E+00
        -11   -1    0    0    0    0  0.00000000000E+00  0.00000000000E+00  0.45593999997E+02  0.45594000000E+02  0.51100000000E-03 0. -1.
         11   -1    0    0    0    0 -0.00000000000E+00 -0.00000000000E+00 -0.45593999997E+02  0.45594000000E+02  0.51100000000E-03 0.  1.
    9900012    2    1    2    0    0  0.11383269879E+02 -0.27016336184E+02 -0.12540261718E+02  0.59301962023E+02  0.50000032818E+02 0.  0.
         12    1    1    2    0    0 -0.11383269879E+02  0.27016336184E+02  0.12540261718E+02  0.31886037977E+02  0.00000000000E+00 0. -1.
         11    1    3    3    0    0  0.17095546194E+02 -0.45643935643E+01  0.28142747608E+01  0.17916794663E+02  0.51100000000E-03 0. -1.
        -11    1    3    3    0    0 -0.26365133680E+01 -0.25954530131E+02 -0.21406240972E+02  0.33746347801E+02  0.51100000000E-03 0.  1.
         12    1    3    3    0    0 -0.30757629470E+01  0.35025875112E+01  0.60517044939E+01  0.76388195594E+01  0.00000000000E+00 0. -1.
</event>
<event>
 7    1  0.5662448E-012  0.5930196E+02  0.7816164E-02  0.1266605E+00
        -11   -1    0    0    0    0  0.00000000000E+00  0.00000000000E+00  0.45593999997E+02  0.45594000000E+02  0.51100000000E-03 0. -1.
         11   -1    0    0    0    0 -0.00000000000E+00 -0.00000000000E+00 -0.45593999997E+02  0.45594000000E+02  0.51100000000E-03 0.  1.
    9900012    2    1    2    0    0  0.15793134202E+02 -0.26107872578E+02 -0.92561112914E+01  0.59301957682E+02  0.50000024901E+02 0.  0.
         12    1    1    2    0    0 -0.15793134202E+02  0.26107872578E+02  0.92561112914E+01  0.31886042318E+02  0.00000000000E+00 0. -1.
         11    1    3    3    0    0  0.20502576210E+02 -0.16519709564E+01  0.95777628479E+01  0.22689605125E+02  0.51100000000E-03 0. -1.
        -11    1    3    3    0    0  0.65489161911E+00 -0.12171167112E+02  0.14757396121E+01  0.12277784799E+02  0.51100000000E-03 0.  1.
         12    1    3    3    0    0 -0.53643336268E+01 -0.12284734510E+02 -0.20309613751E+02  0.24334567758E+02  0.00000000000E+00 0. -1.
</event>
<event>
 7    1  0.5662448E-012  0.5930195E+02  0.7816164E-02  0.1266605E+00
        -11   -1    0    0    0    0  0.00000000000E+00  0.00000000000E+00  0.45593999997E+02  0.45594000000E+02  0.51100000000E-03 0. -1.
         11   -1    0    0    0    0 -0.00000000000E+00 -0.00000000000E+00 -0.45593999997E+02  0.45594000000E+02  0.51100000000E-03 0.  1.
    9900012    2    1    2    0    0 -0.69704990052E+01 -0.24755151006E+02 -0.18849794068E+02  0.59301951419E+02  0.50000013480E+02 0.  0.
         12    1    1    2    0    0  0.69704990052E+01  0.24755151006E+02  0.18849794068E+02  0.31886048581E+02  0.00000000000E+00 0. -1.
         11    1    3    3    0    0  0.10086757769E+02 -0.11298528057E+02  0.86366167946E+01  0.17435325304E+02  0.51100000000E-03 0. -1.
        -11    1    3    3    0    0 -0.94421297542E+01 -0.90866003110E+01 -0.97197167647E-01  0.13104562833E+02  0.51100000000E-03 0.  1.
        -12    1    3    3    0    0 -0.76151270204E+01 -0.43700226378E+01 -0.27389213695E+02  0.28762063282E+02  0.00000000000E+00 0.  1.
</event>
<event>
 7    1  0.5662448E-012  0.5930194E+02  0.7816164E-02  0.1266605E+00
        -11   -1    0    0    0    0  0.00000000000E+00  0.00000000000E+00  0.45593999997E+02  0.45594000000E+02  0.51100000000E-03 0. -1.
         11   -1    0    0    0    0 -0.00000000000E+00 -0.00000000000E+00 -0.45593999997E+02  0.45594000000E+02  0.51100000000E-03 0.  1.
    9900012    2    1    2    0    0  0.30994779017E+02  0.41454623366E+01 -0.62337739330E+01  0.59301935305E+02  0.49999984091E+02 0.  0.
         12    1    1    2    0    0 -0.30994779017E+02 -0.41454623366E+01  0.62337739330E+01  0.31886064695E+02  0.00000000000E+00 0. -1.
         11    1    3    3    0    0  0.32148885279E+02  0.29632659319E+00 -0.12143192976E+02  0.34367073924E+02  0.51100000000E-03 0. -1.
        -11    1    3    3    0    0  0.90044777204E+01 -0.95845506881E+00 -0.40485488388E+01  0.99191735088E+01  0.51100000000E-03 0.  1.
        -12    1    3    3    0    0 -0.10158583983E+02  0.48075908122E+01  0.99579678814E+01  0.15015687872E+02  0.00000000000E+00 0.  1.
</event>
<event>
 7    1  0.5662448E-012  0.5930194E+02  0.7816164E-02  0.1266605E+00
        -11   -1    0    0    0    0  0.00000000000E+00  0.00000000000E+00  0.45593999997E+02  0.45594000000E+02  0.51100000000E-03 0. -1.
         11   -1    0    0    0    0 -0.00000000000E+00 -0.00000000000E+00 -0.45593999997E+02  0.45594000000E+02  0.51100000000E-03 0.  1.
    9900012    2    1    2    0    0  0.15795369224E+02 -0.20858581202E+02 -0.18224892826E+02  0.59301940080E+02  0.49999992800E+02 0.  0.
         12    1    1    2    0    0 -0.15795369224E+02  0.20858581202E+02  0.18224892826E+02  0.31886059920E+02  0.00000000000E+00 0. -1.
         11    1    3    3    0    0  0.13676960718E+02  0.42153220661E+01  0.15633904209E+01  0.14396957473E+02  0.51100000000E-03 0. -1.
        -11    1    3    3    0    0  0.96248627712E+01 -0.60411363724E+00 -0.16483366634E+02  0.19097233111E+02  0.51100000000E-03 0.  1.
        -12    1    3    3    0    0 -0.75064542653E+01 -0.24469789631E+02 -0.33049166134E+01  0.25807749496E+02  0.00000000000E+00 0.  1.
</event>
<event>
 7    1  0.5662448E-012  0.5930188E+02  0.7816164E-02  0.1266605E+00
        -11   -1    0    0    0    0  0.00000000000E+00  0.00000000000E+00  0.45593999997E+02  0.45594000000E+02  0.51100000000E-03 0. -1.
         11   -1    0    0    0    0 -0.00000000000E+00 -0.00000000000E+00 -0.45593999997E+02  0.45594000000E+02  0.51100000000E-03 0.  1.
    9900012    2    1    2    0    0 -0.22500739429E+02  0.21227012766E+02 -0.77366254110E+01  0.59301878904E+02  0.49999881230E+02 0.  0.
         12    1    1    2    0    0  0.22500739429E+02 -0.21227012766E+02  0.77366254110E+01  0.31886121096E+02  0.00000000000E+00 0. -1.
         11    1    3    3    0    0 -0.55088959224E+01 -0.67347162940E+00  0.17078690351E+01  0.58067473875E+01  0.51100000000E-03 0. -1.
        -11    1    3    3    0    0 -0.45801602216E+01  0.24852786523E+02  0.12437064708E+02  0.28165927012E+02  0.51100000000E-03 0.  1.
        -12    1    3    3    0    0 -0.12411683285E+02 -0.29523021282E+01 -0.21881559154E+02  0.25329204505E+02  0.00000000000E+00 0.  1.
</event>
<event>
 7    1  0.5662448E-012  0.5930195E+02  0.7816164E-02  0.1266605E+00
        -11   -1    0    0    0    0  0.00000000000E+00  0.00000000000E+00  0.45593999997E+02  0.45594000000E+02  0.51100000000E-03 0.  1.
         11   -1    0    0    0    0 -0.00000000000E+00 -0.00000000000E+00 -0.45593999997E+02  0.45594000000E+02  0.51100000000E-03 0. -1.
    9900012    2    1    2    0    0  0.31264227142E+02  0.62306571481E+01 -0.66859489229E+00  0.59301952794E+02  0.50000015988E+02 0.  0.
         12    1    1    2    0    0 -0.31264227142E+02 -0.62306571481E+01  0.66859489229E+00  0.31886047206E+02  0.00000000000E+00 0. -1.
         11    1    3    3    0    0 -0.36918492996E+01  0.31015543188E+01 -0.17424537573E+02  0.18079377764E+02  0.51100000000E-03 0. -1.
        -11    1    3    3    0    0  0.26721529009E+02  0.34567588425E+01  0.58822312053E+01  0.27578795088E+02  0.51100000000E-03 0.  1.
        -12    1    3    3    0    0  0.82345474319E+01 -0.32765601321E+00  0.10873711475E+02  0.13643779942E+02  0.00000000000E+00 0.  1.
</event>
<event>
 7    1  0.5662448E-012  0.5930194E+02  0.7816164E-02  0.1266605E+00
        -11   -1    0    0    0    0  0.00000000000E+00  0.00000000000E+00  0.45593999997E+02  0.45594000000E+02  0.51100000000E-03 0.  1.
         11   -1    0    0    0    0 -0.00000000000E+00 -0.00000000000E+00 -0.45593999997E+02  0.45594000000E+02  0.51100000000E-03 0. -1.
    9900012    2    1    2    0    0  0.30419822909E+02  0.49881144136E+01  0.81531356213E+01  0.59301944557E+02  0.50000000966E+02 0.  0.
         12    1    1    2    0    0 -0.30419822909E+02 -0.49881144136E+01 -0.81531356213E+01  0.31886055443E+02  0.00000000000E+00 0. -1.
         11    1    3    3    0    0 -0.19342754808E+01  0.58054009363E+01  0.19810003313E+01  0.64318321061E+01  0.51100000000E-03 0. -1.
        -11    1    3    3    0    0  0.35861358427E+02  0.13044542790E+02  0.34617020491E+01  0.38316843636E+02  0.51100000000E-03 0.  1.
        -12    1    3    3    0    0 -0.35072600372E+01 -0.13861829313E+02  0.27104332409E+01  0.14553268816E+02  0.00000000000E+00 0.  1.
</event>
<event>
 7    1  0.5662448E-012  0.5930193E+02  0.7816164E-02  0.1266605E+00
        -11   -1    0    0    0    0  0.00000000000E+00  0.00000000000E+00  0.45593999997E+02  0.45594000000E+02  0.51100000000E-03 0.  1.
         11   -1    0    0    0    0 -0.00000000000E+00 -0.00000000000E+00 -0.45593999997E+02  0.45594000000E+02  0.51100000000E-03 0. -1.
    9900012    2    1    2    0    0  0.52987039485E+01  0.12361360188E+02  0.28910932758E+02  0.59301929026E+02  0.49999972640E+02 0.  0.
         12    1    1    2    0    0 -0.52987039485E+01 -0.12361360188E+02 -0.28910932758E+02  0.31886070974E+02  0.00000000000E+00 0. -1.
         11    1    3    3    0    0 -0.10783612559E+01 -0.94131888273E+01 -0.23807396999E+01  0.97692839387E+01  0.51100000000E-03 0. -1.
        -11    1    3    3    0    0  0.18770491008E+02  0.16160588969E+02  0.19384379777E+02  0.31452347259E+02  0.51100000000E-03 0.  1.
         12    1    3    3    0    0 -0.12393425804E+02  0.56139600465E+01  0.11907292681E+02  0.18080297828E+02  0.00000000000E+00 0. -1.
</event>
<event>
 7    1  0.5662448E-012  0.5930191E+02  0.7816164E-02  0.1266605E+00
        -11   -1    0    0    0    0  0.00000000000E+00  0.00000000000E+00  0.45593999997E+02  0.45594000000E+02  0.51100000000E-03 0. -1.
         11   -1    0    0    0    0 -0.00000000000E+00 -0.00000000000E+00 -0.45593999997E+02  0.45594000000E+02  0.51100000000E-03 0.  1.
    9900012    2    1    2    0    0  0.21555657626E+02 -0.15983718284E+02  0.17221986818E+02  0.59301914386E+02  0.49999945940E+02 0.  0.
         12    1    1    2    0    0 -0.21555657626E+02  0.15983718284E+02 -0.17221986818E+02  0.31886085614E+02  0.00000000000E+00 0. -1.
         11    1    3    3    0    0  0.12306784767E+02 -0.53802170397E+01  0.15767021525E+02  0.20712379263E+02  0.51100000000E-03 0. -1.
        -11    1    3    3    0    0  0.18108796944E+02 -0.49068185709E+01  0.13103613239E+02  0.22884712702E+02  0.51100000000E-03 0.  1.
         12    1    3    3    0    0 -0.88599240850E+01 -0.56966826732E+01 -0.11648647947E+02  0.15704822421E+02  0.00000000000E+00 0. -1.
</event>
<event>
 7    1  0.5662448E-012  0.5930196E+02  0.7816164E-02  0.1266605E+00
        -11   -1    0    0    0    0  0.00000000000E+00  0.00000000000E+00  0.45593999997E+02  0.45594000000E+02  0.51100000000E-03 0.  1.
         11   -1    0    0    0    0 -0.00000000000E+00 -0.00000000000E+00 -0.45593999997E+02  0.45594000000E+02  0.51100000000E-03 0. -1.
    9900012    2    1    2    0    0 -0.31410716078E+02  0.32917968261E+01  0.43875504471E+01  0.59301959013E+02  0.50000027330E+02 0.  0.
         12    1    1    2    0    0  0.31410716078E+02 -0.32917968261E+01 -0.43875504471E+01  0.31886040987E+02  0.00000000000E+00 0. -1.
         11    1    3    3    0    0 -0.15365851113E+01 -0.23124660206E+01 -0.38594449051E+01  0.47543567532E+01  0.51100000000E-03 0. -1.
        -11    1    3    3    0    0  0.98756494747E+01  0.92933359152E+01 -0.90647699608E+00  0.13591035494E+02  0.51100000000E-03 0.  1.
        -12    1    3    3    0    0 -0.39749780442E+02 -0.36890730686E+01  0.91534723482E+01  0.40956566766E+02  0.00000000000E+00 0.  1.
</event>
<event>
 7    1  0.5662448E-012  0.5930187E+02  0.7816164E-02  0.1266605E+00
        -11   -1    0    0    0    0  0.00000000000E+00  0.00000000000E+00  0.45593999997E+02  0.45594000000E+02  0.51100000000E-03 0. -1.
         11   -1    0    0    0    0 -0.00000000000E+00 -0.00000000000E+00 -0.45593999997E+02  0.45594000000E+02  0.51100000000E-03 0.  1.
    9900012    2    1    2    0    0  0.11034639054E+01 -0.19981648007E+02 -0.24824207811E+02  0.59301871620E+02  0.49999867945E+02 0.  0.
         12    1    1    2    0    0 -0.11034639054E+01  0.19981648007E+02  0.24824207811E+02  0.31886128380E+02  0.00000000000E+00 0. -1.
         11    1    3    3    0    0 -0.32367436565E+00  0.13947501421E+01  0.33695931271E+01  0.36611816614E+01  0.51100000000E-03 0. -1.
        -11    1    3    3    0    0 -0.13348654777E+02 -0.46828581159E+01 -0.30107487185E+02  0.33265245067E+02  0.51100000000E-03 0.  1.
         12    1    3    3    0    0  0.14775793048E+02 -0.16693540033E+02  0.19136862470E+01  0.22375444891E+02  0.00000000000E+00 0. -1.
</event>
<event>
 7    1  0.5662448E-012  0.5930194E+02  0.7816164E-02  0.1266605E+00
        -11   -1    0    0    0    0  0.00000000000E+00  0.00000000000E+00  0.45593999997E+02  0.45594000000E+02  0.51100000000E-03 0.  1.
         11   -1    0    0    0    0 -0.00000000000E+00 -0.00000000000E+00 -0.45593999997E+02  0.45594000000E+02  0.51100000000E-03 0. -1.
    9900012    2    1    2    0    0 -0.22863351086E+02 -0.41642914585E+01  0.21832245552E+02  0.59301935770E+02  0.49999984941E+02 0.  0.
         12    1    1    2    0    0  0.22863351086E+02  0.41642914585E+01 -0.21832245552E+02  0.31886064230E+02  0.00000000000E+00 0. -1.
         11    1    3    3    0    0  0.32105967550E+01 -0.90849880104E+01  0.65986986922E+00  0.96581761828E+01  0.51100000000E-03 0. -1.
        -11    1    3    3    0    0 -0.33643994674E+02 -0.23930785596E+01  0.12381780359E+02  0.35929843970E+02  0.51100000000E-03 0.  1.
         12    1    3    3    0    0  0.75700468328E+01  0.73137751114E+01  0.87905953229E+01  0.13713915617E+02  0.00000000000E+00 0. -1.
</event>
<event>
 7    1  0.5662448E-012  0.5930198E+02  0.7816164E-02  0.1266605E+00
        -11   -1    0    0    0    0  0.00000000000E+00  0.00000000000E+00  0.45593999997E+02  0.45594000000E+02  0.51100000000E-03 0.  1.
         11   -1    0    0    0    0 -0.00000000000E+00 -0.00000000000E+00 -0.45593999997E+02  0.45594000000E+02  0.51100000000E-03 0. -1.
    9900012    2    1    2    0    0  0.52608380491E+00 -0.11710319319E+02  0.29653165511E+02  0.59301975357E+02  0.50000057138E+02 0.  0.
         12    1    1    2    0    0 -0.52608380491E+00  0.11710319319E+02 -0.29653165511E+02  0.31886024643E+02  0.00000000000E+00 0. -1.
         11    1    3    3    0    0  0.35994876370E+00  0.50913195826E+01  0.76520425466E+00  0.51610692707E+01  0.51100000000E-03 0. -1.
        -11    1    3    3    0    0 -0.19188606916E+02  0.98484322620E+00  0.92223061518E+01  0.21312519386E+02  0.51100000000E-03 0.  1.
         12    1    3    3    0    0  0.19354741957E+02 -0.17786482127E+02  0.19665655104E+02  0.32828386701E+02  0.00000000000E+00 0. -1.
</event>
<event>
 7    1  0.5662448E-012  0.5930195E+02  0.7816164E-02  0.1266605E+00
        -11   -1    0    0    0    0  0.00000000000E+00  0.00000000000E+00  0.45593999997E+02  0.45594000000E+02  0.51100000000E-03 0.  1.
         11   -1    0    0    0    0 -0.00000000000E+00 -0.00000000000E+00 -0.45593999997E+02  0.45594000000E+02  0.51100000000E-03 0. -1.
    9900012    2    1    2    0    0  0.10564263921E+02 -0.10158700116E+02  0.28318141392E+02  0.59301953018E+02  0.50000016397E+02 0.  0.
         12    1    1    2    0    0 -0.10564263921E+02  0.10158700116E+02 -0.28318141392E+02  0.31886046982E+02  0.00000000000E+00 0. -1.
         11    1    3    3    0    0  0.14829130025E+02 -0.87461237707E+00 -0.31508861901E+01  0.15185391933E+02  0.51100000000E-03 0. -1.
        -11    1    3    3    0    0  0.37028531722E+01 -0.18226860224E+02  0.22263920587E+02  0.29010544901E+02  0.51100000000E-03 0.  1.
        -12    1    3    3    0    0 -0.79677192766E+01  0.89427724849E+01  0.92051069944E+01  0.15106016184E+02  0.00000000000E+00 0.  1.
</event>
<event>
 7    1  0.5662448E-012  0.5930194E+02  0.7816164E-02  0.1266605E+00
        -11   -1    0    0    0    0  0.00000000000E+00  0.00000000000E+00  0.45593999997E+02  0.45594000000E+02  0.51100000000E-03 0.  1.
         11   -1    0    0    0    0 -0.00000000000E+00 -0.00000000000E+00 -0.45593999997E+02  0.45594000000E+02  0.51100000000E-03 0. -1.
    9900012    2    1    2    0    0 -0.15468592709E+02 -0.27865382243E+02  0.98195804781E+00  0.59301935183E+02  0.49999983869E+02 0.  0.
         12    1    1    2    0    0  0.15468592709E+02  0.27865382243E+02 -0.98195804781E+00  0.31886064817E+02  0.00000000000E+00 0. -1.
         11    1    3    3    0    0 -0.26630830700E+01 -0.65915405610E+01  0.54520145669E+01  0.89590669997E+01  0.51100000000E-03 0. -1.
        -11    1    3    3    0    0 -0.16685091266E+02 -0.10252707227E+02  0.16978261930E+02  0.25918558110E+02  0.51100000000E-03 0.  1.
         12    1    3    3    0    0  0.38795816270E+01 -0.11021134454E+02 -0.21448318449E+02  0.24424310073E+02  0.00000000000E+00 0. -1.
</event>
<event>
 7    1  0.5662448E-012  0.5930192E+02  0.7816164E-02  0.1266605E+00
        -11   -1    0    0    0    0  0.00000000000E+00  0.00000000000E+00  0.45593999997E+02  0.45594000000E+02  0.51100000000E-03 0. -1.
         11   -1    0    0    0    0 -0.00000000000E+00 -0.00000000000E+00 -0.45593999997E+02  0.45594000000E+02  0.51100000000E-03 0.  1.
    9900012    2    1    2    0    0 -0.17323067401E+02  0.26637289080E+02 -0.26623239388E+01  0.59301924631E+02  0.49999964624E+02 0.  0.
         12    1    1    2    0    0  0.17323067401E+02 -0.26637289080E+02  0.26623239388E+01  0.31886075369E+02  0.00000000000E+00 0. -1.
         11    1    3    3    0    0 -0.20826925656E+01  0.11343987991E+02  0.63092579406E+01  0.13146497932E+02  0.51100000000E-03 0. -1.
        -11    1    3    3    0    0  0.99847333514E+01  0.14761830632E+02  0.32582676192E+01  0.18116921699E+02  0.51100000000E-03 0.  1.
        -12    1    3    3    0    0 -0.25225108186E+02  0.53147045750E+00 -0.12229849499E+02  0.28038505000E+02  0.00000000000E+00 0.  1.
</event>
<event>
 7    1  0.5662448E-012  0.5930197E+02  0.7816164E-02  0.1266605E+00
        -11   -1    0    0    0    0  0.00000000000E+00  0.00000000000E+00  0.45593999997E+02  0.45594000000E+02  0.51100000000E-03 0.  1.
         11   -1    0    0    0    0 -0.00000000000E+00 -0.00000000000E+00 -0.45593999997E+02  0.45594000000E+02  0.51100000000E-03 0. -1.
    9900012    2    1    2    0    0  0.24943883987E+02  0.19079463643E+02  0.55223063873E+01  0.59301966237E+02  0.50000040505E+02 0.  0.
         12    1    1    2    0    0 -0.24943883987E+02 -0.19079463643E+02 -0.55223063873E+01  0.31886033763E+02  0.00000000000E+00 0. -1.
         11    1    3    3    0    0 -0.35161263587E+01  0.14558592457E+02  0.77726880945E+01  0.16873957431E+02  0.51100000000E-03 0. -1.
        -11    1    3    3    0    0  0.20649639027E+02  0.85087017070E+01  0.12256847536E+02  0.25476183162E+02  0.51100000000E-03 0.  1.
         12    1    3    3    0    0  0.78103713183E+01 -0.39878305208E+01 -0.14507229243E+02  0.16951825645E+02  0.00000000000E+00 0. -1.
</event>
<event>
 7    1  0.5662448E-012  0.5930194E+02  0.7816164E-02  0.1266605E+00
        -11   -1    0    0    0    0  0.00000000000E+00  0.00000000000E+00  0.45593999997E+02  0.45594000000E+02  0.51100000000E-03 0. -1.
         11   -1    0    0    0    0 -0.00000000000E+00 -0.00000000000E+00 -0.45593999997E+02  0.45594000000E+02  0.51100000000E-03 0.  1.
    9900012    2    1    2    0    0  0.26040586328E+02 -0.92152000073E+01 -0.15927608473E+02  0.59301940991E+02  0.49999994462E+02 0.  0.
         12    1    1    2    0    0 -0.26040586328E+02  0.92152000073E+01  0.15927608473E+02  0.31886059009E+02  0.00000000000E+00 0. -1.
         11    1    3    3    0    0  0.10735902725E+02 -0.12904492451E+02  0.21756221439E+01  0.16926868131E+02  0.51100000000E-03 0. -1.
        -11    1    3    3    0    0  0.72689196259E+01  0.18991031482E+02 -0.57536848048E+01  0.21132944858E+02  0.51100000000E-03 0.  1.
         12    1    3    3    0    0  0.80357639766E+01 -0.15301739039E+02 -0.12349545812E+02  0.21242128002E+02  0.00000000000E+00 0. -1.
</event>
<event>
 7    1  0.5662448E-012  0.5930217E+02  0.7816164E-02  0.1266604E+00
        -11   -1    0    0    0    0  0.00000000000E+00  0.00000000000E+00  0.45593999997E+02  0.45594000000E+02  0.51100000000E-03 0. -1.
         11   -1    0    0    0    0 -0.00000000000E+00 -0.00000000000E+00 -0.45593999997E+02  0.45594000000E+02  0.51100000000E-03 0.  1.
    9900012    2    1    2    0    0  0.20737885473E+02  0.20627854699E+02 -0.12694011705E+02  0.59302169032E+02  0.50000410352E+02 0.  0.
         12    1    1    2    0    0 -0.20737885473E+02 -0.20627854699E+02  0.12694011705E+02  0.31885830968E+02  0.00000000000E+00 0. -1.
         11    1    3    3    0    0  0.33210825565E+01  0.74054139393E+01  0.74852602264E+00  0.81504623444E+01  0.51100000000E-03 0. -1.
        -11    1    3    3    0    0 -0.15103653377E+01  0.18441447640E+02 -0.22832207641E+02  0.29388397380E+02  0.51100000000E-03 0.  1.
         12    1    3    3    0    0  0.18927168254E+02 -0.52190068805E+01  0.93896699140E+01  0.21763309308E+02  0.00000000000E+00 0. -1.
</event>
<event>
 7    1  0.5662448E-012  0.5930191E+02  0.7816164E-02  0.1266605E+00
        -11   -1    0    0    0    0  0.00000000000E+00  0.00000000000E+00  0.45593999997E+02  0.45594000000E+02  0.51100000000E-03 0.  1.
         11   -1    0    0    0    0 -0.00000000000E+00 -0.00000000000E+00 -0.45593999997E+02  0.45594000000E+02  0.51100000000E-03 0. -1.
    9900012    2    1    2    0    0  0.31095332860E+02 -0.69439281188E+01 -0.12589325084E+01  0.59301909389E+02  0.49999936826E+02 0.  0.
         12    1    1    2    0    0 -0.31095332860E+02  0.69439281188E+01  0.12589325084E+01  0.31886090611E+02  0.00000000000E+00 0. -1.
         11    1    3    3    0    0  0.10859818566E+01 -0.25010615947E+01 -0.11433145042E+02  0.11753785412E+02  0.51100000000E-03 0. -1.
        -11    1    3    3    0    0  0.94632209668E+01  0.15015286780E+02  0.69756723439E+01  0.19070170242E+02  0.51100000000E-03 0.  1.
        -12    1    3    3    0    0  0.20546130037E+02 -0.19458153305E+02  0.31985401901E+01  0.28477953734E+02  0.00000000000E+00 0.  1.
</event>
<event>
 7    1  0.5662448E-012  0.5930193E+02  0.7816164E-02  0.1266605E+00
        -11   -1    0    0    0    0  0.00000000000E+00  0.00000000000E+00  0.45593999997E+02  0.45594000000E+02  0.51100000000E-03 0.  1.
         11   -1    0    0    0    0 -0.00000000000E+00 -0.00000000000E+00 -0.45593999997E+02  0.45594000000E+02  0.51100000000E-03 0. -1.
    9900012    2    1    2    0    0 -0.17774787928E+02 -0.19363860123E+02  0.18050469302E+02  0.59301927699E+02  0.49999970221E+02 0.  0.
         12    1    1    2    0    0  0.17774787928E+02  0.19363860123E+02 -0.18050469302E+02  0.31886072301E+02  0.00000000000E+00 0. -1.
         11    1    3    3    0    0 -0.17506347952E+02 -0.17535629457E+02  0.18916553315E+02  0.31173811263E+02  0.51100000000E-03 0. -1.
        -11    1    3    3    0    0 -0.24807706050E+01 -0.20642933395E+01  0.13352258383E+02  0.13736751216E+02  0.51100000000E-03 0.  1.
         12    1    3    3    0    0  0.22123306287E+01  0.23606267392E+00 -0.14218342396E+02  0.14391365220E+02  0.00000000000E+00 0. -1.
</event>
<event>
 7    1  0.5662448E-012  0.5930165E+02  0.7816164E-02  0.1266606E+00
        -11   -1    0    0    0    0  0.00000000000E+00  0.00000000000E+00  0.45593999997E+02  0.45594000000E+02  0.51100000000E-03 0.  1.
         11   -1    0    0    0    0 -0.00000000000E+00 -0.00000000000E+00 -0.45593999997E+02  0.45594000000E+02  0.51100000000E-03 0. -1.
    9900012    2    1    2    0    0 -0.14235263939E+02 -0.22271231146E+02  0.17835036783E+02  0.59301654753E+02  0.49999472429E+02 0.  0.
         12    1    1    2    0    0  0.14235263939E+02  0.22271231146E+02 -0.17835036783E+02  0.31886345247E+02  0.00000000000E+00 0. -1.
         11    1    3    3    0    0 -0.49176307247E+01 -0.75965901080E+01 -0.89543177521E+01  0.12730714036E+02  0.51100000000E-03 0. -1.
        -11    1    3    3    0    0  0.77670619848E+01  0.60179354423E+01  0.13303619775E+02  0.16538715133E+02  0.51100000000E-03 0.  1.
        -12    1    3    3    0    0 -0.17084695199E+02 -0.20692576481E+02  0.13485734760E+02  0.30032225583E+02  0.00000000000E+00 0.  1.
</event>
<event>
 7    1  0.5662448E-012  0.5930196E+02  0.7816164E-02  0.1266605E+00
        -11   -1    0    0    0    0  0.00000000000E+00  0.00000000000E+00  0.45593999997E+02  0.45594000000E+02  0.51100000000E-03 0. -1.
         11   -1    0    0    0    0 -0.00000000000E+00 -0.00000000000E+00 -0.45593999997E+02  0.45594000000E+02  0.51100000000E-03 0.  1.
    9900012    2    1    2    0    0  0.79608697263E+01  0.30445380676E+02 -0.51403079175E+01  0.59301962040E+02  0.50000032850E+02 0.  0.
         12    1    1    2    0    0 -0.79608697263E+01 -0.30445380676E+02  0.51403079175E+01  0.31886037960E+02  0.00000000000E+00 0. -1.
         11    1    3    3    0    0  0.19860670773E+01 -0.81964839311E+00 -0.12165256596E+01  0.24690526251E+01  0.51100000000E-03 0. -1.
        -11    1    3    3    0    0 -0.50085590561E+01  0.33479955578E+02 -0.18397828817E+02  0.38528861841E+02  0.51100000000E-03 0.  1.
         12    1    3    3    0    0  0.10983361705E+02 -0.22149265091E+01  0.14474046559E+02  0.18304047574E+02  0.00000000000E+00 0. -1.
</event>
<event>
 7    1  0.5662448E-012  0.5930202E+02  0.7816164E-02  0.1266604E+00
        -11   -1    0    0    0    0  0.00000000000E+00  0.00000000000E+00  0.45593999997E+02  0.45594000000E+02  0.51100000000E-03 0.  1.
         11   -1    0    0    0    0 -0.00000000000E+00 -0.00000000000E+00 -0.45593999997E+02  0.45594000000E+02  0.51100000000E-03 0. -1.
    9900012    2    1    2    0    0 -0.24870950184E+02  0.14269962097E+02  0.13947033448E+02  0.59302019957E+02  0.50000138477E+02 0.  0.
         12    1    1    2    0    0  0.24870950184E+02 -0.14269962097E+02 -0.13947033448E+02  0.31885980043E+02  0.00000000000E+00 0. -1.
         11    1    3    3    0    0 -0.77513022840E+01 -0.98867724771E+01 -0.21028058981E+01  0.12737847150E+02  0.51100000000E-03 0. -1.
        -11    1    3    3    0    0 -0.16011156961E+02 -0.47954071992E+00 -0.18025320580E+01  0.16119436362E+02  0.51100000000E-03 0.  1.
        -12    1    3    3    0    0 -0.11084909387E+01  0.24636275294E+02  0.17852371404E+02  0.30444736446E+02  0.00000000000E+00 0.  1.
</event>
<event>
 7    1  0.5662448E-012  0.5930195E+02  0.7816164E-02  0.1266605E+00
        -11   -1    0    0    0    0  0.00000000000E+00  0.00000000000E+00  0.45593999997E+02  0.45594000000E+02  0.51100000000E-03 0.  1.
         11   -1    0    0    0    0 -0.00000000000E+00 -0.00000000000E+00 -0.45593999997E+02  0.45594000000E+02  0.51100000000E-03 0. -1.
    9900012    2    1    2    0    0  0.20557227076E+02  0.14424778905E+02  0.19648065672E+02  0.59301947938E+02  0.50000007131E+02 0.  0.
         12    1    1    2    0    0 -0.20557227076E+02 -0.14424778905E+02 -0.19648065672E+02  0.31886052062E+02  0.00000000000E+00 0. -1.
         11    1    3    3    0    0  0.69270809821E+01 -0.16195462650E+02  0.12494051890E+02  0.21595805016E+02  0.51100000000E-03 0. -1.
        -11    1    3    3    0    0  0.75574355446E+01  0.22981188452E+01  0.29731019422E+01  0.84401136045E+01  0.51100000000E-03 0.  1.
        -12    1    3    3    0    0  0.60727105489E+01  0.28322122710E+02  0.41809118399E+01  0.29266029317E+02  0.00000000000E+00 0.  1.
</event>
<event>
 7    1  0.5662448E-012  0.5930202E+02  0.7816164E-02  0.1266605E+00
        -11   -1    0    0    0    0  0.00000000000E+00  0.00000000000E+00  0.45593999997E+02  0.45594000000E+02  0.51100000000E-03 0. -1.
         11   -1    0    0    0    0 -0.00000000000E+00 -0.00000000000E+00 -0.45593999997E+02  0.45594000000E+02  0.51100000000E-03 0.  1.
    9900012    2    1    2    0    0 -0.15489515410E+02  0.96137465975E+01 -0.26160404821E+02  0.59302015749E+02  0.50000130802E+02 0.  0.
         12    1    1    2    0    0  0.15489515410E+02 -0.96137465975E+01  0.26160404821E+02  0.31885984251E+02  0.00000000000E+00 0. -1.
         11    1    3    3    0    0 -0.12124661948E+02  0.12856289349E+01  0.36752242310E+01  0.12734502052E+02  0.51100000000E-03 0. -1.
        -11    1    3    3    0    0 -0.12983339363E+02  0.15594707109E+02 -0.83736531164E+01  0.21951766617E+02  0.51100000000E-03 0.  1.
        -12    1    3    3    0    0  0.96184859009E+01 -0.72665894467E+01 -0.21461975935E+02  0.24615747079E+02  0.00000000000E+00 0.  1.
</event>
<event>
 7    1  0.5662448E-012  0.5930198E+02  0.7816164E-02  0.1266605E+00
        -11   -1    0    0    0    0  0.00000000000E+00  0.00000000000E+00  0.45593999997E+02  0.45594000000E+02  0.51100000000E-03 0.  1.
         11   -1    0    0    0    0 -0.00000000000E+00 -0.00000000000E+00 -0.45593999997E+02  0.45594000000E+02  0.51100000000E-03 0. -1.
    9900012    2    1    2    0    0  0.20206286957E+02 -0.21260622528E+02  0.12506398141E+02  0.59301982730E+02  0.50000070584E+02 0.  0.
         12    1    1    2    0    0 -0.20206286957E+02  0.21260622528E+02 -0.12506398141E+02  0.31886017270E+02  0.00000000000E+00 0. -1.
         11    1    3    3    0    0 -0.90065083686E+01 -0.63020678678E+01  0.65015196634E+01  0.12771178904E+02  0.51100000000E-03 0. -1.
        -11    1    3    3    0    0  0.22634899538E+01 -0.32556881073E+01 -0.11614021317E+02  0.12272260722E+02  0.51100000000E-03 0.  1.
        -12    1    3    3    0    0  0.26949305372E+02 -0.11702866553E+02  0.17618899795E+02  0.34258543104E+02  0.00000000000E+00 0.  1.
</event>
<event>
 7    1  0.5662448E-012  0.5930193E+02  0.7816164E-02  0.1266605E+00
        -11   -1    0    0    0    0  0.00000000000E+00  0.00000000000E+00  0.45593999997E+02  0.45594000000E+02  0.51100000000E-03 0. -1.
         11   -1    0    0    0    0 -0.00000000000E+00 -0.00000000000E+00 -0.45593999997E+02  0.45594000000E+02  0.51100000000E-03 0.  1.
    9900012    2    1    2    0    0 -0.17686844204E+02  0.24758738170E+02  0.95342488572E+01  0.59301929767E+02  0.49999973992E+02 0.  0.
         12    1    1    2    0    0  0.17686844204E+02 -0.24758738170E+02 -0.95342488572E+01  0.31886070233E+02  0.00000000000E+00 0. -1.
         11    1    3    3    0    0 -0.11180355281E+02 -0.43905804117E+01 -0.72195333218E+01  0.14014249969E+02  0.51100000000E-03 0. -1.
        -11    1    3    3    0    0  0.53565603437E+01  0.33561486436E+01 -0.61432168461E+01  0.88145099644E+01  0.51100000000E-03 0.  1.
         12    1    3    3    0    0 -0.11863049267E+02  0.25793169938E+02  0.22896999025E+02  0.36473169833E+02  0.00000000000E+00 0. -1.
</event>
<event>
 7    1  0.5662448E-012  0.5930197E+02  0.7816164E-02  0.1266605E+00
        -11   -1    0    0    0    0  0.00000000000E+00  0.00000000000E+00  0.45593999997E+02  0.45594000000E+02  0.51100000000E-03 0. -1.
         11   -1    0    0    0    0 -0.00000000000E+00 -0.00000000000E+00 -0.45593999997E+02  0.45594000000E+02  0.51100000000E-03 0.  1.
    9900012    2    1    2    0    0  0.84067084652E-01 -0.23372314463E+00 -0.31885062705E+02  0.59301969870E+02  0.50000047130E+02 0.  0.
         12    1    1    2    0    0 -0.84067084652E-01  0.23372314463E+00  0.31885062705E+02  0.31886030130E+02  0.00000000000E+00 0. -1.
         11    1    3    3    0    0 -0.56353768470E+01  0.14964223248E+02 -0.37896965179E+01  0.16433114421E+02  0.51100000000E-03 0. -1.
        -11    1    3    3    0    0 -0.10255874300E+02 -0.11166890313E+02 -0.89351974511E+01  0.17598867880E+02  0.51100000000E-03 0.  1.
        -12    1    3    3    0    0  0.15975318232E+02 -0.40310560798E+01 -0.19160168736E+02  0.25269987568E+02  0.00000000000E+00 0.  1.
</event>
<event>
 7    1  0.5662448E-012  0.5930201E+02  0.7816164E-02  0.1266605E+00
        -11   -1    0    0    0    0  0.00000000000E+00  0.00000000000E+00  0.45593999997E+02  0.45594000000E+02  0.51100000000E-03 0.  1.
         11   -1    0    0    0    0 -0.00000000000E+00 -0.00000000000E+00 -0.45593999997E+02  0.45594000000E+02  0.51100000000E-03 0. -1.
    9900012    2    1    2    0    0 -0.73773483146E+00 -0.71273787289E+01  0.31070448781E+02  0.59302006717E+02  0.50000114330E+02 0.  0.
         12    1    1    2    0    0  0.73773483146E+00  0.71273787289E+01 -0.31070448781E+02  0.31885993283E+02  0.00000000000E+00 0. -1.
         11    1    3    3    0    0 -0.21227975033E+01  0.23843555518E+01  0.63384709991E+01  0.70970159578E+01  0.51100000000E-03 0. -1.
        -11    1    3    3    0    0  0.29398401900E+01  0.40816535616E+01  0.34835498523E+02  0.35196796924E+02  0.51100000000E-03 0.  1.
         12    1    3    3    0    0 -0.15547775181E+01 -0.13593387842E+02 -0.10103520741E+02  0.17008193835E+02  0.00000000000E+00 0. -1.
</event>
<event>
 7    1  0.5662448E-012  0.5930194E+02  0.7816164E-02  0.1266605E+00
        -11   -1    0    0    0    0  0.00000000000E+00  0.00000000000E+00  0.45593999997E+02  0.45594000000E+02  0.51100000000E-03 0. -1.
         11   -1    0    0    0    0 -0.00000000000E+00 -0.00000000000E+00 -0.45593999997E+02  0.45594000000E+02  0.51100000000E-03 0.  1.
    9900012    2    1    2    0    0  0.48013179928E+01 -0.18645215849E+02 -0.25417002356E+02  0.59301941334E+02  0.49999995087E+02 0.  0.
         12    1    1    2    0    0 -0.48013179928E+01  0.18645215849E+02  0.25417002356E+02  0.31886058666E+02  0.00000000000E+00 0. -1.
         11    1    3    3    0    0  0.80971618328E+01 -0.20934436171E+01  0.58347817155E+01  0.10197608242E+02  0.51100000000E-03 0. -1.
        -11    1    3    3    0    0 -0.27347475748E+01  0.10214212171E+02 -0.53378090905E+01  0.11844879937E+02  0.51100000000E-03 0.  1.
         12    1    3    3    0    0 -0.56109626523E+00 -0.26765984403E+02 -0.25913974981E+02  0.37259453155E+02  0.00000000000E+00 0. -1.
</event>
<event>
 7    1  0.5662448E-012  0.5930196E+02  0.7816164E-02  0.1266605E+00
        -11   -1    0    0    0    0  0.00000000000E+00  0.00000000000E+00  0.45593999997E+02  0.45594000000E+02  0.51100000000E-03 0. -1.
         11   -1    0    0    0    0 -0.00000000000E+00 -0.00000000000E+00 -0.45593999997E+02  0.45594000000E+02  0.51100000000E-03 0.  1.
    9900012    2    1    2    0    0  0.29874960993E+02 -0.99593876373E+01 -0.50016900956E+01  0.59301959163E+02  0.50000027603E+02 0.  0.
         12    1    1    2    0    0 -0.29874960993E+02  0.99593876373E+01  0.50016900956E+01  0.31886040837E+02  0.00000000000E+00 0. -1.
         11    1    3    3    0    0  0.28918810380E+01 -0.15551841638E+02  0.10911179746E+02  0.19216570921E+02  0.51100000000E-03 0. -1.
        -11    1    3    3    0    0 -0.18644071636E+01  0.27630524003E+01 -0.99487014061E+01  0.10492241542E+02  0.51100000000E-03 0.  1.
         12    1    3    3    0    0  0.28847487119E+02  0.28294016004E+01 -0.59641684351E+01  0.29593146700E+02  0.00000000000E+00 0. -1.
</event>
<event>
 7    1  0.5662448E-012  0.5930198E+02  0.7816164E-02  0.1266605E+00
        -11   -1    0    0    0    0  0.00000000000E+00  0.00000000000E+00  0.45593999997E+02  0.45594000000E+02  0.51100000000E-03 0.  1.
         11   -1    0    0    0    0 -0.00000000000E+00 -0.00000000000E+00 -0.45593999997E+02  0.45594000000E+02  0.51100000000E-03 0. -1.
    9900012    2    1    2    0    0 -0.12556811226E+02  0.22123203545E+02  0.19225207559E+02  0.59301980353E+02  0.50000066248E+02 0.  0.
         12    1    1    2    0    0  0.12556811226E+02 -0.22123203545E+02 -0.19225207559E+02  0.31886019647E+02  0.00000000000E+00 0. -1.
         11    1    3    3    0    0 -0.13487263073E+02  0.30173796656E+01  0.58497898546E+00  0.13833041817E+02  0.51100000000E-03 0. -1.
        -11    1    3    3    0    0 -0.11853279909E+02  0.18566508753E+02 -0.97532624784E+00  0.22049189405E+02  0.51100000000E-03 0.  1.
        -12    1    3    3    0    0  0.12783731755E+02  0.53931512630E+00  0.19615554821E+02  0.23419749131E+02  0.00000000000E+00 0.  1.
</event>
<event>
 7    1  0.5662448E-012  0.5930192E+02  0.7816164E-02  0.1266605E+00
        -11   -1    0    0    0    0  0.00000000000E+00  0.00000000000E+00  0.45593999997E+02  0.45594000000E+02  0.51100000000E-03 0. -1.
         11   -1    0    0    0    0 -0.00000000000E+00 -0.00000000000E+00 -0.45593999997E+02  0.45594000000E+02  0.51100000000E-03 0.  1.
    9900012    2    1    2    0    0  0.18145812587E+02  0.21275765554E+02 -0.15322971512E+02  0.59301918863E+02  0.49999954105E+02 0.  0.
         12    1    1    2    0    0 -0.18145812587E+02 -0.21275765554E+02  0.15322971512E+02  0.31886081137E+02  0.00000000000E+00 0. -1.
         11    1    3    3    0    0 -0.55724485236E+01  0.16267897694E+02 -0.14669625469E+02  0.22602977450E+02  0.51100000000E-03 0. -1.
        -11    1    3    3    0    0 -0.24184286677E+01  0.14681351266E+00 -0.86135953027E+01  0.89478698989E+01  0.51100000000E-03 0.  1.
        -12    1    3    3    0    0  0.26136689778E+02  0.48610543473E+01  0.79602492599E+01  0.27751071514E+02  0.00000000000E+00 0.  1.
</event>
<event>
 7    1  0.5662448E-012  0.5930196E+02  0.7816164E-02  0.1266605E+00
        -11   -1    0    0    0    0  0.00000000000E+00  0.00000000000E+00  0.45593999997E+02  0.45594000000E+02  0.51100000000E-03 0. -1.
         11   -1    0    0    0    0 -0.00000000000E+00 -0.00000000000E+00 -0.45593999997E+02  0.45594000000E+02  0.51100000000E-03 0.  1.
    9900012    2    1    2    0    0  0.12130294329E+02 -0.64207757737E+01 -0.28781054409E+02  0.59301960815E+02  0.50000030616E+02 0.  0.
         12    1    1    2    0    0 -0.12130294329E+02  0.64207757737E+01  0.28781054409E+02  0.31886039185E+02  0.00000000000E+00 0. -1.
         11    1    3    3    0    0 -0.37398401448E+01 -0.12258739231E+02 -0.93077233043E+01  0.15839722384E+02  0.51100000000E-03 0. -1.
        -11    1    3    3    0    0  0.20036333527E+02 -0.10052754449E+02 -0.10726213951E+02  0.24850839004E+02  0.51100000000E-03 0.  1.
         12    1    3    3    0    0 -0.41661990536E+01  0.15890717906E+02 -0.87471171528E+01  0.18611399427E+02  0.00000000000E+00 0. -1.
</event>
<event>
 7    1  0.5662448E-012  0.5930195E+02  0.7816164E-02  0.1266605E+00
        -11   -1    0    0    0    0  0.00000000000E+00  0.00000000000E+00  0.45593999997E+02  0.45594000000E+02  0.51100000000E-03 0. -1.
         11   -1    0    0    0    0 -0.00000000000E+00 -0.00000000000E+00 -0.45593999997E+02  0.45594000000E+02  0.51100000000E-03 0.  1.
    9900012    2    1    2    0    0 -0.10316370683E+02  0.15384656822E+02  0.25953900857E+02  0.59301950710E+02  0.50000012188E+02 0.  0.
         12    1    1    2    0    0  0.10316370683E+02 -0.15384656822E+02 -0.25953900857E+02  0.31886049290E+02  0.00000000000E+00 0. -1.
         11    1    3    3    0    0 -0.34044430486E+01  0.31121730049E+01  0.71877974010E+00  0.46682435519E+01  0.51100000000E-03 0. -1.
        -11    1    3    3    0    0  0.94977113872E+00 -0.73028529256E+01 -0.10685175723E+02  0.12977160959E+02  0.51100000000E-03 0.  1.
         12    1    3    3    0    0 -0.78616987730E+01  0.19575336743E+02  0.35920296840E+02  0.41656546199E+02  0.00000000000E+00 0. -1.
</event>
<event>
 7    1  0.5662448E-012  0.5930193E+02  0.7816164E-02  0.1266605E+00
        -11   -1    0    0    0    0  0.00000000000E+00  0.00000000000E+00  0.45593999997E+02  0.45594000000E+02  0.51100000000E-03 0. -1.
         11   -1    0    0    0    0 -0.00000000000E+00 -0.00000000000E+00 -0.45593999997E+02  0.45594000000E+02  0.51100000000E-03 0.  1.
    9900012    2    1    2    0    0 -0.10834320197E+02  0.79754132788E+01 -0.28909029266E+02  0.59301926485E+02  0.49999968007E+02 0.  0.
         12    1    1    2    0    0  0.10834320197E+02 -0.79754132788E+01  0.28909029266E+02  0.31886073515E+02  0.00000000000E+00 0. -1.
         11    1    3    3    0    0  0.92582358303E+01 -0.14245360488E+01 -0.13042284530E+02  0.16057565808E+02  0.51100000000E-03 0. -1.
        -11    1    3    3    0    0  0.82832736731E+01  0.67251617663E+01 -0.89232292060E+01  0.13909149624E+02  0.51100000000E-03 0.  1.
         12    1    3    3    0    0 -0.28375829700E+02  0.26747875612E+01 -0.69435155294E+01  0.29335211054E+02  0.00000000000E+00 0. -1.
</event>
<event>
 7    1  0.5662448E-012  0.5930198E+02  0.7816164E-02  0.1266605E+00
        -11   -1    0    0    0    0  0.00000000000E+00  0.00000000000E+00  0.45593999997E+02  0.45594000000E+02  0.51100000000E-03 0.  1.
         11   -1    0    0    0    0 -0.00000000000E+00 -0.00000000000E+00 -0.45593999997E+02  0.45594000000E+02  0.51100000000E-03 0. -1.
    9900012    2    1    2    0    0 -0.54793754278E+01  0.25142521117E+02  0.18829460747E+02  0.59301976177E+02  0.50000058633E+02 0.  0.
         12    1    1    2    0    0  0.54793754278E+01 -0.25142521117E+02 -0.18829460747E+02  0.31886023823E+02  0.00000000000E+00 0. -1.
         11    1    3    3    0    0 -0.12145804934E+02  0.96026044712E+01 -0.32942410510E+01  0.15829801467E+02  0.51100000000E-03 0. -1.
        -11    1    3    3    0    0 -0.12081093968E+02  0.14003942118E+02  0.12680824594E+02  0.22424685928E+02  0.51100000000E-03 0.  1.
        -12    1    3    3    0    0  0.18747523474E+02  0.15359745274E+01  0.94428772037E+01  0.21047488782E+02  0.00000000000E+00 0.  1.
</event>
<event>
 7    1  0.5662448E-012  0.5930213E+02  0.7816164E-02  0.1266604E+00
        -11   -1    0    0    0    0  0.00000000000E+00  0.00000000000E+00  0.45593999997E+02  0.45594000000E+02  0.51100000000E-03 0. -1.
         11   -1    0    0    0    0 -0.00000000000E+00 -0.00000000000E+00 -0.45593999997E+02  0.45594000000E+02  0.51100000000E-03 0.  1.
    9900012    2    1    2    0    0 -0.15182843685E+01 -0.19119763356E+02 -0.25472306982E+02  0.59302125993E+02  0.50000331859E+02 0.  0.
         12    1    1    2    0    0  0.15182843685E+01  0.19119763356E+02  0.25472306982E+02  0.31885874007E+02  0.00000000000E+00 0. -1.
         11    1    3    3    0    0  0.81845503825E+01 -0.10085728134E+02 -0.79519354535E+01  0.15229643944E+02  0.51100000000E-03 0. -1.
        -11    1    3    3    0    0  0.57955632588E+01  0.27908936778E+01  0.90590023042E+01  0.11110497919E+02  0.51100000000E-03 0.  1.
         12    1    3    3    0    0 -0.15498398010E+02 -0.11824928900E+02 -0.26579373833E+02  0.32961984129E+02  0.00000000000E+00 0. -1.
</event>
<event>
 7    1  0.5662448E-012  0.5930200E+02  0.7816164E-02  0.1266605E+00
        -11   -1    0    0    0    0  0.00000000000E+00  0.00000000000E+00  0.45593999997E+02  0.45594000000E+02  0.51100000000E-03 0. -1.
         11   -1    0    0    0    0 -0.00000000000E+00 -0.00000000000E+00 -0.45593999997E+02  0.45594000000E+02  0.51100000000E-03 0.  1.
    9900012    2    1    2    0    0 -0.19237171054E+02  0.23840606169E+02  0.88472421234E+01  0.59302000786E+02  0.50000103513E+02 0.  0.
         12    1    1    2    0    0  0.19237171054E+02 -0.23840606169E+02 -0.88472421234E+01  0.31885999214E+02  0.00000000000E+00 0. -1.
         11    1    3    3    0    0  0.19185433945E+01 -0.42868445496E+01  0.26582547168E+01  0.53966807715E+01  0.51100000000E-03 0. -1.
        -11    1    3    3    0    0 -0.81424360696E+01  0.64012288440E+00  0.19170932598E+02  0.20838274386E+02  0.51100000000E-03 0.  1.
        -12    1    3    3    0    0 -0.13013278379E+02  0.27487327834E+02 -0.12981945191E+02  0.33067045629E+02  0.00000000000E+00 0.  1.
</event>
<event>
 7    1  0.5662448E-012  0.5930190E+02  0.7816164E-02  0.1266605E+00
        -11   -1    0    0    0    0  0.00000000000E+00  0.00000000000E+00  0.45593999997E+02  0.45594000000E+02  0.51100000000E-03 0. -1.
         11   -1    0    0    0    0 -0.00000000000E+00 -0.00000000000E+00 -0.45593999997E+02  0.45594000000E+02  0.51100000000E-03 0.  1.
    9900012    2    1    2    0    0  0.81888746704E+00  0.30948238685E+02  0.76327742369E+01  0.59301901196E+02  0.49999921885E+02 0.  0.
         12    1    1    2    0    0 -0.81888746704E+00 -0.30948238685E+02 -0.76327742369E+01  0.31886098804E+02  0.00000000000E+00 0. -1.
         11    1    3    3    0    0  0.15868649423E+02  0.59087073880E+01  0.39511042602E+01  0.17387871711E+02  0.51100000000E-03 0. -1.
        -11    1    3    3    0    0 -0.27228254651E+01 -0.11125031462E+01  0.11576132414E+02  0.11943964321E+02  0.51100000000E-03 0.  1.
        -12    1    3    3    0    0 -0.12326936491E+02  0.26152034443E+02 -0.78944624375E+01  0.29970065164E+02  0.00000000000E+00 0.  1.
</event>
<event>
 7    1  0.5662448E-012  0.5930197E+02  0.7816164E-02  0.1266605E+00
        -11   -1    0    0    0    0  0.00000000000E+00  0.00000000000E+00  0.45593999997E+02  0.45594000000E+02  0.51100000000E-03 0.  1.
         11   -1    0    0    0    0 -0.00000000000E+00 -0.00000000000E+00 -0.45593999997E+02  0.45594000000E+02  0.51100000000E-03 0. -1.
    9900012    2    1    2    0    0 -0.13326055485E+02 -0.17364229764E+02  0.23186604225E+02  0.59301970997E+02  0.50000049185E+02 0.  0.
         12    1    1    2    0    0  0.13326055485E+02  0.17364229764E+02 -0.23186604225E+02  0.31886029003E+02  0.00000000000E+00 0. -1.
         11    1    3    3    0    0 -0.55878943784E+01 -0.90018119996E+01  0.14395460513E+02  0.17874184359E+02  0.51100000000E-03 0. -1.
        -11    1    3    3    0    0  0.99092414233E+01 -0.17274567939E+02  0.31534997567E+00  0.19917409694E+02  0.51100000000E-03 0.  1.
         12    1    3    3    0    0 -0.17647402530E+02  0.89121501744E+01  0.84757937367E+01  0.21510376944E+02  0.00000000000E+00 0. -1.
</event>
<event>
 7    1  0.5662448E-012  0.5930194E+02  0.7816164E-02  0.1266605E+00
        -11   -1    0    0    0    0  0.00000000000E+00  0.00000000000E+00  0.45593999997E+02  0.45594000000E+02  0.51100000000E-03 0.  1.
         11   -1    0    0    0    0 -0.00000000000E+00 -0.00000000000E+00 -0.45593999997E+02  0.45594000000E+02  0.51100000000E-03 0. -1.
    9900012    2    1    2    0    0 -0.34711344781E+01 -0.24871514838E+02  0.19648909914E+02  0.59301942142E+02  0.49999996561E+02 0.  0.
         12    1    1    2    0    0  0.34711344781E+01  0.24871514838E+02 -0.19648909914E+02  0.31886057858E+02  0.00000000000E+00 0. -1.
         11    1    3    3    0    0 -0.30304839499E+01  0.56411975617E+01 -0.23196443110E+01  0.68108511136E+01  0.51100000000E-03 0. -1.
        -11    1    3    3    0    0  0.55687168424E+01  0.32866107916E+01  0.16509130726E+02  0.17730307819E+02  0.51100000000E-03 0.  1.
         12    1    3    3    0    0 -0.60093673706E+01 -0.33799323192E+02  0.54594234991E+01  0.34760783210E+02  0.00000000000E+00 0. -1.
</event>
<event>
 7    1  0.5662448E-012  0.5930198E+02  0.7816164E-02  0.1266605E+00
        -11   -1    0    0    0    0  0.00000000000E+00  0.00000000000E+00  0.45593999997E+02  0.45594000000E+02  0.51100000000E-03 0.  1.
         11   -1    0    0    0    0 -0.00000000000E+00 -0.00000000000E+00 -0.45593999997E+02  0.45594000000E+02  0.51100000000E-03 0. -1.
    9900012    2    1    2    0    0  0.31777836661E+02 -0.18321137617E+01 -0.18790248162E+01  0.59301979898E+02  0.50000065418E+02 0.  0.
         12    1    1    2    0    0 -0.31777836661E+02  0.18321137617E+01  0.18790248162E+01  0.31886020102E+02  0.00000000000E+00 0. -1.
         11    1    3    3    0    0  0.11341598694E+02  0.34303120627E+01 -0.95680652750E+01  0.15229798920E+02  0.51100000000E-03 0. -1.
        -11    1    3    3    0    0  0.91098574990E+00 -0.50177584590E+01 -0.13992979848E+02  0.14893330060E+02  0.51100000000E-03 0.  1.
        -12    1    3    3    0    0  0.19525252217E+02 -0.24466736544E+00  0.21682020307E+02  0.29178850917E+02  0.00000000000E+00 0.  1.
</event>
<event>
 7    1  0.5662448E-012  0.5930204E+02  0.7816164E-02  0.1266604E+00
        -11   -1    0    0    0    0  0.00000000000E+00  0.00000000000E+00  0.45593999997E+02  0.45594000000E+02  0.51100000000E-03 0. -1.
         11   -1    0    0    0    0 -0.00000000000E+00 -0.00000000000E+00 -0.45593999997E+02  0.45594000000E+02  0.51100000000E-03 0.  1.
    9900012    2    1    2    0    0 -0.24160892353E+02 -0.16969384682E+02 -0.12041843016E+02  0.59302035705E+02  0.50000167198E+02 0.  0.
         12    1    1    2    0    0  0.24160892353E+02  0.16969384682E+02  0.12041843016E+02  0.31885964295E+02  0.00000000000E+00 0. -1.
         11    1    3    3    0    0 -0.56001209167E+00 -0.20445747821E+01 -0.10607309586E+02  0.10817065984E+02  0.51100000000E-03 0. -1.
        -11    1    3    3    0    0 -0.23931397033E+02  0.38836659366E+01 -0.11846910409E+02  0.26984141853E+02  0.51100000000E-03 0.  1.
         12    1    3    3    0    0  0.33051677164E+00 -0.18808475837E+02  0.10412376980E+02  0.21500827868E+02  0.00000000000E+00 0. -1.
</event>
<event>
 7    1  0.5662448E-012  0.5930192E+02  0.7816164E-02  0.1266605E+00
        -11   -1    0    0    0    0  0.00000000000E+00  0.00000000000E+00  0.45593999997E+02  0.45594000000E+02  0.51100000000E-03 0.  1.
         11   -1    0    0    0    0 -0.00000000000E+00 -0.00000000000E+00 -0.45593999997E+02  0.45594000000E+02  0.51100000000E-03 0. -1.
    9900012    2    1    2    0    0 -0.19321054420E+02 -0.24816434387E+02 -0.52500758294E+01  0.59301923794E+02  0.49999963099E+02 0.  0.
         12    1    1    2    0    0  0.19321054420E+02  0.24816434387E+02  0.52500758294E+01  0.31886076206E+02  0.00000000000E+00 0. -1.
         11    1    3    3    0    0 -0.10207229785E+02 -0.13585623695E+02  0.14131894034E+01  0.17051504791E+02  0.51100000000E-03 0. -1.
        -11    1    3    3    0    0  0.29182663299E+01 -0.11687061991E+02  0.13917287159E+02  0.18406373311E+02  0.51100000000E-03 0.  1.
         12    1    3    3    0    0 -0.12032090965E+02  0.45625129863E+00 -0.20580552392E+02  0.23844045692E+02  0.00000000000E+00 0. -1.
</event>
<event>
 7    1  0.5662448E-012  0.5930193E+02  0.7816164E-02  0.1266605E+00
        -11   -1    0    0    0    0  0.00000000000E+00  0.00000000000E+00  0.45593999997E+02  0.45594000000E+02  0.51100000000E-03 0. -1.
         11   -1    0    0    0    0 -0.00000000000E+00 -0.00000000000E+00 -0.45593999997E+02  0.45594000000E+02  0.51100000000E-03 0.  1.
    9900012    2    1    2    0    0 -0.15626791899E+02 -0.26863867486E+02 -0.71314571903E+01  0.59301926503E+02  0.49999968040E+02 0.  0.
         12    1    1    2    0    0  0.15626791899E+02  0.26863867486E+02  0.71314571903E+01  0.31886073497E+02  0.00000000000E+00 0. -1.
         11    1    3    3    0    0 -0.20781259549E+02 -0.14386476987E+02  0.50156159215E+01  0.25767962122E+02  0.51100000000E-03 0. -1.
        -11    1    3    3    0    0  0.10817438010E+01 -0.20906188120E+02 -0.44201441308E+01  0.21395713257E+02  0.51100000000E-03 0.  1.
        -12    1    3    3    0    0  0.40727238495E+01  0.84287976212E+01 -0.77269289810E+01  0.12138251125E+02  0.00000000000E+00 0.  1.
</event>
<event>
 7    1  0.5662448E-012  0.5930212E+02  0.7816164E-02  0.1266604E+00
        -11   -1    0    0    0    0  0.00000000000E+00  0.00000000000E+00  0.45593999997E+02  0.45594000000E+02  0.51100000000E-03 0.  1.
         11   -1    0    0    0    0 -0.00000000000E+00 -0.00000000000E+00 -0.45593999997E+02  0.45594000000E+02  0.51100000000E-03 0. -1.
    9900012    2    1    2    0    0 -0.41849111995E+01 -0.27457491760E+02  0.15661489970E+02  0.59302115920E+02  0.50000313489E+02 0.  0.
         12    1    1    2    0    0  0.41849111995E+01  0.27457491760E+02 -0.15661489970E+02  0.31885884080E+02  0.00000000000E+00 0. -1.
         11    1    3    3    0    0  0.17777851063E+02 -0.13717307987E+02  0.40838091683E+01  0.22823102866E+02  0.51100000000E-03 0. -1.
        -11    1    3    3    0    0 -0.32643788913E+01 -0.15094256846E+02  0.24809579602E+01  0.15641224759E+02  0.51100000000E-03 0.  1.
        -12    1    3    3    0    0 -0.18698383372E+02  0.13540730729E+01  0.90967228415E+01  0.20837788296E+02  0.00000000000E+00 0.  1.
</event>
<event>
 7    1  0.5662448E-012  0.5930194E+02  0.7816164E-02  0.1266605E+00
        -11   -1    0    0    0    0  0.00000000000E+00  0.00000000000E+00  0.45593999997E+02  0.45594000000E+02  0.51100000000E-03 0. -1.
         11   -1    0    0    0    0 -0.00000000000E+00 -0.00000000000E+00 -0.45593999997E+02  0.45594000000E+02  0.51100000000E-03 0.  1.
    9900012    2    1    2    0    0  0.49620539217E+01  0.48040770216E+01 -0.31129078428E+02  0.59301942562E+02  0.49999997327E+02 0.  0.
         12    1    1    2    0    0 -0.49620539217E+01 -0.48040770216E+01  0.31129078428E+02  0.31886057438E+02  0.00000000000E+00 0. -1.
         11    1    3    3    0    0 -0.17485740727E+00 -0.29556215816E+01  0.48438145667E+01  0.56770427041E+01  0.51100000000E-03 0. -1.
        -11    1    3    3    0    0 -0.80646607798E+01  0.12199583337E+02  0.44853639843E+00  0.14631123410E+02  0.51100000000E-03 0.  1.
        -12    1    3    3    0    0  0.13201572109E+02 -0.44398847335E+01 -0.36421429393E+02  0.38993776448E+02  0.00000000000E+00 0.  1.
</event>
<event>
 7    1  0.5662448E-012  0.5930176E+02  0.7816164E-02  0.1266605E+00
        -11   -1    0    0    0    0  0.00000000000E+00  0.00000000000E+00  0.45593999997E+02  0.45594000000E+02  0.51100000000E-03 0.  1.
         11   -1    0    0    0    0 -0.00000000000E+00 -0.00000000000E+00 -0.45593999997E+02  0.45594000000E+02  0.51100000000E-03 0. -1.
    9900012    2    1    2    0    0  0.28226822975E+02 -0.12455782455E+02 -0.80518299507E+01  0.59301764452E+02  0.49999672497E+02 0.  0.
         12    1    1    2    0    0 -0.28226822975E+02  0.12455782455E+02  0.80518299507E+01  0.31886235548E+02  0.00000000000E+00 0. -1.
         11    1    3    3    0    0  0.15247281276E+02  0.14595754011E+02  0.57490579529E+00  0.21115068989E+02  0.51100000000E-03 0. -1.
        -11    1    3    3    0    0  0.88732552840E+01  0.67697903893E+00 -0.40787026702E+01  0.97892173174E+01  0.51100000000E-03 0.  1.
         12    1    3    3    0    0  0.41062864152E+01 -0.27728515504E+02 -0.45480330757E+01  0.28397478146E+02  0.00000000000E+00 0. -1.
</event>
<event>
 7    1  0.5662448E-012  0.5930195E+02  0.7816164E-02  0.1266605E+00
        -11   -1    0    0    0    0  0.00000000000E+00  0.00000000000E+00  0.45593999997E+02  0.45594000000E+02  0.51100000000E-03 0.  1.
         11   -1    0    0    0    0 -0.00000000000E+00 -0.00000000000E+00 -0.45593999997E+02  0.45594000000E+02  0.51100000000E-03 0. -1.
    9900012    2    1    2    0    0  0.44119693341E+01 -0.18795203964E+02  0.25377052856E+02  0.59301953253E+02  0.50000016826E+02 0.  0.
         12    1    1    2    0    0 -0.44119693341E+01  0.18795203964E+02 -0.25377052856E+02  0.31886046747E+02  0.00000000000E+00 0. -1.
         11    1    3    3    0    0  0.94817176289E+01  0.10006611693E+02  0.12676399105E+02  0.18727689161E+02  0.51100000000E-03 0. -1.
        -11    1    3    3    0    0  0.69939074743E+01 -0.11226263835E+02  0.13945782626E+02  0.19220525351E+02  0.51100000000E-03 0.  1.
         12    1    3    3    0    0 -0.12063655769E+02 -0.17575551822E+02 -0.12451288746E+01  0.21353738742E+02  0.00000000000E+00 0. -1.
</event>
<event>
 7    1  0.5662448E-012  0.5930198E+02  0.7816164E-02  0.1266605E+00
        -11   -1    0    0    0    0  0.00000000000E+00  0.00000000000E+00  0.45593999997E+02  0.45594000000E+02  0.51100000000E-03 0.  1.
         11   -1    0    0    0    0 -0.00000000000E+00 -0.00000000000E+00 -0.45593999997E+02  0.45594000000E+02  0.51100000000E-03 0. -1.
    9900012    2    1    2    0    0  0.21321534229E+02  0.20729316779E+02 -0.11506781856E+02  0.59301977597E+02  0.50000061222E+02 0.  0.
         12    1    1    2    0    0 -0.21321534229E+02 -0.20729316779E+02  0.11506781856E+02  0.31886022403E+02  0.00000000000E+00 0. -1.
         11    1    3    3    0    0  0.64724062439E+01 -0.21324899835E+01 -0.14084942346E+02  0.15646889699E+02  0.51100000000E-03 0. -1.
        -11    1    3    3    0    0 -0.30680130514E+01  0.95348957205E+01 -0.13012387167E+02  0.16420997550E+02  0.51100000000E-03 0.  1.
        -12    1    3    3    0    0  0.17917141036E+02  0.13326911042E+02  0.15590547657E+02  0.27234090348E+02  0.00000000000E+00 0.  1.
</event>
<event>
 7    1  0.5662448E-012  0.5930204E+02  0.7816164E-02  0.1266604E+00
        -11   -1    0    0    0    0  0.00000000000E+00  0.00000000000E+00  0.45593999997E+02  0.45594000000E+02  0.51100000000E-03 0. -1.
         11   -1    0    0    0    0 -0.00000000000E+00 -0.00000000000E+00 -0.45593999997E+02  0.45594000000E+02  0.51100000000E-03 0.  1.
    9900012    2    1    2    0    0  0.26239373311E+02 -0.14014804143E+02  0.11480207644E+02  0.59302037345E+02  0.50000170188E+02 0.  0.
         12    1    1    2    0    0 -0.26239373311E+02  0.14014804143E+02 -0.11480207644E+02  0.31885962655E+02  0.00000000000E+00 0. -1.
         11    1    3    3    0    0 -0.65474848603E+01  0.19694340486E+01  0.30126020088E+01  0.74715459975E+01  0.51100000000E-03 0. -1.
        -11    1    3    3    0    0  0.60374191902E+01  0.11300545253E+02  0.36239661575E+01  0.13314874557E+02  0.51100000000E-03 0.  1.
        -12    1    3    3    0    0  0.26749438981E+02 -0.27284783444E+02  0.48436394774E+01  0.38515616791E+02  0.00000000000E+00 0.  1.
</event>
<event>
 7    1  0.5662448E-012  0.5930195E+02  0.7816164E-02  0.1266605E+00
        -11   -1    0    0    0    0  0.00000000000E+00  0.00000000000E+00  0.45593999997E+02  0.45594000000E+02  0.51100000000E-03 0. -1.
         11   -1    0    0    0    0 -0.00000000000E+00 -0.00000000000E+00 -0.45593999997E+02  0.45594000000E+02  0.51100000000E-03 0.  1.
    9900012    2    1    2    0    0  0.17549226485E+01 -0.22658635170E+02 -0.22365750932E+02  0.59301947939E+02  0.50000007133E+02 0.  0.
         12    1    1    2    0    0 -0.17549226485E+01  0.22658635170E+02  0.22365750932E+02  0.31886052061E+02  0.00000000000E+00 0. -1.
         11    1    3    3    0    0  0.11676999577E+02 -0.14094129097E+02 -0.97423634597E+01  0.20734281762E+02  0.51100000000E-03 0. -1.
        -11    1    3    3    0    0 -0.10812489080E+02 -0.20855699723E+02 -0.11605636228E+02  0.26202307600E+02  0.51100000000E-03 0.  1.
        -12    1    3    3    0    0  0.89041215168E+00  0.12291193650E+02 -0.10177512441E+01  0.12365358577E+02  0.00000000000E+00 0.  1.
</event>
<event>
 7    1  0.5662448E-012  0.5930194E+02  0.7816164E-02  0.1266605E+00
        -11   -1    0    0    0    0  0.00000000000E+00  0.00000000000E+00  0.45593999997E+02  0.45594000000E+02  0.51100000000E-03 0.  1.
         11   -1    0    0    0    0 -0.00000000000E+00 -0.00000000000E+00 -0.45593999997E+02  0.45594000000E+02  0.51100000000E-03 0. -1.
    9900012    2    1    2    0    0  0.96133125212E+01  0.30041425557E+02  0.46709407494E+01  0.59301941689E+02  0.49999995735E+02 0.  0.
         12    1    1    2    0    0 -0.96133125212E+01 -0.30041425557E+02 -0.46709407494E+01  0.31886058311E+02  0.00000000000E+00 0. -1.
         11    1    3    3    0    0 -0.13246285337E+01 -0.55328393406E+00  0.10840805526E+02  0.10935439112E+02  0.51100000000E-03 0.  1.
        -11    1    3    3    0    0  0.49084517788E+01  0.37769918179E+02 -0.77335741663E+01  0.38864737073E+02  0.51100000000E-03 0. -1.
         12    1    3    3    0    0  0.60294892761E+01 -0.71752086879E+01  0.15637093897E+01  0.95017655044E+01  0.00000000000E+00 0. -1.
</event>
<event>
 7    1  0.5662448E-012  0.5930196E+02  0.7816164E-02  0.1266605E+00
        -11   -1    0    0    0    0  0.00000000000E+00  0.00000000000E+00  0.45593999997E+02  0.45594000000E+02  0.51100000000E-03 0.  1.
         11   -1    0    0    0    0 -0.00000000000E+00 -0.00000000000E+00 -0.45593999997E+02  0.45594000000E+02  0.51100000000E-03 0. -1.
    9900012    2    1    2    0    0 -0.23939987186E+02 -0.13493985250E+02  0.16171236516E+02  0.59301960502E+02  0.50000030045E+02 0.  0.
         12    1    1    2    0    0  0.23939987186E+02  0.13493985250E+02 -0.16171236516E+02  0.31886039498E+02  0.00000000000E+00 0. -1.
         11    1    3    3    0    0 -0.21545549333E+01 -0.48535949237E+01  0.57957176372E+01  0.78606509803E+01  0.51100000000E-03 0. -1.
        -11    1    3    3    0    0 -0.23631406693E+02 -0.18716974094E+02  0.20956001078E+02  0.36714063831E+02  0.51100000000E-03 0.  1.
         12    1    3    3    0    0  0.18459744405E+01  0.10076583767E+02 -0.10580482199E+02  0.14727245691E+02  0.00000000000E+00 0. -1.
</event>
<event>
 7    1  0.5662448E-012  0.5930200E+02  0.7816164E-02  0.1266605E+00
        -11   -1    0    0    0    0  0.00000000000E+00  0.00000000000E+00  0.45593999997E+02  0.45594000000E+02  0.51100000000E-03 0.  1.
         11   -1    0    0    0    0 -0.00000000000E+00 -0.00000000000E+00 -0.45593999997E+02  0.45594000000E+02  0.51100000000E-03 0. -1.
    9900012    2    1    2    0    0 -0.20897854733E+02 -0.17854243394E+02 -0.16162392002E+02  0.59301995941E+02  0.50000094677E+02 0.  0.
         12    1    1    2    0    0  0.20897854733E+02  0.17854243394E+02  0.16162392002E+02  0.31886004059E+02  0.00000000000E+00 0. -1.
         11    1    3    3    0    0 -0.22912573789E+01 -0.62665582422E+01  0.39141969476E+01  0.77356674298E+01  0.51100000000E-03 0. -1.
        -11    1    3    3    0    0 -0.22643903024E+02 -0.24691175078E+02 -0.16754978812E+02  0.37458374045E+02  0.51100000000E-03 0.  1.
         12    1    3    3    0    0  0.40373056692E+01  0.13103489926E+02 -0.33216101377E+01  0.14107954466E+02  0.00000000000E+00 0. -1.
</event>
<event>
 7    1  0.5662448E-012  0.5930192E+02  0.7816164E-02  0.1266605E+00
        -11   -1    0    0    0    0  0.00000000000E+00  0.00000000000E+00  0.45593999997E+02  0.45594000000E+02  0.51100000000E-03 0. -1.
         11   -1    0    0    0    0 -0.00000000000E+00 -0.00000000000E+00 -0.45593999997E+02  0.45594000000E+02  0.51100000000E-03 0.  1.
    9900012    2    1    2    0    0  0.13682627450E+02  0.25988363173E+02 -0.12414226197E+02  0.59301916415E+02  0.49999949640E+02 0.  0.
         12    1    1    2    0    0 -0.13682627450E+02 -0.25988363173E+02  0.12414226197E+02  0.31886083585E+02  0.00000000000E+00 0. -1.
         11    1    3    3    0    0  0.48109258306E+01 -0.76219845497E+01 -0.59389460738E+01  0.10794013922E+02  0.51100000000E-03 0. -1.
        -11    1    3    3    0    0  0.16076754235E+02  0.33873543904E+01 -0.58229783145E+01  0.17431100746E+02  0.51100000000E-03 0.  1.
        -12    1    3    3    0    0 -0.72050526156E+01  0.30222993332E+02 -0.65230180885E+00  0.31076801746E+02  0.00000000000E+00 0.  1.
</event>
<event>
 7    1  0.5662448E-012  0.5930197E+02  0.7816164E-02  0.1266605E+00
        -11   -1    0    0    0    0  0.00000000000E+00  0.00000000000E+00  0.45593999997E+02  0.45594000000E+02  0.51100000000E-03 0.  1.
         11   -1    0    0    0    0 -0.00000000000E+00 -0.00000000000E+00 -0.45593999997E+02  0.45594000000E+02  0.51100000000E-03 0. -1.
    9900012    2    1    2    0    0 -0.14431884520E+02 -0.19448466977E+01  0.28366475833E+02  0.59301973740E+02  0.50000054189E+02 0.  0.
         12    1    1    2    0    0  0.14431884520E+02  0.19448466977E+01 -0.28366475833E+02  0.31886026260E+02  0.00000000000E+00 0. -1.
         11    1    3    3    0    0 -0.14478986288E+02  0.92184647307E+01 -0.36071049825E+01  0.17539451033E+02  0.51100000000E-03 0. -1.
        -11    1    3    3    0    0 -0.31659125148E+01  0.72725365875E+01  0.12070798860E+02  0.14443579052E+02  0.51100000000E-03 0.  1.
         12    1    3    3    0    0  0.32130142834E+01 -0.18435848016E+02  0.19902781956E+02  0.27318943655E+02  0.00000000000E+00 0. -1.
</event>
<event>
 7    1  0.5662448E-012  0.5930194E+02  0.7816164E-02  0.1266605E+00
        -11   -1    0    0    0    0  0.00000000000E+00  0.00000000000E+00  0.45593999997E+02  0.45594000000E+02  0.51100000000E-03 0.  1.
         11   -1    0    0    0    0 -0.00000000000E+00 -0.00000000000E+00 -0.45593999997E+02  0.45594000000E+02  0.51100000000E-03 0. -1.
    9900012    2    1    2    0    0 -0.97839713729E+01 -0.14089510257E+02  0.26878996529E+02  0.59301939573E+02  0.49999991876E+02 0.  0.
         12    1    1    2    0    0  0.97839713729E+01  0.14089510257E+02 -0.26878996529E+02  0.31886060427E+02  0.00000000000E+00 0. -1.
         11    1    3    3    0    0  0.16260143698E+02 -0.93468991900E+01  0.17561779902E+02  0.25693830216E+02  0.51100000000E-03 0. -1.
        -11    1    3    3    0    0 -0.17795964177E+00  0.27616286718E+01  0.58262603897E+01  0.64500831734E+01  0.51100000000E-03 0.  1.
         12    1    3    3    0    0 -0.25866155430E+02 -0.75042397389E+01  0.34909562377E+01  0.27158026184E+02  0.00000000000E+00 0. -1.
</event>
<event>
 7    1  0.5662448E-012  0.5930195E+02  0.7816164E-02  0.1266605E+00
        -11   -1    0    0    0    0  0.00000000000E+00  0.00000000000E+00  0.45593999997E+02  0.45594000000E+02  0.51100000000E-03 0.  1.
         11   -1    0    0    0    0 -0.00000000000E+00 -0.00000000000E+00 -0.45593999997E+02  0.45594000000E+02  0.51100000000E-03 0. -1.
    9900012    2    1    2    0    0 -0.77653755082E+01 -0.12869464211E+02  0.28121101120E+02  0.59301945148E+02  0.50000002043E+02 0.  0.
         12    1    1    2    0    0  0.77653755082E+01  0.12869464211E+02 -0.28121101120E+02  0.31886054852E+02  0.00000000000E+00 0. -1.
         11    1    3    3    0    0 -0.26852000007E+01  0.51361041031E+01  0.15393629574E+02  0.16448516532E+02  0.51100000000E-03 0. -1.
        -11    1    3    3    0    0  0.59673181516E+01 -0.25869784230E+02  0.12366357553E+02  0.29287905719E+02  0.51100000000E-03 0.  1.
         12    1    3    3    0    0 -0.11047493659E+02  0.78642159162E+01  0.36111399271E+00  0.13565522896E+02  0.00000000000E+00 0. -1.
</event>
<event>
 7    1  0.5662448E-012  0.5930195E+02  0.7816164E-02  0.1266605E+00
        -11   -1    0    0    0    0  0.00000000000E+00  0.00000000000E+00  0.45593999997E+02  0.45594000000E+02  0.51100000000E-03 0. -1.
         11   -1    0    0    0    0 -0.00000000000E+00 -0.00000000000E+00 -0.45593999997E+02  0.45594000000E+02  0.51100000000E-03 0.  1.
    9900012    2    1    2    0    0 -0.10332759682E+02 -0.26461256763E+02 -0.14482950003E+02  0.59301954887E+02  0.50000019805E+02 0.  0.
         12    1    1    2    0    0  0.10332759682E+02  0.26461256763E+02  0.14482950003E+02  0.31886045113E+02  0.00000000000E+00 0. -1.
         11    1    3    3    0    0 -0.12063425077E+01  0.33370073300E+01  0.13392066995E+01  0.37926712238E+01  0.51100000000E-03 0. -1.
        -11    1    3    3    0    0  0.16480008853E+02 -0.12760138977E+02  0.16995712149E+00  0.20843241692E+02  0.51100000000E-03 0.  1.
        -12    1    3    3    0    0 -0.25606426028E+02 -0.17038125116E+02 -0.15992113824E+02  0.34666041971E+02  0.00000000000E+00 0.  1.
</event>
<event>
 7    1  0.5662448E-012  0.5930175E+02  0.7816164E-02  0.1266605E+00
        -11   -1    0    0    0    0  0.00000000000E+00  0.00000000000E+00  0.45593999997E+02  0.45594000000E+02  0.51100000000E-03 0.  1.
         11   -1    0    0    0    0 -0.00000000000E+00 -0.00000000000E+00 -0.45593999997E+02  0.45594000000E+02  0.51100000000E-03 0. -1.
    9900012    2    1    2    0    0  0.16431852115E+02 -0.87016444418E+01  0.25903829954E+02  0.59301752397E+02  0.49999650510E+02 0.  0.
         12    1    1    2    0    0 -0.16431852115E+02  0.87016444418E+01 -0.25903829954E+02  0.31886247603E+02  0.00000000000E+00 0. -1.
         11    1    3    3    0    0  0.11012539910E+01 -0.18724741722E+02  0.12262947018E+02  0.22410010771E+02  0.51100000000E-03 0. -1.
        -11    1    3    3    0    0 -0.90310452890E+00  0.48074778557E+01  0.18521064533E+02  0.19156128858E+02  0.51100000000E-03 0.  1.
         12    1    3    3    0    0  0.16233702653E+02  0.52156194249E+01 -0.48801815975E+01  0.17735612768E+02  0.00000000000E+00 0. -1.
</event>
<event>
 7    1  0.5662448E-012  0.5930193E+02  0.7816164E-02  0.1266605E+00
        -11   -1    0    0    0    0  0.00000000000E+00  0.00000000000E+00  0.45593999997E+02  0.45594000000E+02  0.51100000000E-03 0.  1.
         11   -1    0    0    0    0 -0.00000000000E+00 -0.00000000000E+00 -0.45593999997E+02  0.45594000000E+02  0.51100000000E-03 0. -1.
    9900012    2    1    2    0    0  0.20382637759E+02 -0.18923401549E+01  0.24447664473E+02  0.59301934526E+02  0.49999982671E+02 0.  0.
         12    1    1    2    0    0 -0.20382637759E+02  0.18923401549E+01 -0.24447664473E+02  0.31886065474E+02  0.00000000000E+00 0. -1.
         11    1    3    3    0    0  0.45492223477E+01 -0.12193203244E+02  0.15945426217E+01  0.13111529115E+02  0.51100000000E-03 0. -1.
        -11    1    3    3    0    0 -0.24139142025E+01 -0.61559803695E+01  0.20459979129E+02  0.21501949267E+02  0.51100000000E-03 0.  1.
        -12    1    3    3    0    0  0.18247329614E+02  0.16456843458E+02  0.23931427221E+01  0.24688456143E+02  0.00000000000E+00 0.  1.
</event>
<event>
 7    1  0.5662448E-012  0.5930195E+02  0.7816164E-02  0.1266605E+00
        -11   -1    0    0    0    0  0.00000000000E+00  0.00000000000E+00  0.45593999997E+02  0.45594000000E+02  0.51100000000E-03 0.  1.
         11   -1    0    0    0    0 -0.00000000000E+00 -0.00000000000E+00 -0.45593999997E+02  0.45594000000E+02  0.51100000000E-03 0. -1.
    9900012    2    1    2    0    0 -0.24821057501E+02 -0.80945761266E+01  0.18306094247E+02  0.59301950626E+02  0.50000012033E+02 0.  0.
         12    1    1    2    0    0  0.24821057501E+02  0.80945761266E+01 -0.18306094247E+02  0.31886049374E+02  0.00000000000E+00 0. -1.
         11    1    3    3    0    0 -0.17131317040E+02 -0.22418585730E+02  0.47249092315E+01  0.28607687379E+02  0.51100000000E-03 0. -1.
        -11    1    3    3    0    0  0.30451107211E+01 -0.40266248161E+01  0.66167249500E+01  0.83227072542E+01  0.51100000000E-03 0.  1.
        -12    1    3    3    0    0 -0.10734851183E+02  0.18350634420E+02  0.69644600651E+01  0.22371555992E+02  0.00000000000E+00 0.  1.
</event>
<event>
 7    1  0.5662448E-012  0.5930194E+02  0.7816164E-02  0.1266605E+00
        -11   -1    0    0    0    0  0.00000000000E+00  0.00000000000E+00  0.45593999997E+02  0.45594000000E+02  0.51100000000E-03 0.  1.
         11   -1    0    0    0    0 -0.00000000000E+00 -0.00000000000E+00 -0.45593999997E+02  0.45594000000E+02  0.51100000000E-03 0. -1.
    9900012    2    1    2    0    0  0.15667594901E+02  0.20146445958E+02  0.19114600306E+02  0.59301940984E+02  0.49999994449E+02 0.  0.
         12    1    1    2    0    0 -0.15667594901E+02 -0.20146445958E+02 -0.19114600306E+02  0.31886059016E+02  0.00000000000E+00 0. -1.
         11    1    3    3    0    0  0.25816989475E+02  0.14475528822E+02  0.10669861719E+02  0.31462737160E+02  0.51100000000E-03 0. -1.
        -11    1    3    3    0    0  0.41917604744E+01  0.85684167434E+01  0.91140442454E+01  0.13192968738E+02  0.51100000000E-03 0.  1.
         12    1    3    3    0    0 -0.14341155049E+02 -0.28974996072E+01 -0.66930565801E+00  0.14646235085E+02  0.00000000000E+00 0. -1.
</event>
<event>
 7    1  0.5662448E-012  0.5930194E+02  0.7816164E-02  0.1266605E+00
        -11   -1    0    0    0    0  0.00000000000E+00  0.00000000000E+00  0.45593999997E+02  0.45594000000E+02  0.51100000000E-03 0.  1.
         11   -1    0    0    0    0 -0.00000000000E+00 -0.00000000000E+00 -0.45593999997E+02  0.45594000000E+02  0.51100000000E-03 0. -1.
    9900012    2    1    2    0    0  0.78019637357E+01 -0.21034989903E+02  0.22657874122E+02  0.59301941948E+02  0.49999996208E+02 0.  0.
         12    1    1    2    0    0 -0.78019637357E+01  0.21034989903E+02 -0.22657874122E+02  0.31886058052E+02  0.00000000000E+00 0. -1.
         11    1    3    3    0    0 -0.29554847644E+00 -0.41270840675E+01 -0.10794501800E+02  0.11560339146E+02  0.51100000000E-03 0. -1.
        -11    1    3    3    0    0 -0.84165465749E+01 -0.11523053849E+01  0.17431283867E+01  0.86720563179E+01  0.51100000000E-03 0.  1.
        -12    1    3    3    0    0  0.16514058787E+02 -0.15755600450E+02  0.31709247536E+02  0.39069546484E+02  0.00000000000E+00 0.  1.
</event>
<event>
 7    1  0.5662448E-012  0.5930201E+02  0.7816164E-02  0.1266605E+00
        -11   -1    0    0    0    0  0.00000000000E+00  0.00000000000E+00  0.45593999997E+02  0.45594000000E+02  0.51100000000E-03 0.  1.
         11   -1    0    0    0    0 -0.00000000000E+00 -0.00000000000E+00 -0.45593999997E+02  0.45594000000E+02  0.51100000000E-03 0. -1.
    9900012    2    1    2    0    0  0.18110742684E+00  0.18508099241E+02  0.25964085799E+02  0.59302011090E+02  0.50000122305E+02 0.  0.
         12    1    1    2    0    0 -0.18110742684E+00 -0.18508099241E+02 -0.25964085799E+02  0.31885988910E+02  0.00000000000E+00 0. -1.
         11    1    3    3    0    0  0.36179288982E-01  0.69224425637E+01 -0.10377426451E+02  0.12474473936E+02  0.51100000000E-03 0. -1.
        -11    1    3    3    0    0 -0.26733284020E+01  0.12183773785E+02  0.23240248183E+01  0.12688267022E+02  0.51100000000E-03 0.  1.
        -12    1    3    3    0    0  0.28182565399E+01 -0.59811710779E+00  0.34017487431E+02  0.34139270132E+02  0.00000000000E+00 0.  1.
</event>
<event>
 7    1  0.5662448E-012  0.5930194E+02  0.7816164E-02  0.1266605E+00
        -11   -1    0    0    0    0  0.00000000000E+00  0.00000000000E+00  0.45593999997E+02  0.45594000000E+02  0.51100000000E-03 0. -1.
         11   -1    0    0    0    0 -0.00000000000E+00 -0.00000000000E+00 -0.45593999997E+02  0.45594000000E+02  0.51100000000E-03 0.  1.
    9900012    2    1    2    0    0 -0.90381652663E+01 -0.28114624404E+02 -0.12024981074E+02  0.59301941815E+02  0.49999995964E+02 0.  0.
         12    1    1    2    0    0  0.90381652663E+01  0.28114624404E+02  0.12024981074E+02  0.31886058185E+02  0.00000000000E+00 0. -1.
         11    1    3    3    0    0 -0.43575697701E+01  0.43682619518E+01  0.27057691045E+01  0.67373075846E+01  0.51100000000E-03 0. -1.
        -11    1    3    3    0    0  0.71691578232E+01  0.16208478686E+01  0.72270444845E+01  0.10307965073E+02  0.51100000000E-03 0.  1.
        -12    1    3    3    0    0 -0.11849753319E+02 -0.34103734224E+02 -0.21957794663E+02  0.42256669157E+02  0.00000000000E+00 0.  1.
</event>
<event>
 7    1  0.5662448E-012  0.5930194E+02  0.7816164E-02  0.1266605E+00
        -11   -1    0    0    0    0  0.00000000000E+00  0.00000000000E+00  0.45593999997E+02  0.45594000000E+02  0.51100000000E-03 0. -1.
         11   -1    0    0    0    0 -0.00000000000E+00 -0.00000000000E+00 -0.45593999997E+02  0.45594000000E+02  0.51100000000E-03 0.  1.
    9900012    2    1    2    0    0 -0.80831954413E+01 -0.59945580438E+00 -0.30838668456E+02  0.59301939285E+02  0.49999991350E+02 0.  0.
         12    1    1    2    0    0  0.80831954413E+01  0.59945580438E+00  0.30838668456E+02  0.31886060715E+02  0.00000000000E+00 0. -1.
         11    1    3    3    0    0  0.82605241174E+01  0.12456285167E+02 -0.15054306595E+02  0.21213850338E+02  0.51100000000E-03 0. -1.
        -11    1    3    3    0    0  0.48639008154E+01 -0.47375214237E+01 -0.13602860441E+02  0.15203271123E+02  0.51100000000E-03 0.  1.
         12    1    3    3    0    0 -0.21207620374E+02 -0.83182195476E+01 -0.21815014193E+01  0.22884817824E+02  0.00000000000E+00 0. -1.
</event>
<event>
 7    1  0.5662448E-012  0.5930195E+02  0.7816164E-02  0.1266605E+00
        -11   -1    0    0    0    0  0.00000000000E+00  0.00000000000E+00  0.45593999997E+02  0.45594000000E+02  0.51100000000E-03 0.  1.
         11   -1    0    0    0    0 -0.00000000000E+00 -0.00000000000E+00 -0.45593999997E+02  0.45594000000E+02  0.51100000000E-03 0. -1.
    9900012    2    1    2    0    0 -0.92965246050E+01 -0.21836281500E+00  0.30499956151E+02  0.59301946979E+02  0.50000005383E+02 0.  0.
         12    1    1    2    0    0  0.92965246050E+01  0.21836281500E+00 -0.30499956151E+02  0.31886053021E+02  0.00000000000E+00 0. -1.
         11    1    3    3    0    0 -0.14477325962E+02 -0.85780088011E+01  0.69995505818E+00  0.16842361454E+02  0.51100000000E-03 0. -1.
        -11    1    3    3    0    0  0.87987507607E+01 -0.87259292843E+01  0.90877255054E+01  0.15367062567E+02  0.51100000000E-03 0.  1.
        -12    1    3    3    0    0 -0.36179494033E+01  0.17085575270E+02  0.20712275587E+02  0.27092522958E+02  0.00000000000E+00 0.  1.
</event>
<event>
 7    1  0.5662448E-012  0.5930201E+02  0.7816164E-02  0.1266605E+00
        -11   -1    0    0    0    0  0.00000000000E+00  0.00000000000E+00  0.45593999997E+02  0.45594000000E+02  0.51100000000E-03 0. -1.
         11   -1    0    0    0    0 -0.00000000000E+00 -0.00000000000E+00 -0.45593999997E+02  0.45594000000E+02  0.51100000000E-03 0.  1.
    9900012    2    1    2    0    0 -0.31636244522E+02 -0.30369933873E+01 -0.25769974465E+01  0.59302012292E+02  0.50000124497E+02 0.  0.
         12    1    1    2    0    0  0.31636244522E+02  0.30369933873E+01  0.25769974465E+01  0.31885987708E+02  0.00000000000E+00 0. -1.
         11    1    3    3    0    0 -0.16672161992E+02 -0.84077913001E+01  0.28602311985E+00  0.18674414302E+02  0.51100000000E-03 0. -1.
        -11    1    3    3    0    0 -0.27493116411E+02  0.28410660277E+01 -0.59406987413E+00  0.27645904316E+02  0.51100000000E-03 0.  1.
         12    1    3    3    0    0  0.12529033881E+02  0.25297318851E+01 -0.22689506922E+01  0.12981693674E+02  0.00000000000E+00 0. -1.
</event>
<event>
 7    1  0.5662448E-012  0.5930213E+02  0.7816164E-02  0.1266604E+00
        -11   -1    0    0    0    0  0.00000000000E+00  0.00000000000E+00  0.45593999997E+02  0.45594000000E+02  0.51100000000E-03 0.  1.
         11   -1    0    0    0    0 -0.00000000000E+00 -0.00000000000E+00 -0.45593999997E+02  0.45594000000E+02  0.51100000000E-03 0. -1.
    9900012    2    1    2    0    0  0.18849745987E+02  0.25707945818E+02  0.70534337861E+00  0.59302126776E+02  0.50000333289E+02 0.  0.
         12    1    1    2    0    0 -0.18849745987E+02 -0.25707945818E+02 -0.70534337861E+00  0.31885873224E+02  0.00000000000E+00 0. -1.
         11    1    3    3    0    0  0.51833162207E+01  0.55612168128E+01  0.36414030223E+01  0.84293366118E+01  0.51100000000E-03 0. -1.
        -11    1    3    3    0    0  0.25224205145E+02  0.93068348925E+01 -0.15154688028E+02  0.30863283532E+02  0.51100000000E-03 0.  1.
         12    1    3    3    0    0 -0.11557775378E+02  0.10839894113E+02  0.12218628384E+02  0.20009506632E+02  0.00000000000E+00 0. -1.
</event>
<event>
 7    1  0.5662448E-012  0.5930192E+02  0.7816164E-02  0.1266605E+00
        -11   -1    0    0    0    0  0.00000000000E+00  0.00000000000E+00  0.45593999997E+02  0.45594000000E+02  0.51100000000E-03 0.  1.
         11   -1    0    0    0    0 -0.00000000000E+00 -0.00000000000E+00 -0.45593999997E+02  0.45594000000E+02  0.51100000000E-03 0. -1.
    9900012    2    1    2    0    0 -0.16168952128E+02 -0.23704588667E+02  0.13906095945E+02  0.59301920887E+02  0.49999957796E+02 0.  0.
         12    1    1    2    0    0  0.16168952128E+02  0.23704588667E+02 -0.13906095945E+02  0.31886079113E+02  0.00000000000E+00 0. -1.
         11    1    3    3    0    0 -0.17212044489E+02 -0.64417408618E+01 -0.47038568805E+01  0.18970418304E+02  0.51100000000E-03 0. -1.
        -11    1    3    3    0    0  0.59591763491E+01 -0.17820832171E+02 -0.22204945605E+01  0.18921533722E+02  0.51100000000E-03 0.  1.
        -12    1    3    3    0    0 -0.49160839887E+01  0.55798436565E+00  0.20830447386E+02  0.21409968861E+02  0.00000000000E+00 0.  1.
</event>
<event>
 7    1  0.5662448E-012  0.5930196E+02  0.7816164E-02  0.1266605E+00
        -11   -1    0    0    0    0  0.00000000000E+00  0.00000000000E+00  0.45593999997E+02  0.45594000000E+02  0.51100000000E-03 0.  1.
         11   -1    0    0    0    0 -0.00000000000E+00 -0.00000000000E+00 -0.45593999997E+02  0.45594000000E+02  0.51100000000E-03 0. -1.
    9900012    2    1    2    0    0  0.26726146069E+02  0.12794595505E+02  0.11778419830E+02  0.59301957104E+02  0.50000023849E+02 0.  0.
         12    1    1    2    0    0 -0.26726146069E+02 -0.12794595505E+02 -0.11778419830E+02  0.31886042896E+02  0.00000000000E+00 0. -1.
         11    1    3    3    0    0  0.16229031652E+02  0.49752359085E+01  0.10192440206E+02  0.19799501971E+02  0.51100000000E-03 0.  1.
        -11    1    3    3    0    0  0.18810440500E+02  0.16147148545E+02 -0.59947743304E+01  0.25504909282E+02  0.51100000000E-03 0. -1.
         12    1    3    3    0    0 -0.83133260829E+01 -0.83277889483E+01  0.75807539551E+01  0.13997545851E+02  0.00000000000E+00 0. -1.
</event>
<event>
 7    1  0.5662448E-012  0.5930190E+02  0.7816164E-02  0.1266605E+00
        -11   -1    0    0    0    0  0.00000000000E+00  0.00000000000E+00  0.45593999997E+02  0.45594000000E+02  0.51100000000E-03 0.  1.
         11   -1    0    0    0    0 -0.00000000000E+00 -0.00000000000E+00 -0.45593999997E+02  0.45594000000E+02  0.51100000000E-03 0. -1.
    9900012    2    1    2    0    0  0.11981476284E+02 -0.30563626706E+01  0.29390918501E+02  0.59301902449E+02  0.49999924170E+02 0.  0.
         12    1    1    2    0    0 -0.11981476284E+02  0.30563626706E+01 -0.29390918501E+02  0.31886097551E+02  0.00000000000E+00 0. -1.
         11    1    3    3    0    0 -0.39263592329E+00  0.79521621792E+01  0.91094063600E+01  0.12098443321E+02  0.51100000000E-03 0. -1.
        -11    1    3    3    0    0  0.18227171889E+02  0.94915345016E+01  0.14381716167E+02  0.25082918140E+02  0.51100000000E-03 0.  1.
         12    1    3    3    0    0 -0.58530596820E+01 -0.20500059351E+02  0.58997959736E+01  0.22120540988E+02  0.00000000000E+00 0. -1.
</event>
<event>
 7    1  0.5662448E-012  0.5930195E+02  0.7816164E-02  0.1266605E+00
        -11   -1    0    0    0    0  0.00000000000E+00  0.00000000000E+00  0.45593999997E+02  0.45594000000E+02  0.51100000000E-03 0. -1.
         11   -1    0    0    0    0 -0.00000000000E+00 -0.00000000000E+00 -0.45593999997E+02  0.45594000000E+02  0.51100000000E-03 0.  1.
    9900012    2    1    2    0    0 -0.23934291011E+02  0.96618357596E+01 -0.18722145673E+02  0.59301951405E+02  0.50000013454E+02 0.  0.
         12    1    1    2    0    0  0.23934291011E+02 -0.96618357596E+01  0.18722145673E+02  0.31886048595E+02  0.00000000000E+00 0. -1.
         11    1    3    3    0    0 -0.25332616747E+02  0.20029965985E+02 -0.20102592627E+02  0.38040179274E+02  0.51100000000E-03 0. -1.
        -11    1    3    3    0    0  0.28058616947E+01  0.26646216056E+01 -0.52895918826E+01  0.65538424375E+01  0.51100000000E-03 0.  1.
         12    1    3    3    0    0 -0.14075359578E+01 -0.13032751831E+02  0.66700388367E+01  0.14707929693E+02  0.00000000000E+00 0. -1.
</event>
<event>
 7    1  0.5662448E-012  0.5930210E+02  0.7816164E-02  0.1266604E+00
        -11   -1    0    0    0    0  0.00000000000E+00  0.00000000000E+00  0.45593999997E+02  0.45594000000E+02  0.51100000000E-03 0. -1.
         11   -1    0    0    0    0 -0.00000000000E+00 -0.00000000000E+00 -0.45593999997E+02  0.45594000000E+02  0.51100000000E-03 0.  1.
    9900012    2    1    2    0    0 -0.65930823470E+00 -0.44562199459E+01 -0.31566093314E+02  0.59302096677E+02  0.50000278396E+02 0.  0.
         12    1    1    2    0    0  0.65930823470E+00  0.44562199459E+01  0.31566093314E+02  0.31885903323E+02  0.00000000000E+00 0. -1.
         11    1    3    3    0    0 -0.27213477639E+01 -0.14674819871E+02  0.62859710288E+01  0.16194736921E+02  0.51100000000E-03 0. -1.
        -11    1    3    3    0    0 -0.41504997178E+01 -0.30372539484E+01 -0.51512797335E+01  0.72792336553E+01  0.51100000000E-03 0.  1.
        -12    1    3    3    0    0  0.62125392470E+01  0.13255853874E+02 -0.32700784610E+02  0.35828126101E+02  0.00000000000E+00 0.  1.
</event>
<event>
 7    1  0.5662448E-012  0.5930196E+02  0.7816164E-02  0.1266605E+00
        -11   -1    0    0    0    0  0.00000000000E+00  0.00000000000E+00  0.45593999997E+02  0.45594000000E+02  0.51100000000E-03 0. -1.
         11   -1    0    0    0    0 -0.00000000000E+00 -0.00000000000E+00 -0.45593999997E+02  0.45594000000E+02  0.51100000000E-03 0.  1.
    9900012    2    1    2    0    0 -0.42416930244E+01 -0.18750606191E+02 -0.25438989735E+02  0.59301962444E+02  0.50000033587E+02 0.  0.
         12    1    1    2    0    0  0.42416930244E+01  0.18750606191E+02  0.25438989735E+02  0.31886037556E+02  0.00000000000E+00 0. -1.
         11    1    3    3    0    0 -0.11602174441E+02 -0.21917609717E+02 -0.21159736127E+02  0.32599486202E+02  0.51100000000E-03 0. -1.
        -11    1    3    3    0    0  0.29928438363E+01 -0.10243832465E+02 -0.63936344761E+01  0.12440730681E+02  0.51100000000E-03 0.  1.
        -12    1    3    3    0    0  0.43676375803E+01  0.13410835990E+02  0.21143808673E+01  0.14261745561E+02  0.00000000000E+00 0.  1.
</event>
<event>
 7    1  0.5662448E-012  0.5930193E+02  0.7816164E-02  0.1266605E+00
        -11   -1    0    0    0    0  0.00000000000E+00  0.00000000000E+00  0.45593999997E+02  0.45594000000E+02  0.51100000000E-03 0.  1.
         11   -1    0    0    0    0 -0.00000000000E+00 -0.00000000000E+00 -0.45593999997E+02  0.45594000000E+02  0.51100000000E-03 0. -1.
    9900012    2    1    2    0    0  0.11438714804E+02 -0.25920556286E+02  0.14628803319E+02  0.59301932179E+02  0.49999978391E+02 0.  0.
         12    1    1    2    0    0 -0.11438714804E+02  0.25920556286E+02 -0.14628803319E+02  0.31886067821E+02  0.00000000000E+00 0. -1.
         11    1    3    3    0    0  0.31098256886E+01 -0.27274073791E+01 -0.48981486020E+01  0.64110550468E+01  0.51100000000E-03 0. -1.
        -11    1    3    3    0    0  0.24034724934E+02 -0.56506472457E+01  0.49000133659E+01  0.25171570237E+02  0.51100000000E-03 0.  1.
        -12    1    3    3    0    0 -0.15705835818E+02 -0.17542501661E+02  0.14626938556E+02  0.27719306896E+02  0.00000000000E+00 0.  1.
</event>
<event>
 7    1  0.5662448E-012  0.5930194E+02  0.7816164E-02  0.1266605E+00
        -11   -1    0    0    0    0  0.00000000000E+00  0.00000000000E+00  0.45593999997E+02  0.45594000000E+02  0.51100000000E-03 0. -1.
         11   -1    0    0    0    0 -0.00000000000E+00 -0.00000000000E+00 -0.45593999997E+02  0.45594000000E+02  0.51100000000E-03 0.  1.
    9900012    2    1    2    0    0  0.25172579548E+02  0.17664621504E+02 -0.84275218598E+01  0.59301941312E+02  0.49999995047E+02 0.  0.
         12    1    1    2    0    0 -0.25172579548E+02 -0.17664621504E+02  0.84275218598E+01  0.31886058688E+02  0.00000000000E+00 0. -1.
         11    1    3    3    0    0  0.16913987942E+02  0.66974462540E+01  0.26181349103E+01  0.18379156812E+02  0.51100000000E-03 0. -1.
        -11    1    3    3    0    0  0.11607440517E+02  0.22570504184E+02 -0.13274136432E+02  0.28641980252E+02  0.51100000000E-03 0.  1.
        -12    1    3    3    0    0 -0.33488489120E+01 -0.11603328933E+02  0.22284796622E+01  0.12280804248E+02  0.00000000000E+00 0.  1.
</event>
<event>
 7    1  0.5662448E-012  0.5930189E+02  0.7816164E-02  0.1266605E+00
        -11   -1    0    0    0    0  0.00000000000E+00  0.00000000000E+00  0.45593999997E+02  0.45594000000E+02  0.51100000000E-03 0. -1.
         11   -1    0    0    0    0 -0.00000000000E+00 -0.00000000000E+00 -0.45593999997E+02  0.45594000000E+02  0.51100000000E-03 0.  1.
    9900012    2    1    2    0    0 -0.86323249184E+01  0.26854836884E+01 -0.30577691882E+02  0.59301888651E+02  0.49999899006E+02 0.  0.
         12    1    1    2    0    0  0.86323249184E+01 -0.26854836884E+01  0.30577691882E+02  0.31886111349E+02  0.00000000000E+00 0. -1.
         11    1    3    3    0    0  0.20583816680E+01  0.91113121476E+01  0.71827277982E+01  0.11783230585E+02  0.51100000000E-03 0. -1.
        -11    1    3    3    0    0  0.77501299913E+01 -0.89366226960E-01 -0.44955643590E+01  0.89600558241E+01  0.51100000000E-03 0.  1.
        -12    1    3    3    0    0 -0.18440836578E+02 -0.63364622322E+01 -0.33264855321E+02  0.38558602242E+02  0.00000000000E+00 0.  1.
</event>
<event>
 7    1  0.5662448E-012  0.5930194E+02  0.7816164E-02  0.1266605E+00
        -11   -1    0    0    0    0  0.00000000000E+00  0.00000000000E+00  0.45593999997E+02  0.45594000000E+02  0.51100000000E-03 0.  1.
         11   -1    0    0    0    0 -0.00000000000E+00 -0.00000000000E+00 -0.45593999997E+02  0.45594000000E+02  0.51100000000E-03 0. -1.
    9900012    2    1    2    0    0  0.26726036160E+02 -0.15108348445E+02  0.86126299738E+01  0.59301943540E+02  0.49999999110E+02 0.  0.
         12    1    1    2    0    0 -0.26726036160E+02  0.15108348445E+02 -0.86126299738E+01  0.31886056460E+02  0.00000000000E+00 0. -1.
         11    1    3    3    0    0 -0.78407994137E+01  0.46798076054E+01  0.30340401036E+00  0.91362349425E+01  0.51100000000E-03 0. -1.
        -11    1    3    3    0    0  0.23225550837E+02 -0.29239559511E+01 -0.73213099093E+01  0.24527072984E+02  0.51100000000E-03 0.  1.
        -12    1    3    3    0    0  0.11341284736E+02 -0.16864200099E+02  0.15630535873E+02  0.25638635613E+02  0.00000000000E+00 0.  1.
</event>
<event>
 7    1  0.5662448E-012  0.5930195E+02  0.7816164E-02  0.1266605E+00
        -11   -1    0    0    0    0  0.00000000000E+00  0.00000000000E+00  0.45593999997E+02  0.45594000000E+02  0.51100000000E-03 0. -1.
         11   -1    0    0    0    0 -0.00000000000E+00 -0.00000000000E+00 -0.45593999997E+02  0.45594000000E+02  0.51100000000E-03 0.  1.
    9900012    2    1    2    0    0 -0.30670858928E+02 -0.70920884620E+01  0.50715981833E+01  0.59301946399E+02  0.50000004325E+02 0.  0.
         12    1    1    2    0    0  0.30670858928E+02  0.70920884620E+01 -0.50715981833E+01  0.31886053601E+02  0.00000000000E+00 0. -1.
         11    1    3    3    0    0 -0.40913466365E+01  0.14851073060E+02 -0.66337337407E+01  0.16771997852E+02  0.51100000000E-03 0.  1.
        -11    1    3    3    0    0  0.94772622319E+00 -0.11331006691E+02  0.37723948939E+01  0.11980019246E+02  0.51100000000E-03 0. -1.
        -12    1    3    3    0    0 -0.27527238514E+02 -0.10612154831E+02  0.79329370301E+01  0.30549929301E+02  0.00000000000E+00 0.  1.
</event>
<event>
 7    1  0.5662448E-012  0.5930203E+02  0.7816164E-02  0.1266604E+00
        -11   -1    0    0    0    0  0.00000000000E+00  0.00000000000E+00  0.45593999997E+02  0.45594000000E+02  0.51100000000E-03 0.  1.
         11   -1    0    0    0    0 -0.00000000000E+00 -0.00000000000E+00 -0.45593999997E+02  0.45594000000E+02  0.51100000000E-03 0. -1.
    9900012    2    1    2    0    0 -0.57631149353E+00  0.29807954583E+02  0.11307917330E+02  0.59302026819E+02  0.50000150991E+02 0.  0.
         12    1    1    2    0    0  0.57631149353E+00 -0.29807954583E+02 -0.11307917330E+02  0.31885973181E+02  0.00000000000E+00 0. -1.
         11    1    3    3    0    0  0.71076369610E+01 -0.77453362251E+01  0.16423070137E+01  0.10639826549E+02  0.51100000000E-03 0. -1.
        -11    1    3    3    0    0 -0.78742235549E+01  0.20478841495E+02  0.19156283579E+02  0.29126440675E+02  0.51100000000E-03 0.  1.
         12    1    3    3    0    0  0.19027510039E+00  0.17074449313E+02 -0.94906732628E+01  0.19535759595E+02  0.00000000000E+00 0. -1.
</event>
<event>
 7    1  0.5662448E-012  0.5930195E+02  0.7816164E-02  0.1266605E+00
        -11   -1    0    0    0    0  0.00000000000E+00  0.00000000000E+00  0.45593999997E+02  0.45594000000E+02  0.51100000000E-03 0.  1.
         11   -1    0    0    0    0 -0.00000000000E+00 -0.00000000000E+00 -0.45593999997E+02  0.45594000000E+02  0.51100000000E-03 0. -1.
    9900012    2    1    2    0    0  0.21870425710E+02 -0.88130818119E+01  0.21464722698E+02  0.59301948939E+02  0.50000008956E+02 0.  0.
         12    1    1    2    0    0 -0.21870425710E+02  0.88130818119E+01 -0.21464722698E+02  0.31886051061E+02  0.00000000000E+00 0. -1.
         11    1    3    3    0    0  0.33852479410E+02 -0.14823755222E+02  0.13894712805E+02  0.39481604898E+02  0.51100000000E-03 0. -1.
        -11    1    3    3    0    0  0.19998135711E+01  0.12181735367E+01  0.39679065539E+01  0.46073293529E+01  0.51100000000E-03 0.  1.
         12    1    3    3    0    0 -0.13981867271E+02  0.47924998738E+01  0.36021033388E+01  0.15213014688E+02  0.00000000000E+00 0. -1.
</event>
<event>
 7    1  0.5662448E-012  0.5930196E+02  0.7816164E-02  0.1266605E+00
        -11   -1    0    0    0    0  0.00000000000E+00  0.00000000000E+00  0.45593999997E+02  0.45594000000E+02  0.51100000000E-03 0. -1.
         11   -1    0    0    0    0 -0.00000000000E+00 -0.00000000000E+00 -0.45593999997E+02  0.45594000000E+02  0.51100000000E-03 0.  1.
    9900012    2    1    2    0    0  0.27674095673E+02  0.12764627880E+02  0.93770068296E+01  0.59301959899E+02  0.50000028945E+02 0.  0.
         12    1    1    2    0    0 -0.27674095673E+02 -0.12764627880E+02 -0.93770068296E+01  0.31886040101E+02  0.00000000000E+00 0. -1.
         11    1    3    3    0    0 -0.67672594550E+01 -0.39221706114E+00  0.17178544202E+02  0.18467593669E+02  0.51100000000E-03 0. -1.
        -11    1    3    3    0    0  0.23730931953E+01 -0.32510455061E+01 -0.27545324910E+00  0.40344445653E+01  0.51100000000E-03 0.  1.
        -12    1    3    3    0    0  0.32068261933E+02  0.16407890447E+02 -0.75260841233E+01  0.36799921665E+02  0.00000000000E+00 0.  1.
</event>
<event>
 7    1  0.5662448E-012  0.5930191E+02  0.7816164E-02  0.1266605E+00
        -11   -1    0    0    0    0  0.00000000000E+00  0.00000000000E+00  0.45593999997E+02  0.45594000000E+02  0.51100000000E-03 0.  1.
         11   -1    0    0    0    0 -0.00000000000E+00 -0.00000000000E+00 -0.45593999997E+02  0.45594000000E+02  0.51100000000E-03 0. -1.
    9900012    2    1    2    0    0 -0.22283435726E+01  0.10133209600E+02  0.30150871907E+02  0.59301913244E+02  0.49999943857E+02 0.  0.
         12    1    1    2    0    0  0.22283435726E+01 -0.10133209600E+02 -0.30150871907E+02  0.31886086756E+02  0.00000000000E+00 0. -1.
         11    1    3    3    0    0 -0.51524170973E+01  0.12204848568E+02 -0.23353383327E+01  0.13452120126E+02  0.51100000000E-03 0.  1.
        -11    1    3    3    0    0  0.32933101235E+01 -0.14140647659E+02  0.42314699931E+01  0.15123132822E+02  0.51100000000E-03 0. -1.
        -12    1    3    3    0    0 -0.36923659870E+00  0.12069008692E+02  0.28254740247E+02  0.30726660295E+02  0.00000000000E+00 0.  1.
</event>
<event>
 7    1  0.5662448E-012  0.5930194E+02  0.7816164E-02  0.1266605E+00
        -11   -1    0    0    0    0  0.00000000000E+00  0.00000000000E+00  0.45593999997E+02  0.45594000000E+02  0.51100000000E-03 0. -1.
         11   -1    0    0    0    0 -0.00000000000E+00 -0.00000000000E+00 -0.45593999997E+02  0.45594000000E+02  0.51100000000E-03 0.  1.
    9900012    2    1    2    0    0 -0.61384777175E+01 -0.21953347288E+02 -0.22295527424E+02  0.59301938642E+02  0.49999990178E+02 0.  0.
         12    1    1    2    0    0  0.61384777175E+01  0.21953347288E+02  0.22295527424E+02  0.31886061358E+02  0.00000000000E+00 0. -1.
         11    1    3    3    0    0  0.16870068042E+01 -0.27090212734E+02 -0.45836729699E+01  0.27526999038E+02  0.51100000000E-03 0. -1.
        -11    1    3    3    0    0  0.18730530271E+01 -0.48234940827E+01 -0.17092963528E+02  0.17858998438E+02  0.51100000000E-03 0.  1.
        -12    1    3    3    0    0 -0.96985375489E+01  0.99603595287E+01 -0.61889092645E+00  0.13915941165E+02  0.00000000000E+00 0.  1.
</event>
<event>
 7    1  0.5662448E-012  0.5930201E+02  0.7816164E-02  0.1266605E+00
        -11   -1    0    0    0    0  0.00000000000E+00  0.00000000000E+00  0.45593999997E+02  0.45594000000E+02  0.51100000000E-03 0. -1.
         11   -1    0    0    0    0 -0.00000000000E+00 -0.00000000000E+00 -0.45593999997E+02  0.45594000000E+02  0.51100000000E-03 0.  1.
    9900012    2    1    2    0    0 -0.15873445686E+02  0.25144180763E+02 -0.11511735566E+02  0.59302013110E+02  0.50000125990E+02 0.  0.
         12    1    1    2    0    0  0.15873445686E+02 -0.25144180763E+02  0.11511735566E+02  0.31885986890E+02  0.00000000000E+00 0. -1.
         11    1    3    3    0    0 -0.15906799281E+01  0.13164833455E+02 -0.14058707538E+01  0.13334900650E+02  0.51100000000E-03 0. -1.
        -11    1    3    3    0    0 -0.61188379047E+01  0.14631833983E+02 -0.24513222225E+02  0.29196383460E+02  0.51100000000E-03 0.  1.
         12    1    3    3    0    0 -0.81639278530E+01 -0.26524866741E+01  0.14407357414E+02  0.16770729000E+02  0.00000000000E+00 0. -1.
</event>
<event>
 7    1  0.5662448E-012  0.5930196E+02  0.7816164E-02  0.1266605E+00
        -11   -1    0    0    0    0  0.00000000000E+00  0.00000000000E+00  0.45593999997E+02  0.45594000000E+02  0.51100000000E-03 0. -1.
         11   -1    0    0    0    0 -0.00000000000E+00 -0.00000000000E+00 -0.45593999997E+02  0.45594000000E+02  0.51100000000E-03 0.  1.
    9900012    2    1    2    0    0  0.22284369320E+02 -0.12796359535E+02 -0.18878026331E+02  0.59301955851E+02  0.50000021563E+02 0.  0.
         12    1    1    2    0    0 -0.22284369320E+02  0.12796359535E+02  0.18878026331E+02  0.31886044149E+02  0.00000000000E+00 0. -1.
         11    1    3    3    0    0  0.12064884550E+02 -0.54155243087E+01 -0.96371974300E+01  0.16363523988E+02  0.51100000000E-03 0.  1.
        -11    1    3    3    0    0 -0.17566829064E+00  0.55408042474E+01 -0.21571660031E+02  0.22272581525E+02  0.51100000000E-03 0. -1.
         12    1    3    3    0    0  0.10395153061E+02 -0.12921639474E+02  0.12330831130E+02  0.20665850338E+02  0.00000000000E+00 0. -1.
</event>
<event>
 7    1  0.5662448E-012  0.5930196E+02  0.7816164E-02  0.1266605E+00
        -11   -1    0    0    0    0  0.00000000000E+00  0.00000000000E+00  0.45593999997E+02  0.45594000000E+02  0.51100000000E-03 0.  1.
         11   -1    0    0    0    0 -0.00000000000E+00 -0.00000000000E+00 -0.45593999997E+02  0.45594000000E+02  0.51100000000E-03 0. -1.
    9900012    2    1    2    0    0  0.47400663882E+01  0.27892993241E+01  0.31408133097E+02  0.59301964738E+02  0.50000037770E+02 0.  0.
         12    1    1    2    0    0 -0.47400663882E+01 -0.27892993241E+01 -0.31408133097E+02  0.31886035262E+02  0.00000000000E+00 0. -1.
         11    1    3    3    0    0  0.12614694060E+02 -0.22198210723E+01  0.20963355002E+02  0.24566651482E+02  0.51100000000E-03 0. -1.
        -11    1    3    3    0    0  0.73104348412E+01 -0.89657159254E+01 -0.81995067920E-01  0.11568631858E+02  0.51100000000E-03 0.  1.
        -12    1    3    3    0    0 -0.15185062513E+02  0.13974836322E+02  0.10526773163E+02  0.23166681398E+02  0.00000000000E+00 0.  1.
</event>
<event>
 7    1  0.5662448E-012  0.5930189E+02  0.7816164E-02  0.1266605E+00
        -11   -1    0    0    0    0  0.00000000000E+00  0.00000000000E+00  0.45593999997E+02  0.45594000000E+02  0.51100000000E-03 0. -1.
         11   -1    0    0    0    0 -0.00000000000E+00 -0.00000000000E+00 -0.45593999997E+02  0.45594000000E+02  0.51100000000E-03 0.  1.
    9900012    2    1    2    0    0  0.12093624722E+02 -0.26818619584E+02 -0.12297559687E+02  0.59301888767E+02  0.49999899218E+02 0.  0.
         12    1    1    2    0    0 -0.12093624722E+02  0.26818619584E+02  0.12297559687E+02  0.31886111233E+02  0.00000000000E+00 0. -1.
         11    1    3    3    0    0 -0.10759021507E+02 -0.60089566722E+01 -0.92140262670E+01  0.15387084987E+02  0.51100000000E-03 0. -1.
        -11    1    3    3    0    0  0.50100587110E+00 -0.12893806695E+02 -0.12904921080E+02  0.18249335504E+02  0.51100000000E-03 0.  1.
         12    1    3    3    0    0  0.22351640357E+02 -0.79158562166E+01  0.98213876605E+01  0.25665468277E+02  0.00000000000E+00 0. -1.
</event>
<event>
 7    1  0.5662448E-012  0.5930190E+02  0.7816164E-02  0.1266605E+00
        -11   -1    0    0    0    0  0.00000000000E+00  0.00000000000E+00  0.45593999997E+02  0.45594000000E+02  0.51100000000E-03 0.  1.
         11   -1    0    0    0    0 -0.00000000000E+00 -0.00000000000E+00 -0.45593999997E+02  0.45594000000E+02  0.51100000000E-03 0. -1.
    9900012    2    1    2    0    0 -0.20923335120E+02  0.20784275394E+01  0.23971185564E+02  0.59301897213E+02  0.49999914621E+02 0.  0.
         12    1    1    2    0    0  0.20923335120E+02 -0.20784275394E+01 -0.23971185564E+02  0.31886102787E+02  0.00000000000E+00 0. -1.
         11    1    3    3    0    0  0.23102065232E+01  0.10086376448E+02  0.61152033585E+01  0.12019474049E+02  0.51100000000E-03 0. -1.
        -11    1    3    3    0    0  0.62802897455E+01 -0.73172187428E+01  0.14716164571E+02  0.17594011179E+02  0.51100000000E-03 0.  1.
         12    1    3    3    0    0 -0.29513831389E+02 -0.69073016599E+00  0.31398176343E+01  0.29688411985E+02  0.00000000000E+00 0. -1.
</event>
<event>
 7    1  0.5662448E-012  0.5930196E+02  0.7816164E-02  0.1266605E+00
        -11   -1    0    0    0    0  0.00000000000E+00  0.00000000000E+00  0.45593999997E+02  0.45594000000E+02  0.51100000000E-03 0. -1.
         11   -1    0    0    0    0 -0.00000000000E+00 -0.00000000000E+00 -0.45593999997E+02  0.45594000000E+02  0.51100000000E-03 0.  1.
    9900012    2    1    2    0    0  0.26037340792E+02 -0.17304691704E+02 -0.62708995258E+01  0.59301958362E+02  0.50000026143E+02 0.  0.
         12    1    1    2    0    0 -0.26037340792E+02  0.17304691704E+02  0.62708995258E+01  0.31886041638E+02  0.00000000000E+00 0. -1.
         11    1    3    3    0    0  0.21945033938E+02 -0.25575206729E+02 -0.83809595998E+01  0.34726304121E+02  0.51100000000E-03 0. -1.
        -11    1    3    3    0    0  0.10302795826E+02  0.32041409860E+01 -0.66721850009E+01  0.12685904549E+02  0.51100000000E-03 0.  1.
         12    1    3    3    0    0 -0.62104889727E+01  0.50663740398E+01  0.87822450749E+01  0.11889749692E+02  0.00000000000E+00 0. -1.
</event>
<event>
 7    1  0.5662448E-012  0.5930193E+02  0.7816164E-02  0.1266605E+00
        -11   -1    0    0    0    0  0.00000000000E+00  0.00000000000E+00  0.45593999997E+02  0.45594000000E+02  0.51100000000E-03 0.  1.
         11   -1    0    0    0    0 -0.00000000000E+00 -0.00000000000E+00 -0.45593999997E+02  0.45594000000E+02  0.51100000000E-03 0. -1.
    9900012    2    1    2    0    0  0.15205256054E+00 -0.12729878088E+02  0.29234368734E+02  0.59301933585E+02  0.49999980955E+02 0.  0.
         12    1    1    2    0    0 -0.15205256054E+00  0.12729878088E+02 -0.29234368734E+02  0.31886066415E+02  0.00000000000E+00 0. -1.
         11    1    3    3    0    0  0.62574800982E+01 -0.10954010495E+02  0.47821478347E+01  0.13491306137E+02  0.51100000000E-03 0. -1.
        -11    1    3    3    0    0  0.97463257101E+01  0.11369448832E+02  0.19577836356E+02  0.24648466651E+02  0.51100000000E-03 0.  1.
        -12    1    3    3    0    0 -0.15851753248E+02 -0.13145316425E+02  0.48743845442E+01  0.21162160798E+02  0.00000000000E+00 0.  1.
</event>
<event>
 7    1  0.5662448E-012  0.5930199E+02  0.7816164E-02  0.1266605E+00
        -11   -1    0    0    0    0  0.00000000000E+00  0.00000000000E+00  0.45593999997E+02  0.45594000000E+02  0.51100000000E-03 0.  1.
         11   -1    0    0    0    0 -0.00000000000E+00 -0.00000000000E+00 -0.45593999997E+02  0.45594000000E+02  0.51100000000E-03 0. -1.
    9900012    2    1    2    0    0 -0.20654943083E+02  0.83188784162E+01  0.22822952243E+02  0.59301991141E+02  0.50000085924E+02 0.  0.
         12    1    1    2    0    0  0.20654943083E+02 -0.83188784162E+01 -0.22822952243E+02  0.31886008859E+02  0.00000000000E+00 0. -1.
         11    1    3    3    0    0  0.97853562995E+00  0.86311259466E+01 -0.62921541062E+01  0.10725906518E+02  0.51100000000E-03 0. -1.
        -11    1    3    3    0    0 -0.49044330193E+01  0.15251828926E+02  0.11377993985E+02  0.19650203465E+02  0.51100000000E-03 0.  1.
        -12    1    3    3    0    0 -0.16729045693E+02 -0.15564076456E+02  0.17737112364E+02  0.28925881158E+02  0.00000000000E+00 0.  1.
</event>
<event>
 7    1  0.5662448E-012  0.5930154E+02  0.7816164E-02  0.1266606E+00
        -11   -1    0    0    0    0  0.00000000000E+00  0.00000000000E+00  0.45593999997E+02  0.45594000000E+02  0.51100000000E-03 0.  1.
         11   -1    0    0    0    0 -0.00000000000E+00 -0.00000000000E+00 -0.45593999997E+02  0.45594000000E+02  0.51100000000E-03 0. -1.
    9900012    2    1    2    0    0  0.31731607853E+02 -0.11896120987E+01 -0.29044683295E+01  0.59301544409E+02  0.49999271186E+02 0.  0.
         12    1    1    2    0    0 -0.31731607853E+02  0.11896120987E+01  0.29044683295E+01  0.31886455591E+02  0.00000000000E+00 0. -1.
         11    1    3    3    0    0  0.17952837022E+02  0.41264080626E+01 -0.91817310084E+01  0.20582414465E+02  0.51100000000E-03 0. -1.
        -11    1    3    3    0    0  0.21992068898E+02 -0.88182277579E+01  0.13468423660E+02  0.27254553222E+02  0.51100000000E-03 0.  1.
         12    1    3    3    0    0 -0.82132980665E+01  0.35022075967E+01 -0.71911609807E+01  0.11464576723E+02  0.00000000000E+00 0. -1.
</event>
<event>
 7    1  0.5662448E-012  0.5930197E+02  0.7816164E-02  0.1266605E+00
        -11   -1    0    0    0    0  0.00000000000E+00  0.00000000000E+00  0.45593999997E+02  0.45594000000E+02  0.51100000000E-03 0.  1.
         11   -1    0    0    0    0 -0.00000000000E+00 -0.00000000000E+00 -0.45593999997E+02  0.45594000000E+02  0.51100000000E-03 0. -1.
    9900012    2    1    2    0    0 -0.10645650217E+02  0.23578194069E+02  0.18640223444E+02  0.59301968041E+02  0.50000043794E+02 0.  0.
         12    1    1    2    0    0  0.10645650217E+02 -0.23578194069E+02 -0.18640223444E+02  0.31886031959E+02  0.00000000000E+00 0. -1.
         11    1    3    3    0    0 -0.62375490411E+01  0.20429531098E+01 -0.67018707783E+01  0.93806048653E+01  0.51100000000E-03 0. -1.
        -11    1    3    3    0    0  0.47764690794E+01  0.32504348815E+01 -0.85573442335E+01  0.10325121035E+02  0.51100000000E-03 0.  1.
        -12    1    3    3    0    0 -0.91845702555E+01  0.18284806077E+02  0.33899438456E+02  0.39596242141E+02  0.00000000000E+00 0.  1.
</event>
<event>
 7    1  0.5662448E-012  0.5930194E+02  0.7816164E-02  0.1266605E+00
        -11   -1    0    0    0    0  0.00000000000E+00  0.00000000000E+00  0.45593999997E+02  0.45594000000E+02  0.51100000000E-03 0.  1.
         11   -1    0    0    0    0 -0.00000000000E+00 -0.00000000000E+00 -0.45593999997E+02  0.45594000000E+02  0.51100000000E-03 0. -1.
    9900012    2    1    2    0    0 -0.22705894522E+02 -0.21705649401E+02  0.54797543379E+01  0.59301943964E+02  0.49999999883E+02 0.  0.
         12    1    1    2    0    0  0.22705894522E+02  0.21705649401E+02 -0.54797543379E+01  0.31886056036E+02  0.00000000000E+00 0. -1.
         11    1    3    3    0    0 -0.16361563378E+02 -0.98954548729E+01  0.17719509940E+02  0.26069173675E+02  0.51100000000E-03 0. -1.
        -11    1    3    3    0    0  0.32547839713E+01 -0.14537952088E+02  0.28243075198E+01  0.15163191710E+02  0.51100000000E-03 0.  1.
         12    1    3    3    0    0 -0.95991151153E+01  0.27277575601E+01 -0.15064063121E+02  0.18069578579E+02  0.00000000000E+00 0. -1.
</event>
<event>
 7    1  0.5662448E-012  0.5930195E+02  0.7816164E-02  0.1266605E+00
        -11   -1    0    0    0    0  0.00000000000E+00  0.00000000000E+00  0.45593999997E+02  0.45594000000E+02  0.51100000000E-03 0.  1.
         11   -1    0    0    0    0 -0.00000000000E+00 -0.00000000000E+00 -0.45593999997E+02  0.45594000000E+02  0.51100000000E-03 0. -1.
    9900012    2    1    2    0    0 -0.74005100469E+01  0.30510884823E+02  0.55711972893E+01  0.59301954762E+02  0.50000019577E+02 0.  0.
         12    1    1    2    0    0  0.74005100469E+01 -0.30510884823E+02 -0.55711972893E+01  0.31886045238E+02  0.00000000000E+00 0. -1.
         11    1    3    3    0    0 -0.42673240582E+01  0.23978309576E+02 -0.70138816663E+01  0.25344899309E+02  0.51100000000E-03 0.  1.
        -11    1    3    3    0    0 -0.30674506319E+01 -0.70571473435E+01 -0.68093685786E+01  0.10275216918E+02  0.51100000000E-03 0. -1.
         12    1    3    3    0    0 -0.65735356759E-01  0.13589722591E+02  0.19394447534E+02  0.23681838535E+02  0.00000000000E+00 0. -1.
</event>
<event>
 7    1  0.5662448E-012  0.5930195E+02  0.7816164E-02  0.1266605E+00
        -11   -1    0    0    0    0  0.00000000000E+00  0.00000000000E+00  0.45593999997E+02  0.45594000000E+02  0.51100000000E-03 0.  1.
         11   -1    0    0    0    0 -0.00000000000E+00 -0.00000000000E+00 -0.45593999997E+02  0.45594000000E+02  0.51100000000E-03 0. -1.
    9900012    2    1    2    0    0 -0.22094641724E+02 -0.13931881769E+02  0.18287969290E+02  0.59301947512E+02  0.50000006354E+02 0.  0.
         12    1    1    2    0    0  0.22094641724E+02  0.13931881769E+02 -0.18287969290E+02  0.31886052488E+02  0.00000000000E+00 0. -1.
         11    1    3    3    0    0  0.85849973553E+00  0.10944314943E+02 -0.53585662817E+01  0.12215943853E+02  0.51100000000E-03 0. -1.
        -11    1    3    3    0    0 -0.12477231691E+02  0.12028088262E+01  0.86587854026E+01  0.15234914659E+02  0.51100000000E-03 0.  1.
        -12    1    3    3    0    0 -0.10475909768E+02 -0.26079005538E+02  0.14987750169E+02  0.31851089000E+02  0.00000000000E+00 0.  1.
</event>
<event>
 7    1  0.5662448E-012  0.5930210E+02  0.7816164E-02  0.1266604E+00
        -11   -1    0    0    0    0  0.00000000000E+00  0.00000000000E+00  0.45593999997E+02  0.45594000000E+02  0.51100000000E-03 0.  1.
         11   -1    0    0    0    0 -0.00000000000E+00 -0.00000000000E+00 -0.45593999997E+02  0.45594000000E+02  0.51100000000E-03 0. -1.
    9900012    2    1    2    0    0  0.18636701637E+02 -0.95307982326E+01  0.24053015981E+02  0.59302104362E+02  0.50000292411E+02 0.  0.
         12    1    1    2    0    0 -0.18636701637E+02  0.95307982326E+01 -0.24053015981E+02  0.31885895638E+02  0.00000000000E+00 0. -1.
         11    1    3    3    0    0 -0.76776609893E+01 -0.71399361091E+01 -0.41039339556E+01  0.11259104764E+02  0.51100000000E-03 0. -1.
        -11    1    3    3    0    0  0.26216591416E+02 -0.27336682153E+01  0.75303170926E+01  0.27413286617E+02  0.51100000000E-03 0.  1.
        -12    1    3    3    0    0  0.97771210640E-01  0.34280609179E+00  0.20626632844E+02  0.20629712981E+02  0.00000000000E+00 0.  1.
</event>
<event>
 7    1  0.5662448E-012  0.5930197E+02  0.7816164E-02  0.1266605E+00
        -11   -1    0    0    0    0  0.00000000000E+00  0.00000000000E+00  0.45593999997E+02  0.45594000000E+02  0.51100000000E-03 0. -1.
         11   -1    0    0    0    0 -0.00000000000E+00 -0.00000000000E+00 -0.45593999997E+02  0.45594000000E+02  0.51100000000E-03 0.  1.
    9900012    2    1    2    0    0  0.30466424996E+02  0.16344550596E+01 -0.92652295224E+01  0.59301968991E+02  0.50000045527E+02 0.  0.
         12    1    1    2    0    0 -0.30466424996E+02 -0.16344550596E+01  0.92652295224E+01  0.31886031009E+02  0.00000000000E+00 0. -1.
         11    1    3    3    0    0  0.13920465563E+02  0.20386952355E+02  0.16445129348E+01  0.24740889452E+02  0.51100000000E-03 0. -1.
        -11    1    3    3    0    0  0.62298844766E+01 -0.17599543006E+01  0.57237431096E+01  0.86411882966E+01  0.51100000000E-03 0.  1.
         12    1    3    3    0    0  0.10316074956E+02 -0.16992542995E+02 -0.16633485567E+02  0.25919891243E+02  0.00000000000E+00 0. -1.
</event>
<event>
 7    1  0.5662448E-012  0.5930205E+02  0.7816164E-02  0.1266604E+00
        -11   -1    0    0    0    0  0.00000000000E+00  0.00000000000E+00  0.45593999997E+02  0.45594000000E+02  0.51100000000E-03 0.  1.
         11   -1    0    0    0    0 -0.00000000000E+00 -0.00000000000E+00 -0.45593999997E+02  0.45594000000E+02  0.51100000000E-03 0. -1.
    9900012    2    1    2    0    0  0.15579198794E+02 -0.15324971509E+02  0.23219552377E+02  0.59302050126E+02  0.50000193497E+02 0.  0.
         12    1    1    2    0    0 -0.15579198794E+02  0.15324971509E+02 -0.23219552377E+02  0.31885949874E+02  0.00000000000E+00 0. -1.
         11    1    3    3    0    0  0.48457573831E+01 -0.18191055263E+02  0.26869143848E+01  0.19016186931E+02  0.51100000000E-03 0. -1.
        -11    1    3    3    0    0  0.30374306254E+01 -0.14114424337E+02  0.15045281675E+02  0.20851941399E+02  0.51100000000E-03 0.  1.
         12    1    3    3    0    0  0.76960107854E+01  0.16980508091E+02  0.54873563171E+01  0.19433921796E+02  0.00000000000E+00 0. -1.
</event>
<event>
 7    1  0.5662448E-012  0.5930202E+02  0.7816164E-02  0.1266604E+00
        -11   -1    0    0    0    0  0.00000000000E+00  0.00000000000E+00  0.45593999997E+02  0.45594000000E+02  0.51100000000E-03 0.  1.
         11   -1    0    0    0    0 -0.00000000000E+00 -0.00000000000E+00 -0.45593999997E+02  0.45594000000E+02  0.51100000000E-03 0. -1.
    9900012    2    1    2    0    0  0.25392294316E+02  0.15730624536E+02  0.11157705894E+02  0.59302022522E+02  0.50000143155E+02 0.  0.
         12    1    1    2    0    0 -0.25392294316E+02 -0.15730624536E+02 -0.11157705894E+02  0.31885977478E+02  0.00000000000E+00 0. -1.
         11    1    3    3    0    0  0.16221310648E+02  0.97267181510E+01 -0.10962261749E+01  0.18945756180E+02  0.51100000000E-03 0. -1.
        -11    1    3    3    0    0  0.22762179345E+02  0.50460214456E+01  0.13030866917E+02  0.26709223759E+02  0.51100000000E-03 0.  1.
         12    1    3    3    0    0 -0.13591195678E+02  0.95788493938E+00 -0.77693484778E+00  0.13647042583E+02  0.00000000000E+00 0. -1.
</event>
<event>
 7    1  0.5662448E-012  0.5930194E+02  0.7816164E-02  0.1266605E+00
        -11   -1    0    0    0    0  0.00000000000E+00  0.00000000000E+00  0.45593999997E+02  0.45594000000E+02  0.51100000000E-03 0.  1.
         11   -1    0    0    0    0 -0.00000000000E+00 -0.00000000000E+00 -0.45593999997E+02  0.45594000000E+02  0.51100000000E-03 0. -1.
    9900012    2    1    2    0    0 -0.18378828881E+02  0.25986742304E+02  0.19048421625E+01  0.59301944266E+02  0.50000000435E+02 0.  0.
         12    1    1    2    0    0  0.18378828881E+02 -0.25986742304E+02 -0.19048421625E+01  0.31886055734E+02  0.00000000000E+00 0. -1.
         11    1    3    3    0    0 -0.21066045473E+01  0.38379855196E+01 -0.66164940761E+01  0.79338458321E+01  0.51100000000E-03 0. -1.
        -11    1    3    3    0    0  0.37437779081E+01 -0.10515545351E+02 -0.26321645377E+01  0.11468254334E+02  0.51100000000E-03 0.  1.
        -12    1    3    3    0    0 -0.20016002241E+02  0.32664302135E+02  0.11153500776E+02  0.39899844101E+02  0.00000000000E+00 0.  1.
</event>
<event>
 7    1  0.5662448E-012  0.5930193E+02  0.7816164E-02  0.1266605E+00
        -11   -1    0    0    0    0  0.00000000000E+00  0.00000000000E+00  0.45593999997E+02  0.45594000000E+02  0.51100000000E-03 0.  1.
         11   -1    0    0    0    0 -0.00000000000E+00 -0.00000000000E+00 -0.45593999997E+02  0.45594000000E+02  0.51100000000E-03 0. -1.
    9900012    2    1    2    0    0  0.24462684274E+02 -0.16756463277E+02  0.11726870621E+02  0.59301929718E+02  0.49999973903E+02 0.  0.
         12    1    1    2    0    0 -0.24462684274E+02  0.16756463277E+02 -0.11726870621E+02  0.31886070282E+02  0.00000000000E+00 0. -1.
         11    1    3    3    0    0 -0.37315648210E+01 -0.27618265605E+01 -0.26924148335E+01  0.53666898420E+01  0.51100000000E-03 0. -1.
        -11    1    3    3    0    0  0.11972310149E+02 -0.25224666160E+02 -0.23791353121E+01  0.28022852786E+02  0.51100000000E-03 0.  1.
         12    1    3    3    0    0  0.16221938946E+02  0.11230029443E+02  0.16798420766E+02  0.25912387090E+02  0.00000000000E+00 0. -1.
</event>
<event>
 7    1  0.5662448E-012  0.5930194E+02  0.7816164E-02  0.1266605E+00
        -11   -1    0    0    0    0  0.00000000000E+00  0.00000000000E+00  0.45593999997E+02  0.45594000000E+02  0.51100000000E-03 0.  1.
         11   -1    0    0    0    0 -0.00000000000E+00 -0.00000000000E+00 -0.45593999997E+02  0.45594000000E+02  0.51100000000E-03 0. -1.
    9900012    2    1    2    0    0  0.17551993945E+02 -0.52584207412E+01  0.26095922079E+02  0.59301943027E+02  0.49999998176E+02 0.  0.
         12    1    1    2    0    0 -0.17551993945E+02  0.52584207412E+01 -0.26095922079E+02  0.31886056973E+02  0.00000000000E+00 0. -1.
         11    1    3    3    0    0 -0.13522256107E+02  0.68960077483E+01  0.71548894035E+01  0.16780905093E+02  0.51100000000E-03 0. -1.
        -11    1    3    3    0    0  0.70550661507E+01  0.26758834533E+01  0.10739188942E+02  0.13124956763E+02  0.51100000000E-03 0.  1.
        -12    1    3    3    0    0  0.24019183901E+02 -0.14830311943E+02  0.82018437334E+01  0.29396081171E+02  0.00000000000E+00 0.  1.
</event>
<event>
 7    1  0.5662448E-012  0.5930194E+02  0.7816164E-02  0.1266605E+00
        -11   -1    0    0    0    0  0.00000000000E+00  0.00000000000E+00  0.45593999997E+02  0.45594000000E+02  0.51100000000E-03 0.  1.
         11   -1    0    0    0    0 -0.00000000000E+00 -0.00000000000E+00 -0.45593999997E+02  0.45594000000E+02  0.51100000000E-03 0. -1.
    9900012    2    1    2    0    0 -0.20143384256E+02 -0.40816886237E+01  0.24378362294E+02  0.59301942554E+02  0.49999997312E+02 0.  0.
         12    1    1    2    0    0  0.20143384256E+02  0.40816886237E+01 -0.24378362294E+02  0.31886057446E+02  0.00000000000E+00 0. -1.
         11    1    3    3    0    0 -0.12257911208E+02  0.81606429215E+01  0.29755738445E+01  0.15023532209E+02  0.51100000000E-03 0. -1.
        -11    1    3    3    0    0 -0.82235271331E+01  0.65964812333E+01  0.23068305232E+02  0.25363096611E+02  0.51100000000E-03 0.  1.
         12    1    3    3    0    0  0.33805408505E+00 -0.18838812779E+02 -0.16655167829E+01  0.18915313733E+02  0.00000000000E+00 0. -1.
</event>
<event>
 7    1  0.5662448E-012  0.5930195E+02  0.7816164E-02  0.1266605E+00
        -11   -1    0    0    0    0  0.00000000000E+00  0.00000000000E+00  0.45593999997E+02  0.45594000000E+02  0.51100000000E-03 0.  1.
         11   -1    0    0    0    0 -0.00000000000E+00 -0.00000000000E+00 -0.45593999997E+02  0.45594000000E+02  0.51100000000E-03 0. -1.
    9900012    2    1    2    0    0  0.35415791746E+00  0.17325094588E+02  0.26766319061E+02  0.59301950286E+02  0.50000011413E+02 0.  0.
         12    1    1    2    0    0 -0.35415791746E+00 -0.17325094588E+02 -0.26766319061E+02  0.31886049714E+02  0.00000000000E+00 0. -1.
         11    1    3    3    0    0  0.68868116723E+01  0.40262033695E+01  0.39146047542E+01  0.88860913356E+01  0.51100000000E-03 0. -1.
        -11    1    3    3    0    0  0.52423647241E+01 -0.14037730656E+02  0.98709208805E+01  0.17943671563E+02  0.51100000000E-03 0.  1.
        -12    1    3    3    0    0 -0.11775018479E+02  0.27336621875E+02  0.12980793426E+02  0.32472187387E+02  0.00000000000E+00 0.  1.
</event>
<event>
 7    1  0.5662448E-012  0.5930191E+02  0.7816164E-02  0.1266605E+00
        -11   -1    0    0    0    0  0.00000000000E+00  0.00000000000E+00  0.45593999997E+02  0.45594000000E+02  0.51100000000E-03 0.  1.
         11   -1    0    0    0    0 -0.00000000000E+00 -0.00000000000E+00 -0.45593999997E+02  0.45594000000E+02  0.51100000000E-03 0. -1.
    9900012    2    1    2    0    0  0.88229606521E+01 -0.37423306878E+01  0.30411730741E+02  0.59301905220E+02  0.49999929225E+02 0.  0.
         12    1    1    2    0    0 -0.88229606521E+01  0.37423306878E+01 -0.30411730741E+02  0.31886094780E+02  0.00000000000E+00 0. -1.
         11    1    3    3    0    0 -0.17625086676E+01  0.14273658776E+02 -0.30297117332E+01  0.14697718364E+02  0.51100000000E-03 0. -1.
        -11    1    3    3    0    0 -0.22079945287E+00  0.45026098536E+01  0.58720810304E+01  0.74029442643E+01  0.51100000000E-03 0.  1.
         12    1    3    3    0    0  0.10806268773E+02 -0.22518599317E+02  0.27569361444E+02  0.37201242592E+02  0.00000000000E+00 0. -1.
</event>
<event>
 7    1  0.5662448E-012  0.5930197E+02  0.7816164E-02  0.1266605E+00
        -11   -1    0    0    0    0  0.00000000000E+00  0.00000000000E+00  0.45593999997E+02  0.45594000000E+02  0.51100000000E-03 0.  1.
         11   -1    0    0    0    0 -0.00000000000E+00 -0.00000000000E+00 -0.45593999997E+02  0.45594000000E+02  0.51100000000E-03 0. -1.
    9900012    2    1    2    0    0  0.15510054240E+02 -0.19266573721E+02  0.20123519394E+02  0.59301973620E+02  0.50000053970E+02 0.  0.
         12    1    1    2    0    0 -0.15510054240E+02  0.19266573721E+02 -0.20123519394E+02  0.31886026380E+02  0.00000000000E+00 0. -1.
         11    1    3    3    0    0  0.17820894341E+01  0.61187960394E+01 -0.16137223818E+01  0.65741621451E+01  0.51100000000E-03 0. -1.
        -11    1    3    3    0    0  0.18558283891E+02 -0.19747495559E+01 -0.23288810593E+01  0.18807796895E+02  0.51100000000E-03 0.  1.
        -12    1    3    3    0    0 -0.48303190852E+01 -0.23410620204E+02  0.24066122836E+02  0.33920014580E+02  0.00000000000E+00 0.  1.
</event>
<event>
 7    1  0.5662448E-012  0.5930194E+02  0.7816164E-02  0.1266605E+00
        -11   -1    0    0    0    0  0.00000000000E+00  0.00000000000E+00  0.45593999997E+02  0.45594000000E+02  0.51100000000E-03 0.  1.
         11   -1    0    0    0    0 -0.00000000000E+00 -0.00000000000E+00 -0.45593999997E+02  0.45594000000E+02  0.51100000000E-03 0. -1.
    9900012    2    1    2    0    0  0.31249269102E+02 -0.31124243990E+00  0.63330106558E+01  0.59301941679E+02  0.49999995717E+02 0.  0.
         12    1    1    2    0    0 -0.31249269102E+02  0.31124243990E+00 -0.63330106558E+01  0.31886058321E+02  0.00000000000E+00 0. -1.
         11    1    3    3    0    0  0.17991367074E+02  0.84267635210E+01  0.37584073432E+00  0.19870603644E+02  0.51100000000E-03 0.  1.
        -11    1    3    3    0    0 -0.80114400258E+01 -0.45748576169E+01 -0.91649387761E+01  0.13004176119E+02  0.51100000000E-03 0. -1.
         12    1    3    3    0    0  0.21269342053E+02 -0.41631483439E+01  0.15122108698E+02  0.26427161917E+02  0.00000000000E+00 0. -1.
</event>
<event>
 7    1  0.5662448E-012  0.5930196E+02  0.7816164E-02  0.1266605E+00
        -11   -1    0    0    0    0  0.00000000000E+00  0.00000000000E+00  0.45593999997E+02  0.45594000000E+02  0.51100000000E-03 0.  1.
         11   -1    0    0    0    0 -0.00000000000E+00 -0.00000000000E+00 -0.45593999997E+02  0.45594000000E+02  0.51100000000E-03 0. -1.
    9900012    2    1    2    0    0  0.22742245450E+02  0.39581607314E+01  0.21996422455E+02  0.59301962847E+02  0.50000034322E+02 0.  0.
         12    1    1    2    0    0 -0.22742245450E+02 -0.39581607314E+01 -0.21996422455E+02  0.31886037153E+02  0.00000000000E+00 0. -1.
         11    1    3    3    0    0 -0.61465600714E+01  0.57414245483E+00  0.23210605281E+02  0.24017536053E+02  0.51100000000E-03 0. -1.
        -11    1    3    3    0    0  0.54576709725E+01 -0.20392831031E+00  0.81390284949E+01  0.98016092710E+01  0.51100000000E-03 0.  1.
        -12    1    3    3    0    0  0.23431134549E+02  0.35879465869E+01 -0.93532113204E+01  0.25482817524E+02  0.00000000000E+00 0.  1.
</event>
<event>
 7    1  0.5662448E-012  0.5930195E+02  0.7816164E-02  0.1266605E+00
        -11   -1    0    0    0    0  0.00000000000E+00  0.00000000000E+00  0.45593999997E+02  0.45594000000E+02  0.51100000000E-03 0.  1.
         11   -1    0    0    0    0 -0.00000000000E+00 -0.00000000000E+00 -0.45593999997E+02  0.45594000000E+02  0.51100000000E-03 0. -1.
    9900012    2    1    2    0    0  0.23387081825E+02  0.15935107833E+02  0.14691378783E+02  0.59301954957E+02  0.50000019932E+02 0.  0.
         12    1    1    2    0    0 -0.23387081825E+02 -0.15935107833E+02 -0.14691378783E+02  0.31886045043E+02  0.00000000000E+00 0. -1.
         11    1    3    3    0    0 -0.60040212373E+01  0.57883411576E+01 -0.40267850054E+01  0.92611101988E+01  0.51100000000E-03 0. -1.
        -11    1    3    3    0    0  0.13902585079E+01 -0.10076017607E+02 -0.10807289295E+01  0.10228730362E+02  0.51100000000E-03 0.  1.
        -12    1    3    3    0    0  0.28000844554E+02  0.20222784282E+02  0.19798892718E+02  0.39812114397E+02  0.00000000000E+00 0.  1.
</event>
<event>
 7    1  0.5662448E-012  0.5930195E+02  0.7816164E-02  0.1266605E+00
        -11   -1    0    0    0    0  0.00000000000E+00  0.00000000000E+00  0.45593999997E+02  0.45594000000E+02  0.51100000000E-03 0. -1.
         11   -1    0    0    0    0 -0.00000000000E+00 -0.00000000000E+00 -0.45593999997E+02  0.45594000000E+02  0.51100000000E-03 0.  1.
    9900012    2    1    2    0    0  0.23984181380E+02 -0.80755762598E+01 -0.19397532723E+02  0.59301950321E+02  0.50000011477E+02 0.  0.
         12    1    1    2    0    0 -0.23984181380E+02  0.80755762598E+01  0.19397532723E+02  0.31886049679E+02  0.00000000000E+00 0. -1.
         11    1    3    3    0    0  0.10138598562E+02 -0.10386202222E+02 -0.14518005694E+02  0.20528927565E+02  0.51100000000E-03 0. -1.
        -11    1    3    3    0    0 -0.47934902905E+01 -0.87675199313E+01 -0.12307631947E+02  0.15853225517E+02  0.51100000000E-03 0.  1.
         12    1    3    3    0    0  0.18639073109E+02  0.11078145893E+02  0.74281049173E+01  0.22919797239E+02  0.00000000000E+00 0. -1.
</event>
<event>
 7    1  0.5662448E-012  0.5930197E+02  0.7816164E-02  0.1266605E+00
        -11   -1    0    0    0    0  0.00000000000E+00  0.00000000000E+00  0.45593999997E+02  0.45594000000E+02  0.51100000000E-03 0.  1.
         11   -1    0    0    0    0 -0.00000000000E+00 -0.00000000000E+00 -0.45593999997E+02  0.45594000000E+02  0.51100000000E-03 0. -1.
    9900012    2    1    2    0    0 -0.22383767496E+02 -0.18476130238E+02  0.13202980408E+02  0.59301966576E+02  0.50000041122E+02 0.  0.
         12    1    1    2    0    0  0.22383767496E+02  0.18476130238E+02 -0.13202980408E+02  0.31886033424E+02  0.00000000000E+00 0. -1.
         11    1    3    3    0    0 -0.14849359893E+02 -0.12823155254E+02  0.13165632658E+01  0.19663929897E+02  0.51100000000E-03 0. -1.
        -11    1    3    3    0    0 -0.88614229745E+01 -0.74254396973E+01  0.24362750943E+02  0.26966750001E+02  0.51100000000E-03 0.  1.
        -12    1    3    3    0    0  0.13270153717E+01  0.17724647136E+01 -0.12476333801E+02  0.12671286677E+02  0.00000000000E+00 0.  1.
</event>
<event>
 7    1  0.5662448E-012  0.5930195E+02  0.7816164E-02  0.1266605E+00
        -11   -1    0    0    0    0  0.00000000000E+00  0.00000000000E+00  0.45593999997E+02  0.45594000000E+02  0.51100000000E-03 0.  1.
         11   -1    0    0    0    0 -0.00000000000E+00 -0.00000000000E+00 -0.45593999997E+02  0.45594000000E+02  0.51100000000E-03 0. -1.
    9900012    2    1    2    0    0  0.67451465909E+01  0.23103289358E+02  0.20915567578E+02  0.59301953698E+02  0.50000017636E+02 0.  0.
         12    1    1    2    0    0 -0.67451465909E+01 -0.23103289358E+02 -0.20915567578E+02  0.31886046302E+02  0.00000000000E+00 0. -1.
         11    1    3    3    0    0  0.10462485492E+02 -0.93891401406E+01  0.34062439283E+01  0.14464510127E+02  0.51100000000E-03 0. -1.
        -11    1    3    3    0    0 -0.12856120322E+02  0.83366561249E+01  0.82406319874E+01  0.17397921741E+02  0.51100000000E-03 0.  1.
         12    1    3    3    0    0  0.91387814211E+01  0.24155773374E+02  0.92686916619E+01  0.27439521830E+02  0.00000000000E+00 0. -1.
</event>
<event>
 7    1  0.5662448E-012  0.5930195E+02  0.7816164E-02  0.1266605E+00
        -11   -1    0    0    0    0  0.00000000000E+00  0.00000000000E+00  0.45593999997E+02  0.45594000000E+02  0.51100000000E-03 0.  1.
         11   -1    0    0    0    0 -0.00000000000E+00 -0.00000000000E+00 -0.45593999997E+02  0.45594000000E+02  0.51100000000E-03 0. -1.
    9900012    2    1    2    0    0 -0.42787529528E+01 -0.25329847235E+02  0.18889442060E+02  0.59301954319E+02  0.50000018769E+02 0.  0.
         12    1    1    2    0    0  0.42787529528E+01  0.25329847235E+02 -0.18889442060E+02  0.31886045681E+02  0.00000000000E+00 0. -1.
         11    1    3    3    0    0  0.63704622482E+01 -0.16789234855E+02 -0.72638668695E+01  0.19370724262E+02  0.51100000000E-03 0. -1.
        -11    1    3    3    0    0  0.87713025418E+01 -0.27747856750E+01  0.43738473238E+01  0.10186546250E+02  0.51100000000E-03 0.  1.
         12    1    3    3    0    0 -0.19420517743E+02 -0.57658267057E+01  0.21779461606E+02  0.29744683808E+02  0.00000000000E+00 0. -1.
</event>
<event>
 7    1  0.5662448E-012  0.5930196E+02  0.7816164E-02  0.1266605E+00
        -11   -1    0    0    0    0  0.00000000000E+00  0.00000000000E+00  0.45593999997E+02  0.45594000000E+02  0.51100000000E-03 0. -1.
         11   -1    0    0    0    0 -0.00000000000E+00 -0.00000000000E+00 -0.45593999997E+02  0.45594000000E+02  0.51100000000E-03 0.  1.
    9900012    2    1    2    0    0  0.11155578251E+02  0.27367688426E+02 -0.11970066531E+02  0.59301956208E+02  0.50000022215E+02 0.  0.
         12    1    1    2    0    0 -0.11155578251E+02 -0.27367688426E+02  0.11970066531E+02  0.31886043792E+02  0.00000000000E+00 0. -1.
         11    1    3    3    0    0  0.55717000111E+01  0.97462147801E+01 -0.63905984601E+01  0.12917905887E+02  0.51100000000E-03 0.  1.
        -11    1    3    3    0    0 -0.16334187789E+02 -0.18175957874E+01 -0.46196925196E+01  0.17071933236E+02  0.51100000000E-03 0. -1.
         12    1    3    3    0    0  0.21918066030E+02  0.19439069434E+02 -0.95977555107E+00  0.29312117086E+02  0.00000000000E+00 0. -1.
</event>
<event>
 7    1  0.5662448E-012  0.5930192E+02  0.7816164E-02  0.1266605E+00
        -11   -1    0    0    0    0  0.00000000000E+00  0.00000000000E+00  0.45593999997E+02  0.45594000000E+02  0.51100000000E-03 0.  1.
         11   -1    0    0    0    0 -0.00000000000E+00 -0.00000000000E+00 -0.45593999997E+02  0.45594000000E+02  0.51100000000E-03 0. -1.
    9900012    2    1    2    0    0  0.23148303342E+02 -0.19915337827E+02  0.91791881568E+01  0.59301919595E+02  0.49999955441E+02 0.  0.
         12    1    1    2    0    0 -0.23148303342E+02  0.19915337827E+02 -0.91791881568E+01  0.31886080405E+02  0.00000000000E+00 0. -1.
         11    1    3    3    0    0  0.14735132451E+02 -0.19080020234E+02 -0.30830099303E+01  0.24303832022E+02  0.51100000000E-03 0. -1.
        -11    1    3    3    0    0  0.14252037170E+02 -0.27913449535E+01  0.20245589394E+02  0.24915779344E+02  0.51100000000E-03 0.  1.
         12    1    3    3    0    0 -0.58388662792E+01  0.19560273600E+01 -0.79833913072E+01  0.10082308229E+02  0.00000000000E+00 0. -1.
</event>
<event>
 7    1  0.5662448E-012  0.5930195E+02  0.7816164E-02  0.1266605E+00
        -11   -1    0    0    0    0  0.00000000000E+00  0.00000000000E+00  0.45593999997E+02  0.45594000000E+02  0.51100000000E-03 0.  1.
         11   -1    0    0    0    0 -0.00000000000E+00 -0.00000000000E+00 -0.45593999997E+02  0.45594000000E+02  0.51100000000E-03 0. -1.
    9900012    2    1    2    0    0 -0.11855123990E+02  0.77788551641E+01  0.28559857373E+02  0.59301952806E+02  0.50000016009E+02 0.  0.
         12    1    1    2    0    0  0.11855123990E+02 -0.77788551641E+01 -0.28559857373E+02  0.31886047194E+02  0.00000000000E+00 0. -1.
         11    1    3    3    0    0  0.72211090852E+00 -0.51280681291E+01 -0.31097010495E+00  0.51879889715E+01  0.51100000000E-03 0. -1.
        -11    1    3    3    0    0  0.14874084885E+02  0.10363969080E+02  0.99846081643E+01  0.20696440677E+02  0.51100000000E-03 0.  1.
         12    1    3    3    0    0 -0.27451319784E+02  0.25429542131E+01  0.18886219314E+02  0.33417523157E+02  0.00000000000E+00 0. -1.
</event>
<event>
 7    1  0.5662448E-012  0.5930197E+02  0.7816164E-02  0.1266605E+00
        -11   -1    0    0    0    0  0.00000000000E+00  0.00000000000E+00  0.45593999997E+02  0.45594000000E+02  0.51100000000E-03 0. -1.
         11   -1    0    0    0    0 -0.00000000000E+00 -0.00000000000E+00 -0.45593999997E+02  0.45594000000E+02  0.51100000000E-03 0.  1.
    9900012    2    1    2    0    0  0.22931175778E+01  0.26645044026E+02 -0.17363817667E+02  0.59301969777E+02  0.50000046960E+02 0.  0.
         12    1    1    2    0    0 -0.22931175778E+01 -0.26645044026E+02  0.17363817667E+02  0.31886030223E+02  0.00000000000E+00 0. -1.
         11    1    3    3    0    0  0.78314988553E+01  0.13903494897E+02 -0.34390682846E+01  0.16323808857E+02  0.51100000000E-03 0. -1.
        -11    1    3    3    0    0 -0.14629283763E+02  0.13018118064E+02  0.64890141142E+01  0.20629945365E+02  0.51100000000E-03 0.  1.
        -12    1    3    3    0    0  0.90909024853E+01 -0.27656893440E+00 -0.20413763497E+02  0.22348215555E+02  0.00000000000E+00 0.  1.
</event>
<event>
 7    1  0.5662448E-012  0.5930193E+02  0.7816164E-02  0.1266605E+00
        -11   -1    0    0    0    0  0.00000000000E+00  0.00000000000E+00  0.45593999997E+02  0.45594000000E+02  0.51100000000E-03 0. -1.
         11   -1    0    0    0    0 -0.00000000000E+00 -0.00000000000E+00 -0.45593999997E+02  0.45594000000E+02  0.51100000000E-03 0.  1.
    9900012    2    1    2    0    0  0.25938595671E+02 -0.15497019656E+02 -0.10185934711E+02  0.59301927343E+02  0.49999969570E+02 0.  0.
         12    1    1    2    0    0 -0.25938595671E+02  0.15497019656E+02  0.10185934711E+02  0.31886072657E+02  0.00000000000E+00 0. -1.
         11    1    3    3    0    0 -0.29950871623E+01  0.28947590529E+01  0.10846215048E+02  0.11618543722E+02  0.51100000000E-03 0. -1.
        -11    1    3    3    0    0  0.11791232945E+02 -0.17782549670E+02 -0.10695562201E+01  0.21363431323E+02  0.51100000000E-03 0.  1.
         12    1    3    3    0    0  0.17142449888E+02 -0.60922903897E+00 -0.19962593539E+02  0.26319952298E+02  0.00000000000E+00 0. -1.
</event>
<event>
 7    1  0.5662448E-012  0.5930193E+02  0.7816164E-02  0.1266605E+00
        -11   -1    0    0    0    0  0.00000000000E+00  0.00000000000E+00  0.45593999997E+02  0.45594000000E+02  0.51100000000E-03 0.  1.
         11   -1    0    0    0    0 -0.00000000000E+00 -0.00000000000E+00 -0.45593999997E+02  0.45594000000E+02  0.51100000000E-03 0. -1.
    9900012    2    1    2    0    0  0.13825540556E+02 -0.14506324764E+02  0.24802070035E+02  0.59301926115E+02  0.49999967331E+02 0.  0.
         12    1    1    2    0    0 -0.13825540556E+02  0.14506324764E+02 -0.24802070035E+02  0.31886073885E+02  0.00000000000E+00 0. -1.
         11    1    3    3    0    0  0.58695059468E+01 -0.28312798374E+01  0.16929065111E+02  0.18140024569E+02  0.51100000000E-03 0. -1.
        -11    1    3    3    0    0  0.21133669326E+02 -0.14107332289E+02  0.10522572608E+02  0.27502242418E+02  0.51100000000E-03 0.  1.
         12    1    3    3    0    0 -0.13177634717E+02  0.24322873620E+01 -0.26495676840E+01  0.13659659127E+02  0.00000000000E+00 0. -1.
</event>
<event>
 7    1  0.5662448E-012  0.5930198E+02  0.7816164E-02  0.1266605E+00
        -11   -1    0    0    0    0  0.00000000000E+00  0.00000000000E+00  0.45593999997E+02  0.45594000000E+02  0.51100000000E-03 0. -1.
         11   -1    0    0    0    0 -0.00000000000E+00 -0.00000000000E+00 -0.45593999997E+02  0.45594000000E+02  0.51100000000E-03 0.  1.
    9900012    2    1    2    0    0 -0.13081530596E+02 -0.29062605779E+02  0.97802717381E+00  0.59301983715E+02  0.50000072380E+02 0.  0.
         12    1    1    2    0    0  0.13081530596E+02  0.29062605779E+02 -0.97802717381E+00  0.31886016285E+02  0.00000000000E+00 0. -1.
         11    1    3    3    0    0 -0.10841982189E+02  0.15536908324E+01  0.65995008281E+01  0.12787335314E+02  0.51100000000E-03 0. -1.
        -11    1    3    3    0    0 -0.31416717265E+01 -0.17992616322E+02  0.14105160247E+02  0.23077259135E+02  0.51100000000E-03 0.  1.
        -12    1    3    3    0    0  0.90212331983E+00 -0.12623680289E+02 -0.19726633901E+02  0.23437389266E+02  0.00000000000E+00 0.  1.
</event>
<event>
 7    1  0.5662448E-012  0.5930194E+02  0.7816164E-02  0.1266605E+00
        -11   -1    0    0    0    0  0.00000000000E+00  0.00000000000E+00  0.45593999997E+02  0.45594000000E+02  0.51100000000E-03 0.  1.
         11   -1    0    0    0    0 -0.00000000000E+00 -0.00000000000E+00 -0.45593999997E+02  0.45594000000E+02  0.51100000000E-03 0. -1.
    9900012    2    1    2    0    0 -0.17706054095E+02  0.23659141179E+02  0.11977545091E+02  0.59301938792E+02  0.49999990452E+02 0.  0.
         12    1    1    2    0    0  0.17706054095E+02 -0.23659141179E+02 -0.11977545091E+02  0.31886061208E+02  0.00000000000E+00 0. -1.
         11    1    3    3    0    0 -0.92201473804E+01 -0.44945145227E+01 -0.14756248152E+01  0.10362878334E+02  0.51100000000E-03 0. -1.
        -11    1    3    3    0    0 -0.18804013840E+02  0.22355008701E+02 -0.22231207941E+01  0.29296409623E+02  0.51100000000E-03 0.  1.
        -12    1    3    3    0    0  0.10318107126E+02  0.57986470014E+01  0.15676290700E+02  0.19642650835E+02  0.00000000000E+00 0.  1.
</event>
<event>
 7    1  0.5662448E-012  0.5930189E+02  0.7816164E-02  0.1266605E+00
        -11   -1    0    0    0    0  0.00000000000E+00  0.00000000000E+00  0.45593999997E+02  0.45594000000E+02  0.51100000000E-03 0.  1.
         11   -1    0    0    0    0 -0.00000000000E+00 -0.00000000000E+00 -0.45593999997E+02  0.45594000000E+02  0.51100000000E-03 0. -1.
    9900012    2    1    2    0    0  0.14955041000E+02 -0.19603643221E+02  0.20218012879E+02  0.59301888233E+02  0.49999898244E+02 0.  0.
         12    1    1    2    0    0 -0.14955041000E+02  0.19603643221E+02 -0.20218012879E+02  0.31886111767E+02  0.00000000000E+00 0. -1.
         11    1    3    3    0    0 -0.12115775489E+02  0.27011299213E+01 -0.37092269547E+01  0.12955558012E+02  0.51100000000E-03 0. -1.
        -11    1    3    3    0    0  0.42874530500E+01  0.65963352890E+00 -0.21069831767E+01  0.48225251079E+01  0.51100000000E-03 0.  1.
        -12    1    3    3    0    0  0.22783363439E+02 -0.22964406671E+02  0.26034223010E+02  0.41523805113E+02  0.00000000000E+00 0.  1.
</event>
<event>
 7    1  0.5662448E-012  0.5930193E+02  0.7816164E-02  0.1266605E+00
        -11   -1    0    0    0    0  0.00000000000E+00  0.00000000000E+00  0.45593999997E+02  0.45594000000E+02  0.51100000000E-03 0.  1.
         11   -1    0    0    0    0 -0.00000000000E+00 -0.00000000000E+00 -0.45593999997E+02  0.45594000000E+02  0.51100000000E-03 0. -1.
    9900012    2    1    2    0    0  0.19038716156E+02  0.25471066351E+02  0.23395683268E+01  0.59301929156E+02  0.49999972877E+02 0.  0.
         12    1    1    2    0    0 -0.19038716156E+02 -0.25471066351E+02 -0.23395683268E+01  0.31886070844E+02  0.00000000000E+00 0. -1.
         11    1    3    3    0    0  0.11472136882E+02  0.62077973719E+01  0.20927841511E+02  0.24660114019E+02  0.51100000000E-03 0.  1.
        -11    1    3    3    0    0  0.10722340627E+02  0.66595552324E+01 -0.84540737226E+00  0.12650414155E+02  0.51100000000E-03 0. -1.
         12    1    3    3    0    0 -0.31557613527E+01  0.12603713747E+02 -0.17742865812E+02  0.21991400982E+02  0.00000000000E+00 0. -1.
</event>
<event>
 7    1  0.5662448E-012  0.5930195E+02  0.7816164E-02  0.1266605E+00
        -11   -1    0    0    0    0  0.00000000000E+00  0.00000000000E+00  0.45593999997E+02  0.45594000000E+02  0.51100000000E-03 0. -1.
         11   -1    0    0    0    0 -0.00000000000E+00 -0.00000000000E+00 -0.45593999997E+02  0.45594000000E+02  0.51100000000E-03 0.  1.
    9900012    2    1    2    0    0  0.19688740853E+02 -0.11277041551E+02 -0.22403174461E+02  0.59301946490E+02  0.50000004491E+02 0.  0.
         12    1    1    2    0    0 -0.19688740853E+02  0.11277041551E+02  0.22403174461E+02  0.31886053510E+02  0.00000000000E+00 0. -1.
         11    1    3    3    0    0  0.65498616078E+01  0.81913645163E+01 -0.60274677629E+01  0.12096673411E+02  0.51100000000E-03 0. -1.
        -11    1    3    3    0    0  0.41236335266E+01 -0.88336323147E+01 -0.27622686861E+02  0.29292494653E+02  0.51100000000E-03 0.  1.
         12    1    3    3    0    0  0.90152457186E+01 -0.10634773753E+02  0.11246980163E+02  0.17912778426E+02  0.00000000000E+00 0. -1.
</event>
<event>
 7    1  0.5662448E-012  0.5930198E+02  0.7816164E-02  0.1266605E+00
        -11   -1    0    0    0    0  0.00000000000E+00  0.00000000000E+00  0.45593999997E+02  0.45594000000E+02  0.51100000000E-03 0.  1.
         11   -1    0    0    0    0 -0.00000000000E+00 -0.00000000000E+00 -0.45593999997E+02  0.45594000000E+02  0.51100000000E-03 0. -1.
    9900012    2    1    2    0    0 -0.90630434983E+00  0.40794092833E+01  0.31611001357E+02  0.59301978385E+02  0.50000062659E+02 0.  0.
         12    1    1    2    0    0  0.90630434983E+00 -0.40794092833E+01 -0.31611001357E+02  0.31886021615E+02  0.00000000000E+00 0. -1.
         11    1    3    3    0    0  0.10589923831E+02  0.74794516694E+00  0.14051505672E+02  0.17611096520E+02  0.51100000000E-03 0. -1.
        -11    1    3    3    0    0  0.17881545300E+01  0.12210427411E+02  0.21896223748E+02  0.25134371862E+02  0.51100000000E-03 0.  1.
         12    1    3    3    0    0 -0.13284382711E+02 -0.88789632945E+01 -0.43367280639E+01  0.16556510003E+02  0.00000000000E+00 0. -1.
</event>
<event>
 7    1  0.5662448E-012  0.5930201E+02  0.7816164E-02  0.1266605E+00
        -11   -1    0    0    0    0  0.00000000000E+00  0.00000000000E+00  0.45593999997E+02  0.45594000000E+02  0.51100000000E-03 0. -1.
         11   -1    0    0    0    0 -0.00000000000E+00 -0.00000000000E+00 -0.45593999997E+02  0.45594000000E+02  0.51100000000E-03 0.  1.
    9900012    2    1    2    0    0  0.44460240473E+01  0.23436152819E+02  0.21158819956E+02  0.59302014823E+02  0.50000129113E+02 0.  0.
         12    1    1    2    0    0 -0.44460240473E+01 -0.23436152819E+02 -0.21158819956E+02  0.31885985177E+02  0.00000000000E+00 0. -1.
         11    1    3    3    0    0  0.77293343959E+01 -0.84241024085E+01  0.17517940371E+02  0.20918564642E+02  0.51100000000E-03 0. -1.
        -11    1    3    3    0    0 -0.81717353864E+01  0.16008915745E+02 -0.62985205702E+01  0.19045577024E+02  0.51100000000E-03 0.  1.
         12    1    3    3    0    0  0.48884250378E+01  0.15851339483E+02  0.99394001555E+01  0.19337873156E+02  0.00000000000E+00 0. -1.
</event>
<event>
 7    1  0.5662448E-012  0.5930191E+02  0.7816164E-02  0.1266605E+00
        -11   -1    0    0    0    0  0.00000000000E+00  0.00000000000E+00  0.45593999997E+02  0.45594000000E+02  0.51100000000E-03 0. -1.
         11   -1    0    0    0    0 -0.00000000000E+00 -0.00000000000E+00 -0.45593999997E+02  0.45594000000E+02  0.51100000000E-03 0.  1.
    9900012    2    1    2    0    0 -0.48524350022E+00 -0.11894745780E+02 -0.29580437316E+02  0.59301910396E+02  0.49999938663E+02 0.  0.
         12    1    1    2    0    0  0.48524350022E+00  0.11894745780E+02  0.29580437316E+02  0.31886089604E+02  0.00000000000E+00 0. -1.
         11    1    3    3    0    0 -0.86788033279E+01 -0.72250532136E+01 -0.20996330167E+01  0.11486142965E+02  0.51100000000E-03 0. -1.
        -11    1    3    3    0    0 -0.45211020298E+01 -0.12162147080E+02 -0.30145275078E+02  0.32819137632E+02  0.51100000000E-03 0.  1.
         12    1    3    3    0    0  0.12714661857E+02  0.74924545135E+01  0.26644707782E+01  0.14996629799E+02  0.00000000000E+00 0. -1.
</event>
<event>
 7    1  0.5662448E-012  0.5930198E+02  0.7816164E-02  0.1266605E+00
        -11   -1    0    0    0    0  0.00000000000E+00  0.00000000000E+00  0.45593999997E+02  0.45594000000E+02  0.51100000000E-03 0. -1.
         11   -1    0    0    0    0 -0.00000000000E+00 -0.00000000000E+00 -0.45593999997E+02  0.45594000000E+02  0.51100000000E-03 0.  1.
    9900012    2    1    2    0    0  0.15634527509E+02 -0.68152486774E+01 -0.26941270122E+02  0.59301982677E+02  0.50000070486E+02 0.  0.
         12    1    1    2    0    0 -0.15634527509E+02  0.68152486774E+01  0.26941270122E+02  0.31886017323E+02  0.00000000000E+00 0. -1.
         11    1    3    3    0    0  0.16609065001E+02  0.55216598078E+01  0.64392978619E+01  0.18649780815E+02  0.51100000000E-03 0.  1.
        -11    1    3    3    0    0 -0.25600147618E+01 -0.99173628947E+01 -0.37909119170E+01  0.10921482307E+02  0.51100000000E-03 0. -1.
        -12    1    3    3    0    0  0.15854772691E+01 -0.24195455904E+01 -0.29589656067E+02  0.29730719554E+02  0.00000000000E+00 0.  1.
</event>
<event>
 7    1  0.5662448E-012  0.5930164E+02  0.7816164E-02  0.1266606E+00
        -11   -1    0    0    0    0  0.00000000000E+00  0.00000000000E+00  0.45593999997E+02  0.45594000000E+02  0.51100000000E-03 0. -1.
         11   -1    0    0    0    0 -0.00000000000E+00 -0.00000000000E+00 -0.45593999997E+02  0.45594000000E+02  0.51100000000E-03 0.  1.
    9900012    2    1    2    0    0 -0.69924587697E+00 -0.23433309540E+01 -0.31792446784E+02  0.59301642144E+02  0.49999449434E+02 0.  0.
         12    1    1    2    0    0  0.69924587697E+00  0.23433309540E+01  0.31792446784E+02  0.31886357856E+02  0.00000000000E+00 0. -1.
         11    1    3    3    0    0  0.12190681502E+02  0.75117472439E+01  0.24246500016E+01  0.14523015872E+02  0.51100000000E-03 0. -1.
        -11    1    3    3    0    0  0.64060241623E+01 -0.58616750004E+01 -0.68715962326E+01  0.11073175444E+02  0.51100000000E-03 0.  1.
        -12    1    3    3    0    0 -0.19295951541E+02 -0.39934031975E+01 -0.27345500553E+02  0.33705450828E+02  0.00000000000E+00 0.  1.
</event>
<event>
 7    1  0.5662448E-012  0.5930189E+02  0.7816164E-02  0.1266605E+00
        -11   -1    0    0    0    0  0.00000000000E+00  0.00000000000E+00  0.45593999997E+02  0.45594000000E+02  0.51100000000E-03 0.  1.
         11   -1    0    0    0    0 -0.00000000000E+00 -0.00000000000E+00 -0.45593999997E+02  0.45594000000E+02  0.51100000000E-03 0. -1.
    9900012    2    1    2    0    0  0.29848634361E+02 -0.97394252409E+01  0.55611817489E+01  0.59301888295E+02  0.49999898357E+02 0.  0.
         12    1    1    2    0    0 -0.29848634361E+02  0.97394252409E+01 -0.55611817489E+01  0.31886111705E+02  0.00000000000E+00 0. -1.
         11    1    3    3    0    0  0.92709412464E+01  0.89578621640E+01  0.53755232765E+01  0.13967458498E+02  0.51100000000E-03 0.  1.
        -11    1    3    3    0    0  0.24481524630E+02  0.15060149747E+01 -0.21670944193E+01  0.24623351270E+02  0.51100000000E-03 0. -1.
         12    1    3    3    0    0 -0.39038315155E+01 -0.20203302380E+02  0.23527528916E+01  0.20711078526E+02  0.00000000000E+00 0. -1.
</event>
<event>
 7    1  0.5662448E-012  0.5930195E+02  0.7816164E-02  0.1266605E+00
        -11   -1    0    0    0    0  0.00000000000E+00  0.00000000000E+00  0.45593999997E+02  0.45594000000E+02  0.51100000000E-03 0. -1.
         11   -1    0    0    0    0 -0.00000000000E+00 -0.00000000000E+00 -0.45593999997E+02  0.45594000000E+02  0.51100000000E-03 0.  1.
    9900012    2    1    2    0    0 -0.94782328599E+01  0.15987811229E+02 -0.25908937667E+02  0.59301952000E+02  0.50000014539E+02 0.  0.
         12    1    1    2    0    0  0.94782328599E+01 -0.15987811229E+02  0.25908937667E+02  0.31886048000E+02  0.00000000000E+00 0. -1.
         11    1    3    3    0    0  0.11374357719E+02  0.11088142186E+02 -0.28903621991E+01  0.16145497966E+02  0.51100000000E-03 0. -1.
        -11    1    3    3    0    0  0.49176420991E+01  0.36935432737E+01 -0.14886091185E+02  0.16106556949E+02  0.51100000000E-03 0.  1.
        -12    1    3    3    0    0 -0.25770232678E+02  0.12061257695E+01 -0.81324842831E+01  0.27049897085E+02  0.00000000000E+00 0.  1.
</event>
<event>
 7    1  0.5662448E-012  0.5930194E+02  0.7816164E-02  0.1266605E+00
        -11   -1    0    0    0    0  0.00000000000E+00  0.00000000000E+00  0.45593999997E+02  0.45594000000E+02  0.51100000000E-03 0.  1.
         11   -1    0    0    0    0 -0.00000000000E+00 -0.00000000000E+00 -0.45593999997E+02  0.45594000000E+02  0.51100000000E-03 0. -1.
    9900012    2    1    2    0    0  0.28989225983E+02 -0.42774975489E+01  0.12571744999E+02  0.59301937517E+02  0.49999988125E+02 0.  0.
         12    1    1    2    0    0 -0.28989225983E+02  0.42774975489E+01 -0.12571744999E+02  0.31886062483E+02  0.00000000000E+00 0. -1.
         11    1    3    3    0    0 -0.57676549023E+01 -0.12528630577E+02  0.56060634071E+01  0.14888262974E+02  0.51100000000E-03 0. -1.
        -11    1    3    3    0    0  0.17085326368E+02 -0.60760458788E+01  0.11142901794E+02  0.21283584549E+02  0.51100000000E-03 0.  1.
         12    1    3    3    0    0  0.17671554517E+02  0.14327178906E+02 -0.41772202020E+01  0.23130089993E+02  0.00000000000E+00 0. -1.
</event>
<event>
 7    1  0.5662448E-012  0.5930196E+02  0.7816164E-02  0.1266605E+00
        -11   -1    0    0    0    0  0.00000000000E+00  0.00000000000E+00  0.45593999997E+02  0.45594000000E+02  0.51100000000E-03 0.  1.
         11   -1    0    0    0    0 -0.00000000000E+00 -0.00000000000E+00 -0.45593999997E+02  0.45594000000E+02  0.51100000000E-03 0. -1.
    9900012    2    1    2    0    0  0.92391118669E+01  0.63206811314E+01  0.29856449162E+02  0.59301956743E+02  0.50000023189E+02 0.  0.
         12    1    1    2    0    0 -0.92391118669E+01 -0.63206811314E+01 -0.29856449162E+02  0.31886043257E+02  0.00000000000E+00 0. -1.
         11    1    3    3    0    0 -0.13894319340E+02  0.26371357671E+01  0.14344965072E+01  0.14214934944E+02  0.51100000000E-03 0. -1.
        -11    1    3    3    0    0  0.51536635238E+01  0.10443834785E+02  0.11132044145E+01  0.11699280194E+02  0.51100000000E-03 0.  1.
        -12    1    3    3    0    0  0.17979767683E+02 -0.67602894205E+01  0.27308748240E+02  0.33387741604E+02  0.00000000000E+00 0.  1.
</event>
<event>
 7    1  0.5662448E-012  0.5930193E+02  0.7816164E-02  0.1266605E+00
        -11   -1    0    0    0    0  0.00000000000E+00  0.00000000000E+00  0.45593999997E+02  0.45594000000E+02  0.51100000000E-03 0.  1.
         11   -1    0    0    0    0 -0.00000000000E+00 -0.00000000000E+00 -0.45593999997E+02  0.45594000000E+02  0.51100000000E-03 0. -1.
    9900012    2    1    2    0    0  0.90440454384E+01 -0.95337115787E+01  0.29052283732E+02  0.59301927736E+02  0.49999970288E+02 0.  0.
         12    1    1    2    0    0 -0.90440454384E+01  0.95337115787E+01 -0.29052283732E+02  0.31886072264E+02  0.00000000000E+00 0. -1.
         11    1    3    3    0    0 -0.26931967582E+01 -0.16617336058E+02 -0.29870595035E+01  0.17097125232E+02  0.51100000000E-03 0. -1.
        -11    1    3    3    0    0  0.59813119423E+01  0.39869909242E+01 -0.20655806295E+01  0.74792254130E+01  0.51100000000E-03 0.  1.
        -12    1    3    3    0    0  0.57559302543E+01  0.30966335551E+01  0.34104923865E+02  0.34725577091E+02  0.00000000000E+00 0.  1.
</event>
<event>
 7    1  0.5662448E-012  0.5930192E+02  0.7816164E-02  0.1266605E+00
        -11   -1    0    0    0    0  0.00000000000E+00  0.00000000000E+00  0.45593999997E+02  0.45594000000E+02  0.51100000000E-03 0.  1.
         11   -1    0    0    0    0 -0.00000000000E+00 -0.00000000000E+00 -0.45593999997E+02  0.45594000000E+02  0.51100000000E-03 0. -1.
    9900012    2    1    2    0    0  0.29119697471E+02 -0.96812731229E+01  0.86624768967E+01  0.59301916263E+02  0.49999949364E+02 0.  0.
         12    1    1    2    0    0 -0.29119697471E+02  0.96812731229E+01 -0.86624768967E+01  0.31886083737E+02  0.00000000000E+00 0. -1.
         11    1    3    3    0    0  0.92925152956E+01 -0.97166487626E+01  0.13128243417E+02  0.18791351180E+02  0.51100000000E-03 0. -1.
        -11    1    3    3    0    0  0.27011871496E+01 -0.67957865811E+01  0.13126561166E+02  0.15026168359E+02  0.51100000000E-03 0.  1.
         12    1    3    3    0    0  0.17125995026E+02  0.68311622208E+01 -0.17592327686E+02  0.25484396723E+02  0.00000000000E+00 0. -1.
</event>
<event>
 7    1  0.5662448E-012  0.5930192E+02  0.7816164E-02  0.1266605E+00
        -11   -1    0    0    0    0  0.00000000000E+00  0.00000000000E+00  0.45593999997E+02  0.45594000000E+02  0.51100000000E-03 0.  1.
         11   -1    0    0    0    0 -0.00000000000E+00 -0.00000000000E+00 -0.45593999997E+02  0.45594000000E+02  0.51100000000E-03 0. -1.
    9900012    2    1    2    0    0 -0.27053987500E+02 -0.16788068408E+02 -0.17218132112E+01  0.59301919632E+02  0.49999955507E+02 0.  0.
         12    1    1    2    0    0  0.27053987500E+02  0.16788068408E+02  0.17218132112E+01  0.31886080368E+02  0.00000000000E+00 0. -1.
         11    1    3    3    0    0 -0.25929076576E+02 -0.12930810944E+02 -0.37614306500E+01  0.29217652961E+02  0.51100000000E-03 0. -1.
        -11    1    3    3    0    0 -0.96406359531E+01 -0.74158270335E+01  0.11591646007E+02  0.16801863277E+02  0.51100000000E-03 0.  1.
         12    1    3    3    0    0  0.85157250288E+01  0.35585695696E+01 -0.95520285680E+01  0.13282403394E+02  0.00000000000E+00 0. -1.
</event>
<event>
 7    1  0.5662448E-012  0.5930196E+02  0.7816164E-02  0.1266605E+00
        -11   -1    0    0    0    0  0.00000000000E+00  0.00000000000E+00  0.45593999997E+02  0.45594000000E+02  0.51100000000E-03 0.  1.
         11   -1    0    0    0    0 -0.00000000000E+00 -0.00000000000E+00 -0.45593999997E+02  0.45594000000E+02  0.51100000000E-03 0. -1.
    9900012    2    1    2    0    0  0.22550311263E+02 -0.61489351552E+01  0.21688564303E+02  0.59301956609E+02  0.50000022945E+02 0.  0.
         12    1    1    2    0    0 -0.22550311263E+02  0.61489351552E+01 -0.21688564303E+02  0.31886043391E+02  0.00000000000E+00 0. -1.
         11    1    3    3    0    0  0.11567919031E+02 -0.18025319351E+01  0.99972978818E+01  0.15395188771E+02  0.51100000000E-03 0. -1.
        -11    1    3    3    0    0  0.45399434908E+01  0.18183256088E+02  0.33800815621E+01  0.19043813707E+02  0.51100000000E-03 0.  1.
         12    1    3    3    0    0  0.64424487411E+01 -0.22529659309E+02  0.83111848593E+01  0.24862954131E+02  0.00000000000E+00 0. -1.
</event>
<event>
 7    1  0.5662448E-012  0.5930207E+02  0.7816164E-02  0.1266604E+00
        -11   -1    0    0    0    0  0.00000000000E+00  0.00000000000E+00  0.45593999997E+02  0.45594000000E+02  0.51100000000E-03 0.  1.
         11   -1    0    0    0    0 -0.00000000000E+00 -0.00000000000E+00 -0.45593999997E+02  0.45594000000E+02  0.51100000000E-03 0. -1.
    9900012    2    1    2    0    0  0.13751599268E+02 -0.26473605755E+02  0.11258505873E+02  0.59302074601E+02  0.50000238134E+02 0.  0.
         12    1    1    2    0    0 -0.13751599268E+02  0.26473605755E+02 -0.11258505873E+02  0.31885925399E+02  0.00000000000E+00 0. -1.
         11    1    3    3    0    0  0.73202028956E+01  0.37268459039E+01  0.15031386614E+02  0.17129428905E+02  0.51100000000E-03 0. -1.
        -11    1    3    3    0    0  0.15920760286E+02 -0.25859906892E+02  0.16501685598E+01  0.30412636339E+02  0.51100000000E-03 0.  1.
         12    1    3    3    0    0 -0.94893639136E+01 -0.43405447660E+01 -0.54230493007E+01  0.11760009357E+02  0.00000000000E+00 0. -1.
</event>
<event>
 7    1  0.5662448E-012  0.5930185E+02  0.7816164E-02  0.1266605E+00
        -11   -1    0    0    0    0  0.00000000000E+00  0.00000000000E+00  0.45593999997E+02  0.45594000000E+02  0.51100000000E-03 0.  1.
         11   -1    0    0    0    0 -0.00000000000E+00 -0.00000000000E+00 -0.45593999997E+02  0.45594000000E+02  0.51100000000E-03 0. -1.
    9900012    2    1    2    0    0  0.24921143368E+02 -0.19844171206E+02 -0.13681453786E+01  0.59301853488E+02  0.49999834876E+02 0.  0.
         12    1    1    2    0    0 -0.24921143368E+02  0.19844171206E+02  0.13681453786E+01  0.31886146512E+02  0.00000000000E+00 0. -1.
         11    1    3    3    0    0 -0.21812909114E+01  0.20451723491E+01  0.94810188509E+01  0.99413519548E+01  0.51100000000E-03 0.  1.
        -11    1    3    3    0    0  0.29533687583E+02 -0.14608006954E+02  0.34520173648E+01  0.33129276985E+02  0.51100000000E-03 0. -1.
         12    1    3    3    0    0 -0.24312533035E+01 -0.72813366018E+01 -0.14301181594E+02  0.16231224548E+02  0.00000000000E+00 0. -1.
</event>
<event>
 7    1  0.5662448E-012  0.5930195E+02  0.7816164E-02  0.1266605E+00
        -11   -1    0    0    0    0  0.00000000000E+00  0.00000000000E+00  0.45593999997E+02  0.45594000000E+02  0.51100000000E-03 0.  1.
         11   -1    0    0    0    0 -0.00000000000E+00 -0.00000000000E+00 -0.45593999997E+02  0.45594000000E+02  0.51100000000E-03 0. -1.
    9900012    2    1    2    0    0  0.27215686885E+02 -0.55275153708E+01  0.15667588335E+02  0.59301947202E+02  0.50000005789E+02 0.  0.
         12    1    1    2    0    0 -0.27215686885E+02  0.55275153708E+01 -0.15667588335E+02  0.31886052798E+02  0.00000000000E+00 0. -1.
         11    1    3    3    0    0 -0.73826331617E+01  0.40057241794E+01  0.42255548910E+01  0.94023620968E+01  0.51100000000E-03 0.  1.
        -11    1    3    3    0    0  0.28111981678E+02  0.35582403923E+01 -0.40277581441E+01  0.28621101036E+02  0.51100000000E-03 0. -1.
         12    1    3    3    0    0  0.64863383684E+01 -0.13091479942E+02  0.15469791588E+02  0.21278484070E+02  0.00000000000E+00 0. -1.
</event>
<event>
 7    1  0.5662448E-012  0.5930195E+02  0.7816164E-02  0.1266605E+00
        -11   -1    0    0    0    0  0.00000000000E+00  0.00000000000E+00  0.45593999997E+02  0.45594000000E+02  0.51100000000E-03 0.  1.
         11   -1    0    0    0    0 -0.00000000000E+00 -0.00000000000E+00 -0.45593999997E+02  0.45594000000E+02  0.51100000000E-03 0. -1.
    9900012    2    1    2    0    0  0.23337756991E+02  0.18251425952E+02 -0.11787914544E+02  0.59301946937E+02  0.50000005305E+02 0.  0.
         12    1    1    2    0    0 -0.23337756991E+02 -0.18251425952E+02  0.11787914544E+02  0.31886053063E+02  0.00000000000E+00 0. -1.
         11    1    3    3    0    0 -0.90410343153E+01  0.10639715750E+01 -0.34513479267E+01  0.97357146514E+01  0.51100000000E-03 0. -1.
        -11    1    3    3    0    0  0.16510318789E+02  0.22743639425E+02 -0.14542852055E+02  0.31644246032E+02  0.51100000000E-03 0.  1.
        -12    1    3    3    0    0  0.15868472517E+02 -0.55561850472E+01  0.62062854378E+01  0.17921986253E+02  0.00000000000E+00 0.  1.
</event>
<event>
 7    1  0.5662448E-012  0.5930195E+02  0.7816164E-02  0.1266605E+00
        -11   -1    0    0    0    0  0.00000000000E+00  0.00000000000E+00  0.45593999997E+02  0.45594000000E+02  0.51100000000E-03 0. -1.
         11   -1    0    0    0    0 -0.00000000000E+00 -0.00000000000E+00 -0.45593999997E+02  0.45594000000E+02  0.51100000000E-03 0.  1.
    9900012    2    1    2    0    0 -0.83642542068E+01 -0.22950875503E+02 -0.20494303596E+02  0.59301954233E+02  0.50000018612E+02 0.  0.
         12    1    1    2    0    0  0.83642542068E+01  0.22950875503E+02  0.20494303596E+02  0.31886045767E+02  0.00000000000E+00 0. -1.
         11    1    3    3    0    0 -0.36254065261E+01 -0.70125478032E+01  0.14362811638E+02  0.16389318399E+02  0.51100000000E-03 0. -1.
        -11    1    3    3    0    0  0.10890445687E+01  0.27240416943E+01  0.15026198292E-01  0.29337087914E+01  0.51100000000E-03 0.  1.
        -12    1    3    3    0    0 -0.58278922493E+01 -0.18662369394E+02 -0.34872141432E+02  0.39978927043E+02  0.00000000000E+00 0.  1.
</event>
<event>
 7    1  0.5662448E-012  0.5930195E+02  0.7816164E-02  0.1266605E+00
        -11   -1    0    0    0    0  0.00000000000E+00  0.00000000000E+00  0.45593999997E+02  0.45594000000E+02  0.51100000000E-03 0. -1.
         11   -1    0    0    0    0 -0.00000000000E+00 -0.00000000000E+00 -0.45593999997E+02  0.45594000000E+02  0.51100000000E-03 0.  1.
    9900012    2    1    2    0    0 -0.28226513522E+02  0.29999472256E+01 -0.14525309230E+02  0.59301947293E+02  0.50000005955E+02 0.  0.
         12    1    1    2    0    0  0.28226513522E+02 -0.29999472256E+01  0.14525309230E+02  0.31886052707E+02  0.00000000000E+00 0. -1.
         11    1    3    3    0    0  0.50479208428E+01  0.18648727377E+02 -0.24139974507E+01  0.19470077596E+02  0.51100000000E-03 0. -1.
        -11    1    3    3    0    0 -0.13108842754E+02 -0.11082616993E+02 -0.69641651556E+01  0.18524733583E+02  0.51100000000E-03 0.  1.
        -12    1    3    3    0    0 -0.20165591611E+02 -0.45661631592E+01 -0.51471466242E+01  0.21307136115E+02  0.00000000000E+00 0.  1.
</event>
<event>
 7    1  0.5662448E-012  0.5930195E+02  0.7816164E-02  0.1266605E+00
        -11   -1    0    0    0    0  0.00000000000E+00  0.00000000000E+00  0.45593999997E+02  0.45594000000E+02  0.51100000000E-03 0.  1.
         11   -1    0    0    0    0 -0.00000000000E+00 -0.00000000000E+00 -0.45593999997E+02  0.45594000000E+02  0.51100000000E-03 0. -1.
    9900012    2    1    2    0    0 -0.35530241136E+01  0.24353068822E+02 -0.20273740165E+02  0.59301945342E+02  0.50000002396E+02 0.  0.
         12    1    1    2    0    0  0.35530241136E+01 -0.24353068822E+02  0.20273740165E+02  0.31886054658E+02  0.00000000000E+00 0. -1.
         11    1    3    3    0    0 -0.29916764111E+01  0.28909487383E+02 -0.21698224131E+02  0.36270118820E+02  0.51100000000E-03 0. -1.
        -11    1    3    3    0    0 -0.50908184526E+01  0.76346896103E+01 -0.23827896548E+01  0.94806436892E+01  0.51100000000E-03 0.  1.
        -12    1    3    3    0    0  0.45294707501E+01 -0.12191108171E+02  0.38072736215E+01  0.13551182832E+02  0.00000000000E+00 0.  1.
</event>
<event>
 7    1  0.5662448E-012  0.5930194E+02  0.7816164E-02  0.1266605E+00
        -11   -1    0    0    0    0  0.00000000000E+00  0.00000000000E+00  0.45593999997E+02  0.45594000000E+02  0.51100000000E-03 0. -1.
         11   -1    0    0    0    0 -0.00000000000E+00 -0.00000000000E+00 -0.45593999997E+02  0.45594000000E+02  0.51100000000E-03 0.  1.
    9900012    2    1    2    0    0 -0.15145198901E+01 -0.31300823822E+02  0.58894272907E+01  0.59301941977E+02  0.49999996259E+02 0.  0.
         12    1    1    2    0    0  0.15145198901E+01  0.31300823822E+02 -0.58894272907E+01  0.31886058023E+02  0.00000000000E+00 0. -1.
         11    1    3    3    0    0  0.14244630041E+02 -0.21377339225E+02 -0.27777607627E+01  0.25838267597E+02  0.51100000000E-03 0. -1.
        -11    1    3    3    0    0 -0.49379450618E+01 -0.14574128117E+02 -0.42686429981E+01  0.15969027056E+02  0.51100000000E-03 0.  1.
         12    1    3    3    0    0 -0.10821204869E+02  0.46506435198E+01  0.12935831052E+02  0.17494647323E+02  0.00000000000E+00 0. -1.
</event>
<event>
 7    1  0.5662448E-012  0.5930195E+02  0.7816164E-02  0.1266605E+00
        -11   -1    0    0    0    0  0.00000000000E+00  0.00000000000E+00  0.45593999997E+02  0.45594000000E+02  0.51100000000E-03 0.  1.
         11   -1    0    0    0    0 -0.00000000000E+00 -0.00000000000E+00 -0.45593999997E+02  0.45594000000E+02  0.51100000000E-03 0. -1.
    9900012    2    1    2    0    0 -0.34375745794E+01  0.27905439036E+02 -0.15039614603E+02  0.59301945773E+02  0.50000003182E+02 0.  0.
         12    1    1    2    0    0  0.34375745794E+01 -0.27905439036E+02  0.15039614603E+02  0.31886054227E+02  0.00000000000E+00 0. -1.
         11    1    3    3    0    0 -0.62423482339E+01 -0.59834713748E+01  0.76409337041E+01  0.11539181483E+02  0.51100000000E-03 0. -1.
        -11    1    3    3    0    0  0.37338098358E+01  0.15582403369E+01  0.41078106232E+01  0.57657226099E+01  0.51100000000E-03 0.  1.
        -12    1    3    3    0    0 -0.92903618127E+00  0.32330670074E+02 -0.26788358930E+02  0.41997041680E+02  0.00000000000E+00 0.  1.
</event>
<event>
 7    1  0.5662448E-012  0.5930190E+02  0.7816164E-02  0.1266605E+00
        -11   -1    0    0    0    0  0.00000000000E+00  0.00000000000E+00  0.45593999997E+02  0.45594000000E+02  0.51100000000E-03 0. -1.
         11   -1    0    0    0    0 -0.00000000000E+00 -0.00000000000E+00 -0.45593999997E+02  0.45594000000E+02  0.51100000000E-03 0.  1.
    9900012    2    1    2    0    0  0.24275431032E+02 -0.16260530581E+02 -0.12768005330E+02  0.59301900103E+02  0.49999919892E+02 0.  0.
         12    1    1    2    0    0 -0.24275431032E+02  0.16260530581E+02  0.12768005330E+02  0.31886099897E+02  0.00000000000E+00 0. -1.
         11    1    3    3    0    0  0.46059259639E+01 -0.10657382789E+02  0.40908080347E+01  0.12309714559E+02  0.51100000000E-03 0. -1.
        -11    1    3    3    0    0 -0.35314063000E+01 -0.52112499639E+01  0.98009518585E+01  0.11648459737E+02  0.51100000000E-03 0.  1.
         12    1    3    3    0    0  0.23200911368E+02 -0.39189782877E+00 -0.26659765223E+02  0.35343725807E+02  0.00000000000E+00 0. -1.
</event>
<event>
 7    1  0.5662448E-012  0.5930195E+02  0.7816164E-02  0.1266605E+00
        -11   -1    0    0    0    0  0.00000000000E+00  0.00000000000E+00  0.45593999997E+02  0.45594000000E+02  0.51100000000E-03 0. -1.
         11   -1    0    0    0    0 -0.00000000000E+00 -0.00000000000E+00 -0.45593999997E+02  0.45594000000E+02  0.51100000000E-03 0.  1.
    9900012    2    1    2    0    0  0.10441687687E+02  0.29595606601E+02 -0.56383949979E+01  0.59301948661E+02  0.50000008450E+02 0.  0.
         12    1    1    2    0    0 -0.10441687687E+02 -0.29595606601E+02  0.56383949979E+01  0.31886051339E+02  0.00000000000E+00 0. -1.
         11    1    3    3    0    0 -0.66720406829E+01  0.13768984347E+01 -0.44985783546E+01  0.81638951272E+01  0.51100000000E-03 0. -1.
        -11    1    3    3    0    0  0.14635035882E+01  0.96122428185E+01 -0.18747409607E+02  0.21118769424E+02  0.51100000000E-03 0.  1.
         12    1    3    3    0    0  0.15650224782E+02  0.18606465348E+02  0.17607592964E+02  0.30019284110E+02  0.00000000000E+00 0. -1.
</event>
<event>
 7    1  0.5662448E-012  0.5930195E+02  0.7816164E-02  0.1266605E+00
        -11   -1    0    0    0    0  0.00000000000E+00  0.00000000000E+00  0.45593999997E+02  0.45594000000E+02  0.51100000000E-03 0. -1.
         11   -1    0    0    0    0 -0.00000000000E+00 -0.00000000000E+00 -0.45593999997E+02  0.45594000000E+02  0.51100000000E-03 0.  1.
    9900012    2    1    2    0    0 -0.16625493269E+02  0.43671170366E+00 -0.27205185909E+02  0.59301954715E+02  0.50000019492E+02 0.  0.
         12    1    1    2    0    0  0.16625493269E+02 -0.43671170366E+00  0.27205185909E+02  0.31886045285E+02  0.00000000000E+00 0. -1.
         11    1    3    3    0    0  0.22220619052E+01 -0.24325650736E+01  0.63324103346E+01  0.71382317736E+01  0.51100000000E-03 0. -1.
        -11    1    3    3    0    0 -0.35682835383E+01 -0.12132583788E+02 -0.32969423431E+00  0.12650728649E+02  0.51100000000E-03 0.  1.
        -12    1    3    3    0    0 -0.15279271636E+02  0.15001860566E+02 -0.33207902009E+02  0.39512994293E+02  0.00000000000E+00 0.  1.
</event>
<event>
 7    1  0.5662448E-012  0.5930195E+02  0.7816164E-02  0.1266605E+00
        -11   -1    0    0    0    0  0.00000000000E+00  0.00000000000E+00  0.45593999997E+02  0.45594000000E+02  0.51100000000E-03 0.  1.
         11   -1    0    0    0    0 -0.00000000000E+00 -0.00000000000E+00 -0.45593999997E+02  0.45594000000E+02  0.51100000000E-03 0. -1.
    9900012    2    1    2    0    0 -0.12352118962E-01  0.13503967983E+02  0.28885341846E+02  0.59301948544E+02  0.50000008237E+02 0.  0.
         12    1    1    2    0    0  0.12352118962E-01 -0.13503967983E+02 -0.28885341846E+02  0.31886051456E+02  0.00000000000E+00 0. -1.
         11    1    3    3    0    0 -0.12870069180E+01  0.80872539448E+01  0.37204195455E+01  0.89945308399E+01  0.51100000000E-03 0. -1.
        -11    1    3    3    0    0  0.32205744593E+01  0.19973206695E+02  0.28783450205E+02  0.35182212715E+02  0.51100000000E-03 0.  1.
         12    1    3    3    0    0 -0.19459196603E+01 -0.14556492656E+02 -0.36185279048E+01  0.15125204990E+02  0.00000000000E+00 0. -1.
</event>
<event>
 7    1  0.5662448E-012  0.5930194E+02  0.7816164E-02  0.1266605E+00
        -11   -1    0    0    0    0  0.00000000000E+00  0.00000000000E+00  0.45593999997E+02  0.45594000000E+02  0.51100000000E-03 0. -1.
         11   -1    0    0    0    0 -0.00000000000E+00 -0.00000000000E+00 -0.45593999997E+02  0.45594000000E+02  0.51100000000E-03 0.  1.
    9900012    2    1    2    0    0  0.12459512783E+02 -0.14246703408E+02 -0.25661499004E+02  0.59301944303E+02  0.50000000502E+02 0.  0.
         12    1    1    2    0    0 -0.12459512783E+02  0.14246703408E+02  0.25661499004E+02  0.31886055697E+02  0.00000000000E+00 0. -1.
         11    1    3    3    0    0  0.54983663308E+01  0.56673566794E+01 -0.24075152746E+02  0.25337007401E+02  0.51100000000E-03 0. -1.
        -11    1    3    3    0    0  0.40706477601E+01  0.34259398741E+01 -0.79818464322E+01  0.95925549222E+01  0.51100000000E-03 0.  1.
         12    1    3    3    0    0  0.28904986926E+01 -0.23339999961E+02  0.63955001745E+01  0.24372381980E+02  0.00000000000E+00 0. -1.
</event>
<event>
 7    1  0.5662448E-012  0.5930196E+02  0.7816164E-02  0.1266605E+00
        -11   -1    0    0    0    0  0.00000000000E+00  0.00000000000E+00  0.45593999997E+02  0.45594000000E+02  0.51100000000E-03 0. -1.
         11   -1    0    0    0    0 -0.00000000000E+00 -0.00000000000E+00 -0.45593999997E+02  0.45594000000E+02  0.51100000000E-03 0.  1.
    9900012    2    1    2    0    0 -0.56545021989E+01 -0.23539489039E+02 -0.20751829918E+02  0.59301962550E+02  0.50000033781E+02 0.  0.
         12    1    1    2    0    0  0.56545021989E+01  0.23539489039E+02  0.20751829918E+02  0.31886037450E+02  0.00000000000E+00 0. -1.
         11    1    3    3    0    0 -0.49667762549E+01 -0.12652798660E+02  0.46939685236E+01  0.14380386680E+02  0.51100000000E-03 0. -1.
        -11    1    3    3    0    0  0.92001569071E+01 -0.44932452718E+01  0.56336874615E+01  0.11686341381E+02  0.51100000000E-03 0.  1.
        -12    1    3    3    0    0 -0.98878828511E+01 -0.63934451065E+01 -0.31079485903E+02  0.33235234490E+02  0.00000000000E+00 0.  1.
</event>
<event>
 7    1  0.5662448E-012  0.5930196E+02  0.7816164E-02  0.1266605E+00
        -11   -1    0    0    0    0  0.00000000000E+00  0.00000000000E+00  0.45593999997E+02  0.45594000000E+02  0.51100000000E-03 0.  1.
         11   -1    0    0    0    0 -0.00000000000E+00 -0.00000000000E+00 -0.45593999997E+02  0.45594000000E+02  0.51100000000E-03 0. -1.
    9900012    2    1    2    0    0 -0.85596482601E+01 -0.25953733323E+02  0.16427284983E+02  0.59301960050E+02  0.50000029221E+02 0.  0.
         12    1    1    2    0    0  0.85596482601E+01  0.25953733323E+02 -0.16427284983E+02  0.31886039950E+02  0.00000000000E+00 0. -1.
         11    1    3    3    0    0 -0.14886903831E+02 -0.65774506221E+01 -0.10830598019E+02  0.19549542605E+02  0.51100000000E-03 0. -1.
        -11    1    3    3    0    0  0.82438184548E+01  0.33832232086E+00  0.12803308399E+02  0.15231536722E+02  0.51100000000E-03 0.  1.
        -12    1    3    3    0    0 -0.19165628838E+01 -0.19714605022E+02  0.14454574603E+02  0.24520880723E+02  0.00000000000E+00 0.  1.
</event>
<event>
 7    1  0.5662448E-012  0.5930194E+02  0.7816164E-02  0.1266605E+00
        -11   -1    0    0    0    0  0.00000000000E+00  0.00000000000E+00  0.45593999997E+02  0.45594000000E+02  0.51100000000E-03 0. -1.
         11   -1    0    0    0    0 -0.00000000000E+00 -0.00000000000E+00 -0.45593999997E+02  0.45594000000E+02  0.51100000000E-03 0.  1.
    9900012    2    1    2    0    0 -0.19947224946E+02  0.24773158095E+02  0.22626173423E+01  0.59301943765E+02  0.49999999520E+02 0.  0.
         12    1    1    2    0    0  0.19947224946E+02 -0.24773158095E+02 -0.22626173423E+01  0.31886056235E+02  0.00000000000E+00 0. -1.
         11    1    3    3    0    0  0.73097304697E+00 -0.46431867189E+01  0.18425790603E+01  0.50486238082E+01  0.51100000000E-03 0. -1.
        -11    1    3    3    0    0  0.10615666220E+01 -0.27511917573E+01 -0.12880256007E+02  0.13213514856E+02  0.51100000000E-03 0.  1.
        -12    1    3    3    0    0 -0.21739764615E+02  0.32167536571E+02  0.13300294289E+02  0.41039805101E+02  0.00000000000E+00 0.  1.
</event>
<event>
 7    1  0.5662448E-012  0.5930192E+02  0.7816164E-02  0.1266605E+00
        -11   -1    0    0    0    0  0.00000000000E+00  0.00000000000E+00  0.45593999997E+02  0.45594000000E+02  0.51100000000E-03 0.  1.
         11   -1    0    0    0    0 -0.00000000000E+00 -0.00000000000E+00 -0.45593999997E+02  0.45594000000E+02  0.51100000000E-03 0. -1.
    9900012    2    1    2    0    0  0.21545984259E+02 -0.18512759698E+02  0.14483454738E+02  0.59301918860E+02  0.49999954100E+02 0.  0.
         12    1    1    2    0    0 -0.21545984259E+02  0.18512759698E+02 -0.14483454738E+02  0.31886081140E+02  0.00000000000E+00 0. -1.
         11    1    3    3    0    0  0.17276107688E+02 -0.23077552239E+01  0.66077359997E+01  0.18640059183E+02  0.51100000000E-03 0. -1.
        -11    1    3    3    0    0  0.15711259937E+02 -0.92689971203E+01  0.16620554905E+02  0.24677942419E+02  0.51100000000E-03 0.  1.
         12    1    3    3    0    0 -0.11441383366E+02 -0.69360073537E+01 -0.87448361671E+01  0.15983917258E+02  0.00000000000E+00 0. -1.
</event>
<event>
 7    1  0.5662448E-012  0.5930196E+02  0.7816164E-02  0.1266605E+00
        -11   -1    0    0    0    0  0.00000000000E+00  0.00000000000E+00  0.45593999997E+02  0.45594000000E+02  0.51100000000E-03 0. -1.
         11   -1    0    0    0    0 -0.00000000000E+00 -0.00000000000E+00 -0.45593999997E+02  0.45594000000E+02  0.51100000000E-03 0.  1.
    9900012    2    1    2    0    0 -0.44810981382E+01  0.31088059617E+02 -0.54928856653E+01  0.59301960983E+02  0.50000030923E+02 0.  0.
         12    1    1    2    0    0  0.44810981382E+01 -0.31088059617E+02  0.54928856653E+01  0.31886039017E+02  0.00000000000E+00 0. -1.
         11    1    3    3    0    0  0.94654127284E+01  0.14443795498E+02 -0.42978199909E+01  0.17795744532E+02  0.51100000000E-03 0. -1.
        -11    1    3    3    0    0  0.16699754673E+01  0.16880203151E+02 -0.13454839935E+02  0.21650930566E+02  0.51100000000E-03 0.  1.
        -12    1    3    3    0    0 -0.15616486334E+02 -0.23593903232E+00  0.12259774260E+02  0.19855285885E+02  0.00000000000E+00 0.  1.
</event>
<event>
 7    1  0.5662448E-012  0.5930193E+02  0.7816164E-02  0.1266605E+00
        -11   -1    0    0    0    0  0.00000000000E+00  0.00000000000E+00  0.45593999997E+02  0.45594000000E+02  0.51100000000E-03 0.  1.
         11   -1    0    0    0    0 -0.00000000000E+00 -0.00000000000E+00 -0.45593999997E+02  0.45594000000E+02  0.51100000000E-03 0. -1.
    9900012    2    1    2    0    0  0.26285277413E+02 -0.83987193846E+01  0.15977086946E+02  0.59301927754E+02  0.49999970321E+02 0.  0.
         12    1    1    2    0    0 -0.26285277413E+02  0.83987193846E+01 -0.15977086946E+02  0.31886072246E+02  0.00000000000E+00 0. -1.
         11    1    3    3    0    0  0.18555097675E+02 -0.97515311589E+01  0.30247906344E+02  0.36801084877E+02  0.51100000000E-03 0.  1.
        -11    1    3    3    0    0 -0.46343140378E+01  0.18873189547E+01 -0.36722316039E+01  0.62067805384E+01  0.51100000000E-03 0. -1.
        -12    1    3    3    0    0  0.12364493776E+02 -0.53450718032E+00 -0.10598587794E+02  0.16294062339E+02  0.00000000000E+00 0.  1.
</event>
<event>
 7    1  0.5662448E-012  0.5930189E+02  0.7816164E-02  0.1266605E+00
        -11   -1    0    0    0    0  0.00000000000E+00  0.00000000000E+00  0.45593999997E+02  0.45594000000E+02  0.51100000000E-03 0.  1.
         11   -1    0    0    0    0 -0.00000000000E+00 -0.00000000000E+00 -0.45593999997E+02  0.45594000000E+02  0.51100000000E-03 0. -1.
    9900012    2    1    2    0    0  0.26931358692E+02  0.16346015767E+02 -0.49227863920E+01  0.59301888002E+02  0.49999897823E+02 0.  0.
         12    1    1    2    0    0 -0.26931358692E+02 -0.16346015767E+02  0.49227863920E+01  0.31886111998E+02  0.00000000000E+00 0. -1.
         11    1    3    3    0    0  0.10865830112E+02 -0.48993983114E+01 -0.99373921644E+01  0.15518444868E+02  0.51100000000E-03 0. -1.
        -11    1    3    3    0    0  0.22104292120E+02  0.18821333043E+02 -0.72288492117E+01  0.29918197955E+02  0.51100000000E-03 0.  1.
        -12    1    3    3    0    0 -0.60387635398E+01  0.24240810348E+01  0.12243454984E+02  0.13865245180E+02  0.00000000000E+00 0.  1.
</event>
<event>
 7    1  0.5662448E-012  0.5930195E+02  0.7816164E-02  0.1266605E+00
        -11   -1    0    0    0    0  0.00000000000E+00  0.00000000000E+00  0.45593999997E+02  0.45594000000E+02  0.51100000000E-03 0. -1.
         11   -1    0    0    0    0 -0.00000000000E+00 -0.00000000000E+00 -0.45593999997E+02  0.45594000000E+02  0.51100000000E-03 0.  1.
    9900012    2    1    2    0    0  0.11709604796E+02 -0.21673627892E+02 -0.20244974178E+02  0.59301953366E+02  0.50000017031E+02 0.  0.
         12    1    1    2    0    0 -0.11709604796E+02  0.21673627892E+02  0.20244974178E+02  0.31886046634E+02  0.00000000000E+00 0. -1.
         11    1    3    3    0    0 -0.13065046472E+02  0.91948004922E+00 -0.38141220786E+01  0.13641422594E+02  0.51100000000E-03 0. -1.
        -11    1    3    3    0    0  0.77514193875E+01 -0.10396924028E+01  0.62733487301E+01  0.10025984608E+02  0.51100000000E-03 0.  1.
        -12    1    3    3    0    0  0.17023231881E+02 -0.21553415538E+02 -0.22704200829E+02  0.35634546164E+02  0.00000000000E+00 0.  1.
</event>
<event>
 7    1  0.5662448E-012  0.5930196E+02  0.7816164E-02  0.1266605E+00
        -11   -1    0    0    0    0  0.00000000000E+00  0.00000000000E+00  0.45593999997E+02  0.45594000000E+02  0.51100000000E-03 0.  1.
         11   -1    0    0    0    0 -0.00000000000E+00 -0.00000000000E+00 -0.45593999997E+02  0.45594000000E+02  0.51100000000E-03 0. -1.
    9900012    2    1    2    0    0 -0.26561584526E+02 -0.10201057375E+02  0.14392373568E+02  0.59301956642E+02  0.50000023005E+02 0.  0.
         12    1    1    2    0    0  0.26561584526E+02  0.10201057375E+02 -0.14392373568E+02  0.31886043358E+02  0.00000000000E+00 0. -1.
         11    1    3    3    0    0 -0.21157001268E+02  0.10545372026E+02  0.75355653044E+01  0.24811455389E+02  0.51100000000E-03 0. -1.
        -11    1    3    3    0    0  0.27467662036E+01  0.46865781611E+01 -0.27743217375E+01  0.60996393993E+01  0.51100000000E-03 0.  1.
        -12    1    3    3    0    0 -0.81513494614E+01 -0.25433007562E+02  0.96311300015E+01  0.28390861853E+02  0.00000000000E+00 0.  1.
</event>
<event>
 7    1  0.5662448E-012  0.5930198E+02  0.7816164E-02  0.1266605E+00
        -11   -1    0    0    0    0  0.00000000000E+00  0.00000000000E+00  0.45593999997E+02  0.45594000000E+02  0.51100000000E-03 0. -1.
         11   -1    0    0    0    0 -0.00000000000E+00 -0.00000000000E+00 -0.45593999997E+02  0.45594000000E+02  0.51100000000E-03 0.  1.
    9900012    2    1    2    0    0  0.12850515155E+02  0.39880524768E+01 -0.28908095833E+02  0.59301979443E+02  0.50000064589E+02 0.  0.
         12    1    1    2    0    0 -0.12850515155E+02 -0.39880524768E+01  0.28908095833E+02  0.31886020557E+02  0.00000000000E+00 0. -1.
         11    1    3    3    0    0  0.11820737067E+02 -0.29724522924E+01 -0.29343959947E+01  0.12536984388E+02  0.51100000000E-03 0. -1.
        -11    1    3    3    0    0 -0.10144895467E+02  0.18687902510E+02 -0.20836324996E+02  0.29770942946E+02  0.51100000000E-03 0.  1.
         12    1    3    3    0    0  0.11174673555E+02 -0.11727397741E+02 -0.51373748417E+01  0.16994052109E+02  0.00000000000E+00 0. -1.
</event>
<event>
 7    1  0.5662448E-012  0.5930203E+02  0.7816164E-02  0.1266604E+00
        -11   -1    0    0    0    0  0.00000000000E+00  0.00000000000E+00  0.45593999997E+02  0.45594000000E+02  0.51100000000E-03 0.  1.
         11   -1    0    0    0    0 -0.00000000000E+00 -0.00000000000E+00 -0.45593999997E+02  0.45594000000E+02  0.51100000000E-03 0. -1.
    9900012    2    1    2    0    0 -0.32409386274E+01 -0.27321199387E+02  0.16117169637E+02  0.59302034808E+02  0.50000165561E+02 0.  0.
         12    1    1    2    0    0  0.32409386274E+01  0.27321199387E+02 -0.16117169637E+02  0.31885965192E+02  0.00000000000E+00 0. -1.
         11    1    3    3    0    0 -0.44894077384E+00 -0.11375223827E+02  0.16258118265E+02  0.19847510543E+02  0.51100000000E-03 0.  1.
        -11    1    3    3    0    0 -0.14930309751E+02 -0.21144892898E+02  0.24411572475E+01  0.25999613342E+02  0.51100000000E-03 0. -1.
         12    1    3    3    0    0  0.12138311897E+02  0.51989173391E+01 -0.25821058757E+01  0.13454910924E+02  0.00000000000E+00 0. -1.
</event>
<event>
 7    1  0.5662448E-012  0.5930197E+02  0.7816164E-02  0.1266605E+00
        -11   -1    0    0    0    0  0.00000000000E+00  0.00000000000E+00  0.45593999997E+02  0.45594000000E+02  0.51100000000E-03 0. -1.
         11   -1    0    0    0    0 -0.00000000000E+00 -0.00000000000E+00 -0.45593999997E+02  0.45594000000E+02  0.51100000000E-03 0.  1.
    9900012    2    1    2    0    0  0.13124109837E+02 -0.21405007829E+02  0.19654575581E+02  0.59301969196E+02  0.50000045901E+02 0.  0.
         12    1    1    2    0    0 -0.13124109837E+02  0.21405007829E+02 -0.19654575581E+02  0.31886030804E+02  0.00000000000E+00 0. -1.
         11    1    3    3    0    0  0.24228247541E+02 -0.16045081946E+02  0.26523511018E+02  0.39343986460E+02  0.51100000000E-03 0. -1.
        -11    1    3    3    0    0  0.32839220629E+01 -0.16761758522E+01 -0.25764546722E+01  0.44979804960E+01  0.51100000000E-03 0.  1.
         12    1    3    3    0    0 -0.14388059767E+02 -0.36837500301E+01 -0.42924807647E+01  0.15460002240E+02  0.00000000000E+00 0. -1.
</event>
<event>
 7    1  0.5662448E-012  0.5930202E+02  0.7816164E-02  0.1266605E+00
        -11   -1    0    0    0    0  0.00000000000E+00  0.00000000000E+00  0.45593999997E+02  0.45594000000E+02  0.51100000000E-03 0.  1.
         11   -1    0    0    0    0 -0.00000000000E+00 -0.00000000000E+00 -0.45593999997E+02  0.45594000000E+02  0.51100000000E-03 0. -1.
    9900012    2    1    2    0    0  0.21072447692E+02 -0.96603542058E+01  0.21893958472E+02  0.59302016988E+02  0.50000133061E+02 0.  0.
         12    1    1    2    0    0 -0.21072447692E+02  0.96603542058E+01 -0.21893958472E+02  0.31885983012E+02  0.00000000000E+00 0. -1.
         11    1    3    3    0    0  0.40679768132E+01  0.75242380692E+01 -0.69764274923E+01  0.11037804795E+02  0.51100000000E-03 0. -1.
        -11    1    3    3    0    0 -0.79109394419E+01 -0.42425574923E+01  0.13623729178E+02  0.16315276703E+02  0.51100000000E-03 0.  1.
        -12    1    3    3    0    0  0.24915410321E+02 -0.12942034783E+02  0.15246656786E+02  0.31948935490E+02  0.00000000000E+00 0.  1.
</event>
<event>
 7    1  0.5662448E-012  0.5930191E+02  0.7816164E-02  0.1266605E+00
        -11   -1    0    0    0    0  0.00000000000E+00  0.00000000000E+00  0.45593999997E+02  0.45594000000E+02  0.51100000000E-03 0.  1.
         11   -1    0    0    0    0 -0.00000000000E+00 -0.00000000000E+00 -0.45593999997E+02  0.45594000000E+02  0.51100000000E-03 0. -1.
    9900012    2    1    2    0    0  0.11301873172E+02 -0.50060590927E+01  0.29392681263E+02  0.59301910922E+02  0.49999939624E+02 0.  0.
         12    1    1    2    0    0 -0.11301873172E+02  0.50060590927E+01 -0.29392681263E+02  0.31886089078E+02  0.00000000000E+00 0. -1.
         11    1    3    3    0    0 -0.91034476279E+01  0.15672931854E+01  0.85578405487E+01  0.12592291363E+02  0.51100000000E-03 0. -1.
        -11    1    3    3    0    0 -0.46821769183E+01 -0.53418176582E+01  0.20385768340E+02  0.21587898176E+02  0.51100000000E-03 0.  1.
         12    1    3    3    0    0  0.25087497718E+02 -0.12315346199E+01  0.44907237420E+00  0.25121721383E+02  0.00000000000E+00 0. -1.
</event>
<event>
 7    1  0.5662448E-012  0.5930187E+02  0.7816164E-02  0.1266605E+00
        -11   -1    0    0    0    0  0.00000000000E+00  0.00000000000E+00  0.45593999997E+02  0.45594000000E+02  0.51100000000E-03 0. -1.
         11   -1    0    0    0    0 -0.00000000000E+00 -0.00000000000E+00 -0.45593999997E+02  0.45594000000E+02  0.51100000000E-03 0.  1.
    9900012    2    1    2    0    0  0.69947848344E+01 -0.16522155796E+02 -0.26359377439E+02  0.59301867811E+02  0.49999860999E+02 0.  0.
         12    1    1    2    0    0 -0.69947848344E+01  0.16522155796E+02  0.26359377439E+02  0.31886132189E+02  0.00000000000E+00 0. -1.
         11    1    3    3    0    0  0.10986482982E+02  0.31819069743E+01  0.20227993137E+01  0.11615466311E+02  0.51100000000E-03 0. -1.
        -11    1    3    3    0    0  0.75502185665E+01  0.57987286224E+01 -0.11759367396E+02  0.15129896756E+02  0.51100000000E-03 0.  1.
         12    1    3    3    0    0 -0.11541916714E+02 -0.25502791392E+02 -0.16622809357E+02  0.32556504744E+02  0.00000000000E+00 0. -1.
</event>
<event>
 7    1  0.5662448E-012  0.5930195E+02  0.7816164E-02  0.1266605E+00
        -11   -1    0    0    0    0  0.00000000000E+00  0.00000000000E+00  0.45593999997E+02  0.45594000000E+02  0.51100000000E-03 0.  1.
         11   -1    0    0    0    0 -0.00000000000E+00 -0.00000000000E+00 -0.45593999997E+02  0.45594000000E+02  0.51100000000E-03 0. -1.
    9900012    2    1    2    0    0  0.13403738471E+02 -0.24905033300E+02  0.14724104211E+02  0.59301950802E+02  0.50000012354E+02 0.  0.
         12    1    1    2    0    0 -0.13403738471E+02  0.24905033300E+02 -0.14724104211E+02  0.31886049198E+02  0.00000000000E+00 0. -1.
         11    1    3    3    0    0  0.11039461372E+02 -0.18788514965E+01  0.15251977907E+02  0.18921485688E+02  0.51100000000E-03 0. -1.
        -11    1    3    3    0    0 -0.21666507295E+01 -0.21192083869E+02  0.13705860988E+02  0.25330799825E+02  0.51100000000E-03 0.  1.
         12    1    3    3    0    0  0.45309278288E+01 -0.18340979343E+01 -0.14233734684E+02  0.15049665288E+02  0.00000000000E+00 0. -1.
</event>
<event>
 7    1  0.5662448E-012  0.5930196E+02  0.7816164E-02  0.1266605E+00
        -11   -1    0    0    0    0  0.00000000000E+00  0.00000000000E+00  0.45593999997E+02  0.45594000000E+02  0.51100000000E-03 0.  1.
         11   -1    0    0    0    0 -0.00000000000E+00 -0.00000000000E+00 -0.45593999997E+02  0.45594000000E+02  0.51100000000E-03 0. -1.
    9900012    2    1    2    0    0 -0.81635310398E+01  0.27349207698E+02  0.14216095519E+02  0.59301956462E+02  0.50000022676E+02 0.  0.
         12    1    1    2    0    0  0.81635310398E+01 -0.27349207698E+02 -0.14216095519E+02  0.31886043538E+02  0.00000000000E+00 0. -1.
         11    1    3    3    0    0 -0.11277729982E+02  0.87933829548E+01  0.91789212193E+01  0.16993038938E+02  0.51100000000E-03 0. -1.
        -11    1    3    3    0    0 -0.10626841334E+02  0.45998446217E+01 -0.11762231286E+02  0.16505708478E+02  0.51100000000E-03 0.  1.
        -12    1    3    3    0    0  0.13741040276E+02  0.13955980121E+02  0.16799405586E+02  0.25803209045E+02  0.00000000000E+00 0.  1.
</event>
<event>
 7    1  0.5662448E-012  0.5930197E+02  0.7816164E-02  0.1266605E+00
        -11   -1    0    0    0    0  0.00000000000E+00  0.00000000000E+00  0.45593999997E+02  0.45594000000E+02  0.51100000000E-03 0.  1.
         11   -1    0    0    0    0 -0.00000000000E+00 -0.00000000000E+00 -0.45593999997E+02  0.45594000000E+02  0.51100000000E-03 0. -1.
    9900012    2    1    2    0    0  0.19642604629E+02  0.13928504461E+02  0.20901759974E+02  0.59301972917E+02  0.50000052687E+02 0.  0.
         12    1    1    2    0    0 -0.19642604629E+02 -0.13928504461E+02 -0.20901759974E+02  0.31886027083E+02  0.00000000000E+00 0. -1.
         11    1    3    3    0    0  0.10940530337E+02  0.49792778863E+01 -0.96235559534E+01  0.15398092147E+02  0.51100000000E-03 0. -1.
        -11    1    3    3    0    0 -0.98460050051E+01  0.65590805666E+01  0.66348547801E+01  0.13564167894E+02  0.51100000000E-03 0.  1.
        -12    1    3    3    0    0  0.18548079298E+02  0.23901460078E+01  0.23890461147E+02  0.30339712876E+02  0.00000000000E+00 0.  1.
</event>
<event>
 7    1  0.5662448E-012  0.5930198E+02  0.7816164E-02  0.1266605E+00
        -11   -1    0    0    0    0  0.00000000000E+00  0.00000000000E+00  0.45593999997E+02  0.45594000000E+02  0.51100000000E-03 0.  1.
         11   -1    0    0    0    0 -0.00000000000E+00 -0.00000000000E+00 -0.45593999997E+02  0.45594000000E+02  0.51100000000E-03 0. -1.
    9900012    2    1    2    0    0  0.17904682055E+02 -0.13975669123E+02  0.22379032626E+02  0.59301983187E+02  0.50000071417E+02 0.  0.
         12    1    1    2    0    0 -0.17904682055E+02  0.13975669123E+02 -0.22379032626E+02  0.31886016813E+02  0.00000000000E+00 0. -1.
         11    1    3    3    0    0  0.88359880676E+01  0.16750571957E+01 -0.49090622034E+01  0.10245945233E+02  0.51100000000E-03 0. -1.
        -11    1    3    3    0    0  0.62726840877E+01  0.11698444412E+02  0.89335118197E+01  0.16000243780E+02  0.51100000000E-03 0.  1.
        -12    1    3    3    0    0  0.27960099001E+01 -0.27349170730E+02  0.18354583010E+02  0.33055794174E+02  0.00000000000E+00 0.  1.
</event>
<event>
 7    1  0.5662448E-012  0.5930197E+02  0.7816164E-02  0.1266605E+00
        -11   -1    0    0    0    0  0.00000000000E+00  0.00000000000E+00  0.45593999997E+02  0.45594000000E+02  0.51100000000E-03 0.  1.
         11   -1    0    0    0    0 -0.00000000000E+00 -0.00000000000E+00 -0.45593999997E+02  0.45594000000E+02  0.51100000000E-03 0. -1.
    9900012    2    1    2    0    0  0.12177565313E+02  0.27572835865E+02 -0.10400211041E+02  0.59301972272E+02  0.50000051510E+02 0.  0.
         12    1    1    2    0    0 -0.12177565313E+02 -0.27572835865E+02  0.10400211041E+02  0.31886027728E+02  0.00000000000E+00 0. -1.
         11    1    3    3    0    0  0.67169210403E+01 -0.58612077708E+01 -0.28554356099E+01  0.93607850941E+01  0.51100000000E-03 0. -1.
        -11    1    3    3    0    0  0.80150618204E+00  0.23913876101E+02  0.12700599989E+02  0.27089132926E+02  0.51100000000E-03 0.  1.
         12    1    3    3    0    0  0.46591380908E+01  0.95201675346E+01 -0.20245375419E+02  0.22852054251E+02  0.00000000000E+00 0. -1.
</event>
<event>
 7    1  0.5662448E-012  0.5930193E+02  0.7816164E-02  0.1266605E+00
        -11   -1    0    0    0    0  0.00000000000E+00  0.00000000000E+00  0.45593999997E+02  0.45594000000E+02  0.51100000000E-03 0. -1.
         11   -1    0    0    0    0 -0.00000000000E+00 -0.00000000000E+00 -0.45593999997E+02  0.45594000000E+02  0.51100000000E-03 0.  1.
    9900012    2    1    2    0    0  0.58719282221E+01  0.28956936502E+02 -0.11989059067E+02  0.59301933295E+02  0.49999980426E+02 0.  0.
         12    1    1    2    0    0 -0.58719282221E+01 -0.28956936502E+02  0.11989059067E+02  0.31886066705E+02  0.00000000000E+00 0. -1.
         11    1    3    3    0    0  0.33856591135E+01  0.12761369910E+02  0.96424365037E+01  0.16349062102E+02  0.51100000000E-03 0. -1.
        -11    1    3    3    0    0  0.10591347867E+02  0.22412920464E+02 -0.82670841581E+01  0.26131596471E+02  0.51100000000E-03 0.  1.
        -12    1    3    3    0    0 -0.81050787587E+01 -0.62173538729E+01 -0.13364411413E+02  0.16821274722E+02  0.00000000000E+00 0.  1.
</event>
<event>
 7    1  0.5662448E-012  0.5930195E+02  0.7816164E-02  0.1266605E+00
        -11   -1    0    0    0    0  0.00000000000E+00  0.00000000000E+00  0.45593999997E+02  0.45594000000E+02  0.51100000000E-03 0. -1.
         11   -1    0    0    0    0 -0.00000000000E+00 -0.00000000000E+00 -0.45593999997E+02  0.45594000000E+02  0.51100000000E-03 0.  1.
    9900012    2    1    2    0    0 -0.94777143418E+01 -0.17533439149E+02 -0.24889188372E+02  0.59301948891E+02  0.50000008869E+02 0.  0.
         12    1    1    2    0    0  0.94777143418E+01  0.17533439149E+02  0.24889188372E+02  0.31886051109E+02  0.00000000000E+00 0. -1.
         11    1    3    3    0    0 -0.14003130280E+02 -0.27685855949E+01 -0.15257649809E+02  0.20893745518E+02  0.51100000000E-03 0. -1.
        -11    1    3    3    0    0 -0.10377919542E+02 -0.18976560297E+02 -0.67292975797E+01  0.22651589368E+02  0.51100000000E-03 0.  1.
        -12    1    3    3    0    0  0.14903335481E+02  0.42117067435E+01 -0.29022409836E+01  0.15756614004E+02  0.00000000000E+00 0.  1.
</event>
<event>
 7    1  0.5662448E-012  0.5930196E+02  0.7816164E-02  0.1266605E+00
        -11   -1    0    0    0    0  0.00000000000E+00  0.00000000000E+00  0.45593999997E+02  0.45594000000E+02  0.51100000000E-03 0. -1.
         11   -1    0    0    0    0 -0.00000000000E+00 -0.00000000000E+00 -0.45593999997E+02  0.45594000000E+02  0.51100000000E-03 0.  1.
    9900012    2    1    2    0    0  0.83242133674E+01  0.92311647083E+01 -0.29363458600E+02  0.59301958681E+02  0.50000026724E+02 0.  0.
         12    1    1    2    0    0 -0.83242133674E+01 -0.92311647083E+01  0.29363458600E+02  0.31886041319E+02  0.00000000000E+00 0. -1.
         11    1    3    3    0    0  0.14160098673E+02  0.34252789886E+00  0.30186034648E+01  0.14482323257E+02  0.51100000000E-03 0. -1.
        -11    1    3    3    0    0  0.10943014720E+02  0.90552321485E+01 -0.15187308172E+02  0.20794257144E+02  0.51100000000E-03 0.  1.
        -12    1    3    3    0    0 -0.16778900025E+02 -0.16659533904E+00 -0.17194753893E+02  0.24025378280E+02  0.00000000000E+00 0.  1.
</event>
<event>
 7    1  0.5662448E-012  0.5930211E+02  0.7816164E-02  0.1266604E+00
        -11   -1    0    0    0    0  0.00000000000E+00  0.00000000000E+00  0.45593999997E+02  0.45594000000E+02  0.51100000000E-03 0.  1.
         11   -1    0    0    0    0 -0.00000000000E+00 -0.00000000000E+00 -0.45593999997E+02  0.45594000000E+02  0.51100000000E-03 0. -1.
    9900012    2    1    2    0    0 -0.17866439666E+02  0.85057464418E+01  0.25003049298E+02  0.59302111851E+02  0.50000306068E+02 0.  0.
         12    1    1    2    0    0  0.17866439666E+02 -0.85057464418E+01 -0.25003049298E+02  0.31885888149E+02  0.00000000000E+00 0. -1.
         11    1    3    3    0    0  0.22166986360E+01 -0.52737563161E+00  0.83260647154E+01  0.86322205605E+01  0.51100000000E-03 0. -1.
        -11    1    3    3    0    0 -0.23168378670E+02 -0.11740882652E+02  0.13976398760E+02  0.29495115158E+02  0.51100000000E-03 0.  1.
         12    1    3    3    0    0  0.30852403679E+01  0.20774004725E+02  0.27005858229E+01  0.21174776132E+02  0.00000000000E+00 0. -1.
</event>
<event>
 7    1  0.5662448E-012  0.5930198E+02  0.7816164E-02  0.1266605E+00
        -11   -1    0    0    0    0  0.00000000000E+00  0.00000000000E+00  0.45593999997E+02  0.45594000000E+02  0.51100000000E-03 0.  1.
         11   -1    0    0    0    0 -0.00000000000E+00 -0.00000000000E+00 -0.45593999997E+02  0.45594000000E+02  0.51100000000E-03 0. -1.
    9900012    2    1    2    0    0 -0.58803046433E+01 -0.25604717587E+02  0.18070378681E+02  0.59301982201E+02  0.50000069619E+02 0.  0.
         12    1    1    2    0    0  0.58803046433E+01  0.25604717587E+02 -0.18070378681E+02  0.31886017799E+02  0.00000000000E+00 0. -1.
         11    1    3    3    0    0 -0.18298019759E+01  0.46681730070E+01 -0.10676399507E+01  0.51263895502E+01  0.51100000000E-03 0. -1.
        -11    1    3    3    0    0 -0.49350509425E+01 -0.26546701304E+02 -0.68904921832E+01  0.27866843393E+02  0.51100000000E-03 0.  1.
         12    1    3    3    0    0  0.88454827511E+00 -0.37261892900E+01  0.26028510814E+02  0.26308749258E+02  0.00000000000E+00 0. -1.
</event>
<event>
 7    1  0.5662448E-012  0.5930196E+02  0.7816164E-02  0.1266605E+00
        -11   -1    0    0    0    0  0.00000000000E+00  0.00000000000E+00  0.45593999997E+02  0.45594000000E+02  0.51100000000E-03 0.  1.
         11   -1    0    0    0    0 -0.00000000000E+00 -0.00000000000E+00 -0.45593999997E+02  0.45594000000E+02  0.51100000000E-03 0. -1.
    9900012    2    1    2    0    0 -0.23152417253E+02 -0.21755730191E+02  0.27153967366E+01  0.59301959163E+02  0.50000027603E+02 0.  0.
         12    1    1    2    0    0  0.23152417253E+02  0.21755730191E+02 -0.27153967366E+01  0.31886040837E+02  0.00000000000E+00 0. -1.
         11    1    3    3    0    0 -0.17852644580E+02 -0.53733045802E+01 -0.10412537454E+02  0.21354396669E+02  0.51100000000E-03 0. -1.
        -11    1    3    3    0    0 -0.12284874373E+02 -0.74480249462E+01 -0.61132188412E+01  0.15612900397E+02  0.51100000000E-03 0.  1.
        -12    1    3    3    0    0  0.69851016992E+01 -0.89344006650E+01  0.19241153031E+02  0.22334662097E+02  0.00000000000E+00 0.  1.
</event>
<event>
 7    1  0.5662448E-012  0.5930197E+02  0.7816164E-02  0.1266605E+00
        -11   -1    0    0    0    0  0.00000000000E+00  0.00000000000E+00  0.45593999997E+02  0.45594000000E+02  0.51100000000E-03 0.  1.
         11   -1    0    0    0    0 -0.00000000000E+00 -0.00000000000E+00 -0.45593999997E+02  0.45594000000E+02  0.51100000000E-03 0. -1.
    9900012    2    1    2    0    0 -0.23835204865E+02 -0.35701057514E+01  0.20877165054E+02  0.59301973802E+02  0.50000054300E+02 0.  0.
         12    1    1    2    0    0  0.23835204865E+02  0.35701057514E+01 -0.20877165054E+02  0.31886026198E+02  0.00000000000E+00 0. -1.
         11    1    3    3    0    0 -0.15197205884E+01  0.75697261705E+01  0.80492036506E+01  0.11153474106E+02  0.51100000000E-03 0. -1.
        -11    1    3    3    0    0 -0.13883292444E+02 -0.15510142976E+02  0.25114116063E+02  0.32619459992E+02  0.51100000000E-03 0.  1.
         12    1    3    3    0    0 -0.84321918321E+01  0.43703110546E+01 -0.12286154660E+02  0.15529039704E+02  0.00000000000E+00 0. -1.
</event>
<event>
 7    1  0.5662448E-012  0.5930195E+02  0.7816164E-02  0.1266605E+00
        -11   -1    0    0    0    0  0.00000000000E+00  0.00000000000E+00  0.45593999997E+02  0.45594000000E+02  0.51100000000E-03 0.  1.
         11   -1    0    0    0    0 -0.00000000000E+00 -0.00000000000E+00 -0.45593999997E+02  0.45594000000E+02  0.51100000000E-03 0. -1.
    9900012    2    1    2    0    0  0.24693681618E+02  0.19700436824E+02  0.43399616457E+01  0.59301946779E+02  0.50000005018E+02 0.  0.
         12    1    1    2    0    0 -0.24693681618E+02 -0.19700436824E+02 -0.43399616457E+01  0.31886053221E+02  0.00000000000E+00 0. -1.
         11    1    3    3    0    0 -0.19154473097E+01 -0.55015164527E+01  0.15787006706E+02  0.16827513264E+02  0.51100000000E-03 0. -1.
        -11    1    3    3    0    0  0.45014634532E+01  0.24190585084E+01  0.46244857063E+01  0.68920886236E+01  0.51100000000E-03 0.  1.
         12    1    3    3    0    0  0.22107665475E+02  0.22782894768E+02 -0.16071530766E+02  0.35582344891E+02  0.00000000000E+00 0. -1.
</event>
<event>
 7    1  0.5662448E-012  0.5930195E+02  0.7816164E-02  0.1266605E+00
        -11   -1    0    0    0    0  0.00000000000E+00  0.00000000000E+00  0.45593999997E+02  0.45594000000E+02  0.51100000000E-03 0. -1.
         11   -1    0    0    0    0 -0.00000000000E+00 -0.00000000000E+00 -0.45593999997E+02  0.45594000000E+02  0.51100000000E-03 0.  1.
    9900012    2    1    2    0    0  0.24221137602E+02  0.16892834444E+02 -0.12028672733E+02  0.59301947720E+02  0.50000006734E+02 0.  0.
         12    1    1    2    0    0 -0.24221137602E+02 -0.16892834444E+02  0.12028672733E+02  0.31886052280E+02  0.00000000000E+00 0. -1.
         11    1    3    3    0    0  0.19763819598E+02  0.10877153188E+02 -0.10239304771E+02  0.24774268688E+02  0.51100000000E-03 0.  1.
        -11    1    3    3    0    0  0.17710747750E+02 -0.32977126618E+01 -0.30850941945E+01  0.18277398642E+02  0.51100000000E-03 0. -1.
         12    1    3    3    0    0 -0.13253429746E+02  0.93133939179E+01  0.12957262325E+01  0.16250280390E+02  0.00000000000E+00 0. -1.
</event>
<event>
 7    1  0.5662448E-012  0.5930195E+02  0.7816164E-02  0.1266605E+00
        -11   -1    0    0    0    0  0.00000000000E+00  0.00000000000E+00  0.45593999997E+02  0.45594000000E+02  0.51100000000E-03 0.  1.
         11   -1    0    0    0    0 -0.00000000000E+00 -0.00000000000E+00 -0.45593999997E+02  0.45594000000E+02  0.51100000000E-03 0. -1.
    9900012    2    1    2    0    0 -0.11952104660E+01  0.20526560218E+02  0.24371130252E+02  0.59301949881E+02  0.50000010675E+02 0.  0.
         12    1    1    2    0    0  0.11952104660E+01 -0.20526560218E+02 -0.24371130252E+02  0.31886050119E+02  0.00000000000E+00 0. -1.
         11    1    3    3    0    0 -0.55114524153E+01 -0.93531911549E+01 -0.45174998074E+01  0.11758660522E+02  0.51100000000E-03 0. -1.
        -11    1    3    3    0    0  0.42074142384E+01 -0.20966049940E+01  0.40166610039E+00  0.47179892954E+01  0.51100000000E-03 0.  1.
        -12    1    3    3    0    0  0.10882771091E+00  0.31976356366E+02  0.28486963959E+02  0.42825300064E+02  0.00000000000E+00 0.  1.
</event>
<event>
 7    1  0.5662448E-012  0.5930194E+02  0.7816164E-02  0.1266605E+00
        -11   -1    0    0    0    0  0.00000000000E+00  0.00000000000E+00  0.45593999997E+02  0.45594000000E+02  0.51100000000E-03 0.  1.
         11   -1    0    0    0    0 -0.00000000000E+00 -0.00000000000E+00 -0.45593999997E+02  0.45594000000E+02  0.51100000000E-03 0. -1.
    9900012    2    1    2    0    0  0.71368888162E+00  0.14157599161E+02  0.28561754793E+02  0.59301940308E+02  0.49999993216E+02 0.  0.
         12    1    1    2    0    0 -0.71368888162E+00 -0.14157599161E+02 -0.28561754793E+02  0.31886059692E+02  0.00000000000E+00 0. -1.
         11    1    3    3    0    0  0.25597430073E+01 -0.13379270058E+01 -0.10330480600E+02  0.10726656638E+02  0.51100000000E-03 0. -1.
        -11    1    3    3    0    0  0.77219547283E+01  0.15980054657E+01  0.21955719235E+01  0.81855203027E+01  0.51100000000E-03 0.  1.
         12    1    3    3    0    0 -0.95680088540E+01  0.13897520701E+02  0.36696663470E+02  0.40389763367E+02  0.00000000000E+00 0. -1.
</event>
<event>
 7    1  0.5662448E-012  0.5930195E+02  0.7816164E-02  0.1266605E+00
        -11   -1    0    0    0    0  0.00000000000E+00  0.00000000000E+00  0.45593999997E+02  0.45594000000E+02  0.51100000000E-03 0. -1.
         11   -1    0    0    0    0 -0.00000000000E+00 -0.00000000000E+00 -0.45593999997E+02  0.45594000000E+02  0.51100000000E-03 0.  1.
    9900012    2    1    2    0    0 -0.46879694646E+00 -0.99005628023E+00 -0.31867227737E+02  0.59301949984E+02  0.50000010862E+02 0.  0.
         12    1    1    2    0    0  0.46879694646E+00  0.99005628023E+00  0.31867227737E+02  0.31886050016E+02  0.00000000000E+00 0. -1.
         11    1    3    3    0    0 -0.79429751018E+01 -0.14186425128E+02 -0.24228521113E+02  0.29178189576E+02  0.51100000000E-03 0.  1.
        -11    1    3    3    0    0 -0.68314142836E+01  0.55237850890E+01 -0.10446432122E+02  0.13649482304E+02  0.51100000000E-03 0. -1.
        -12    1    3    3    0    0  0.14305592439E+02  0.76725837587E+01  0.28077254982E+01  0.16474278104E+02  0.00000000000E+00 0.  1.
</event>
<event>
 7    1  0.5662448E-012  0.5930182E+02  0.7816164E-02  0.1266605E+00
        -11   -1    0    0    0    0  0.00000000000E+00  0.00000000000E+00  0.45593999997E+02  0.45594000000E+02  0.51100000000E-03 0. -1.
         11   -1    0    0    0    0 -0.00000000000E+00 -0.00000000000E+00 -0.45593999997E+02  0.45594000000E+02  0.51100000000E-03 0.  1.
    9900012    2    1    2    0    0 -0.16011743621E+02 -0.10170102769E+02 -0.25630482364E+02  0.59301818818E+02  0.49999771648E+02 0.  0.
         12    1    1    2    0    0  0.16011743621E+02  0.10170102769E+02  0.25630482364E+02  0.31886181182E+02  0.00000000000E+00 0. -1.
         11    1    3    3    0    0  0.10518281877E+01  0.65685083497E+01  0.99132585325E+01  0.11938355811E+02  0.51100000000E-03 0. -1.
        -11    1    3    3    0    0  0.42922262598E+01 -0.34077665708E+01 -0.30952401007E+01  0.62941711773E+01  0.51100000000E-03 0.  1.
         12    1    3    3    0    0 -0.21355798069E+02 -0.13330844548E+02 -0.32448500796E+02  0.41069291830E+02  0.00000000000E+00 0. -1.
</event>
<event>
 7    1  0.5662448E-012  0.5930198E+02  0.7816164E-02  0.1266605E+00
        -11   -1    0    0    0    0  0.00000000000E+00  0.00000000000E+00  0.45593999997E+02  0.45594000000E+02  0.51100000000E-03 0.  1.
         11   -1    0    0    0    0 -0.00000000000E+00 -0.00000000000E+00 -0.45593999997E+02  0.45594000000E+02  0.51100000000E-03 0. -1.
    9900012    2    1    2    0    0 -0.40763222561E+01  0.26853339083E+02  0.16703303900E+02  0.59301975095E+02  0.50000056660E+02 0.  0.
         12    1    1    2    0    0  0.40763222561E+01 -0.26853339083E+02 -0.16703303900E+02  0.31886024905E+02  0.00000000000E+00 0. -1.
         11    1    3    3    0    0  0.17348013079E+02  0.63842656846E+01  0.53434998550E+01  0.19242281493E+02  0.51100000000E-03 0. -1.
        -11    1    3    3    0    0 -0.12149453614E+01 -0.48126469671E+01  0.50557390577E+01  0.70850660365E+01  0.51100000000E-03 0.  1.
        -12    1    3    3    0    0 -0.20209389973E+02  0.25281720365E+02  0.63040649874E+01  0.32974627566E+02  0.00000000000E+00 0.  1.
</event>
<event>
 7    1  0.5662448E-012  0.5930192E+02  0.7816164E-02  0.1266605E+00
        -11   -1    0    0    0    0  0.00000000000E+00  0.00000000000E+00  0.45593999997E+02  0.45594000000E+02  0.51100000000E-03 0.  1.
         11   -1    0    0    0    0 -0.00000000000E+00 -0.00000000000E+00 -0.45593999997E+02  0.45594000000E+02  0.51100000000E-03 0. -1.
    9900012    2    1    2    0    0  0.10527372146E+02 -0.75407373155E+00  0.30088668563E+02  0.59301918908E+02  0.49999954188E+02 0.  0.
         12    1    1    2    0    0 -0.10527372146E+02  0.75407373155E+00 -0.30088668563E+02  0.31886081092E+02  0.00000000000E+00 0. -1.
         11    1    3    3    0    0 -0.71277892884E+01 -0.65322932013E+01 -0.68025076089E+01  0.11821604994E+02  0.51100000000E-03 0. -1.
        -11    1    3    3    0    0 -0.17213574760E+01 -0.66507479046E+01  0.85236039046E+01  0.10947481127E+02  0.51100000000E-03 0.  1.
         12    1    3    3    0    0  0.19376518911E+02  0.12428967374E+02  0.28367572267E+02  0.36532832787E+02  0.00000000000E+00 0. -1.
</event>
<event>
 7    1  0.5662448E-012  0.5930193E+02  0.7816164E-02  0.1266605E+00
        -11   -1    0    0    0    0  0.00000000000E+00  0.00000000000E+00  0.45593999997E+02  0.45594000000E+02  0.51100000000E-03 0.  1.
         11   -1    0    0    0    0 -0.00000000000E+00 -0.00000000000E+00 -0.45593999997E+02  0.45594000000E+02  0.51100000000E-03 0. -1.
    9900012    2    1    2    0    0 -0.29744923440E+02 -0.11486312829E+02 -0.16084043053E+00  0.59301925884E+02  0.49999966910E+02 0.  0.
         12    1    1    2    0    0  0.29744923440E+02  0.11486312829E+02  0.16084043053E+00  0.31886074116E+02  0.00000000000E+00 0. -1.
         11    1    3    3    0    0 -0.41133171117E+01  0.36465722145E+01 -0.10739502154E+02  0.12064566853E+02  0.51100000000E-03 0. -1.
        -11    1    3    3    0    0 -0.51552544030E+01 -0.22717174755E+02  0.79079300538E+00  0.23308196641E+02  0.51100000000E-03 0.  1.
         12    1    3    3    0    0 -0.20476351926E+02  0.75842897113E+01  0.97878687184E+01  0.23929162389E+02  0.00000000000E+00 0. -1.
</event>
<event>
 7    1  0.5662448E-012  0.5930186E+02  0.7816164E-02  0.1266605E+00
        -11   -1    0    0    0    0  0.00000000000E+00  0.00000000000E+00  0.45593999997E+02  0.45594000000E+02  0.51100000000E-03 0.  1.
         11   -1    0    0    0    0 -0.00000000000E+00 -0.00000000000E+00 -0.45593999997E+02  0.45594000000E+02  0.51100000000E-03 0. -1.
    9900012    2    1    2    0    0  0.21113794782E+02  0.11119604647E+02  0.21149182812E+02  0.59301860829E+02  0.49999848266E+02 0.  0.
         12    1    1    2    0    0 -0.21113794782E+02 -0.11119604647E+02 -0.21149182812E+02  0.31886139171E+02  0.00000000000E+00 0. -1.
         11    1    3    3    0    0  0.27772330696E+01  0.22262062264E+02  0.14264844742E+02  0.26585677264E+02  0.51100000000E-03 0. -1.
        -11    1    3    3    0    0  0.20808870219E+02 -0.40662141309E+00  0.60175872627E+01  0.21665312772E+02  0.51100000000E-03 0.  1.
         12    1    3    3    0    0 -0.24723085063E+01 -0.10735836204E+02  0.86675080668E+00  0.11050870794E+02  0.00000000000E+00 0. -1.
</event>
<event>
 7    1  0.5662448E-012  0.5930195E+02  0.7816164E-02  0.1266605E+00
        -11   -1    0    0    0    0  0.00000000000E+00  0.00000000000E+00  0.45593999997E+02  0.45594000000E+02  0.51100000000E-03 0.  1.
         11   -1    0    0    0    0 -0.00000000000E+00 -0.00000000000E+00 -0.45593999997E+02  0.45594000000E+02  0.51100000000E-03 0. -1.
    9900012    2    1    2    0    0  0.28788834702E+02  0.13602778012E+02  0.16992160438E+01  0.59301954333E+02  0.50000018793E+02 0.  0.
         12    1    1    2    0    0 -0.28788834702E+02 -0.13602778012E+02 -0.16992160438E+01  0.31886045667E+02  0.00000000000E+00 0. -1.
         11    1    3    3    0    0 -0.94100156305E+01 -0.59380827688E+01 -0.36120483722E+01  0.11698551827E+02  0.51100000000E-03 0. -1.
        -11    1    3    3    0    0  0.27051535452E+01  0.97184649564E+01  0.36845670771E+01  0.10739760315E+02  0.51100000000E-03 0.  1.
         12    1    3    3    0    0  0.35493696787E+02  0.98223958243E+01  0.16266973389E+01  0.36863642191E+02  0.00000000000E+00 0. -1.
</event>
<event>
 7    1  0.5662448E-012  0.5930193E+02  0.7816164E-02  0.1266605E+00
        -11   -1    0    0    0    0  0.00000000000E+00  0.00000000000E+00  0.45593999997E+02  0.45594000000E+02  0.51100000000E-03 0.  1.
         11   -1    0    0    0    0 -0.00000000000E+00 -0.00000000000E+00 -0.45593999997E+02  0.45594000000E+02  0.51100000000E-03 0. -1.
    9900012    2    1    2    0    0 -0.12907970470E+02 -0.23374607071E+02  0.17427948962E+02  0.59301931532E+02  0.49999977210E+02 0.  0.
         12    1    1    2    0    0  0.12907970470E+02  0.23374607071E+02 -0.17427948962E+02  0.31886068468E+02  0.00000000000E+00 0. -1.
         11    1    3    3    0    0 -0.14879101382E+02 -0.14922024097E+02 -0.95101385825E+00  0.21094048657E+02  0.51100000000E-03 0. -1.
        -11    1    3    3    0    0  0.19151233613E+01 -0.14732384281E+02 -0.36525763577E+01  0.15298763297E+02  0.51100000000E-03 0.  1.
        -12    1    3    3    0    0  0.56007551556E-01  0.62798013079E+01  0.22031539178E+02  0.22909119578E+02  0.00000000000E+00 0.  1.
</event>
<event>
 7    1  0.5662448E-012  0.5930198E+02  0.7816164E-02  0.1266605E+00
        -11   -1    0    0    0    0  0.00000000000E+00  0.00000000000E+00  0.45593999997E+02  0.45594000000E+02  0.51100000000E-03 0.  1.
         11   -1    0    0    0    0 -0.00000000000E+00 -0.00000000000E+00 -0.45593999997E+02  0.45594000000E+02  0.51100000000E-03 0. -1.
    9900012    2    1    2    0    0 -0.41375272198E+01  0.13356942631E+02  0.28656436614E+02  0.59301977869E+02  0.50000061718E+02 0.  0.
         12    1    1    2    0    0  0.41375272198E+01 -0.13356942631E+02 -0.28656436614E+02  0.31886022131E+02  0.00000000000E+00 0. -1.
         11    1    3    3    0    0  0.75610994604E+01 -0.10693565582E+02  0.68305072633E+01  0.14770863199E+02  0.51100000000E-03 0. -1.
        -11    1    3    3    0    0  0.47725918628E+01  0.88631293381E+01  0.19577854676E+02  0.22014201978E+02  0.51100000000E-03 0.  1.
        -12    1    3    3    0    0 -0.16471218543E+02  0.15187378875E+02  0.22480746746E+01  0.22516912691E+02  0.00000000000E+00 0.  1.
</event>
<event>
 7    1  0.5662448E-012  0.5930202E+02  0.7816164E-02  0.1266605E+00
        -11   -1    0    0    0    0  0.00000000000E+00  0.00000000000E+00  0.45593999997E+02  0.45594000000E+02  0.51100000000E-03 0. -1.
         11   -1    0    0    0    0 -0.00000000000E+00 -0.00000000000E+00 -0.45593999997E+02  0.45594000000E+02  0.51100000000E-03 0.  1.
    9900012    2    1    2    0    0 -0.30066140264E+02 -0.77607337021E+01  0.72466653593E+01  0.59302016609E+02  0.50000132371E+02 0.  0.
         12    1    1    2    0    0  0.30066140264E+02  0.77607337021E+01 -0.72466653593E+01  0.31885983391E+02  0.00000000000E+00 0. -1.
         11    1    3    3    0    0 -0.23754563178E+02  0.69173755742E+01 -0.12551289306E+02  0.27742822858E+02  0.51100000000E-03 0. -1.
        -11    1    3    3    0    0 -0.85300603986E+01 -0.32932517458E+01  0.64319433082E+00  0.91663044174E+01  0.51100000000E-03 0.  1.
         12    1    3    3    0    0  0.22184833128E+01 -0.11384857530E+02  0.19154760335E+02  0.22392889333E+02  0.00000000000E+00 0. -1.
</event>
<event>
 7    1  0.5662448E-012  0.5930194E+02  0.7816164E-02  0.1266605E+00
        -11   -1    0    0    0    0  0.00000000000E+00  0.00000000000E+00  0.45593999997E+02  0.45594000000E+02  0.51100000000E-03 0.  1.
         11   -1    0    0    0    0 -0.00000000000E+00 -0.00000000000E+00 -0.45593999997E+02  0.45594000000E+02  0.51100000000E-03 0. -1.
    9900012    2    1    2    0    0 -0.66450510326E+01 -0.18225811736E+02  0.25305804637E+02  0.59301942467E+02  0.49999997153E+02 0.  0.
         12    1    1    2    0    0  0.66450510326E+01  0.18225811736E+02 -0.25305804637E+02  0.31886057533E+02  0.00000000000E+00 0. -1.
         11    1    3    3    0    0  0.47639462995E+01  0.64481000388E+00  0.12422725856E+02  0.13320476052E+02  0.51100000000E-03 0. -1.
        -11    1    3    3    0    0 -0.16348927641E+02  0.49651424269E+01  0.13273245065E+02  0.21636060389E+02  0.51100000000E-03 0.  1.
         12    1    3    3    0    0  0.49399303086E+01 -0.23835764167E+02 -0.39016628397E+00  0.24345406026E+02  0.00000000000E+00 0. -1.
</event>
<event>
 7    1  0.5662448E-012  0.5930193E+02  0.7816164E-02  0.1266605E+00
        -11   -1    0    0    0    0  0.00000000000E+00  0.00000000000E+00  0.45593999997E+02  0.45594000000E+02  0.51100000000E-03 0. -1.
         11   -1    0    0    0    0 -0.00000000000E+00 -0.00000000000E+00 -0.45593999997E+02  0.45594000000E+02  0.51100000000E-03 0.  1.
    9900012    2    1    2    0    0  0.10234020562E+02 -0.13012937229E+02 -0.27251598437E+02  0.59301932046E+02  0.49999978149E+02 0.  0.
         12    1    1    2    0    0 -0.10234020562E+02  0.13012937229E+02  0.27251598437E+02  0.31886067954E+02  0.00000000000E+00 0. -1.
         11    1    3    3    0    0  0.12551208849E+02 -0.27684331587E+01  0.14032737641E+01  0.12929278528E+02  0.51100000000E-03 0. -1.
        -11    1    3    3    0    0  0.53474006708E+01 -0.21081691526E+02 -0.23795294622E+02  0.32237376722E+02  0.51100000000E-03 0.  1.
         12    1    3    3    0    0 -0.76645889578E+01  0.10837187456E+02 -0.48595775793E+01  0.14135276796E+02  0.00000000000E+00 0. -1.
</event>
<event>
 7    1  0.5662448E-012  0.5930194E+02  0.7816164E-02  0.1266605E+00
        -11   -1    0    0    0    0  0.00000000000E+00  0.00000000000E+00  0.45593999997E+02  0.45594000000E+02  0.51100000000E-03 0.  1.
         11   -1    0    0    0    0 -0.00000000000E+00 -0.00000000000E+00 -0.45593999997E+02  0.45594000000E+02  0.51100000000E-03 0. -1.
    9900012    2    1    2    0    0 -0.14295580649E+02 -0.17453021888E+02  0.22533292578E+02  0.59301939197E+02  0.49999991190E+02 0.  0.
         12    1    1    2    0    0  0.14295580649E+02  0.17453021888E+02 -0.22533292578E+02  0.31886060803E+02  0.00000000000E+00 0. -1.
         11    1    3    3    0    0 -0.40257810949E+01 -0.21458944504E+02 -0.11534258135E+01  0.21863750914E+02  0.51100000000E-03 0. -1.
        -11    1    3    3    0    0 -0.17420862281E+02 -0.43135284360E-01  0.68805956185E+01  0.18730480495E+02  0.51100000000E-03 0.  1.
         12    1    3    3    0    0  0.71510627267E+01  0.40490579000E+01  0.16806122773E+02  0.18707707788E+02  0.00000000000E+00 0. -1.
</event>
<event>
 7    1  0.5662448E-012  0.5930195E+02  0.7816164E-02  0.1266605E+00
        -11   -1    0    0    0    0  0.00000000000E+00  0.00000000000E+00  0.45593999997E+02  0.45594000000E+02  0.51100000000E-03 0. -1.
         11   -1    0    0    0    0 -0.00000000000E+00 -0.00000000000E+00 -0.45593999997E+02  0.45594000000E+02  0.51100000000E-03 0.  1.
    9900012    2    1    2    0    0 -0.42264312864E+00  0.26071643457E+02 -0.18352410795E+02  0.59301949731E+02  0.50000010402E+02 0.  0.
         12    1    1    2    0    0  0.42264312864E+00 -0.26071643457E+02  0.18352410795E+02  0.31886050269E+02  0.00000000000E+00 0. -1.
         11    1    3    3    0    0 -0.69160584023E+01 -0.76610837501E+01 -0.14927350406E+02  0.18147998745E+02  0.51100000000E-03 0. -1.
        -11    1    3    3    0    0 -0.28647731076E+01  0.15715663721E+02 -0.11096480844E+02  0.19450472964E+02  0.51100000000E-03 0.  1.
         12    1    3    3    0    0  0.93581883812E+01  0.18017063486E+02  0.76714204551E+01  0.21703478021E+02  0.00000000000E+00 0. -1.
</event>
<event>
 7    1  0.5662448E-012  0.5930193E+02  0.7816164E-02  0.1266605E+00
        -11   -1    0    0    0    0  0.00000000000E+00  0.00000000000E+00  0.45593999997E+02  0.45594000000E+02  0.51100000000E-03 0.  1.
         11   -1    0    0    0    0 -0.00000000000E+00 -0.00000000000E+00 -0.45593999997E+02  0.45594000000E+02  0.51100000000E-03 0. -1.
    9900012    2    1    2    0    0 -0.29366998717E+02  0.11025565171E+02 -0.57216853083E+01  0.59301931196E+02  0.49999976598E+02 0.  0.
         12    1    1    2    0    0  0.29366998717E+02 -0.11025565171E+02  0.57216853083E+01  0.31886068804E+02  0.00000000000E+00 0. -1.
         11    1    3    3    0    0 -0.29988629938E+02  0.34609583933E+01 -0.19105911273E+02  0.35725789066E+02  0.51100000000E-03 0. -1.
        -11    1    3    3    0    0 -0.73703011297E+01  0.64810891793E+01  0.11815275749E+02  0.15359902245E+02  0.51100000000E-03 0.  1.
        -12    1    3    3    0    0  0.79919323502E+01  0.10835175989E+01  0.15689502156E+01  0.82162398855E+01  0.00000000000E+00 0.  1.
</event>
<event>
 7    1  0.5662448E-012  0.5930197E+02  0.7816164E-02  0.1266605E+00
        -11   -1    0    0    0    0  0.00000000000E+00  0.00000000000E+00  0.45593999997E+02  0.45594000000E+02  0.51100000000E-03 0.  1.
         11   -1    0    0    0    0 -0.00000000000E+00 -0.00000000000E+00 -0.45593999997E+02  0.45594000000E+02  0.51100000000E-03 0. -1.
    9900012    2    1    2    0    0 -0.25344967862E+02 -0.12138856398E+02  0.15066510472E+02  0.59301969072E+02  0.50000045675E+02 0.  0.
         12    1    1    2    0    0  0.25344967862E+02  0.12138856398E+02 -0.15066510472E+02  0.31886030928E+02  0.00000000000E+00 0. -1.
         11    1    3    3    0    0 -0.11767157046E+02  0.82440445581E+01 -0.41604620902E+01  0.14957931029E+02  0.51100000000E-03 0. -1.
        -11    1    3    3    0    0  0.82137260442E+00 -0.15844387390E+00 -0.76845226452E+01  0.77299188845E+01  0.51100000000E-03 0.  1.
        -12    1    3    3    0    0 -0.14399183420E+02 -0.20224457082E+02  0.26911495207E+02  0.36614119158E+02  0.00000000000E+00 0.  1.
</event>
<event>
 7    1  0.5662448E-012  0.5930195E+02  0.7816164E-02  0.1266605E+00
        -11   -1    0    0    0    0  0.00000000000E+00  0.00000000000E+00  0.45593999997E+02  0.45594000000E+02  0.51100000000E-03 0.  1.
         11   -1    0    0    0    0 -0.00000000000E+00 -0.00000000000E+00 -0.45593999997E+02  0.45594000000E+02  0.51100000000E-03 0. -1.
    9900012    2    1    2    0    0  0.14509872631E+02  0.25548212591E+02  0.12388416547E+02  0.59301946075E+02  0.50000003734E+02 0.  0.
         12    1    1    2    0    0 -0.14509872631E+02 -0.25548212591E+02 -0.12388416547E+02  0.31886053925E+02  0.00000000000E+00 0. -1.
         11    1    3    3    0    0  0.71345477126E+01 -0.11732077587E+01 -0.37738493996E+01  0.81559871911E+01  0.51100000000E-03 0. -1.
        -11    1    3    3    0    0 -0.57093569464E+01  0.23994630431E+00  0.20508905729E+02  0.21290127887E+02  0.51100000000E-03 0.  1.
         12    1    3    3    0    0  0.13084681864E+02  0.26481474046E+02 -0.43466397826E+01  0.29855830997E+02  0.00000000000E+00 0. -1.
</event>
<event>
 7    1  0.5662448E-012  0.5930196E+02  0.7816164E-02  0.1266605E+00
        -11   -1    0    0    0    0  0.00000000000E+00  0.00000000000E+00  0.45593999997E+02  0.45594000000E+02  0.51100000000E-03 0.  1.
         11   -1    0    0    0    0 -0.00000000000E+00 -0.00000000000E+00 -0.45593999997E+02  0.45594000000E+02  0.51100000000E-03 0. -1.
    9900012    2    1    2    0    0 -0.16214273411E+02 -0.22781245649E+02  0.15324226252E+02  0.59301957195E+02  0.50000024013E+02 0.  0.
         12    1    1    2    0    0  0.16214273411E+02  0.22781245649E+02 -0.15324226252E+02  0.31886042805E+02  0.00000000000E+00 0. -1.
         11    1    3    3    0    0  0.57007398184E+01  0.74185516460E+01 -0.10741176991E+00  0.93565421257E+01  0.51100000000E-03 0. -1.
        -11    1    3    3    0    0  0.40951898561E+01 -0.15411437186E+00 -0.39844715709E+01  0.57157978584E+01  0.51100000000E-03 0.  1.
        -12    1    3    3    0    0 -0.26010203086E+02 -0.30045682923E+02  0.19416109592E+02  0.44229617211E+02  0.00000000000E+00 0.  1.
</event>
<event>
 7    1  0.5662448E-012  0.5930204E+02  0.7816164E-02  0.1266604E+00
        -11   -1    0    0    0    0  0.00000000000E+00  0.00000000000E+00  0.45593999997E+02  0.45594000000E+02  0.51100000000E-03 0. -1.
         11   -1    0    0    0    0 -0.00000000000E+00 -0.00000000000E+00 -0.45593999997E+02  0.45594000000E+02  0.51100000000E-03 0.  1.
    9900012    2    1    2    0    0  0.54163585112E+00 -0.31567872485E+02  0.44598600558E+01  0.59302042365E+02  0.50000179343E+02 0.  0.
         12    1    1    2    0    0 -0.54163585112E+00  0.31567872485E+02 -0.44598600558E+01  0.31885957635E+02  0.00000000000E+00 0. -1.
         11    1    3    3    0    0 -0.73205643688E+01  0.43667094217E+01  0.72112258624E-02  0.85240170174E+01  0.51100000000E-03 0. -1.
        -11    1    3    3    0    0 -0.28026475055E+01 -0.15557759322E+01  0.13325432373E+02  0.13705561644E+02  0.51100000000E-03 0.  1.
        -12    1    3    3    0    0  0.10664847725E+02 -0.34378805974E+02 -0.88727835431E+01  0.37072463703E+02  0.00000000000E+00 0.  1.
</event>
<event>
 7    1  0.5662448E-012  0.5930196E+02  0.7816164E-02  0.1266605E+00
        -11   -1    0    0    0    0  0.00000000000E+00  0.00000000000E+00  0.45593999997E+02  0.45594000000E+02  0.51100000000E-03 0. -1.
         11   -1    0    0    0    0 -0.00000000000E+00 -0.00000000000E+00 -0.45593999997E+02  0.45594000000E+02  0.51100000000E-03 0.  1.
    9900012    2    1    2    0    0 -0.11187370616E+02  0.21212342861E+02 -0.21014257500E+02  0.59301956514E+02  0.50000022772E+02 0.  0.
         12    1    1    2    0    0  0.11187370616E+02 -0.21212342861E+02  0.21014257500E+02  0.31886043486E+02  0.00000000000E+00 0. -1.
         11    1    3    3    0    0  0.35850277005E+00 -0.21989606435E+01 -0.64067226866E+00  0.23182781034E+01  0.51100000000E-03 0. -1.
        -11    1    3    3    0    0  0.84920836872E+01  0.13872021244E+02  0.10204402935E+02  0.19200997325E+02  0.51100000000E-03 0.  1.
         12    1    3    3    0    0 -0.20037957073E+02  0.95392822597E+01 -0.30577988166E+02  0.37782681085E+02  0.00000000000E+00 0. -1.
</event>
<event>
 7    1  0.5662448E-012  0.5930194E+02  0.7816164E-02  0.1266605E+00
        -11   -1    0    0    0    0  0.00000000000E+00  0.00000000000E+00  0.45593999997E+02  0.45594000000E+02  0.51100000000E-03 0. -1.
         11   -1    0    0    0    0 -0.00000000000E+00 -0.00000000000E+00 -0.45593999997E+02  0.45594000000E+02  0.51100000000E-03 0.  1.
    9900012    2    1    2    0    0 -0.12863862409E+02  0.11553279753E+02 -0.26791110574E+02  0.59301939802E+02  0.49999992294E+02 0.  0.
         12    1    1    2    0    0  0.12863862409E+02 -0.11553279753E+02  0.26791110574E+02  0.31886060198E+02  0.00000000000E+00 0. -1.
         11    1    3    3    0    0  0.78766638195E+01 -0.76801996169E+01 -0.17586937377E+01  0.11140929180E+02  0.51100000000E-03 0. -1.
        -11    1    3    3    0    0 -0.12765326757E+02 -0.56015946873E+01 -0.14254098564E+02  0.19937671790E+02  0.51100000000E-03 0.  1.
         12    1    3    3    0    0 -0.79751994711E+01  0.24835074057E+02 -0.10778318272E+02  0.28223338832E+02  0.00000000000E+00 0. -1.
</event>
<event>
 7    1  0.5662448E-012  0.5930193E+02  0.7816164E-02  0.1266605E+00
        -11   -1    0    0    0    0  0.00000000000E+00  0.00000000000E+00  0.45593999997E+02  0.45594000000E+02  0.51100000000E-03 0.  1.
         11   -1    0    0    0    0 -0.00000000000E+00 -0.00000000000E+00 -0.45593999997E+02  0.45594000000E+02  0.51100000000E-03 0. -1.
    9900012    2    1    2    0    0  0.10593612485E+01  0.13271572055E+02  0.28973513553E+02  0.59301931590E+02  0.49999977316E+02 0.  0.
         12    1    1    2    0    0 -0.10593612485E+01 -0.13271572055E+02 -0.28973513553E+02  0.31886068410E+02  0.00000000000E+00 0. -1.
         11    1    3    3    0    0  0.78353457038E+01  0.14876275348E+01  0.35383925405E+01  0.87250157599E+01  0.51100000000E-03 0. -1.
        -11    1    3    3    0    0 -0.89059914660E+01  0.14260383046E+02  0.35885019814E+02  0.39628397090E+02  0.51100000000E-03 0.  1.
         12    1    3    3    0    0  0.21300070107E+01 -0.24764385259E+01 -0.10449898801E+02  0.10948518740E+02  0.00000000000E+00 0. -1.
</event>
<event>
 7    1  0.5662448E-012  0.5930192E+02  0.7816164E-02  0.1266605E+00
        -11   -1    0    0    0    0  0.00000000000E+00  0.00000000000E+00  0.45593999997E+02  0.45594000000E+02  0.51100000000E-03 0. -1.
         11   -1    0    0    0    0 -0.00000000000E+00 -0.00000000000E+00 -0.45593999997E+02  0.45594000000E+02  0.51100000000E-03 0.  1.
    9900012    2    1    2    0    0 -0.37206598807E+01 -0.30269333888E+02  0.93083835813E+01  0.59301923276E+02  0.49999962154E+02 0.  0.
         12    1    1    2    0    0  0.37206598807E+01  0.30269333888E+02 -0.93083835813E+01  0.31886076724E+02  0.00000000000E+00 0. -1.
         11    1    3    3    0    0 -0.71454653948E+01 -0.18618058634E+02  0.20199625986E+01  0.20044201959E+02  0.51100000000E-03 0. -1.
        -11    1    3    3    0    0  0.29796524351E+01 -0.21163263980E+02 -0.66450177815E+01  0.22381204894E+02  0.51100000000E-03 0.  1.
        -12    1    3    3    0    0  0.44515307905E+00  0.95119887263E+01  0.13933438764E+02  0.16876516423E+02  0.00000000000E+00 0.  1.
</event>
<event>
 7    1  0.5662448E-012  0.5930194E+02  0.7816164E-02  0.1266605E+00
        -11   -1    0    0    0    0  0.00000000000E+00  0.00000000000E+00  0.45593999997E+02  0.45594000000E+02  0.51100000000E-03 0.  1.
         11   -1    0    0    0    0 -0.00000000000E+00 -0.00000000000E+00 -0.45593999997E+02  0.45594000000E+02  0.51100000000E-03 0. -1.
    9900012    2    1    2    0    0  0.22417477716E+02  0.10221411553E+02  0.20241051678E+02  0.59301941380E+02  0.49999995172E+02 0.  0.
         12    1    1    2    0    0 -0.22417477716E+02 -0.10221411553E+02 -0.20241051678E+02  0.31886058620E+02  0.00000000000E+00 0. -1.
         11    1    3    3    0    0 -0.29518704142E+01  0.16217216825E+02  0.71940622311E+01  0.17985165891E+02  0.51100000000E-03 0. -1.
        -11    1    3    3    0    0  0.14942640921E+02 -0.61115053162E+01  0.22194970929E+02  0.27445395784E+02  0.51100000000E-03 0.  1.
        -12    1    3    3    0    0  0.10426707209E+02  0.11570004399E+00 -0.91479814824E+01  0.13871379705E+02  0.00000000000E+00 0.  1.
</event>
<event>
 7    1  0.5662448E-012  0.5930192E+02  0.7816164E-02  0.1266605E+00
        -11   -1    0    0    0    0  0.00000000000E+00  0.00000000000E+00  0.45593999997E+02  0.45594000000E+02  0.51100000000E-03 0. -1.
         11   -1    0    0    0    0 -0.00000000000E+00 -0.00000000000E+00 -0.45593999997E+02  0.45594000000E+02  0.51100000000E-03 0.  1.
    9900012    2    1    2    0    0  0.21964098832E+02 -0.49392304536E+01 -0.22581067448E+02  0.59301917738E+02  0.49999952053E+02 0.  0.
         12    1    1    2    0    0 -0.21964098832E+02  0.49392304536E+01  0.22581067448E+02  0.31886082262E+02  0.00000000000E+00 0. -1.
         11    1    3    3    0    0 -0.11655504730E+02 -0.86590976503E+01 -0.12944989673E+02  0.19452596755E+02  0.51100000000E-03 0. -1.
        -11    1    3    3    0    0 -0.11459033331E+01  0.20164319540E+01  0.20879261315E+01  0.31206614789E+01  0.51100000000E-03 0.  1.
        -12    1    3    3    0    0  0.34765506895E+02  0.17034352426E+01 -0.11724003906E+02  0.36728659503E+02  0.00000000000E+00 0.  1.
</event>
<event>
 7    1  0.5662448E-012  0.5930196E+02  0.7816164E-02  0.1266605E+00
        -11   -1    0    0    0    0  0.00000000000E+00  0.00000000000E+00  0.45593999997E+02  0.45594000000E+02  0.51100000000E-03 0.  1.
         11   -1    0    0    0    0 -0.00000000000E+00 -0.00000000000E+00 -0.45593999997E+02  0.45594000000E+02  0.51100000000E-03 0. -1.
    9900012    2    1    2    0    0 -0.43446361874E+01  0.20677532372E+02  0.23880609325E+02  0.59301957437E+02  0.50000024455E+02 0.  0.
         12    1    1    2    0    0  0.43446361874E+01 -0.20677532372E+02 -0.23880609325E+02  0.31886042563E+02  0.00000000000E+00 0. -1.
         11    1    3    3    0    0  0.31364669966E+01 -0.60583670352E+01 -0.90421117350E+01  0.11327004072E+02  0.51100000000E-03 0. -1.
        -11    1    3    3    0    0  0.46939791984E+01  0.90017319478E+01  0.21132392836E+02  0.23444458748E+02  0.51100000000E-03 0.  1.
        -12    1    3    3    0    0 -0.12175082382E+02  0.17734167460E+02  0.11790328224E+02  0.24530494617E+02  0.00000000000E+00 0.  1.
</event>
<event>
 7    1  0.5662448E-012  0.5930194E+02  0.7816164E-02  0.1266605E+00
        -11   -1    0    0    0    0  0.00000000000E+00  0.00000000000E+00  0.45593999997E+02  0.45594000000E+02  0.51100000000E-03 0.  1.
         11   -1    0    0    0    0 -0.00000000000E+00 -0.00000000000E+00 -0.45593999997E+02  0.45594000000E+02  0.51100000000E-03 0. -1.
    9900012    2    1    2    0    0  0.12799864699E+01  0.30118043938E+02  0.10391624555E+02  0.59301940399E+02  0.49999993382E+02 0.  0.
         12    1    1    2    0    0 -0.12799864699E+01 -0.30118043938E+02 -0.10391624555E+02  0.31886059601E+02  0.00000000000E+00 0. -1.
         11    1    3    3    0    0 -0.42077795225E+01 -0.35090725258E+01  0.34931294412E+01  0.64977651585E+01  0.51100000000E-03 0. -1.
        -11    1    3    3    0    0 -0.12193151677E+02  0.15182536280E+02  0.16486169510E+02  0.25514234088E+02  0.51100000000E-03 0.  1.
         12    1    3    3    0    0  0.17680917670E+02  0.18444580184E+02 -0.95876743959E+01  0.27289941153E+02  0.00000000000E+00 0. -1.
</event>
<event>
 7    1  0.5662448E-012  0.5930196E+02  0.7816164E-02  0.1266605E+00
        -11   -1    0    0    0    0  0.00000000000E+00  0.00000000000E+00  0.45593999997E+02  0.45594000000E+02  0.51100000000E-03 0.  1.
         11   -1    0    0    0    0 -0.00000000000E+00 -0.00000000000E+00 -0.45593999997E+02  0.45594000000E+02  0.51100000000E-03 0. -1.
    9900012    2    1    2    0    0  0.44165060058E+01 -0.30898693703E+02  0.65180459832E+01  0.59301957266E+02  0.50000024143E+02 0.  0.
         12    1    1    2    0    0 -0.44165060058E+01  0.30898693703E+02 -0.65180459832E+01  0.31886042734E+02  0.00000000000E+00 0. -1.
         11    1    3    3    0    0  0.13381400143E+02 -0.86761013152E+01  0.81821424748E+01  0.17924398443E+02  0.51100000000E-03 0. -1.
        -11    1    3    3    0    0 -0.14282359059E+00 -0.26406073651E+02  0.80483806746E+01  0.27605752227E+02  0.51100000000E-03 0.  1.
         12    1    3    3    0    0 -0.88220705463E+01  0.41834812637E+01 -0.97124771662E+01  0.13771806596E+02  0.00000000000E+00 0. -1.
</event>
<event>
 7    1  0.5662448E-012  0.5930196E+02  0.7816164E-02  0.1266605E+00
        -11   -1    0    0    0    0  0.00000000000E+00  0.00000000000E+00  0.45593999997E+02  0.45594000000E+02  0.51100000000E-03 0.  1.
         11   -1    0    0    0    0 -0.00000000000E+00 -0.00000000000E+00 -0.45593999997E+02  0.45594000000E+02  0.51100000000E-03 0. -1.
    9900012    2    1    2    0    0 -0.10646959893E+02  0.23884095989E+02  0.18245868983E+02  0.59301960247E+02  0.50000029580E+02 0.  0.
         12    1    1    2    0    0  0.10646959893E+02 -0.23884095989E+02 -0.18245868983E+02  0.31886039753E+02  0.00000000000E+00 0. -1.
         11    1    3    3    0    0 -0.16850278741E+02  0.27135102694E+02 -0.15173872653E+01  0.31977306894E+02  0.51100000000E-03 0. -1.
        -11    1    3    3    0    0  0.18200127816E+01  0.72508831221E+01  0.83449239815E+01  0.11203816720E+02  0.51100000000E-03 0.  1.
        -12    1    3    3    0    0  0.43833060667E+01 -0.10501889826E+02  0.11418332266E+02  0.16120836633E+02  0.00000000000E+00 0.  1.
</event>
<event>
 7    1  0.5662448E-012  0.5930187E+02  0.7816164E-02  0.1266605E+00
        -11   -1    0    0    0    0  0.00000000000E+00  0.00000000000E+00  0.45593999997E+02  0.45594000000E+02  0.51100000000E-03 0. -1.
         11   -1    0    0    0    0 -0.00000000000E+00 -0.00000000000E+00 -0.45593999997E+02  0.45594000000E+02  0.51100000000E-03 0.  1.
    9900012    2    1    2    0    0 -0.18626249691E+02  0.25762641155E+02 -0.24646846679E+01  0.59301866222E+02  0.49999858101E+02 0.  0.
         12    1    1    2    0    0  0.18626249691E+02 -0.25762641155E+02  0.24646846679E+01  0.31886133778E+02  0.00000000000E+00 0. -1.
         11    1    3    3    0    0  0.86547002779E+00 -0.58372886171E+01 -0.15947694653E+02  0.17004468288E+02  0.51100000000E-03 0. -1.
        -11    1    3    3    0    0 -0.47025132194E+01  0.82397672785E+00  0.54017576038E+01  0.72091298850E+01  0.51100000000E-03 0.  1.
        -12    1    3    3    0    0 -0.14789206499E+02  0.30775953044E+02  0.80812523809E+01  0.35088268049E+02  0.00000000000E+00 0.  1.
</event>
<event>
 7    1  0.5662448E-012  0.5930198E+02  0.7816164E-02  0.1266605E+00
        -11   -1    0    0    0    0  0.00000000000E+00  0.00000000000E+00  0.45593999997E+02  0.45594000000E+02  0.51100000000E-03 0.  1.
         11   -1    0    0    0    0 -0.00000000000E+00 -0.00000000000E+00 -0.45593999997E+02  0.45594000000E+02  0.51100000000E-03 0. -1.
    9900012    2    1    2    0    0  0.14339127816E+01 -0.18405320571E+02  0.25998203786E+02  0.59301975925E+02  0.50000058174E+02 0.  0.
         12    1    1    2    0    0 -0.14339127816E+01  0.18405320571E+02 -0.25998203786E+02  0.31886024075E+02  0.00000000000E+00 0. -1.
         11    1    3    3    0    0  0.12711492962E+02 -0.61316703734E+01  0.85525164094E+01  0.16502271725E+02  0.51100000000E-03 0. -1.
        -11    1    3    3    0    0 -0.15543718917E+02 -0.20682469084E+02  0.37067970143E+01  0.26136412714E+02  0.51100000000E-03 0.  1.
         12    1    3    3    0    0  0.42661387363E+01  0.84088188863E+01  0.13738890362E+02  0.16663291487E+02  0.00000000000E+00 0. -1.
</event>
<event>
 7    1  0.5662448E-012  0.5930195E+02  0.7816164E-02  0.1266605E+00
        -11   -1    0    0    0    0  0.00000000000E+00  0.00000000000E+00  0.45593999997E+02  0.45594000000E+02  0.51100000000E-03 0.  1.
         11   -1    0    0    0    0 -0.00000000000E+00 -0.00000000000E+00 -0.45593999997E+02  0.45594000000E+02  0.51100000000E-03 0. -1.
    9900012    2    1    2    0    0  0.94969903681E+01  0.13522618502E+02  0.27270242071E+02  0.59301950702E+02  0.50000012172E+02 0.  0.
         12    1    1    2    0    0 -0.94969903681E+01 -0.13522618502E+02 -0.27270242071E+02  0.31886049298E+02  0.00000000000E+00 0. -1.
         11    1    3    3    0    0 -0.78301867501E+01 -0.75101712185E+01  0.13218214230E+02  0.17100750976E+02  0.51100000000E-03 0. -1.
        -11    1    3    3    0    0  0.12991184241E+02 -0.39669160793E+01  0.90991552493E+01  0.16349370559E+02  0.51100000000E-03 0.  1.
        -12    1    3    3    0    0  0.43359928767E+01  0.24999705800E+02  0.49528725925E+01  0.25851829166E+02  0.00000000000E+00 0.  1.
</event>
<event>
 7    1  0.5662448E-012  0.5930193E+02  0.7816164E-02  0.1266605E+00
        -11   -1    0    0    0    0  0.00000000000E+00  0.00000000000E+00  0.45593999997E+02  0.45594000000E+02  0.51100000000E-03 0.  1.
         11   -1    0    0    0    0 -0.00000000000E+00 -0.00000000000E+00 -0.45593999997E+02  0.45594000000E+02  0.51100000000E-03 0. -1.
    9900012    2    1    2    0    0  0.56160259653E+01 -0.50558172464E+01  0.30977736462E+02  0.59301934203E+02  0.49999982082E+02 0.  0.
         12    1    1    2    0    0 -0.56160259653E+01  0.50558172464E+01 -0.30977736462E+02  0.31886065797E+02  0.00000000000E+00 0. -1.
         11    1    3    3    0    0 -0.52367557340E+01 -0.67390773902E+01 -0.29361328695E+01  0.90255000514E+01  0.51100000000E-03 0. -1.
        -11    1    3    3    0    0 -0.12926016517E+02 -0.17094976459E+01  0.13283156488E+02  0.18613074215E+02  0.51100000000E-03 0.  1.
         12    1    3    3    0    0  0.23778798216E+02  0.33927577897E+01  0.20630712844E+02  0.31663359936E+02  0.00000000000E+00 0. -1.
</event>
<event>
 7    1  0.5662448E-012  0.5930195E+02  0.7816164E-02  0.1266605E+00
        -11   -1    0    0    0    0  0.00000000000E+00  0.00000000000E+00  0.45593999997E+02  0.45594000000E+02  0.51100000000E-03 0. -1.
         11   -1    0    0    0    0 -0.00000000000E+00 -0.00000000000E+00 -0.45593999997E+02  0.45594000000E+02  0.51100000000E-03 0.  1.
    9900012    2    1    2    0    0 -0.24678172513E+02 -0.10054172354E+02 -0.17510618009E+02  0.59301947824E+02  0.50000006924E+02 0.  0.
         12    1    1    2    0    0  0.24678172513E+02  0.10054172354E+02  0.17510618009E+02  0.31886052176E+02  0.00000000000E+00 0. -1.
         11    1    3    3    0    0 -0.66615782296E+01 -0.43300220343E+01 -0.18122064299E+02  0.19787241597E+02  0.51100000000E-03 0. -1.
        -11    1    3    3    0    0 -0.18045711652E+02 -0.13456738525E+01 -0.14872688081E+02  0.23423394249E+02  0.51100000000E-03 0.  1.
         12    1    3    3    0    0  0.29117368038E-01 -0.43784764667E+01  0.15484134370E+02  0.16091311978E+02  0.00000000000E+00 0. -1.
</event>
<event>
 7    1  0.5662448E-012  0.5930191E+02  0.7816164E-02  0.1266605E+00
        -11   -1    0    0    0    0  0.00000000000E+00  0.00000000000E+00  0.45593999997E+02  0.45594000000E+02  0.51100000000E-03 0. -1.
         11   -1    0    0    0    0 -0.00000000000E+00 -0.00000000000E+00 -0.45593999997E+02  0.45594000000E+02  0.51100000000E-03 0.  1.
    9900012    2    1    2    0    0  0.27419158324E+01  0.10990340564E+02 -0.29806326839E+02  0.59301908867E+02  0.49999935875E+02 0.  0.
         12    1    1    2    0    0 -0.27419158324E+01 -0.10990340564E+02  0.29806326839E+02  0.31886091133E+02  0.00000000000E+00 0. -1.
         11    1    3    3    0    0 -0.14612556596E+02  0.60281884052E+01  0.46360235368E+01  0.16472965132E+02  0.51100000000E-03 0. -1.
        -11    1    3    3    0    0 -0.56936497320E+00  0.29529523198E+01  0.90961028056E+00  0.31418935372E+01  0.51100000000E-03 0.  1.
        -12    1    3    3    0    0  0.17923837402E+02  0.20091998391E+01 -0.35351960656E+02  0.39687050198E+02  0.00000000000E+00 0.  1.
</event>
<event>
 7    1  0.5662448E-012  0.5930194E+02  0.7816164E-02  0.1266605E+00
        -11   -1    0    0    0    0  0.00000000000E+00  0.00000000000E+00  0.45593999997E+02  0.45594000000E+02  0.51100000000E-03 0. -1.
         11   -1    0    0    0    0 -0.00000000000E+00 -0.00000000000E+00 -0.45593999997E+02  0.45594000000E+02  0.51100000000E-03 0.  1.
    9900012    2    1    2    0    0  0.21394468973E+02  0.18968321703E+02 -0.14113822722E+02  0.59301944699E+02  0.50000001223E+02 0.  0.
         12    1    1    2    0    0 -0.21394468973E+02 -0.18968321703E+02  0.14113822722E+02  0.31886055301E+02  0.00000000000E+00 0. -1.
         11    1    3    3    0    0  0.10843117954E+02 -0.15205366257E+01 -0.79728322873E+01  0.13544419276E+02  0.51100000000E-03 0. -1.
        -11    1    3    3    0    0  0.25002537015E+01  0.71563746359E+01 -0.22156615335E+02  0.23417526980E+02  0.51100000000E-03 0.  1.
         12    1    3    3    0    0  0.80510973173E+01  0.13332483693E+02  0.16015624900E+02  0.22339998442E+02  0.00000000000E+00 0. -1.
</event>
<event>
 7    1  0.5662448E-012  0.5930192E+02  0.7816164E-02  0.1266605E+00
        -11   -1    0    0    0    0  0.00000000000E+00  0.00000000000E+00  0.45593999997E+02  0.45594000000E+02  0.51100000000E-03 0.  1.
         11   -1    0    0    0    0 -0.00000000000E+00 -0.00000000000E+00 -0.45593999997E+02  0.45594000000E+02  0.51100000000E-03 0. -1.
    9900012    2    1    2    0    0 -0.63426420354E+01  0.29691170438E+02  0.97430626017E+01  0.59301921865E+02  0.49999959581E+02 0.  0.
         12    1    1    2    0    0  0.63426420354E+01 -0.29691170438E+02 -0.97430626017E+01  0.31886078135E+02  0.00000000000E+00 0. -1.
         11    1    3    3    0    0  0.97521194789E+01 -0.90844817692E+01  0.23842997878E+01  0.13539443456E+02  0.51100000000E-03 0. -1.
        -11    1    3    3    0    0 -0.97512794079E+01  0.60215163911E+01 -0.55471643149E+00  0.11474049866E+02  0.51100000000E-03 0.  1.
        -12    1    3    3    0    0 -0.63434821065E+01  0.32754135816E+02  0.79134792454E+01  0.34288428544E+02  0.00000000000E+00 0.  1.
</event>
<event>
 7    1  0.5662448E-012  0.5930195E+02  0.7816164E-02  0.1266605E+00
        -11   -1    0    0    0    0  0.00000000000E+00  0.00000000000E+00  0.45593999997E+02  0.45594000000E+02  0.51100000000E-03 0.  1.
         11   -1    0    0    0    0 -0.00000000000E+00 -0.00000000000E+00 -0.45593999997E+02  0.45594000000E+02  0.51100000000E-03 0. -1.
    9900012    2    1    2    0    0  0.36762518942E+01 -0.27914595362E+02  0.14965990363E+02  0.59301947724E+02  0.50000006741E+02 0.  0.
         12    1    1    2    0    0 -0.36762518942E+01  0.27914595362E+02 -0.14965990363E+02  0.31886052276E+02  0.00000000000E+00 0. -1.
         11    1    3    3    0    0 -0.32035209565E+01 -0.16434136107E+02  0.55161702438E+01  0.17628712673E+02  0.51100000000E-03 0. -1.
        -11    1    3    3    0    0  0.75815107590E+00 -0.56670050607E+01  0.24097706607E+02  0.24766695447E+02  0.51100000000E-03 0.  1.
         12    1    3    3    0    0  0.61216217747E+01 -0.58134541942E+01 -0.14647886487E+02  0.16906539604E+02  0.00000000000E+00 0. -1.
</event>
<event>
 7    1  0.5662448E-012  0.5930174E+02  0.7816164E-02  0.1266605E+00
        -11   -1    0    0    0    0  0.00000000000E+00  0.00000000000E+00  0.45593999997E+02  0.45594000000E+02  0.51100000000E-03 0. -1.
         11   -1    0    0    0    0 -0.00000000000E+00 -0.00000000000E+00 -0.45593999997E+02  0.45594000000E+02  0.51100000000E-03 0.  1.
    9900012    2    1    2    0    0 -0.24824013739E+02 -0.14005814013E+02 -0.14294723262E+02  0.59301739677E+02  0.49999627312E+02 0.  0.
         12    1    1    2    0    0  0.24824013739E+02  0.14005814013E+02  0.14294723262E+02  0.31886260323E+02  0.00000000000E+00 0. -1.
         11    1    3    3    0    0 -0.13483972542E+02 -0.16381227531E+01 -0.26711018993E+01  0.13843256383E+02  0.51100000000E-03 0. -1.
        -11    1    3    3    0    0 -0.22276716513E+02 -0.19709584100E+02 -0.34197566671E+01  0.29940182697E+02  0.51100000000E-03 0.  1.
         12    1    3    3    0    0  0.10936675317E+02  0.73418928404E+01 -0.82038646954E+01  0.15518300597E+02  0.00000000000E+00 0. -1.
</event>
<event>
 7    1  0.5662448E-012  0.5930193E+02  0.7816164E-02  0.1266605E+00
        -11   -1    0    0    0    0  0.00000000000E+00  0.00000000000E+00  0.45593999997E+02  0.45594000000E+02  0.51100000000E-03 0.  1.
         11   -1    0    0    0    0 -0.00000000000E+00 -0.00000000000E+00 -0.45593999997E+02  0.45594000000E+02  0.51100000000E-03 0. -1.
    9900012    2    1    2    0    0  0.74624639525E+00  0.13360273187E+02  0.28942491575E+02  0.59301927775E+02  0.49999970360E+02 0.  0.
         12    1    1    2    0    0 -0.74624639525E+00 -0.13360273187E+02 -0.28942491575E+02  0.31886072225E+02  0.00000000000E+00 0. -1.
         11    1    3    3    0    0  0.36340304284E+01  0.26379622530E+02  0.13769160290E+02  0.29977999221E+02  0.51100000000E-03 0. -1.
        -11    1    3    3    0    0 -0.22604840424E+01  0.45441937819E+01 -0.12962280299E+01  0.52382909999E+01  0.51100000000E-03 0.  1.
         12    1    3    3    0    0 -0.62729999073E+00 -0.17563543124E+02  0.16469559315E+02  0.24085637554E+02  0.00000000000E+00 0. -1.
</event>
<event>
 7    1  0.5662448E-012  0.5930193E+02  0.7816164E-02  0.1266605E+00
        -11   -1    0    0    0    0  0.00000000000E+00  0.00000000000E+00  0.45593999997E+02  0.45594000000E+02  0.51100000000E-03 0.  1.
         11   -1    0    0    0    0 -0.00000000000E+00 -0.00000000000E+00 -0.45593999997E+02  0.45594000000E+02  0.51100000000E-03 0. -1.
    9900012    2    1    2    0    0 -0.82295300825E+01 -0.53752044639E+01  0.30333206246E+02  0.59301931105E+02  0.49999976432E+02 0.  0.
         12    1    1    2    0    0  0.82295300825E+01  0.53752044639E+01 -0.30333206246E+02  0.31886068895E+02  0.00000000000E+00 0. -1.
         11    1    3    3    0    0  0.13563546228E+00  0.58593286611E+01  0.54852163733E+01  0.80273113968E+01  0.51100000000E-03 0. -1.
        -11    1    3    3    0    0 -0.13832363923E+02 -0.11985341831E+01 -0.83245878616E+01  0.16188561987E+02  0.51100000000E-03 0.  1.
        -12    1    3    3    0    0  0.54671983779E+01 -0.10035998942E+02  0.33172577734E+02  0.35086057721E+02  0.00000000000E+00 0.  1.
</event>
<event>
 7    1  0.5662448E-012  0.5930200E+02  0.7816164E-02  0.1266605E+00
        -11   -1    0    0    0    0  0.00000000000E+00  0.00000000000E+00  0.45593999997E+02  0.45594000000E+02  0.51100000000E-03 0.  1.
         11   -1    0    0    0    0 -0.00000000000E+00 -0.00000000000E+00 -0.45593999997E+02  0.45594000000E+02  0.51100000000E-03 0. -1.
    9900012    2    1    2    0    0 -0.40806250758E+01 -0.31560590794E+02  0.19987179806E+01  0.59301995768E+02  0.50000094363E+02 0.  0.
         12    1    1    2    0    0  0.40806250758E+01  0.31560590794E+02 -0.19987179806E+01  0.31886004232E+02  0.00000000000E+00 0. -1.
         11    1    3    3    0    0  0.61985289952E+01 -0.21770329999E+01  0.65050328799E+01  0.92453603183E+01  0.51100000000E-03 0. -1.
        -11    1    3    3    0    0  0.77085037672E+01 -0.24932985445E+02  0.84669357819E+01  0.27436541242E+02  0.51100000000E-03 0.  1.
         12    1    3    3    0    0 -0.17987657838E+02 -0.44505723490E+01 -0.12973250681E+02  0.22620094208E+02  0.00000000000E+00 0. -1.
</event>
<event>
 7    1  0.5662448E-012  0.5930194E+02  0.7816164E-02  0.1266605E+00
        -11   -1    0    0    0    0  0.00000000000E+00  0.00000000000E+00  0.45593999997E+02  0.45594000000E+02  0.51100000000E-03 0. -1.
         11   -1    0    0    0    0 -0.00000000000E+00 -0.00000000000E+00 -0.45593999997E+02  0.45594000000E+02  0.51100000000E-03 0.  1.
    9900012    2    1    2    0    0  0.29654202311E+01 -0.10002038345E+02 -0.30131151225E+02  0.59301940940E+02  0.49999994369E+02 0.  0.
         12    1    1    2    0    0 -0.29654202311E+01  0.10002038345E+02  0.30131151225E+02  0.31886059060E+02  0.00000000000E+00 0. -1.
         11    1    3    3    0    0 -0.15970923306E+02 -0.77327980860E+01 -0.17856975564E+01  0.17834104225E+02  0.51100000000E-03 0.  1.
        -11    1    3    3    0    0  0.10442513453E+02 -0.11138917019E+02 -0.23991971709E+02  0.28438288738E+02  0.51100000000E-03 0. -1.
        -12    1    3    3    0    0  0.84938300847E+01  0.88696767596E+01 -0.43534819595E+01  0.13029547978E+02  0.00000000000E+00 0.  1.
</event>
<event>
 7    1  0.5662448E-012  0.5930194E+02  0.7816164E-02  0.1266605E+00
        -11   -1    0    0    0    0  0.00000000000E+00  0.00000000000E+00  0.45593999997E+02  0.45594000000E+02  0.51100000000E-03 0.  1.
         11   -1    0    0    0    0 -0.00000000000E+00 -0.00000000000E+00 -0.45593999997E+02  0.45594000000E+02  0.51100000000E-03 0. -1.
    9900012    2    1    2    0    0  0.66212146234E+01 -0.27041729601E+02  0.15544296510E+02  0.59301940712E+02  0.49999993953E+02 0.  0.
         12    1    1    2    0    0 -0.66212146234E+01  0.27041729601E+02 -0.15544296510E+02  0.31886059288E+02  0.00000000000E+00 0. -1.
         11    1    3    3    0    0 -0.80517441753E+01 -0.19499256491E+02  0.19022951449E+02  0.28406412481E+02  0.51100000000E-03 0. -1.
        -11    1    3    3    0    0  0.57706221378E+01 -0.16849238743E+02 -0.24094507677E+01  0.17972266951E+02  0.51100000000E-03 0.  1.
         12    1    3    3    0    0  0.89023366608E+01  0.93067656325E+01 -0.10692041713E+01  0.12923261280E+02  0.00000000000E+00 0. -1.
</event>
<event>
 7    1  0.5662448E-012  0.5930195E+02  0.7816164E-02  0.1266605E+00
        -11   -1    0    0    0    0  0.00000000000E+00  0.00000000000E+00  0.45593999997E+02  0.45594000000E+02  0.51100000000E-03 0.  1.
         11   -1    0    0    0    0 -0.00000000000E+00 -0.00000000000E+00 -0.45593999997E+02  0.45594000000E+02  0.51100000000E-03 0. -1.
    9900012    2    1    2    0    0 -0.16363608285E+01 -0.29979717678E+02  0.10735875969E+02  0.59301950047E+02  0.50000010977E+02 0.  0.
         12    1    1    2    0    0  0.16363608285E+01  0.29979717678E+02 -0.10735875969E+02  0.31886049953E+02  0.00000000000E+00 0. -1.
         11    1    3    3    0    0 -0.18598020680E+02 -0.14168024553E+01 -0.39030839647E+01  0.19055911605E+02  0.51100000000E-03 0. -1.
        -11    1    3    3    0    0  0.30298695119E+00 -0.15516440389E+00  0.62541989296E+01  0.62634560426E+01  0.51100000000E-03 0.  1.
        -12    1    3    3    0    0  0.16658672900E+02 -0.28407750819E+02  0.83847610043E+01  0.33982582399E+02  0.00000000000E+00 0.  1.
</event>
<event>
 7    1  0.5662448E-012  0.5930198E+02  0.7816164E-02  0.1266605E+00
        -11   -1    0    0    0    0  0.00000000000E+00  0.00000000000E+00  0.45593999997E+02  0.45594000000E+02  0.51100000000E-03 0.  1.
         11   -1    0    0    0    0 -0.00000000000E+00 -0.00000000000E+00 -0.45593999997E+02  0.45594000000E+02  0.51100000000E-03 0. -1.
    9900012    2    1    2    0    0 -0.52833903215E+01  0.12450591631E+02  0.28875366247E+02  0.59301980789E+02  0.50000067044E+02 0.  0.
         12    1    1    2    0    0  0.52833903215E+01 -0.12450591631E+02 -0.28875366247E+02  0.31886019211E+02  0.00000000000E+00 0. -1.
         11    1    3    3    0    0 -0.84565942024E+01  0.10418498488E+01 -0.69271310776E+01  0.10981101121E+02  0.51100000000E-03 0. -1.
        -11    1    3    3    0    0 -0.55947730750E+01  0.11877938021E+02  0.18595757562E+01  0.13260653063E+02  0.51100000000E-03 0.  1.
        -12    1    3    3    0    0  0.87679769559E+01 -0.46919623945E+00  0.33942921568E+02  0.35060226605E+02  0.00000000000E+00 0.  1.
</event>
<event>
 7    1  0.5662448E-012  0.5930196E+02  0.7816164E-02  0.1266605E+00
        -11   -1    0    0    0    0  0.00000000000E+00  0.00000000000E+00  0.45593999997E+02  0.45594000000E+02  0.51100000000E-03 0. -1.
         11   -1    0    0    0    0 -0.00000000000E+00 -0.00000000000E+00 -0.45593999997E+02  0.45594000000E+02  0.51100000000E-03 0.  1.
    9900012    2    1    2    0    0  0.55780264813E+01 -0.14572772740E+02 -0.27807179418E+02  0.59301963684E+02  0.50000035849E+02 0.  0.
         12    1    1    2    0    0 -0.55780264813E+01  0.14572772740E+02  0.27807179418E+02  0.31886036316E+02  0.00000000000E+00 0. -1.
         11    1    3    3    0    0  0.15439277669E+02 -0.45821302823E+01 -0.14022754232E+02  0.21354270050E+02  0.51100000000E-03 0. -1.
        -11    1    3    3    0    0 -0.10118260718E+02 -0.21432480815E+02 -0.11204133306E+02  0.26215702112E+02  0.51100000000E-03 0.  1.
        -12    1    3    3    0    0  0.25700953068E+00  0.11441838357E+02 -0.25802918796E+01  0.11731991522E+02  0.00000000000E+00 0.  1.
</event>
<event>
 7    1  0.5662448E-012  0.5930194E+02  0.7816164E-02  0.1266605E+00
        -11   -1    0    0    0    0  0.00000000000E+00  0.00000000000E+00  0.45593999997E+02  0.45594000000E+02  0.51100000000E-03 0. -1.
         11   -1    0    0    0    0 -0.00000000000E+00 -0.00000000000E+00 -0.45593999997E+02  0.45594000000E+02  0.51100000000E-03 0.  1.
    9900012    2    1    2    0    0  0.35139619857E+01 -0.30513923980E+02  0.85599834496E+01  0.59301940316E+02  0.49999993231E+02 0.  0.
         12    1    1    2    0    0 -0.35139619857E+01  0.30513923980E+02 -0.85599834496E+01  0.31886059684E+02  0.00000000000E+00 0. -1.
         11    1    3    3    0    0  0.18661781440E+01  0.58960487748E+01 -0.67964575716E+01  0.91890068997E+01  0.51100000000E-03 0. -1.
        -11    1    3    3    0    0 -0.13766247042E+02 -0.19806989691E+02  0.29990592391E+01  0.24306804702E+02  0.51100000000E-03 0.  1.
        -12    1    3    3    0    0  0.15414030884E+02 -0.16602983064E+02  0.12357381782E+02  0.25806128714E+02  0.00000000000E+00 0.  1.
</event>
<event>
 7    1  0.5662448E-012  0.5930203E+02  0.7816164E-02  0.1266604E+00
        -11   -1    0    0    0    0  0.00000000000E+00  0.00000000000E+00  0.45593999997E+02  0.45594000000E+02  0.51100000000E-03 0.  1.
         11   -1    0    0    0    0 -0.00000000000E+00 -0.00000000000E+00 -0.45593999997E+02  0.45594000000E+02  0.51100000000E-03 0. -1.
    9900012    2    1    2    0    0  0.13074637363E+02 -0.15580900632E+02  0.24556154008E+02  0.59302026496E+02  0.50000150402E+02 0.  0.
         12    1    1    2    0    0 -0.13074637363E+02  0.15580900632E+02 -0.24556154008E+02  0.31885973504E+02  0.00000000000E+00 0. -1.
         11    1    3    3    0    0  0.13628836119E+02  0.31440373129E+01  0.17863014716E+02  0.22687385032E+02  0.51100000000E-03 0. -1.
        -11    1    3    3    0    0  0.11258972645E+02  0.26545211302E+01  0.24051445929E+01  0.11815061076E+02  0.51100000000E-03 0.  1.
         12    1    3    3    0    0 -0.11813171401E+02 -0.21379459075E+02  0.42879946987E+01  0.24799580388E+02  0.00000000000E+00 0. -1.
</event>
<event>
 7    1  0.5662448E-012  0.5930196E+02  0.7816164E-02  0.1266605E+00
        -11   -1    0    0    0    0  0.00000000000E+00  0.00000000000E+00  0.45593999997E+02  0.45594000000E+02  0.51100000000E-03 0. -1.
         11   -1    0    0    0    0 -0.00000000000E+00 -0.00000000000E+00 -0.45593999997E+02  0.45594000000E+02  0.51100000000E-03 0.  1.
    9900012    2    1    2    0    0  0.23562219950E+01 -0.95225671824E+01 -0.30339555126E+02  0.59301958021E+02  0.50000025520E+02 0.  0.
         12    1    1    2    0    0 -0.23562219950E+01  0.95225671824E+01  0.30339555126E+02  0.31886041979E+02  0.00000000000E+00 0. -1.
         11    1    3    3    0    0 -0.83006832528E+00 -0.24213945052E+01  0.71385085618E+00  0.26573949801E+01  0.51100000000E-03 0. -1.
        -11    1    3    3    0    0  0.12540942703E+02 -0.72261197889E+01 -0.40705705366E+02  0.43202389988E+02  0.51100000000E-03 0.  1.
         12    1    3    3    0    0 -0.93546523823E+01  0.12494711166E+00  0.96522993838E+01  0.13442173052E+02  0.00000000000E+00 0. -1.
</event>
<event>
 7    1  0.5662448E-012  0.5930193E+02  0.7816164E-02  0.1266605E+00
        -11   -1    0    0    0    0  0.00000000000E+00  0.00000000000E+00  0.45593999997E+02  0.45594000000E+02  0.51100000000E-03 0.  1.
         11   -1    0    0    0    0 -0.00000000000E+00 -0.00000000000E+00 -0.45593999997E+02  0.45594000000E+02  0.51100000000E-03 0. -1.
    9900012    2    1    2    0    0  0.29156687095E+02 -0.31107596994E+00  0.12903955441E+02  0.59301933504E+02  0.49999980806E+02 0.  0.
         12    1    1    2    0    0 -0.29156687095E+02  0.31107596994E+00 -0.12903955441E+02  0.31886066496E+02  0.00000000000E+00 0. -1.
         11    1    3    3    0    0 -0.51455401025E+01  0.37954147669E+01  0.15813966949E+01  0.65865447669E+01  0.51100000000E-03 0. -1.
        -11    1    3    3    0    0 -0.34930058155E+01 -0.10430082472E+02  0.91937502725E+01  0.14335716038E+02  0.51100000000E-03 0.  1.
        -12    1    3    3    0    0  0.37795233013E+02  0.63235917350E+01  0.21288084733E+01  0.38379672698E+02  0.00000000000E+00 0.  1.
</event>
<event>
 7    1  0.5662448E-012  0.5930194E+02  0.7816164E-02  0.1266605E+00
        -11   -1    0    0    0    0  0.00000000000E+00  0.00000000000E+00  0.45593999997E+02  0.45594000000E+02  0.51100000000E-03 0. -1.
         11   -1    0    0    0    0 -0.00000000000E+00 -0.00000000000E+00 -0.45593999997E+02  0.45594000000E+02  0.51100000000E-03 0.  1.
    9900012    2    1    2    0    0 -0.79175652194E+01  0.82018014935E+01 -0.29778577369E+02  0.59301936322E+02  0.49999985946E+02 0.  0.
         12    1    1    2    0    0  0.79175652194E+01 -0.82018014935E+01  0.29778577369E+02  0.31886063678E+02  0.00000000000E+00 0. -1.
         11    1    3    3    0    0 -0.71518098430E+01  0.12588603048E+02 -0.62529091431E+01  0.15770865028E+02  0.51100000000E-03 0. -1.
        -11    1    3    3    0    0 -0.16097563877E+02 -0.20128432168E+01 -0.10977779046E+01  0.16260018979E+02  0.51100000000E-03 0.  1.
        -12    1    3    3    0    0  0.15331808501E+02 -0.23739583372E+01 -0.22427890322E+02  0.27271052315E+02  0.00000000000E+00 0.  1.
</event>
<event>
 7    1  0.5662448E-012  0.5930197E+02  0.7816164E-02  0.1266605E+00
        -11   -1    0    0    0    0  0.00000000000E+00  0.00000000000E+00  0.45593999997E+02  0.45594000000E+02  0.51100000000E-03 0.  1.
         11   -1    0    0    0    0 -0.00000000000E+00 -0.00000000000E+00 -0.45593999997E+02  0.45594000000E+02  0.51100000000E-03 0. -1.
    9900012    2    1    2    0    0 -0.18090893358E+02 -0.16775746761E+02  0.20199325850E+02  0.59301970666E+02  0.50000048582E+02 0.  0.
         12    1    1    2    0    0  0.18090893358E+02  0.16775746761E+02 -0.20199325850E+02  0.31886029334E+02  0.00000000000E+00 0. -1.
         11    1    3    3    0    0 -0.51568487264E+01 -0.11746633802E+02  0.12853197636E+02  0.18159878419E+02  0.51100000000E-03 0.  1.
        -11    1    3    3    0    0  0.68798349252E+00  0.15393890811E+02 -0.35513853150E+00  0.15413348735E+02  0.51100000000E-03 0. -1.
         12    1    3    3    0    0 -0.13622028124E+02 -0.20423003770E+02  0.77012667456E+01  0.25728743512E+02  0.00000000000E+00 0. -1.
</event>
<event>
 7    1  0.5662448E-012  0.5930192E+02  0.7816164E-02  0.1266605E+00
        -11   -1    0    0    0    0  0.00000000000E+00  0.00000000000E+00  0.45593999997E+02  0.45594000000E+02  0.51100000000E-03 0. -1.
         11   -1    0    0    0    0 -0.00000000000E+00 -0.00000000000E+00 -0.45593999997E+02  0.45594000000E+02  0.51100000000E-03 0.  1.
    9900012    2    1    2    0    0  0.17929123058E+02 -0.15645246582E+02 -0.21224869067E+02  0.59301917438E+02  0.49999951508E+02 0.  0.
         12    1    1    2    0    0 -0.17929123058E+02  0.15645246582E+02  0.21224869067E+02  0.31886082562E+02  0.00000000000E+00 0. -1.
         11    1    3    3    0    0  0.80965937588E+01  0.15039075058E+01  0.42238214524E+01  0.92551194592E+01  0.51100000000E-03 0. -1.
        -11    1    3    3    0    0  0.14658943423E+01 -0.28731940248E+02 -0.16038301326E+02  0.32937825464E+02  0.51100000000E-03 0.  1.
         12    1    3    3    0    0  0.83666349565E+01  0.11582786161E+02 -0.94103891938E+01  0.17108972515E+02  0.00000000000E+00 0. -1.
</event>
<event>
 7    1  0.5662448E-012  0.5930195E+02  0.7816164E-02  0.1266605E+00
        -11   -1    0    0    0    0  0.00000000000E+00  0.00000000000E+00  0.45593999997E+02  0.45594000000E+02  0.51100000000E-03 0. -1.
         11   -1    0    0    0    0 -0.00000000000E+00 -0.00000000000E+00 -0.45593999997E+02  0.45594000000E+02  0.51100000000E-03 0.  1.
    9900012    2    1    2    0    0  0.15582236304E+02 -0.17951065266E+02 -0.21252609291E+02  0.59301949224E+02  0.50000009477E+02 0.  0.
         12    1    1    2    0    0 -0.15582236304E+02  0.17951065266E+02  0.21252609291E+02  0.31886050776E+02  0.00000000000E+00 0. -1.
         11    1    3    3    0    0  0.15551055953E+02 -0.89524857297E+01  0.12126249186E+02  0.21657060317E+02  0.51100000000E-03 0. -1.
        -11    1    3    3    0    0  0.51110012516E+01 -0.15480057050E+01 -0.33800651386E+01  0.63200867129E+01  0.51100000000E-03 0.  1.
        -12    1    3    3    0    0 -0.50798209004E+01 -0.74505738313E+01 -0.29998793338E+02  0.31324802195E+02  0.00000000000E+00 0.  1.
</event>
<event>
 7    1  0.5662448E-012  0.5930195E+02  0.7816164E-02  0.1266605E+00
        -11   -1    0    0    0    0  0.00000000000E+00  0.00000000000E+00  0.45593999997E+02  0.45594000000E+02  0.51100000000E-03 0.  1.
         11   -1    0    0    0    0 -0.00000000000E+00 -0.00000000000E+00 -0.45593999997E+02  0.45594000000E+02  0.51100000000E-03 0. -1.
    9900012    2    1    2    0    0  0.28981532488E+02  0.78988342076E+01  0.10695755729E+02  0.59301952929E+02  0.50000016234E+02 0.  0.
         12    1    1    2    0    0 -0.28981532488E+02 -0.78988342076E+01 -0.10695755729E+02  0.31886047071E+02  0.00000000000E+00 0. -1.
         11    1    3    3    0    0  0.52484910733E+01  0.49405163211E+01  0.12885977347E+02  0.14764950813E+02  0.51100000000E-03 0. -1.
        -11    1    3    3    0    0  0.26255082968E+02 -0.89768988291E+01  0.77408950617E+01  0.28806866384E+02  0.51100000000E-03 0.  1.
         12    1    3    3    0    0 -0.25220415532E+01  0.11935216716E+02 -0.99311166800E+01  0.15730135732E+02  0.00000000000E+00 0. -1.
</event>
<event>
 7    1  0.5662448E-012  0.5930197E+02  0.7816164E-02  0.1266605E+00
        -11   -1    0    0    0    0  0.00000000000E+00  0.00000000000E+00  0.45593999997E+02  0.45594000000E+02  0.51100000000E-03 0. -1.
         11   -1    0    0    0    0 -0.00000000000E+00 -0.00000000000E+00 -0.45593999997E+02  0.45594000000E+02  0.51100000000E-03 0.  1.
    9900012    2    1    2    0    0 -0.12909414840E+02 -0.25739871762E+02 -0.13693978143E+02  0.59301968149E+02  0.50000043991E+02 0.  0.
         12    1    1    2    0    0  0.12909414840E+02  0.25739871762E+02  0.13693978143E+02  0.31886031851E+02  0.00000000000E+00 0. -1.
         11    1    3    3    0    0 -0.11603362986E+01  0.46946519655E+01  0.21806251304E+01  0.53048339864E+01  0.51100000000E-03 0. -1.
        -11    1    3    3    0    0 -0.66403375012E+01 -0.14736977994E+01 -0.22793046422E+02  0.23786316083E+02  0.51100000000E-03 0.  1.
         12    1    3    3    0    0 -0.51087410406E+01 -0.28960825928E+02  0.69184431485E+01  0.30210818080E+02  0.00000000000E+00 0. -1.
</event>
<event>
 7    1  0.5662448E-012  0.5930195E+02  0.7816164E-02  0.1266605E+00
        -11   -1    0    0    0    0  0.00000000000E+00  0.00000000000E+00  0.45593999997E+02  0.45594000000E+02  0.51100000000E-03 0. -1.
         11   -1    0    0    0    0 -0.00000000000E+00 -0.00000000000E+00 -0.45593999997E+02  0.45594000000E+02  0.51100000000E-03 0.  1.
    9900012    2    1    2    0    0  0.29235289853E+02  0.86225307170E+00 -0.12699389637E+02  0.59301950538E+02  0.50000011873E+02 0.  0.
         12    1    1    2    0    0 -0.29235289853E+02 -0.86225307170E+00  0.12699389637E+02  0.31886049462E+02  0.00000000000E+00 0. -1.
         11    1    3    3    0    0  0.92316474049E+01 -0.98237927069E+01 -0.21265965914E+01  0.13647440430E+02  0.51100000000E-03 0. -1.
        -11    1    3    3    0    0  0.17293237378E+02 -0.35471891059E+01 -0.21272192390E+02  0.27643168757E+02  0.51100000000E-03 0.  1.
         12    1    3    3    0    0  0.27104050701E+01  0.14233234885E+02  0.10699399345E+02  0.18011341351E+02  0.00000000000E+00 0. -1.
</event>
<event>
 7    1  0.5662448E-012  0.5930198E+02  0.7816164E-02  0.1266605E+00
        -11   -1    0    0    0    0  0.00000000000E+00  0.00000000000E+00  0.45593999997E+02  0.45594000000E+02  0.51100000000E-03 0. -1.
         11   -1    0    0    0    0 -0.00000000000E+00 -0.00000000000E+00 -0.45593999997E+02  0.45594000000E+02  0.51100000000E-03 0.  1.
    9900012    2    1    2    0    0  0.12945933931E+02 -0.28319278429E+02  0.68658432183E+01  0.59301975801E+02  0.50000057947E+02 0.  0.
         12    1    1    2    0    0 -0.12945933931E+02  0.28319278429E+02 -0.68658432183E+01  0.31886024199E+02  0.00000000000E+00 0. -1.
         11    1    3    3    0    0 -0.88214619951E+01 -0.50368299152E+01  0.34131464990E+00  0.10163874422E+02  0.51100000000E-03 0. -1.
        -11    1    3    3    0    0 -0.45707866674E+01 -0.20601744605E+02 -0.23098585321E+01  0.21228740382E+02  0.51100000000E-03 0.  1.
         12    1    3    3    0    0  0.26338182594E+02 -0.26807039092E+01  0.88343871006E+01  0.27909360996E+02  0.00000000000E+00 0. -1.
</event>
<event>
 7    1  0.5662448E-012  0.5930194E+02  0.7816164E-02  0.1266605E+00
        -11   -1    0    0    0    0  0.00000000000E+00  0.00000000000E+00  0.45593999997E+02  0.45594000000E+02  0.51100000000E-03 0.  1.
         11   -1    0    0    0    0 -0.00000000000E+00 -0.00000000000E+00 -0.45593999997E+02  0.45594000000E+02  0.51100000000E-03 0. -1.
    9900012    2    1    2    0    0 -0.30679274291E+02  0.38862481421E+00 -0.86805359080E+01  0.59301943425E+02  0.49999998900E+02 0.  0.
         12    1    1    2    0    0  0.30679274291E+02 -0.38862481421E+00  0.86805359080E+01  0.31886056575E+02  0.00000000000E+00 0. -1.
         11    1    3    3    0    0 -0.11990638770E+02 -0.15018821353E+02  0.16957460642E+01  0.19292899418E+02  0.51100000000E-03 0. -1.
        -11    1    3    3    0    0  0.36741504780E+01 -0.34200193238E+01  0.49090613166E+01  0.70210253654E+01  0.51100000000E-03 0.  1.
        -12    1    3    3    0    0 -0.22362785999E+02  0.18827465491E+02 -0.15285343289E+02  0.32988018642E+02  0.00000000000E+00 0.  1.
</event>
<event>
 7    1  0.5662448E-012  0.5930206E+02  0.7816164E-02  0.1266604E+00
        -11   -1    0    0    0    0  0.00000000000E+00  0.00000000000E+00  0.45593999997E+02  0.45594000000E+02  0.51100000000E-03 0.  1.
         11   -1    0    0    0    0 -0.00000000000E+00 -0.00000000000E+00 -0.45593999997E+02  0.45594000000E+02  0.51100000000E-03 0. -1.
    9900012    2    1    2    0    0 -0.15936754443E+02  0.18465786738E+02  0.20536505126E+02  0.59302055372E+02  0.50000203065E+02 0.  0.
         12    1    1    2    0    0  0.15936754443E+02 -0.18465786738E+02 -0.20536505126E+02  0.31885944628E+02  0.00000000000E+00 0. -1.
         11    1    3    3    0    0  0.64664406395E+01  0.14621656060E+01  0.12647022608E+02  0.14279354465E+02  0.51100000000E-03 0. -1.
        -11    1    3    3    0    0 -0.83846386058E+01 -0.54339362687E-01 -0.12445121585E+02  0.15006204345E+02  0.51100000000E-03 0.  1.
         12    1    3    3    0    0 -0.14018556477E+02  0.17057960494E+02  0.20334604102E+02  0.30016496563E+02  0.00000000000E+00 0. -1.
</event>
<event>
 7    1  0.5662448E-012  0.5930192E+02  0.7816164E-02  0.1266605E+00
        -11   -1    0    0    0    0  0.00000000000E+00  0.00000000000E+00  0.45593999997E+02  0.45594000000E+02  0.51100000000E-03 0. -1.
         11   -1    0    0    0    0 -0.00000000000E+00 -0.00000000000E+00 -0.45593999997E+02  0.45594000000E+02  0.51100000000E-03 0.  1.
    9900012    2    1    2    0    0 -0.12101528443E+02 -0.13003024283E+02 -0.26480113475E+02  0.59301920893E+02  0.49999957808E+02 0.  0.
         12    1    1    2    0    0  0.12101528443E+02  0.13003024283E+02  0.26480113475E+02  0.31886079107E+02  0.00000000000E+00 0. -1.
         11    1    3    3    0    0  0.10438055122E+02 -0.12036766861E+01 -0.33246133220E+01  0.11020657254E+02  0.51100000000E-03 0. -1.
        -11    1    3    3    0    0 -0.79156026379E+01  0.82794316787E+00  0.82150558170E+01  0.11438067903E+02  0.51100000000E-03 0.  1.
        -12    1    3    3    0    0 -0.14623980927E+02 -0.12627290765E+02 -0.31370555970E+02  0.36843195737E+02  0.00000000000E+00 0.  1.
</event>
<event>
 7    1  0.5662448E-012  0.5930194E+02  0.7816164E-02  0.1266605E+00
        -11   -1    0    0    0    0  0.00000000000E+00  0.00000000000E+00  0.45593999997E+02  0.45594000000E+02  0.51100000000E-03 0.  1.
         11   -1    0    0    0    0 -0.00000000000E+00 -0.00000000000E+00 -0.45593999997E+02  0.45594000000E+02  0.51100000000E-03 0. -1.
    9900012    2    1    2    0    0 -0.93924375876E+01  0.93062584774E+01  0.29015457420E+02  0.59301935646E+02  0.49999984714E+02 0.  0.
         12    1    1    2    0    0  0.93924375876E+01 -0.93062584774E+01 -0.29015457420E+02  0.31886064354E+02  0.00000000000E+00 0. -1.
         11    1    3    3    0    0 -0.17497429107E+02  0.17973150830E+02  0.16074250542E+02  0.29792208829E+02  0.51100000000E-03 0. -1.
        -11    1    3    3    0    0  0.10760774408E+02  0.40328884689E+01  0.45147485883E+00  0.11500534121E+02  0.51100000000E-03 0.  1.
         12    1    3    3    0    0 -0.26557828883E+01 -0.12699780822E+02  0.12489732019E+02  0.18009192697E+02  0.00000000000E+00 0. -1.
</event>
<event>
 7    1  0.5662448E-012  0.5930190E+02  0.7816164E-02  0.1266605E+00
        -11   -1    0    0    0    0  0.00000000000E+00  0.00000000000E+00  0.45593999997E+02  0.45594000000E+02  0.51100000000E-03 0. -1.
         11   -1    0    0    0    0 -0.00000000000E+00 -0.00000000000E+00 -0.45593999997E+02  0.45594000000E+02  0.51100000000E-03 0.  1.
    9900012    2    1    2    0    0  0.37965170988E+01 -0.28190297182E+02 -0.14408927875E+02  0.59301896446E+02  0.49999913223E+02 0.  0.
         12    1    1    2    0    0 -0.37965170988E+01  0.28190297182E+02  0.14408927875E+02  0.31886103554E+02  0.00000000000E+00 0. -1.
         11    1    3    3    0    0 -0.12205329114E+01  0.31088789908E+01 -0.10645138952E+02  0.11156783261E+02  0.51100000000E-03 0. -1.
        -11    1    3    3    0    0 -0.12398351438E+02 -0.27152882328E+02 -0.47054041353E+01  0.30218189315E+02  0.51100000000E-03 0.  1.
         12    1    3    3    0    0  0.17415401449E+02 -0.41462938447E+01  0.94161521154E+00  0.17926923871E+02  0.00000000000E+00 0. -1.
</event>
<event>
 7    1  0.5662448E-012  0.5930166E+02  0.7816164E-02  0.1266606E+00
        -11   -1    0    0    0    0  0.00000000000E+00  0.00000000000E+00  0.45593999997E+02  0.45594000000E+02  0.51100000000E-03 0.  1.
         11   -1    0    0    0    0 -0.00000000000E+00 -0.00000000000E+00 -0.45593999997E+02  0.45594000000E+02  0.51100000000E-03 0. -1.
    9900012    2    1    2    0    0  0.46025773777E+01 -0.26593448125E+02  0.16980684154E+02  0.59301657531E+02  0.49999477496E+02 0.  0.
         12    1    1    2    0    0 -0.46025773777E+01  0.26593448125E+02 -0.16980684154E+02  0.31886342469E+02  0.00000000000E+00 0. -1.
         11    1    3    3    0    0  0.20726813291E+01  0.44180552848E+01 -0.53853393498E+01  0.72675374485E+01  0.51100000000E-03 0. -1.
        -11    1    3    3    0    0 -0.11762512406E+02  0.11009765677E+01  0.49946655481E+01  0.12826360813E+02  0.51100000000E-03 0.  1.
        -12    1    3    3    0    0  0.14292408454E+02 -0.32112479978E+02  0.17371357956E+02  0.39207759270E+02  0.00000000000E+00 0.  1.
</event>
<event>
 7    1  0.5662448E-012  0.5930193E+02  0.7816164E-02  0.1266605E+00
        -11   -1    0    0    0    0  0.00000000000E+00  0.00000000000E+00  0.45593999997E+02  0.45594000000E+02  0.51100000000E-03 0.  1.
         11   -1    0    0    0    0 -0.00000000000E+00 -0.00000000000E+00 -0.45593999997E+02  0.45594000000E+02  0.51100000000E-03 0. -1.
    9900012    2    1    2    0    0  0.22552063989E+02 -0.21473363179E+02  0.68571519866E+01  0.59301930162E+02  0.49999974712E+02 0.  0.
         12    1    1    2    0    0 -0.22552063989E+02  0.21473363179E+02 -0.68571519866E+01  0.31886069838E+02  0.00000000000E+00 0. -1.
         11    1    3    3    0    0  0.14669571892E+02 -0.64986422383E+01  0.83203413253E+00  0.16066143641E+02  0.51100000000E-03 0. -1.
        -11    1    3    3    0    0  0.20036947101E+02  0.16877229374E+01  0.96361584865E+01  0.22297605442E+02  0.51100000000E-03 0.  1.
         12    1    3    3    0    0 -0.12154455004E+02 -0.16662443878E+02 -0.36110406324E+01  0.20938181078E+02  0.00000000000E+00 0. -1.
</event>
<event>
 7    1  0.5662448E-012  0.5930194E+02  0.7816164E-02  0.1266605E+00
        -11   -1    0    0    0    0  0.00000000000E+00  0.00000000000E+00  0.45593999997E+02  0.45594000000E+02  0.51100000000E-03 0. -1.
         11   -1    0    0    0    0 -0.00000000000E+00 -0.00000000000E+00 -0.45593999997E+02  0.45594000000E+02  0.51100000000E-03 0.  1.
    9900012    2    1    2    0    0  0.22898078347E+01 -0.20486924640E+02 -0.24326193591E+02  0.59301937280E+02  0.49999987694E+02 0.  0.
         12    1    1    2    0    0 -0.22898078347E+01  0.20486924640E+02  0.24326193591E+02  0.31886062720E+02  0.00000000000E+00 0. -1.
         11    1    3    3    0    0  0.34039090418E+01  0.60824888710E+01  0.39097467513E+01  0.79918325528E+01  0.51100000000E-03 0. -1.
        -11    1    3    3    0    0 -0.83299638413E+01 -0.28806017926E+02 -0.10063383413E+02  0.31629838007E+02  0.51100000000E-03 0.  1.
         12    1    3    3    0    0  0.72158626342E+01  0.22366044143E+01 -0.18172556929E+02  0.19680266721E+02  0.00000000000E+00 0. -1.
</event>
<event>
 7    1  0.5662448E-012  0.5930193E+02  0.7816164E-02  0.1266605E+00
        -11   -1    0    0    0    0  0.00000000000E+00  0.00000000000E+00  0.45593999997E+02  0.45594000000E+02  0.51100000000E-03 0.  1.
         11   -1    0    0    0    0 -0.00000000000E+00 -0.00000000000E+00 -0.45593999997E+02  0.45594000000E+02  0.51100000000E-03 0. -1.
    9900012    2    1    2    0    0  0.10432620262E+02 -0.27253470161E+02 -0.12850302030E+02  0.59301929944E+02  0.49999974315E+02 0.  0.
         12    1    1    2    0    0 -0.10432620262E+02  0.27253470161E+02  0.12850302030E+02  0.31886070056E+02  0.00000000000E+00 0. -1.
         11    1    3    3    0    0 -0.98457802896E+01  0.36819370985E+00 -0.14580498725E+02  0.17597326486E+02  0.51100000000E-03 0.  1.
        -11    1    3    3    0    0  0.14208444032E+02 -0.87735879540E+00  0.18693982217E+00  0.14236733721E+02  0.51100000000E-03 0. -1.
        -12    1    3    3    0    0  0.60699565190E+01 -0.26744305076E+02  0.15432568732E+01  0.27467869737E+02  0.00000000000E+00 0.  1.
</event>
<event>
 7    1  0.5662448E-012  0.5930191E+02  0.7816164E-02  0.1266605E+00
        -11   -1    0    0    0    0  0.00000000000E+00  0.00000000000E+00  0.45593999997E+02  0.45594000000E+02  0.51100000000E-03 0. -1.
         11   -1    0    0    0    0 -0.00000000000E+00 -0.00000000000E+00 -0.45593999997E+02  0.45594000000E+02  0.51100000000E-03 0.  1.
    9900012    2    1    2    0    0 -0.10907197799E+02 -0.54838176954E+01 -0.29456473027E+02  0.59301905483E+02  0.49999929704E+02 0.  0.
         12    1    1    2    0    0  0.10907197799E+02  0.54838176954E+01  0.29456473027E+02  0.31886094517E+02  0.00000000000E+00 0. -1.
         11    1    3    3    0    0  0.13100062074E+02 -0.65104974940E+01 -0.10029920317E+02  0.17736896735E+02  0.51100000000E-03 0. -1.
        -11    1    3    3    0    0  0.15358111874E+01  0.16139622156E+01 -0.15566644508E+02  0.15725266660E+02  0.51100000000E-03 0.  1.
         12    1    3    3    0    0 -0.25543071060E+02 -0.58728241694E+00 -0.38599082027E+01  0.25839742088E+02  0.00000000000E+00 0. -1.
</event>
<event>
 7    1  0.5662448E-012  0.5930195E+02  0.7816164E-02  0.1266605E+00
        -11   -1    0    0    0    0  0.00000000000E+00  0.00000000000E+00  0.45593999997E+02  0.45594000000E+02  0.51100000000E-03 0.  1.
         11   -1    0    0    0    0 -0.00000000000E+00 -0.00000000000E+00 -0.45593999997E+02  0.45594000000E+02  0.51100000000E-03 0. -1.
    9900012    2    1    2    0    0 -0.53049208110E+01  0.17279996313E+02  0.26267462747E+02  0.59301952008E+02  0.50000014554E+02 0.  0.
         12    1    1    2    0    0  0.53049208110E+01 -0.17279996313E+02 -0.26267462747E+02  0.31886047992E+02  0.00000000000E+00 0. -1.
         11    1    3    3    0    0  0.37931346941E+01 -0.10614763266E+02 -0.73151415044E+00  0.11295848052E+02  0.51100000000E-03 0. -1.
        -11    1    3    3    0    0 -0.56447337344E+01  0.98518548524E+01 -0.39448139797E+01  0.12020133966E+02  0.51100000000E-03 0.  1.
        -12    1    3    3    0    0 -0.34533217707E+01  0.18042904727E+02  0.30943790877E+02  0.35985969990E+02  0.00000000000E+00 0.  1.
</event>
<event>
 7    1  0.5662448E-012  0.5930194E+02  0.7816164E-02  0.1266605E+00
        -11   -1    0    0    0    0  0.00000000000E+00  0.00000000000E+00  0.45593999997E+02  0.45594000000E+02  0.51100000000E-03 0. -1.
         11   -1    0    0    0    0 -0.00000000000E+00 -0.00000000000E+00 -0.45593999997E+02  0.45594000000E+02  0.51100000000E-03 0.  1.
    9900012    2    1    2    0    0 -0.29065269164E+02  0.12269303043E+02  0.46254684944E+01  0.59301943054E+02  0.49999998224E+02 0.  0.
         12    1    1    2    0    0  0.29065269164E+02 -0.12269303043E+02 -0.46254684944E+01  0.31886056946E+02  0.00000000000E+00 0. -1.
         11    1    3    3    0    0 -0.11044482974E+02 -0.36181281375E+01  0.38648996331E+01  0.12247812246E+02  0.51100000000E-03 0. -1.
        -11    1    3    3    0    0 -0.29049391276E+02  0.17316136484E+02  0.66555417831E+01  0.34467549273E+02  0.51100000000E-03 0.  1.
         12    1    3    3    0    0  0.11028605085E+02 -0.14287053037E+01 -0.58949729218E+01  0.12586581534E+02  0.00000000000E+00 0. -1.
</event>
<event>
 7    1  0.5662448E-012  0.5930193E+02  0.7816164E-02  0.1266605E+00
        -11   -1    0    0    0    0  0.00000000000E+00  0.00000000000E+00  0.45593999997E+02  0.45594000000E+02  0.51100000000E-03 0.  1.
         11   -1    0    0    0    0 -0.00000000000E+00 -0.00000000000E+00 -0.45593999997E+02  0.45594000000E+02  0.51100000000E-03 0. -1.
    9900012    2    1    2    0    0  0.30835628236E+02  0.30148880898E-01 -0.81169279651E+01  0.59301930984E+02  0.49999976212E+02 0.  0.
         12    1    1    2    0    0 -0.30835628236E+02 -0.30148880898E-01  0.81169279651E+01  0.31886069016E+02  0.00000000000E+00 0. -1.
         11    1    3    3    0    0  0.14408640258E+02 -0.28194296606E+01 -0.10525960361E+02  0.18065268874E+02  0.51100000000E-03 0. -1.
        -11    1    3    3    0    0  0.27717330096E+02 -0.39242760238E+01  0.19658984358E+01  0.28062699209E+02  0.51100000000E-03 0.  1.
         12    1    3    3    0    0 -0.11290342118E+02  0.67738545653E+01  0.44313396040E+00  0.13173962901E+02  0.00000000000E+00 0. -1.
</event>
<event>
 7    1  0.5662448E-012  0.5930200E+02  0.7816164E-02  0.1266605E+00
        -11   -1    0    0    0    0  0.00000000000E+00  0.00000000000E+00  0.45593999997E+02  0.45594000000E+02  0.51100000000E-03 0.  1.
         11   -1    0    0    0    0 -0.00000000000E+00 -0.00000000000E+00 -0.45593999997E+02  0.45594000000E+02  0.51100000000E-03 0. -1.
    9900012    2    1    2    0    0  0.15456510994E+02  0.12068224273E+02  0.25143020963E+02  0.59301995667E+02  0.50000094177E+02 0.  0.
         12    1    1    2    0    0 -0.15456510994E+02 -0.12068224273E+02 -0.25143020963E+02  0.31886004333E+02  0.00000000000E+00 0. -1.
         11    1    3    3    0    0 -0.95636815983E+01  0.13032822729E+02  0.11944386494E+01  0.16209415719E+02  0.51100000000E-03 0.  1.
        -11    1    3    3    0    0 -0.12653321833E+01 -0.68780382985E+01  0.11392929140E+02  0.13368145384E+02  0.51100000000E-03 0. -1.
        -12    1    3    3    0    0  0.26285524776E+02  0.59134398426E+01  0.12555653174E+02  0.29724434564E+02  0.00000000000E+00 0.  1.
</event>
<event>
 7    1  0.5662448E-012  0.5930193E+02  0.7816164E-02  0.1266605E+00
        -11   -1    0    0    0    0  0.00000000000E+00  0.00000000000E+00  0.45593999997E+02  0.45594000000E+02  0.51100000000E-03 0.  1.
         11   -1    0    0    0    0 -0.00000000000E+00 -0.00000000000E+00 -0.45593999997E+02  0.45594000000E+02  0.51100000000E-03 0. -1.
    9900012    2    1    2    0    0 -0.66595441756E+01 -0.30722837516E+02  0.53365938248E+01  0.59301929259E+02  0.49999973065E+02 0.  0.
         12    1    1    2    0    0  0.66595441756E+01  0.30722837516E+02 -0.53365938248E+01  0.31886070741E+02  0.00000000000E+00 0. -1.
         11    1    3    3    0    0 -0.14155039254E+02  0.17249629386E+01  0.39318320377E+01  0.14791887535E+02  0.51100000000E-03 0.  1.
        -11    1    3    3    0    0 -0.11075388371E+02 -0.17197294259E+02  0.41262459625E+00  0.20459262370E+02  0.51100000000E-03 0. -1.
         12    1    3    3    0    0  0.18570883449E+02 -0.15250506195E+02  0.99213719086E+00  0.24050779354E+02  0.00000000000E+00 0. -1.
</event>
<event>
 7    1  0.5662448E-012  0.5930195E+02  0.7816164E-02  0.1266605E+00
        -11   -1    0    0    0    0  0.00000000000E+00  0.00000000000E+00  0.45593999997E+02  0.45594000000E+02  0.51100000000E-03 0.  1.
         11   -1    0    0    0    0 -0.00000000000E+00 -0.00000000000E+00 -0.45593999997E+02  0.45594000000E+02  0.51100000000E-03 0. -1.
    9900012    2    1    2    0    0  0.24664129315E+02  0.20161006743E+02  0.13908863631E+01  0.59301952383E+02  0.50000015237E+02 0.  0.
         12    1    1    2    0    0 -0.24664129315E+02 -0.20161006743E+02 -0.13908863631E+01  0.31886047617E+02  0.00000000000E+00 0. -1.
         11    1    3    3    0    0  0.10270923619E+02  0.10990108376E+02 -0.12258545101E+02  0.19404800498E+02  0.51100000000E-03 0. -1.
        -11    1    3    3    0    0  0.24586747896E+02  0.94288964707E+01  0.56378628437E+01  0.26929496068E+02  0.51100000000E-03 0.  1.
         12    1    3    3    0    0 -0.10193542201E+02 -0.25799810363E+00  0.80115686204E+01  0.12967655817E+02  0.00000000000E+00 0. -1.
</event>
<event>
 7    1  0.5662448E-012  0.5930196E+02  0.7816164E-02  0.1266605E+00
        -11   -1    0    0    0    0  0.00000000000E+00  0.00000000000E+00  0.45593999997E+02  0.45594000000E+02  0.51100000000E-03 0. -1.
         11   -1    0    0    0    0 -0.00000000000E+00 -0.00000000000E+00 -0.45593999997E+02  0.45594000000E+02  0.51100000000E-03 0.  1.
    9900012    2    1    2    0    0 -0.19600627359E+02  0.24285293525E+02 -0.65390958807E+01  0.59301955256E+02  0.50000020478E+02 0.  0.
         12    1    1    2    0    0  0.19600627359E+02 -0.24285293525E+02  0.65390958807E+01  0.31886044744E+02  0.00000000000E+00 0. -1.
         11    1    3    3    0    0  0.21625355222E-01  0.73190809103E+01  0.93675549956E+01  0.11887829906E+02  0.51100000000E-03 0. -1.
        -11    1    3    3    0    0 -0.26545662609E+02  0.22729114541E+01 -0.32862425027E+01  0.26844696309E+02  0.51100000000E-03 0.  1.
         12    1    3    3    0    0  0.69234098953E+01  0.14693301161E+02 -0.12620408374E+02  0.20569429041E+02  0.00000000000E+00 0. -1.
</event>
<event>
 7    1  0.5662448E-012  0.5930193E+02  0.7816164E-02  0.1266605E+00
        -11   -1    0    0    0    0  0.00000000000E+00  0.00000000000E+00  0.45593999997E+02  0.45594000000E+02  0.51100000000E-03 0. -1.
         11   -1    0    0    0    0 -0.00000000000E+00 -0.00000000000E+00 -0.45593999997E+02  0.45594000000E+02  0.51100000000E-03 0.  1.
    9900012    2    1    2    0    0  0.48152240304E+01 -0.29782296708E+02 -0.10322311656E+02  0.59301926275E+02  0.49999967624E+02 0.  0.
         12    1    1    2    0    0 -0.48152240304E+01  0.29782296708E+02  0.10322311656E+02  0.31886073725E+02  0.00000000000E+00 0. -1.
         11    1    3    3    0    0 -0.12581652655E+02 -0.19452276627E+02 -0.68404614174E+01  0.24155350591E+02  0.51100000000E-03 0. -1.
        -11    1    3    3    0    0  0.47833606982E+01 -0.27563416137E+01  0.12353711766E+02  0.13531154914E+02  0.51100000000E-03 0.  1.
        -12    1    3    3    0    0  0.12613515987E+02 -0.75736784668E+01 -0.15835562004E+02  0.21615420770E+02  0.00000000000E+00 0.  1.
</event>
<event>
 7    1  0.5662448E-012  0.5930195E+02  0.7816164E-02  0.1266605E+00
        -11   -1    0    0    0    0  0.00000000000E+00  0.00000000000E+00  0.45593999997E+02  0.45594000000E+02  0.51100000000E-03 0.  1.
         11   -1    0    0    0    0 -0.00000000000E+00 -0.00000000000E+00 -0.45593999997E+02  0.45594000000E+02  0.51100000000E-03 0. -1.
    9900012    2    1    2    0    0  0.15687799436E+02 -0.29590451010E+01  0.27601756330E+02  0.59301953655E+02  0.50000017557E+02 0.  0.
         12    1    1    2    0    0 -0.15687799436E+02  0.29590451010E+01 -0.27601756330E+02  0.31886046345E+02  0.00000000000E+00 0. -1.
         11    1    3    3    0    0  0.18262432484E+01  0.48994890983E+01  0.25803173764E+02  0.26327626828E+02  0.51100000000E-03 0. -1.
        -11    1    3    3    0    0  0.16597286585E+02  0.31917952069E+01  0.93482947095E+01  0.19314452953E+02  0.51100000000E-03 0.  1.
         12    1    3    3    0    0 -0.27357303970E+01 -0.11050329406E+02 -0.75497121441E+01  0.13659873874E+02  0.00000000000E+00 0. -1.
</event>
<event>
 7    1  0.5662448E-012  0.5930195E+02  0.7816164E-02  0.1266605E+00
        -11   -1    0    0    0    0  0.00000000000E+00  0.00000000000E+00  0.45593999997E+02  0.45594000000E+02  0.51100000000E-03 0.  1.
         11   -1    0    0    0    0 -0.00000000000E+00 -0.00000000000E+00 -0.45593999997E+02  0.45594000000E+02  0.51100000000E-03 0. -1.
    9900012    2    1    2    0    0 -0.22649666841E+02 -0.22268532372E+02  0.27973859762E+01  0.59301948028E+02  0.50000007296E+02 0.  0.
         12    1    1    2    0    0  0.22649666841E+02  0.22268532372E+02 -0.27973859762E+01  0.31886051972E+02  0.00000000000E+00 0. -1.
         11    1    3    3    0    0 -0.12476647788E+02  0.34286544916E+01 -0.14831870316E+02  0.19682651980E+02  0.51100000000E-03 0. -1.
        -11    1    3    3    0    0 -0.10083513681E+01 -0.49017028422E+01 -0.53326656985E+01  0.73130559240E+01  0.51100000000E-03 0.  1.
        -12    1    3    3    0    0 -0.91646676849E+01 -0.20795484022E+02  0.22961921990E+02  0.32306240124E+02  0.00000000000E+00 0.  1.
</event>
<event>
 7    1  0.5662448E-012  0.5930194E+02  0.7816164E-02  0.1266605E+00
        -11   -1    0    0    0    0  0.00000000000E+00  0.00000000000E+00  0.45593999997E+02  0.45594000000E+02  0.51100000000E-03 0.  1.
         11   -1    0    0    0    0 -0.00000000000E+00 -0.00000000000E+00 -0.45593999997E+02  0.45594000000E+02  0.51100000000E-03 0. -1.
    9900012    2    1    2    0    0  0.52156971511E+01  0.20053127365E+02  0.24236118829E+02  0.59301939256E+02  0.49999991298E+02 0.  0.
         12    1    1    2    0    0 -0.52156971511E+01 -0.20053127365E+02 -0.24236118829E+02  0.31886060744E+02  0.00000000000E+00 0. -1.
         11    1    3    3    0    0  0.90253933578E+01 -0.20591929881E+01  0.24373929398E+01  0.95728201503E+01  0.51100000000E-03 0. -1.
        -11    1    3    3    0    0  0.60943465773E+01  0.17915187641E+01  0.25975244850E+02  0.26740679591E+02  0.51100000000E-03 0.  1.
        -12    1    3    3    0    0 -0.99040427840E+01  0.20320801589E+02 -0.41765189617E+01  0.22988439515E+02  0.00000000000E+00 0.  1.
</event>
<event>
 7    1  0.5662448E-012  0.5930202E+02  0.7816164E-02  0.1266605E+00
        -11   -1    0    0    0    0  0.00000000000E+00  0.00000000000E+00  0.45593999997E+02  0.45594000000E+02  0.51100000000E-03 0. -1.
         11   -1    0    0    0    0 -0.00000000000E+00 -0.00000000000E+00 -0.45593999997E+02  0.45594000000E+02  0.51100000000E-03 0.  1.
    9900012    2    1    2    0    0  0.28552607662E+01  0.95949138221E+01 -0.30273767127E+02  0.59302017792E+02  0.50000134529E+02 0.  0.
         12    1    1    2    0    0 -0.28552607662E+01 -0.95949138221E+01  0.30273767127E+02  0.31885982208E+02  0.00000000000E+00 0. -1.
         11    1    3    3    0    0 -0.27343638868E+01 -0.55336292012E+01  0.12168034580E+01  0.62911373310E+01  0.51100000000E-03 0. -1.
        -11    1    3    3    0    0 -0.17542410436E-01  0.18802707563E+02  0.19513212672E+01  0.18903697373E+02  0.51100000000E-03 0.  1.
        -12    1    3    3    0    0  0.56071670634E+01 -0.36741645397E+01 -0.33441891852E+02  0.34107183088E+02  0.00000000000E+00 0.  1.
</event>
<event>
 7    1  0.5662448E-012  0.5930195E+02  0.7816164E-02  0.1266605E+00
        -11   -1    0    0    0    0  0.00000000000E+00  0.00000000000E+00  0.45593999997E+02  0.45594000000E+02  0.51100000000E-03 0.  1.
         11   -1    0    0    0    0 -0.00000000000E+00 -0.00000000000E+00 -0.45593999997E+02  0.45594000000E+02  0.51100000000E-03 0. -1.
    9900012    2    1    2    0    0  0.10072540889E+02 -0.25379737383E+02  0.16466120873E+02  0.59301948407E+02  0.50000007987E+02 0.  0.
         12    1    1    2    0    0 -0.10072540889E+02  0.25379737383E+02 -0.16466120873E+02  0.31886051593E+02  0.00000000000E+00 0. -1.
         11    1    3    3    0    0  0.34862536575E+01 -0.69377064740E+01 -0.98830258337E+01  0.12568211312E+02  0.51100000000E-03 0. -1.
        -11    1    3    3    0    0  0.15210727798E+01 -0.22595009223E+02  0.34391805206E+01  0.22905808588E+02  0.51100000000E-03 0.  1.
         12    1    3    3    0    0  0.50652144518E+01  0.41529783139E+01  0.22909966186E+02  0.23827928507E+02  0.00000000000E+00 0. -1.
</event>
<event>
 7    1  0.5662448E-012  0.5930194E+02  0.7816164E-02  0.1266605E+00
        -11   -1    0    0    0    0  0.00000000000E+00  0.00000000000E+00  0.45593999997E+02  0.45594000000E+02  0.51100000000E-03 0.  1.
         11   -1    0    0    0    0 -0.00000000000E+00 -0.00000000000E+00 -0.45593999997E+02  0.45594000000E+02  0.51100000000E-03 0. -1.
    9900012    2    1    2    0    0  0.64324644809E+01 -0.17874669798E+02  0.25609380262E+02  0.59301940709E+02  0.49999993947E+02 0.  0.
         12    1    1    2    0    0 -0.64324644809E+01  0.17874669798E+02 -0.25609380262E+02  0.31886059291E+02  0.00000000000E+00 0. -1.
         11    1    3    3    0    0  0.28180844132E+01 -0.12128955456E+02  0.17485953500E+02  0.21466525808E+02  0.51100000000E-03 0.  1.
        -11    1    3    3    0    0  0.18541936750E+02 -0.77737265007E+01 -0.11617394508E+01  0.20139113212E+02  0.51100000000E-03 0. -1.
        -12    1    3    3    0    0 -0.14927556683E+02  0.20280121584E+01  0.92851662130E+01  0.17696301688E+02  0.00000000000E+00 0.  1.
</event>
<event>
 7    1  0.5662448E-012  0.5930194E+02  0.7816164E-02  0.1266605E+00
        -11   -1    0    0    0    0  0.00000000000E+00  0.00000000000E+00  0.45593999997E+02  0.45594000000E+02  0.51100000000E-03 0. -1.
         11   -1    0    0    0    0 -0.00000000000E+00 -0.00000000000E+00 -0.45593999997E+02  0.45594000000E+02  0.51100000000E-03 0.  1.
    9900012    2    1    2    0    0 -0.29780631928E+02 -0.10239300527E+02 -0.49991487332E+01  0.59301940329E+02  0.49999993254E+02 0.  0.
         12    1    1    2    0    0  0.29780631928E+02  0.10239300527E+02  0.49991487332E+01  0.31886059671E+02  0.00000000000E+00 0. -1.
         11    1    3    3    0    0 -0.11440224056E+02 -0.71076980773E+01  0.77901615867E+00  0.13490921571E+02  0.51100000000E-03 0.  1.
        -11    1    3    3    0    0 -0.29027050027E+02  0.79031694845E+01 -0.38733275767E+01  0.30332035671E+02  0.51100000000E-03 0. -1.
         12    1    3    3    0    0  0.10686642156E+02 -0.11034771934E+02 -0.19048373152E+01  0.15478983086E+02  0.00000000000E+00 0. -1.
</event>
<event>
 7    1  0.5662448E-012  0.5930193E+02  0.7816164E-02  0.1266605E+00
        -11   -1    0    0    0    0  0.00000000000E+00  0.00000000000E+00  0.45593999997E+02  0.45594000000E+02  0.51100000000E-03 0. -1.
         11   -1    0    0    0    0 -0.00000000000E+00 -0.00000000000E+00 -0.45593999997E+02  0.45594000000E+02  0.51100000000E-03 0.  1.
    9900012    2    1    2    0    0 -0.31158454131E+02  0.66854685401E+01 -0.10847899344E+01  0.59301929019E+02  0.49999972627E+02 0.  0.
         12    1    1    2    0    0  0.31158454131E+02 -0.66854685401E+01  0.10847899344E+01  0.31886070981E+02  0.00000000000E+00 0. -1.
         11    1    3    3    0    0 -0.19105369469E+02 -0.12681080947E+01  0.59373230019E+01  0.20046821329E+02  0.51100000000E-03 0. -1.
        -11    1    3    3    0    0 -0.87609508690E+01  0.12304800999E+02 -0.20066079225E+02  0.25115929676E+02  0.51100000000E-03 0.  1.
         12    1    3    3    0    0 -0.32921337927E+01 -0.43512243645E+01  0.13043966288E+02  0.14139178014E+02  0.00000000000E+00 0. -1.
</event>
<event>
 7    1  0.5662448E-012  0.5930195E+02  0.7816164E-02  0.1266605E+00
        -11   -1    0    0    0    0  0.00000000000E+00  0.00000000000E+00  0.45593999997E+02  0.45594000000E+02  0.51100000000E-03 0.  1.
         11   -1    0    0    0    0 -0.00000000000E+00 -0.00000000000E+00 -0.45593999997E+02  0.45594000000E+02  0.51100000000E-03 0. -1.
    9900012    2    1    2    0    0  0.17948413930E+02  0.40837208584E+01  0.26036471963E+02  0.59301949587E+02  0.50000010139E+02 0.  0.
         12    1    1    2    0    0 -0.17948413930E+02 -0.40837208584E+01 -0.26036471963E+02  0.31886050413E+02  0.00000000000E+00 0. -1.
         11    1    3    3    0    0 -0.34658338562E+01  0.92153795298E+01 -0.33616277851E+00  0.98513059983E+01  0.51100000000E-03 0. -1.
        -11    1    3    3    0    0  0.68177283606E+01 -0.31314348956E+01  0.32602566252E+02  0.33454665309E+02  0.51100000000E-03 0.  1.
         12    1    3    3    0    0  0.14596519426E+02 -0.20002237758E+01 -0.62299315102E+01  0.15995978280E+02  0.00000000000E+00 0. -1.
</event>
<event>
 7    1  0.5662448E-012  0.5930195E+02  0.7816164E-02  0.1266605E+00
        -11   -1    0    0    0    0  0.00000000000E+00  0.00000000000E+00  0.45593999997E+02  0.45594000000E+02  0.51100000000E-03 0.  1.
         11   -1    0    0    0    0 -0.00000000000E+00 -0.00000000000E+00 -0.45593999997E+02  0.45594000000E+02  0.51100000000E-03 0. -1.
    9900012    2    1    2    0    0 -0.37887857743E+01 -0.24315161882E+02  0.20276545075E+02  0.59301948580E+02  0.50000008302E+02 0.  0.
         12    1    1    2    0    0  0.37887857743E+01  0.24315161882E+02 -0.20276545075E+02  0.31886051420E+02  0.00000000000E+00 0. -1.
         11    1    3    3    0    0 -0.94431537460E+01 -0.55535216523E+01 -0.50098970700E+01  0.12046319950E+02  0.51100000000E-03 0. -1.
        -11    1    3    3    0    0  0.30329297808E+01 -0.18267014282E+02 -0.30735587670E+01  0.18770435200E+02  0.51100000000E-03 0.  1.
        -12    1    3    3    0    0  0.26214381909E+01 -0.49462594712E+00  0.28360000912E+02  0.28485193430E+02  0.00000000000E+00 0.  1.
</event>
<event>
 7    1  0.5662448E-012  0.5930198E+02  0.7816164E-02  0.1266605E+00
        -11   -1    0    0    0    0  0.00000000000E+00  0.00000000000E+00  0.45593999997E+02  0.45594000000E+02  0.51100000000E-03 0. -1.
         11   -1    0    0    0    0 -0.00000000000E+00 -0.00000000000E+00 -0.45593999997E+02  0.45594000000E+02  0.51100000000E-03 0.  1.
    9900012    2    1    2    0    0  0.82645507601E+01  0.15628472361E+02 -0.26536136314E+02  0.59301976760E+02  0.50000059696E+02 0.  0.
         12    1    1    2    0    0 -0.82645507601E+01 -0.15628472361E+02  0.26536136314E+02  0.31886023240E+02  0.00000000000E+00 0. -1.
         11    1    3    3    0    0  0.86187608634E+01  0.17132705782E+02 -0.31294479162E+02  0.36703638409E+02  0.51100000000E-03 0.  1.
        -11    1    3    3    0    0  0.20422235344E+01  0.91322448787E+01  0.67192864386E+01  0.11520303121E+02  0.51100000000E-03 0. -1.
        -12    1    3    3    0    0 -0.23964336376E+01 -0.10636478299E+02 -0.19609435905E+01  0.11078035230E+02  0.00000000000E+00 0.  1.
</event>
<event>
 7    1  0.5662448E-012  0.5930196E+02  0.7816164E-02  0.1266605E+00
        -11   -1    0    0    0    0  0.00000000000E+00  0.00000000000E+00  0.45593999997E+02  0.45594000000E+02  0.51100000000E-03 0. -1.
         11   -1    0    0    0    0 -0.00000000000E+00 -0.00000000000E+00 -0.45593999997E+02  0.45594000000E+02  0.51100000000E-03 0.  1.
    9900012    2    1    2    0    0  0.12984052378E+02 -0.27230250178E+02 -0.10327017064E+02  0.59301961952E+02  0.50000032690E+02 0.  0.
         12    1    1    2    0    0 -0.12984052378E+02  0.27230250178E+02  0.10327017064E+02  0.31886038048E+02  0.00000000000E+00 0. -1.
         11    1    3    3    0    0 -0.12559990567E+01 -0.93077458441E+01 -0.19903800841E+02  0.22008474607E+02  0.51100000000E-03 0. -1.
        -11    1    3    3    0    0  0.80194901938E+01 -0.20543710565E+02 -0.37354571029E+01  0.22367608427E+02  0.51100000000E-03 0.  1.
         12    1    3    3    0    0  0.62205612406E+01  0.26212062304E+01  0.13312240880E+02  0.14925878919E+02  0.00000000000E+00 0. -1.
</event>
<event>
 7    1  0.5662448E-012  0.5930192E+02  0.7816164E-02  0.1266605E+00
        -11   -1    0    0    0    0  0.00000000000E+00  0.00000000000E+00  0.45593999997E+02  0.45594000000E+02  0.51100000000E-03 0.  1.
         11   -1    0    0    0    0 -0.00000000000E+00 -0.00000000000E+00 -0.45593999997E+02  0.45594000000E+02  0.51100000000E-03 0. -1.
    9900012    2    1    2    0    0  0.31537869267E+02  0.83174412674E+00 -0.46252771769E+01  0.59301918629E+02  0.49999953679E+02 0.  0.
         12    1    1    2    0    0 -0.31537869267E+02 -0.83174412674E+00  0.46252771769E+01  0.31886081371E+02  0.00000000000E+00 0. -1.
         11    1    3    3    0    0 -0.64285421297E+01  0.35622773219E+01 -0.34586309255E+01  0.81226905500E+01  0.51100000000E-03 0. -1.
        -11    1    3    3    0    0  0.26410576676E+02  0.64978389908E+01  0.13488515046E+02  0.30359191529E+02  0.51100000000E-03 0.  1.
        -12    1    3    3    0    0  0.11555834721E+02 -0.92283721860E+01 -0.14655161297E+02  0.20820036550E+02  0.00000000000E+00 0.  1.
</event>
<event>
 7    1  0.5662448E-012  0.5930194E+02  0.7816164E-02  0.1266605E+00
        -11   -1    0    0    0    0  0.00000000000E+00  0.00000000000E+00  0.45593999997E+02  0.45594000000E+02  0.51100000000E-03 0. -1.
         11   -1    0    0    0    0 -0.00000000000E+00 -0.00000000000E+00 -0.45593999997E+02  0.45594000000E+02  0.51100000000E-03 0.  1.
    9900012    2    1    2    0    0 -0.31719898719E+01  0.30973747370E+02 -0.68764818571E+01  0.59301944292E+02  0.50000000483E+02 0.  0.
         12    1    1    2    0    0  0.31719898719E+01 -0.30973747370E+02  0.68764818571E+01  0.31886055708E+02  0.00000000000E+00 0. -1.
         11    1    3    3    0    0 -0.48557379717E+01  0.77364497988E+01  0.12396168891E+02  0.15397917073E+02  0.51100000000E-03 0. -1.
        -11    1    3    3    0    0 -0.12576661128E+02  0.16415943770E+02 -0.19016287079E+02  0.28094034767E+02  0.51100000000E-03 0.  1.
         12    1    3    3    0    0  0.14260409228E+02  0.68213538010E+01 -0.25636366968E+00  0.15809992452E+02  0.00000000000E+00 0. -1.
</event>
<event>
 7    1  0.5662448E-012  0.5930198E+02  0.7816164E-02  0.1266605E+00
        -11   -1    0    0    0    0  0.00000000000E+00  0.00000000000E+00  0.45593999997E+02  0.45594000000E+02  0.51100000000E-03 0. -1.
         11   -1    0    0    0    0 -0.00000000000E+00 -0.00000000000E+00 -0.45593999997E+02  0.45594000000E+02  0.51100000000E-03 0.  1.
    9900012    2    1    2    0    0 -0.18720199820E+02 -0.12225988513E+02 -0.22733183053E+02  0.59301979738E+02  0.50000065127E+02 0.  0.
         12    1    1    2    0    0  0.18720199820E+02  0.12225988513E+02  0.22733183053E+02  0.31886020262E+02  0.00000000000E+00 0. -1.
         11    1    3    3    0    0  0.85289015892E+01  0.57693487032E+00 -0.17487358981E+02  0.19464910494E+02  0.51100000000E-03 0. -1.
        -11    1    3    3    0    0 -0.30831371464E+00 -0.78752227511E+01 -0.92565511913E+01  0.12157217237E+02  0.51100000000E-03 0.  1.
        -12    1    3    3    0    0 -0.26940787695E+02 -0.49277006319E+01  0.40107271186E+01  0.27679852007E+02  0.00000000000E+00 0.  1.
</event>
<event>
 7    1  0.5662448E-012  0.5930194E+02  0.7816164E-02  0.1266605E+00
        -11   -1    0    0    0    0  0.00000000000E+00  0.00000000000E+00  0.45593999997E+02  0.45594000000E+02  0.51100000000E-03 0. -1.
         11   -1    0    0    0    0 -0.00000000000E+00 -0.00000000000E+00 -0.45593999997E+02  0.45594000000E+02  0.51100000000E-03 0.  1.
    9900012    2    1    2    0    0  0.85371784365E+01 -0.69261997086E+01 -0.29931009745E+02  0.59301937176E+02  0.49999987504E+02 0.  0.
         12    1    1    2    0    0 -0.85371784365E+01  0.69261997086E+01  0.29931009745E+02  0.31886062824E+02  0.00000000000E+00 0. -1.
         11    1    3    3    0    0  0.11357164295E+02 -0.10248136701E+02 -0.67176094439E+01  0.16707356570E+02  0.51100000000E-03 0. -1.
        -11    1    3    3    0    0  0.11170362369E+02  0.22649568246E+01 -0.25911333198E+02  0.28307317309E+02  0.51100000000E-03 0.  1.
         12    1    3    3    0    0 -0.13990348227E+02  0.10569801678E+01  0.26979328966E+01  0.14287263297E+02  0.00000000000E+00 0. -1.
</event>
<event>
 7    1  0.5662448E-012  0.5930189E+02  0.7816164E-02  0.1266605E+00
        -11   -1    0    0    0    0  0.00000000000E+00  0.00000000000E+00  0.45593999997E+02  0.45594000000E+02  0.51100000000E-03 0.  1.
         11   -1    0    0    0    0 -0.00000000000E+00 -0.00000000000E+00 -0.45593999997E+02  0.45594000000E+02  0.51100000000E-03 0. -1.
    9900012    2    1    2    0    0 -0.29313879196E+02 -0.56199807634E+01  0.11217672596E+02  0.59301892119E+02  0.49999905331E+02 0.  0.
         12    1    1    2    0    0  0.29313879196E+02  0.56199807634E+01 -0.11217672596E+02  0.31886107881E+02  0.00000000000E+00 0. -1.
         11    1    3    3    0    0 -0.24775931023E+01  0.92366456726E+01  0.50337083972E+01  0.10807049151E+02  0.51100000000E-03 0. -1.
        -11    1    3    3    0    0 -0.65601800896E+01  0.81162426852E+01 -0.94651206318E+01  0.14088927105E+02  0.51100000000E-03 0.  1.
        -12    1    3    3    0    0 -0.20276106004E+02 -0.22972869121E+02  0.15649084831E+02  0.34405915863E+02  0.00000000000E+00 0.  1.
</event>
<event>
 7    1  0.5662448E-012  0.5930192E+02  0.7816164E-02  0.1266605E+00
        -11   -1    0    0    0    0  0.00000000000E+00  0.00000000000E+00  0.45593999997E+02  0.45594000000E+02  0.51100000000E-03 0.  1.
         11   -1    0    0    0    0 -0.00000000000E+00 -0.00000000000E+00 -0.45593999997E+02  0.45594000000E+02  0.51100000000E-03 0. -1.
    9900012    2    1    2    0    0  0.21695529661E+02 -0.88760123099E+01  0.21615789133E+02  0.59301922448E+02  0.49999960644E+02 0.  0.
         12    1    1    2    0    0 -0.21695529661E+02  0.88760123099E+01 -0.21615789133E+02  0.31886077552E+02  0.00000000000E+00 0. -1.
         11    1    3    3    0    0  0.64617519437E+01  0.79588863584E+01 -0.12725107645E+01  0.10330411132E+02  0.51100000000E-03 0. -1.
        -11    1    3    3    0    0  0.24620240426E+02 -0.32329578784E+01  0.20646714768E+02  0.32293886206E+02  0.51100000000E-03 0.  1.
        -12    1    3    3    0    0 -0.93864627091E+01 -0.13601940790E+02  0.22415851298E+01  0.16677625111E+02  0.00000000000E+00 0.  1.
</event>
<event>
 7    1  0.5662448E-012  0.5930193E+02  0.7816164E-02  0.1266605E+00
        -11   -1    0    0    0    0  0.00000000000E+00  0.00000000000E+00  0.45593999997E+02  0.45594000000E+02  0.51100000000E-03 0. -1.
         11   -1    0    0    0    0 -0.00000000000E+00 -0.00000000000E+00 -0.45593999997E+02  0.45594000000E+02  0.51100000000E-03 0.  1.
    9900012    2    1    2    0    0  0.25225060696E+02 -0.15097818476E+02  0.12348024563E+02  0.59301929053E+02  0.49999972690E+02 0.  0.
         12    1    1    2    0    0 -0.25225060696E+02  0.15097818476E+02 -0.12348024563E+02  0.31886070947E+02  0.00000000000E+00 0. -1.
         11    1    3    3    0    0  0.98572788997E+01 -0.12771111696E+02  0.18120933042E+01  0.16234251558E+02  0.51100000000E-03 0. -1.
        -11    1    3    3    0    0  0.93789839014E+00 -0.18495693192E+02 -0.94355682473E+00  0.18543479172E+02  0.51100000000E-03 0.  1.
         12    1    3    3    0    0  0.14429883406E+02  0.16168986412E+02  0.11479488083E+02  0.24524198323E+02  0.00000000000E+00 0. -1.
</event>
<event>
 7    1  0.5662448E-012  0.5930184E+02  0.7816164E-02  0.1266605E+00
        -11   -1    0    0    0    0  0.00000000000E+00  0.00000000000E+00  0.45593999997E+02  0.45594000000E+02  0.51100000000E-03 0.  1.
         11   -1    0    0    0    0 -0.00000000000E+00 -0.00000000000E+00 -0.45593999997E+02  0.45594000000E+02  0.51100000000E-03 0. -1.
    9900012    2    1    2    0    0  0.22659950446E+02 -0.14378472560E+02  0.17219566816E+02  0.59301838288E+02  0.49999807157E+02 0.  0.
         12    1    1    2    0    0 -0.22659950446E+02  0.14378472560E+02 -0.17219566816E+02  0.31886161712E+02  0.00000000000E+00 0. -1.
         11    1    3    3    0    0  0.16966584000E+02  0.13786253988E+02  0.91302746769E+01  0.23691510876E+02  0.51100000000E-03 0. -1.
        -11    1    3    3    0    0  0.10924701486E+02 -0.75260828824E+01  0.45629683411E+01  0.14028959564E+02  0.51100000000E-03 0.  1.
        -12    1    3    3    0    0 -0.52313350395E+01 -0.20638643667E+02  0.35263237976E+01  0.21581367849E+02  0.00000000000E+00 0.  1.
</event>
<event>
 7    1  0.5662448E-012  0.5930194E+02  0.7816164E-02  0.1266605E+00
        -11   -1    0    0    0    0  0.00000000000E+00  0.00000000000E+00  0.45593999997E+02  0.45594000000E+02  0.51100000000E-03 0.  1.
         11   -1    0    0    0    0 -0.00000000000E+00 -0.00000000000E+00 -0.45593999997E+02  0.45594000000E+02  0.51100000000E-03 0. -1.
    9900012    2    1    2    0    0 -0.19433546210E+02 -0.13151125058E+02  0.21589484824E+02  0.59301942490E+02  0.49999997195E+02 0.  0.
         12    1    1    2    0    0  0.19433546210E+02  0.13151125058E+02 -0.21589484824E+02  0.31886057510E+02  0.00000000000E+00 0. -1.
         11    1    3    3    0    0 -0.90117214594E+00  0.99105658024E+01 -0.75178562409E+01  0.12471952072E+02  0.51100000000E-03 0. -1.
        -11    1    3    3    0    0 -0.26679036465E+01 -0.63296196141E+01  0.21467833788E+02  0.22539957456E+02  0.51100000000E-03 0.  1.
        -12    1    3    3    0    0 -0.15864470418E+02 -0.16732071247E+02  0.76395072770E+01  0.24290032962E+02  0.00000000000E+00 0.  1.
</event>
<event>
 7    1  0.5662448E-012  0.5930196E+02  0.7816164E-02  0.1266605E+00
        -11   -1    0    0    0    0  0.00000000000E+00  0.00000000000E+00  0.45593999997E+02  0.45594000000E+02  0.51100000000E-03 0.  1.
         11   -1    0    0    0    0 -0.00000000000E+00 -0.00000000000E+00 -0.45593999997E+02  0.45594000000E+02  0.51100000000E-03 0. -1.
    9900012    2    1    2    0    0  0.19439992716E+02  0.17322441187E+02  0.18404872553E+02  0.59301958866E+02  0.50000027062E+02 0.  0.
         12    1    1    2    0    0 -0.19439992716E+02 -0.17322441187E+02 -0.18404872553E+02  0.31886041134E+02  0.00000000000E+00 0. -1.
         11    1    3    3    0    0  0.93708419773E+01 -0.36068156762E+01 -0.10481879762E+02  0.14515219678E+02  0.51100000000E-03 0. -1.
        -11    1    3    3    0    0 -0.80440980082E+01  0.43311650923E+01  0.45532908272E+01  0.10207789253E+02  0.51100000000E-03 0.  1.
        -12    1    3    3    0    0  0.18113248747E+02  0.16598091771E+02  0.24333461488E+02  0.34578949935E+02  0.00000000000E+00 0.  1.
</event>
<event>
 7    1  0.5662448E-012  0.5930196E+02  0.7816164E-02  0.1266605E+00
        -11   -1    0    0    0    0  0.00000000000E+00  0.00000000000E+00  0.45593999997E+02  0.45594000000E+02  0.51100000000E-03 0.  1.
         11   -1    0    0    0    0 -0.00000000000E+00 -0.00000000000E+00 -0.45593999997E+02  0.45594000000E+02  0.51100000000E-03 0. -1.
    9900012    2    1    2    0    0  0.30491994742E+02  0.36917618151E+01  0.85632223072E+01  0.59301958776E+02  0.50000026898E+02 0.  0.
         12    1    1    2    0    0 -0.30491994742E+02 -0.36917618151E+01 -0.85632223072E+01  0.31886041224E+02  0.00000000000E+00 0. -1.
         11    1    3    3    0    0  0.22519830107E+02  0.14492524155E+02 -0.14825355886E+01  0.26821146814E+02  0.51100000000E-03 0. -1.
        -11    1    3    3    0    0  0.10427004965E+02 -0.14871459852E+02 -0.31690071744E+01  0.18437064772E+02  0.51100000000E-03 0.  1.
         12    1    3    3    0    0 -0.24548403294E+01  0.40706975123E+01  0.13214765070E+02  0.14043747190E+02  0.00000000000E+00 0. -1.
</event>
<event>
 7    1  0.5662448E-012  0.5930192E+02  0.7816164E-02  0.1266605E+00
        -11   -1    0    0    0    0  0.00000000000E+00  0.00000000000E+00  0.45593999997E+02  0.45594000000E+02  0.51100000000E-03 0.  1.
         11   -1    0    0    0    0 -0.00000000000E+00 -0.00000000000E+00 -0.45593999997E+02  0.45594000000E+02  0.51100000000E-03 0. -1.
    9900012    2    1    2    0    0 -0.23402461783E+02 -0.20070318792E+02  0.81381176038E+01  0.59301923539E+02  0.49999962634E+02 0.  0.
         12    1    1    2    0    0  0.23402461783E+02  0.20070318792E+02 -0.81381176038E+01  0.31886076461E+02  0.00000000000E+00 0. -1.
         11    1    3    3    0    0 -0.18735185887E+02 -0.50747682724E+01 -0.14341265915E+02  0.24133635688E+02  0.51100000000E-03 0. -1.
        -11    1    3    3    0    0 -0.59645803694E+01  0.57495041334E+00 -0.18346580354E+01  0.62667980125E+01  0.51100000000E-03 0.  1.
        -12    1    3    3    0    0  0.12973044734E+01 -0.15570500933E+02  0.24314041554E+02  0.28901489839E+02  0.00000000000E+00 0.  1.
</event>
<event>
 7    1  0.5662448E-012  0.5930180E+02  0.7816164E-02  0.1266605E+00
        -11   -1    0    0    0    0  0.00000000000E+00  0.00000000000E+00  0.45593999997E+02  0.45594000000E+02  0.51100000000E-03 0. -1.
         11   -1    0    0    0    0 -0.00000000000E+00 -0.00000000000E+00 -0.45593999997E+02  0.45594000000E+02  0.51100000000E-03 0.  1.
    9900012    2    1    2    0    0 -0.18591839670E+02 -0.17824069479E+02 -0.18798292270E+02  0.59301800048E+02  0.49999737415E+02 0.  0.
         12    1    1    2    0    0  0.18591839670E+02  0.17824069479E+02  0.18798292270E+02  0.31886199952E+02  0.00000000000E+00 0. -1.
         11    1    3    3    0    0 -0.51880320361E+01 -0.20707746300E+02 -0.18118254988E+02  0.27999957095E+02  0.51100000000E-03 0. -1.
        -11    1    3    3    0    0 -0.92210920431E+01  0.69194377620E+01 -0.13183672387E+02  0.17513319939E+02  0.51100000000E-03 0.  1.
         12    1    3    3    0    0 -0.41827155910E+01 -0.40357609409E+01  0.12503635105E+02  0.13788523015E+02  0.00000000000E+00 0. -1.
</event>
<event>
 7    1  0.5662448E-012  0.5930194E+02  0.7816164E-02  0.1266605E+00
        -11   -1    0    0    0    0  0.00000000000E+00  0.00000000000E+00  0.45593999997E+02  0.45594000000E+02  0.51100000000E-03 0.  1.
         11   -1    0    0    0    0 -0.00000000000E+00 -0.00000000000E+00 -0.45593999997E+02  0.45594000000E+02  0.51100000000E-03 0. -1.
    9900012    2    1    2    0    0 -0.15113234567E+02  0.26137002196E+02  0.10255136703E+02  0.59301943931E+02  0.49999999823E+02 0.  0.
         12    1    1    2    0    0  0.15113234567E+02 -0.26137002196E+02 -0.10255136703E+02  0.31886056069E+02  0.00000000000E+00 0. -1.
         11    1    3    3    0    0 -0.11999366354E+02  0.12368478082E+02  0.19666832348E+01  0.17344505936E+02  0.51100000000E-03 0. -1.
        -11    1    3    3    0    0  0.51488796462E+01 -0.34080512883E+01  0.19079767021E+02  0.20054009201E+02  0.51100000000E-03 0.  1.
         12    1    3    3    0    0 -0.82627478589E+01  0.17176575402E+02 -0.10791313553E+02  0.21903428794E+02  0.00000000000E+00 0. -1.
</event>
<event>
 7    1  0.5662448E-012  0.5930178E+02  0.7816164E-02  0.1266605E+00
        -11   -1    0    0    0    0  0.00000000000E+00  0.00000000000E+00  0.45593999997E+02  0.45594000000E+02  0.51100000000E-03 0.  1.
         11   -1    0    0    0    0 -0.00000000000E+00 -0.00000000000E+00 -0.45593999997E+02  0.45594000000E+02  0.51100000000E-03 0. -1.
    9900012    2    1    2    0    0  0.26570742840E+02 -0.11190818335E+02  0.13619555230E+02  0.59301779234E+02  0.49999699454E+02 0.  0.
         12    1    1    2    0    0 -0.26570742840E+02  0.11190818335E+02 -0.13619555230E+02  0.31886220766E+02  0.00000000000E+00 0. -1.
         11    1    3    3    0    0  0.53779889674E+01 -0.17188553005E+02  0.81762059947E+01  0.19779268552E+02  0.51100000000E-03 0. -1.
        -11    1    3    3    0    0 -0.54092864333E+00  0.33476303095E+01  0.15184586034E+02  0.15558627374E+02  0.51100000000E-03 0.  1.
         12    1    3    3    0    0  0.21733682516E+02  0.26501043598E+01 -0.97412367978E+01  0.23963883307E+02  0.00000000000E+00 0. -1.
</event>
<event>
 7    1  0.5662448E-012  0.5930194E+02  0.7816164E-02  0.1266605E+00
        -11   -1    0    0    0    0  0.00000000000E+00  0.00000000000E+00  0.45593999997E+02  0.45594000000E+02  0.51100000000E-03 0. -1.
         11   -1    0    0    0    0 -0.00000000000E+00 -0.00000000000E+00 -0.45593999997E+02  0.45594000000E+02  0.51100000000E-03 0.  1.
    9900012    2    1    2    0    0 -0.19451900546E+02  0.24905179426E+02  0.42516328882E+01  0.59301940674E+02  0.49999993885E+02 0.  0.
         12    1    1    2    0    0  0.19451900546E+02 -0.24905179426E+02 -0.42516328882E+01  0.31886059326E+02  0.00000000000E+00 0. -1.
         11    1    3    3    0    0 -0.16528847366E+02  0.31883493201E+01 -0.65519731566E+01  0.18063685093E+02  0.51100000000E-03 0. -1.
        -11    1    3    3    0    0  0.45449204268E+01  0.10639343267E+02 -0.10806906354E+02  0.15831650326E+02  0.51100000000E-03 0.  1.
        -12    1    3    3    0    0 -0.74679736067E+01  0.11077486839E+02  0.21610512399E+02  0.25406605255E+02  0.00000000000E+00 0.  1.
</event>
<event>
 7    1  0.5662448E-012  0.5930195E+02  0.7816164E-02  0.1266605E+00
        -11   -1    0    0    0    0  0.00000000000E+00  0.00000000000E+00  0.45593999997E+02  0.45594000000E+02  0.51100000000E-03 0.  1.
         11   -1    0    0    0    0 -0.00000000000E+00 -0.00000000000E+00 -0.45593999997E+02  0.45594000000E+02  0.51100000000E-03 0. -1.
    9900012    2    1    2    0    0  0.52225565272E+01 -0.17948941024E+02  0.25831780759E+02  0.59301945403E+02  0.50000002509E+02 0.  0.
         12    1    1    2    0    0 -0.52225565272E+01  0.17948941024E+02 -0.25831780759E+02  0.31886054597E+02  0.00000000000E+00 0. -1.
         11    1    3    3    0    0 -0.46204385324E+00  0.49742950748E+01 -0.97729173987E+01  0.10975746478E+02  0.51100000000E-03 0. -1.
        -11    1    3    3    0    0 -0.51480350693E+01 -0.14149832668E+02  0.29474861359E+02  0.33098149223E+02  0.51100000000E-03 0.  1.
         12    1    3    3    0    0  0.10832635450E+02 -0.87734034309E+01  0.61298367991E+01  0.15228049702E+02  0.00000000000E+00 0. -1.
</event>
<event>
 7    1  0.5662448E-012  0.5930195E+02  0.7816164E-02  0.1266605E+00
        -11   -1    0    0    0    0  0.00000000000E+00  0.00000000000E+00  0.45593999997E+02  0.45594000000E+02  0.51100000000E-03 0. -1.
         11   -1    0    0    0    0 -0.00000000000E+00 -0.00000000000E+00 -0.45593999997E+02  0.45594000000E+02  0.51100000000E-03 0.  1.
    9900012    2    1    2    0    0  0.34050129961E+01 -0.22646742053E+02 -0.22186732274E+02  0.59301950886E+02  0.50000012508E+02 0.  0.
         12    1    1    2    0    0 -0.34050129961E+01  0.22646742053E+02  0.22186732274E+02  0.31886049114E+02  0.00000000000E+00 0. -1.
         11    1    3    3    0    0 -0.51915553214E+01 -0.61609236140E+00  0.85372881340E+01  0.10010849384E+02  0.51100000000E-03 0. -1.
        -11    1    3    3    0    0  0.17978518842E+02 -0.14872865836E+02 -0.98802088497E+01  0.25338662260E+02  0.51100000000E-03 0.  1.
        -12    1    3    3    0    0 -0.93819505246E+01 -0.71577838548E+01 -0.20843811558E+02  0.23952439242E+02  0.00000000000E+00 0.  1.
</event>
<event>
 7    1  0.5662448E-012  0.5930178E+02  0.7816164E-02  0.1266605E+00
        -11   -1    0    0    0    0  0.00000000000E+00  0.00000000000E+00  0.45593999997E+02  0.45594000000E+02  0.51100000000E-03 0. -1.
         11   -1    0    0    0    0 -0.00000000000E+00 -0.00000000000E+00 -0.45593999997E+02  0.45594000000E+02  0.51100000000E-03 0.  1.
    9900012    2    1    2    0    0  0.24310874286E+02 -0.52357334476E+01 -0.19957437048E+02  0.59301783435E+02  0.49999707117E+02 0.  0.
         12    1    1    2    0    0 -0.24310874286E+02  0.52357334476E+01  0.19957437048E+02  0.31886216565E+02  0.00000000000E+00 0. -1.
         11    1    3    3    0    0  0.10703231785E+02  0.83531925006E+01  0.47653760272E+01  0.14389016803E+02  0.51100000000E-03 0. -1.
        -11    1    3    3    0    0  0.61911980567E+01  0.10521812596E+02 -0.68657166870E+01  0.14006339264E+02  0.51100000000E-03 0.  1.
        -12    1    3    3    0    0  0.74164444440E+01 -0.24110738544E+02 -0.17857096388E+02  0.30906427369E+02  0.00000000000E+00 0.  1.
</event>
<event>
 7    1  0.5662448E-012  0.5930189E+02  0.7816164E-02  0.1266605E+00
        -11   -1    0    0    0    0  0.00000000000E+00  0.00000000000E+00  0.45593999997E+02  0.45594000000E+02  0.51100000000E-03 0. -1.
         11   -1    0    0    0    0 -0.00000000000E+00 -0.00000000000E+00 -0.45593999997E+02  0.45594000000E+02  0.51100000000E-03 0.  1.
    9900012    2    1    2    0    0 -0.18999909860E+02  0.25607170402E+02  0.13390464528E-01  0.59301891269E+02  0.49999903781E+02 0.  0.
         12    1    1    2    0    0  0.18999909860E+02 -0.25607170402E+02 -0.13390464528E-01  0.31886108731E+02  0.00000000000E+00 0. -1.
         11    1    3    3    0    0 -0.23686983656E+02  0.96823569281E+01 -0.69191381453E+01  0.26508408163E+02  0.51100000000E-03 0. -1.
        -11    1    3    3    0    0 -0.65374404204E+01  0.15736209505E+02 -0.35817179968E+01  0.17412498985E+02  0.51100000000E-03 0.  1.
         12    1    3    3    0    0  0.11224514216E+02  0.18860396899E+00  0.10514246607E+02  0.15380984122E+02  0.00000000000E+00 0. -1.
</event>
<event>
 7    1  0.5662448E-012  0.5930187E+02  0.7816164E-02  0.1266605E+00
        -11   -1    0    0    0    0  0.00000000000E+00  0.00000000000E+00  0.45593999997E+02  0.45594000000E+02  0.51100000000E-03 0. -1.
         11   -1    0    0    0    0 -0.00000000000E+00 -0.00000000000E+00 -0.45593999997E+02  0.45594000000E+02  0.51100000000E-03 0.  1.
    9900012    2    1    2    0    0 -0.28707953203E+02 -0.51955294788E+01 -0.12868002133E+02  0.59301865356E+02  0.49999856521E+02 0.  0.
         12    1    1    2    0    0  0.28707953203E+02  0.51955294788E+01  0.12868002133E+02  0.31886134644E+02  0.00000000000E+00 0. -1.
         11    1    3    3    0    0 -0.34799143844E+01  0.82832178434E+01  0.42190613623E+01  0.99258239459E+01  0.51100000000E-03 0. -1.
        -11    1    3    3    0    0 -0.22109591064E+02 -0.17532763161E+02  0.32514376233E+01  0.28404289252E+02  0.51100000000E-03 0.  1.
        -12    1    3    3    0    0 -0.31184477545E+01  0.40540158384E+01 -0.20338501119E+02  0.20971752158E+02  0.00000000000E+00 0.  1.
</event>
<event>
 7    1  0.5662448E-012  0.5930200E+02  0.7816164E-02  0.1266605E+00
        -11   -1    0    0    0    0  0.00000000000E+00  0.00000000000E+00  0.45593999997E+02  0.45594000000E+02  0.51100000000E-03 0. -1.
         11   -1    0    0    0    0 -0.00000000000E+00 -0.00000000000E+00 -0.45593999997E+02  0.45594000000E+02  0.51100000000E-03 0.  1.
    9900012    2    1    2    0    0 -0.81885911731E+01 -0.22379382686E+02  0.21185539507E+02  0.59302001834E+02  0.50000105425E+02 0.  0.
         12    1    1    2    0    0  0.81885911731E+01  0.22379382686E+02 -0.21185539507E+02  0.31885998166E+02  0.00000000000E+00 0. -1.
         11    1    3    3    0    0  0.72136035884E+01 -0.10798658050E+01  0.16634152091E+01  0.74812523889E+01  0.51100000000E-03 0. -1.
        -11    1    3    3    0    0  0.61722501616E+01 -0.23208018688E+02  0.22530730700E+01  0.24120222677E+02  0.51100000000E-03 0.  1.
        -12    1    3    3    0    0 -0.21574444923E+02  0.19085018067E+01  0.17269051228E+02  0.27700526768E+02  0.00000000000E+00 0.  1.
</event>
<event>
 7    1  0.5662448E-012  0.5930194E+02  0.7816164E-02  0.1266605E+00
        -11   -1    0    0    0    0  0.00000000000E+00  0.00000000000E+00  0.45593999997E+02  0.45594000000E+02  0.51100000000E-03 0.  1.
         11   -1    0    0    0    0 -0.00000000000E+00 -0.00000000000E+00 -0.45593999997E+02  0.45594000000E+02  0.51100000000E-03 0. -1.
    9900012    2    1    2    0    0 -0.23435505860E+02  0.20113463992E+02 -0.79338706588E+01  0.59301942352E+02  0.49999996945E+02 0.  0.
         12    1    1    2    0    0  0.23435505860E+02 -0.20113463992E+02  0.79338706588E+01  0.31886057648E+02  0.00000000000E+00 0. -1.
         11    1    3    3    0    0 -0.96935010100E+01  0.93135169294E+01  0.97375393023E+01  0.16598952718E+02  0.51100000000E-03 0. -1.
        -11    1    3    3    0    0 -0.51952850036E+01  0.18325721213E+02  0.28242159291E+01  0.19256148112E+02  0.51100000000E-03 0.  1.
         12    1    3    3    0    0 -0.85467198467E+01 -0.75257741508E+01 -0.20495625890E+02  0.23446841522E+02  0.00000000000E+00 0. -1.
</event>
<event>
 7    1  0.5662448E-012  0.5930198E+02  0.7816164E-02  0.1266605E+00
        -11   -1    0    0    0    0  0.00000000000E+00  0.00000000000E+00  0.45593999997E+02  0.45594000000E+02  0.51100000000E-03 0.  1.
         11   -1    0    0    0    0 -0.00000000000E+00 -0.00000000000E+00 -0.45593999997E+02  0.45594000000E+02  0.51100000000E-03 0. -1.
    9900012    2    1    2    0    0 -0.25494680553E+02  0.18853618136E+02 -0.33586944992E+01  0.59301976698E+02  0.50000059582E+02 0.  0.
         12    1    1    2    0    0  0.25494680553E+02 -0.18853618136E+02  0.33586944992E+01  0.31886023302E+02  0.00000000000E+00 0. -1.
         11    1    3    3    0    0 -0.11779370282E+01 -0.84511201439E+01  0.75514547613E+01  0.11394447622E+02  0.51100000000E-03 0. -1.
        -11    1    3    3    0    0 -0.65217470470E+01  0.60303244620E+01  0.98495934295E+01  0.13263200543E+02  0.51100000000E-03 0.  1.
        -12    1    3    3    0    0 -0.17794996478E+02  0.21274413818E+02 -0.20759742690E+02  0.34644328533E+02  0.00000000000E+00 0.  1.
</event>
<event>
 7    1  0.5662448E-012  0.5930196E+02  0.7816164E-02  0.1266605E+00
        -11   -1    0    0    0    0  0.00000000000E+00  0.00000000000E+00  0.45593999997E+02  0.45594000000E+02  0.51100000000E-03 0. -1.
         11   -1    0    0    0    0 -0.00000000000E+00 -0.00000000000E+00 -0.45593999997E+02  0.45594000000E+02  0.51100000000E-03 0.  1.
    9900012    2    1    2    0    0  0.90422912103E+01  0.26565896099E+02 -0.15139671294E+02  0.59301960535E+02  0.50000030104E+02 0.  0.
         12    1    1    2    0    0 -0.90422912103E+01 -0.26565896099E+02  0.15139671294E+02  0.31886039465E+02  0.00000000000E+00 0. -1.
         11    1    3    3    0    0  0.97464584250E+01 -0.10447072444E+02 -0.10099891009E+02  0.17496930392E+02  0.51100000000E-03 0. -1.
        -11    1    3    3    0    0 -0.49721863712E+01  0.79955306026E+00 -0.59986021727E+00  0.50716619512E+01  0.51100000000E-03 0.  1.
        -12    1    3    3    0    0  0.42680191565E+01  0.36213415483E+02 -0.44399200686E+01  0.36733368192E+02  0.00000000000E+00 0.  1.
</event>
<event>
 7    1  0.5662448E-012  0.5930189E+02  0.7816164E-02  0.1266605E+00
        -11   -1    0    0    0    0  0.00000000000E+00  0.00000000000E+00  0.45593999997E+02  0.45594000000E+02  0.51100000000E-03 0.  1.
         11   -1    0    0    0    0 -0.00000000000E+00 -0.00000000000E+00 -0.45593999997E+02  0.45594000000E+02  0.51100000000E-03 0. -1.
    9900012    2    1    2    0    0 -0.14441389055E+02  0.28726479306E+01  0.28282820713E+02  0.59301893755E+02  0.49999908315E+02 0.  0.
         12    1    1    2    0    0  0.14441389055E+02 -0.28726479306E+01 -0.28282820713E+02  0.31886106245E+02  0.00000000000E+00 0. -1.
         11    1    3    3    0    0 -0.49942914890E+01  0.54456748807E+01 -0.58980924721E+01  0.94544073032E+01  0.51100000000E-03 0. -1.
        -11    1    3    3    0    0 -0.10558456525E+02 -0.17378943752E+02  0.25618009410E+02  0.32707661129E+02  0.51100000000E-03 0.  1.
         12    1    3    3    0    0  0.11113589589E+01  0.14805916801E+02  0.85629037746E+01  0.17139825323E+02  0.00000000000E+00 0. -1.
</event>
<event>
 7    1  0.5662448E-012  0.5930190E+02  0.7816164E-02  0.1266605E+00
        -11   -1    0    0    0    0  0.00000000000E+00  0.00000000000E+00  0.45593999997E+02  0.45594000000E+02  0.51100000000E-03 0.  1.
         11   -1    0    0    0    0 -0.00000000000E+00 -0.00000000000E+00 -0.45593999997E+02  0.45594000000E+02  0.51100000000E-03 0. -1.
    9900012    2    1    2    0    0 -0.89699293869E+00  0.11472979695E+02  0.29737002329E+02  0.59301903235E+02  0.49999925603E+02 0.  0.
         12    1    1    2    0    0  0.89699293869E+00 -0.11472979695E+02 -0.29737002329E+02  0.31886096765E+02  0.00000000000E+00 0. -1.
         11    1    3    3    0    0  0.15892306682E+02  0.27278421499E+01  0.93289032734E+01  0.18628874658E+02  0.51100000000E-03 0. -1.
        -11    1    3    3    0    0 -0.79804535861E+00  0.81471841439E+01  0.23044104866E+02  0.24454943369E+02  0.51100000000E-03 0.  1.
         12    1    3    3    0    0 -0.15991254262E+02  0.59795340118E+00 -0.26360058105E+01  0.16218085207E+02  0.00000000000E+00 0. -1.
</event>
<event>
 7    1  0.5662448E-012  0.5930194E+02  0.7816164E-02  0.1266605E+00
        -11   -1    0    0    0    0  0.00000000000E+00  0.00000000000E+00  0.45593999997E+02  0.45594000000E+02  0.51100000000E-03 0.  1.
         11   -1    0    0    0    0 -0.00000000000E+00 -0.00000000000E+00 -0.45593999997E+02  0.45594000000E+02  0.51100000000E-03 0. -1.
    9900012    2    1    2    0    0 -0.29629926209E+02  0.92776575290E+01  0.72603893047E+01  0.59301941773E+02  0.49999995888E+02 0.  0.
         12    1    1    2    0    0  0.29629926209E+02 -0.92776575290E+01 -0.72603893047E+01  0.31886058227E+02  0.00000000000E+00 0. -1.
         11    1    3    3    0    0 -0.10415210075E+01  0.11062086625E+01 -0.18085553833E+02  0.18149262280E+02  0.51100000000E-03 0. -1.
        -11    1    3    3    0    0 -0.12081872240E+02 -0.19049570594E+01  0.14536672647E+02  0.18997772241E+02  0.51100000000E-03 0.  1.
        -12    1    3    3    0    0 -0.16506532962E+02  0.10076405926E+02  0.10809270490E+02  0.22154907252E+02  0.00000000000E+00 0.  1.
</event>
<event>
 7    1  0.5662448E-012  0.5930195E+02  0.7816164E-02  0.1266605E+00
        -11   -1    0    0    0    0  0.00000000000E+00  0.00000000000E+00  0.45593999997E+02  0.45594000000E+02  0.51100000000E-03 0.  1.
         11   -1    0    0    0    0 -0.00000000000E+00 -0.00000000000E+00 -0.45593999997E+02  0.45594000000E+02  0.51100000000E-03 0. -1.
    9900012    2    1    2    0    0 -0.24574203485E+02  0.78589290227E+00  0.20302985807E+02  0.59301947607E+02  0.50000006527E+02 0.  0.
         12    1    1    2    0    0  0.24574203485E+02 -0.78589290227E+00 -0.20302985807E+02  0.31886052393E+02  0.00000000000E+00 0. -1.
         11    1    3    3    0    0 -0.12503567832E+02  0.12458030982E+01 -0.94062175427E+01  0.15696119349E+02  0.51100000000E-03 0. -1.
        -11    1    3    3    0    0 -0.60224190210E+01 -0.42125785843E+01 -0.45307757916E+01  0.86338449562E+01  0.51100000000E-03 0.  1.
        -12    1    3    3    0    0 -0.60482166317E+01  0.37526683883E+01  0.34239979141E+02  0.34971983302E+02  0.00000000000E+00 0.  1.
</event>
<event>
 7    1  0.5662448E-012  0.5930196E+02  0.7816164E-02  0.1266605E+00
        -11   -1    0    0    0    0  0.00000000000E+00  0.00000000000E+00  0.45593999997E+02  0.45594000000E+02  0.51100000000E-03 0.  1.
         11   -1    0    0    0    0 -0.00000000000E+00 -0.00000000000E+00 -0.45593999997E+02  0.45594000000E+02  0.51100000000E-03 0. -1.
    9900012    2    1    2    0    0  0.37682794883E+01  0.24833529140E+00  0.31661620685E+02  0.59301955637E+02  0.50000021172E+02 0.  0.
         12    1    1    2    0    0 -0.37682794883E+01 -0.24833529140E+00 -0.31661620685E+02  0.31886044363E+02  0.00000000000E+00 0. -1.
         11    1    3    3    0    0  0.20338955948E+01 -0.31303117591E+01  0.32790685024E+02  0.33002493960E+02  0.51100000000E-03 0. -1.
        -11    1    3    3    0    0  0.13728651725E+02  0.21827490877E+01  0.14384298434E+01  0.13975312248E+02  0.51100000000E-03 0.  1.
         12    1    3    3    0    0 -0.11994267832E+02  0.11958979628E+01 -0.25674941823E+01  0.12324149428E+02  0.00000000000E+00 0. -1.
</event>
<event>
 7    1  0.5662448E-012  0.5930195E+02  0.7816164E-02  0.1266605E+00
        -11   -1    0    0    0    0  0.00000000000E+00  0.00000000000E+00  0.45593999997E+02  0.45594000000E+02  0.51100000000E-03 0. -1.
         11   -1    0    0    0    0 -0.00000000000E+00 -0.00000000000E+00 -0.45593999997E+02  0.45594000000E+02  0.51100000000E-03 0.  1.
    9900012    2    1    2    0    0 -0.43025633451E+01 -0.28030031543E+02 -0.14578258957E+02  0.59301947346E+02  0.50000006052E+02 0.  0.
         12    1    1    2    0    0  0.43025633451E+01  0.28030031543E+02  0.14578258957E+02  0.31886052654E+02  0.00000000000E+00 0. -1.
         11    1    3    3    0    0 -0.13922288221E+02 -0.13825432259E+01 -0.57439790241E+01  0.15123981962E+02  0.51100000000E-03 0. -1.
        -11    1    3    3    0    0 -0.28150132703E+01  0.52680983874E+01  0.44408630978E+01  0.74430118666E+01  0.51100000000E-03 0.  1.
        -12    1    3    3    0    0  0.12434738147E+02 -0.31915586705E+02 -0.13275143030E+02  0.36734953518E+02  0.00000000000E+00 0.  1.
</event>
<event>
 7    1  0.5662448E-012  0.5930202E+02  0.7816164E-02  0.1266605E+00
        -11   -1    0    0    0    0  0.00000000000E+00  0.00000000000E+00  0.45593999997E+02  0.45594000000E+02  0.51100000000E-03 0.  1.
         11   -1    0    0    0    0 -0.00000000000E+00 -0.00000000000E+00 -0.45593999997E+02  0.45594000000E+02  0.51100000000E-03 0. -1.
    9900012    2    1    2    0    0  0.14614062388E+02  0.83480355116E+01  0.27082380605E+02  0.59302017882E+02  0.50000134692E+02 0.  0.
         12    1    1    2    0    0 -0.14614062388E+02 -0.83480355116E+01 -0.27082380605E+02  0.31885982118E+02  0.00000000000E+00 0. -1.
         11    1    3    3    0    0  0.10499128174E+01 -0.64591664029E+00 -0.18366363166E+01  0.22119580581E+01  0.51100000000E-03 0. -1.
        -11    1    3    3    0    0  0.26539978212E+02  0.13854533529E+02  0.63464247526E+01  0.30603850252E+02  0.51100000000E-03 0.  1.
        -12    1    3    3    0    0 -0.12975828642E+02 -0.48605813774E+01  0.22572592169E+02  0.26486209572E+02  0.00000000000E+00 0.  1.
</event>
<event>
 7    1  0.5662448E-012  0.5930197E+02  0.7816164E-02  0.1266605E+00
        -11   -1    0    0    0    0  0.00000000000E+00  0.00000000000E+00  0.45593999997E+02  0.45594000000E+02  0.51100000000E-03 0.  1.
         11   -1    0    0    0    0 -0.00000000000E+00 -0.00000000000E+00 -0.45593999997E+02  0.45594000000E+02  0.51100000000E-03 0. -1.
    9900012    2    1    2    0    0 -0.28674452006E+02  0.40108994963E+01  0.13356920961E+02  0.59301970925E+02  0.50000049053E+02 0.  0.
         12    1    1    2    0    0  0.28674452006E+02 -0.40108994963E+01 -0.13356920961E+02  0.31886029075E+02  0.00000000000E+00 0. -1.
         11    1    3    3    0    0  0.19501528107E+01 -0.36896885255E+01 -0.32089444154E+01  0.52644298763E+01  0.51100000000E-03 0. -1.
        -11    1    3    3    0    0 -0.18169082668E+02  0.17626723116E+02 -0.63798672158E+01  0.26105931103E+02  0.51100000000E-03 0.  1.
        -12    1    3    3    0    0 -0.12455522149E+02 -0.99261350945E+01  0.22945732593E+02  0.27931609945E+02  0.00000000000E+00 0.  1.
</event>
<event>
 7    1  0.5662448E-012  0.5930195E+02  0.7816164E-02  0.1266605E+00
        -11   -1    0    0    0    0  0.00000000000E+00  0.00000000000E+00  0.45593999997E+02  0.45594000000E+02  0.51100000000E-03 0. -1.
         11   -1    0    0    0    0 -0.00000000000E+00 -0.00000000000E+00 -0.45593999997E+02  0.45594000000E+02  0.51100000000E-03 0.  1.
    9900012    2    1    2    0    0  0.16975703998E+02 -0.22125519787E+02 -0.15459858949E+02  0.59301946767E+02  0.50000004995E+02 0.  0.
         12    1    1    2    0    0 -0.16975703998E+02  0.22125519787E+02  0.15459858949E+02  0.31886053233E+02  0.00000000000E+00 0. -1.
         11    1    3    3    0    0  0.96729217419E+01  0.74753958364E+01 -0.97662314415E+01  0.15646924131E+02  0.51100000000E-03 0. -1.
        -11    1    3    3    0    0  0.19273127106E+02 -0.15216646849E+02 -0.37518204830E+01  0.24841013002E+02  0.51100000000E-03 0.  1.
        -12    1    3    3    0    0 -0.11970344849E+02 -0.14384268774E+02 -0.19418070246E+01  0.18814009634E+02  0.00000000000E+00 0.  1.
</event>
<event>
 7    1  0.5662448E-012  0.5930198E+02  0.7816164E-02  0.1266605E+00
        -11   -1    0    0    0    0  0.00000000000E+00  0.00000000000E+00  0.45593999997E+02  0.45594000000E+02  0.51100000000E-03 0. -1.
         11   -1    0    0    0    0 -0.00000000000E+00 -0.00000000000E+00 -0.45593999997E+02  0.45594000000E+02  0.51100000000E-03 0.  1.
    9900012    2    1    2    0    0 -0.20156251427E+02 -0.17858505653E+02 -0.17073884043E+02  0.59301980931E+02  0.50000067302E+02 0.  0.
         12    1    1    2    0    0  0.20156251427E+02  0.17858505653E+02  0.17073884043E+02  0.31886019069E+02  0.00000000000E+00 0. -1.
         11    1    3    3    0    0 -0.61297494478E+01 -0.17382100336E-01  0.12396939650E+02  0.13829614723E+02  0.51100000000E-03 0. -1.
        -11    1    3    3    0    0 -0.15944064256E+02 -0.33810682029E+01 -0.51145464821E+01  0.17082253750E+02  0.51100000000E-03 0.  1.
        -12    1    3    3    0    0  0.19175622766E+01 -0.14460055350E+02 -0.24356277211E+02  0.28390112458E+02  0.00000000000E+00 0.  1.
</event>
<event>
 7    1  0.5662448E-012  0.5930206E+02  0.7816164E-02  0.1266604E+00
        -11   -1    0    0    0    0  0.00000000000E+00  0.00000000000E+00  0.45593999997E+02  0.45594000000E+02  0.51100000000E-03 0.  1.
         11   -1    0    0    0    0 -0.00000000000E+00 -0.00000000000E+00 -0.45593999997E+02  0.45594000000E+02  0.51100000000E-03 0. -1.
    9900012    2    1    2    0    0  0.27012741120E+02 -0.16914475028E+02 -0.96202684519E+00  0.59302060404E+02  0.50000212242E+02 0.  0.
         12    1    1    2    0    0 -0.27012741120E+02  0.16914475028E+02  0.96202684519E+00  0.31885939596E+02  0.00000000000E+00 0. -1.
         11    1    3    3    0    0  0.77380486921E+01 -0.21110724258E+01 -0.59215569785E+01  0.99698977757E+01  0.51100000000E-03 0.  1.
        -11    1    3    3    0    0  0.19954175725E+02 -0.80734049267E+01 -0.16313972352E+02  0.27009159375E+02  0.51100000000E-03 0. -1.
        -12    1    3    3    0    0 -0.67948329758E+00 -0.67299976756E+01  0.21273502485E+02  0.22323003253E+02  0.00000000000E+00 0.  1.
</event>
<event>
 7    1  0.5662448E-012  0.5930195E+02  0.7816164E-02  0.1266605E+00
        -11   -1    0    0    0    0  0.00000000000E+00  0.00000000000E+00  0.45593999997E+02  0.45594000000E+02  0.51100000000E-03 0. -1.
         11   -1    0    0    0    0 -0.00000000000E+00 -0.00000000000E+00 -0.45593999997E+02  0.45594000000E+02  0.51100000000E-03 0.  1.
    9900012    2    1    2    0    0 -0.59983120930E+01 -0.20826602294E+02 -0.23387889222E+02  0.59301945473E+02  0.50000002636E+02 0.  0.
         12    1    1    2    0    0  0.59983120930E+01  0.20826602294E+02  0.23387889222E+02  0.31886054527E+02  0.00000000000E+00 0. -1.
         11    1    3    3    0    0  0.40022885159E+01  0.26704397931E-01  0.11834203337E+02  0.12492693680E+02  0.51100000000E-03 0. -1.
        -11    1    3    3    0    0 -0.85059012306E+01 -0.22577301067E+01 -0.25098988747E+01  0.91513547413E+01  0.51100000000E-03 0.  1.
         12    1    3    3    0    0 -0.14946993783E+01 -0.18595576585E+02 -0.32712193684E+02  0.37657897052E+02  0.00000000000E+00 0. -1.
</event>
<event>
 7    1  0.5662448E-012  0.5930194E+02  0.7816164E-02  0.1266605E+00
        -11   -1    0    0    0    0  0.00000000000E+00  0.00000000000E+00  0.45593999997E+02  0.45594000000E+02  0.51100000000E-03 0.  1.
         11   -1    0    0    0    0 -0.00000000000E+00 -0.00000000000E+00 -0.45593999997E+02  0.45594000000E+02  0.51100000000E-03 0. -1.
    9900012    2    1    2    0    0 -0.20975381114E+02  0.34911046998E+00  0.24013166517E+02  0.59301942590E+02  0.49999997378E+02 0.  0.
         12    1    1    2    0    0  0.20975381114E+02 -0.34911046998E+00 -0.24013166517E+02  0.31886057410E+02  0.00000000000E+00 0. -1.
         11    1    3    3    0    0  0.75140879569E+01 -0.79121374305E+01 -0.81665426931E+00  0.10942136949E+02  0.51100000000E-03 0. -1.
        -11    1    3    3    0    0  0.15161959264E+01  0.65825877129E+01 -0.30086866827E+01  0.73946945103E+01  0.51100000000E-03 0.  1.
        -12    1    3    3    0    0 -0.30005664997E+02  0.16786601876E+01  0.27838507469E+02  0.40965111131E+02  0.00000000000E+00 0.  1.
</event>
<event>
 7    1  0.5662448E-012  0.5930198E+02  0.7816164E-02  0.1266605E+00
        -11   -1    0    0    0    0  0.00000000000E+00  0.00000000000E+00  0.45593999997E+02  0.45594000000E+02  0.51100000000E-03 0. -1.
         11   -1    0    0    0    0 -0.00000000000E+00 -0.00000000000E+00 -0.45593999997E+02  0.45594000000E+02  0.51100000000E-03 0.  1.
    9900012    2    1    2    0    0 -0.13883580996E+02 -0.12379461663E+02 -0.25898140741E+02  0.59301975065E+02  0.50000056604E+02 0.  0.
         12    1    1    2    0    0  0.13883580996E+02  0.12379461663E+02  0.25898140741E+02  0.31886024935E+02  0.00000000000E+00 0. -1.
         11    1    3    3    0    0 -0.63721873397E+01  0.73013806811E+01 -0.29472917490E+01  0.10129237891E+02  0.51100000000E-03 0. -1.
        -11    1    3    3    0    0 -0.17619906605E+01  0.18933801885E+01 -0.26447282792E+02  0.26573450415E+02  0.51100000000E-03 0.  1.
         12    1    3    3    0    0 -0.57494029957E+01 -0.21574222533E+02  0.34964337999E+01  0.22599286759E+02  0.00000000000E+00 0. -1.
</event>
<event>
 7    1  0.5662448E-012  0.5930197E+02  0.7816164E-02  0.1266605E+00
        -11   -1    0    0    0    0  0.00000000000E+00  0.00000000000E+00  0.45593999997E+02  0.45594000000E+02  0.51100000000E-03 0.  1.
         11   -1    0    0    0    0 -0.00000000000E+00 -0.00000000000E+00 -0.45593999997E+02  0.45594000000E+02  0.51100000000E-03 0. -1.
    9900012    2    1    2    0    0 -0.39839850272E+01  0.27663397478E+01  0.31514983321E+02  0.59301969422E+02  0.50000046314E+02 0.  0.
         12    1    1    2    0    0  0.39839850272E+01 -0.27663397478E+01 -0.31514983321E+02  0.31886030578E+02  0.00000000000E+00 0. -1.
         11    1    3    3    0    0 -0.44700847409E-01 -0.58161242600E+01 -0.41865339808E+01  0.71663356471E+01  0.51100000000E-03 0. -1.
        -11    1    3    3    0    0  0.58565240948E+01 -0.12989299241E+02  0.12081012133E+02  0.18680782202E+02  0.51100000000E-03 0.  1.
        -12    1    3    3    0    0 -0.97958082745E+01  0.21571763249E+02  0.23620505168E+02  0.33454851573E+02  0.00000000000E+00 0.  1.
</event>
<event>
 7    1  0.5662448E-012  0.5930195E+02  0.7816164E-02  0.1266605E+00
        -11   -1    0    0    0    0  0.00000000000E+00  0.00000000000E+00  0.45593999997E+02  0.45594000000E+02  0.51100000000E-03 0.  1.
         11   -1    0    0    0    0 -0.00000000000E+00 -0.00000000000E+00 -0.45593999997E+02  0.45594000000E+02  0.51100000000E-03 0. -1.
    9900012    2    1    2    0    0  0.25367210632E+02  0.16893123058E+02  0.93726669573E+01  0.59301954968E+02  0.50000019952E+02 0.  0.
         12    1    1    2    0    0 -0.25367210632E+02 -0.16893123058E+02 -0.93726669573E+01  0.31886045032E+02  0.00000000000E+00 0. -1.
         11    1    3    3    0    0 -0.97364353952E+01 -0.48203274865E+01  0.45881520742E+01  0.11793424905E+02  0.51100000000E-03 0. -1.
        -11    1    3    3    0    0  0.76265285295E+01  0.50227405839E+01  0.11480422665E+02  0.14669422797E+02  0.51100000000E-03 0.  1.
         12    1    3    3    0    0  0.27477117498E+02  0.16690709960E+02 -0.66959077814E+01  0.32839107265E+02  0.00000000000E+00 0. -1.
</event>
<event>
 7    1  0.5662448E-012  0.5930195E+02  0.7816164E-02  0.1266605E+00
        -11   -1    0    0    0    0  0.00000000000E+00  0.00000000000E+00  0.45593999997E+02  0.45594000000E+02  0.51100000000E-03 0.  1.
         11   -1    0    0    0    0 -0.00000000000E+00 -0.00000000000E+00 -0.45593999997E+02  0.45594000000E+02  0.51100000000E-03 0. -1.
    9900012    2    1    2    0    0 -0.29152222953E+01 -0.23494783717E+02  0.21359233851E+02  0.59301948917E+02  0.50000008917E+02 0.  0.
         12    1    1    2    0    0  0.29152222953E+01  0.23494783717E+02 -0.21359233851E+02  0.31886051083E+02  0.00000000000E+00 0. -1.
         11    1    3    3    0    0 -0.56111800141E+01 -0.23744749970E+01 -0.55561337314E+00  0.61181843012E+01  0.51100000000E-03 0. -1.
        -11    1    3    3    0    0 -0.87027062199E+01  0.10947434716E+02  0.32092555341E+01  0.14348614698E+02  0.51100000000E-03 0.  1.
        -12    1    3    3    0    0  0.11398663939E+02 -0.32067743436E+02  0.18705591690E+02  0.38835149918E+02  0.00000000000E+00 0.  1.
</event>
<event>
 7    1  0.5662448E-012  0.5930191E+02  0.7816164E-02  0.1266605E+00
        -11   -1    0    0    0    0  0.00000000000E+00  0.00000000000E+00  0.45593999997E+02  0.45594000000E+02  0.51100000000E-03 0.  1.
         11   -1    0    0    0    0 -0.00000000000E+00 -0.00000000000E+00 -0.45593999997E+02  0.45594000000E+02  0.51100000000E-03 0. -1.
    9900012    2    1    2    0    0  0.19801678112E+02 -0.24990313321E+02 -0.31689713890E+00  0.59301911501E+02  0.49999940680E+02 0.  0.
         12    1    1    2    0    0 -0.19801678112E+02  0.24990313321E+02  0.31689713890E+00  0.31886088499E+02  0.00000000000E+00 0. -1.
         11    1    3    3    0    0  0.28574477692E+01 -0.29058166843E+02 -0.16754994819E+02  0.33664104320E+02  0.51100000000E-03 0. -1.
        -11    1    3    3    0    0  0.67935010689E+01 -0.13522224251E+01  0.20694195717E+01  0.72292917969E+01  0.51100000000E-03 0.  1.
        -12    1    3    3    0    0  0.10150729274E+02  0.54200759470E+01  0.14368678108E+02  0.18408515384E+02  0.00000000000E+00 0.  1.
</event>
<event>
 7    1  0.5662448E-012  0.5930191E+02  0.7816164E-02  0.1266605E+00
        -11   -1    0    0    0    0  0.00000000000E+00  0.00000000000E+00  0.45593999997E+02  0.45594000000E+02  0.51100000000E-03 0.  1.
         11   -1    0    0    0    0 -0.00000000000E+00 -0.00000000000E+00 -0.45593999997E+02  0.45594000000E+02  0.51100000000E-03 0. -1.
    9900012    2    1    2    0    0  0.13487793071E+02  0.28057749765E+02  0.68967424043E+01  0.59301906800E+02  0.49999932105E+02 0.  0.
         12    1    1    2    0    0 -0.13487793071E+02 -0.28057749765E+02 -0.68967424043E+01  0.31886093200E+02  0.00000000000E+00 0. -1.
         11    1    3    3    0    0  0.25839790073E+01  0.66128355534E+01  0.90735808939E+01  0.11521128941E+02  0.51100000000E-03 0. -1.
        -11    1    3    3    0    0 -0.34632120108E+01 -0.11206795079E+02  0.18750857598E+01  0.11878637979E+02  0.51100000000E-03 0.  1.
         12    1    3    3    0    0  0.14367026074E+02  0.32651709291E+02 -0.40519242494E+01  0.35902139880E+02  0.00000000000E+00 0. -1.
</event>
<event>
 7    1  0.5662448E-012  0.5930192E+02  0.7816164E-02  0.1266605E+00
        -11   -1    0    0    0    0  0.00000000000E+00  0.00000000000E+00  0.45593999997E+02  0.45594000000E+02  0.51100000000E-03 0.  1.
         11   -1    0    0    0    0 -0.00000000000E+00 -0.00000000000E+00 -0.45593999997E+02  0.45594000000E+02  0.51100000000E-03 0. -1.
    9900012    2    1    2    0    0  0.20179640793E+01  0.68862616344E+01  0.31068141882E+02  0.59301918109E+02  0.49999952731E+02 0.  0.
         12    1    1    2    0    0 -0.20179640793E+01 -0.68862616344E+01 -0.31068141882E+02  0.31886081891E+02  0.00000000000E+00 0. -1.
         11    1    3    3    0    0 -0.81863549538E+01  0.51819385372E+01 -0.19519820393E+01  0.98832751948E+01  0.51100000000E-03 0. -1.
        -11    1    3    3    0    0 -0.13427815519E+01 -0.24120948471E+01  0.36555930932E+02  0.36660023874E+02  0.51100000000E-03 0.  1.
         12    1    3    3    0    0  0.11547100585E+02  0.41164179443E+01 -0.35358070102E+01  0.12758619041E+02  0.00000000000E+00 0. -1.
</event>
<event>
 7    1  0.5662448E-012  0.5930195E+02  0.7816164E-02  0.1266605E+00
        -11   -1    0    0    0    0  0.00000000000E+00  0.00000000000E+00  0.45593999997E+02  0.45594000000E+02  0.51100000000E-03 0. -1.
         11   -1    0    0    0    0 -0.00000000000E+00 -0.00000000000E+00 -0.45593999997E+02  0.45594000000E+02  0.51100000000E-03 0.  1.
    9900012    2    1    2    0    0  0.41461484131E+01  0.31601785405E+02  0.92557860860E+00  0.59301951590E+02  0.50000013792E+02 0.  0.
         12    1    1    2    0    0 -0.41461484131E+01 -0.31601785405E+02 -0.92557860860E+00  0.31886048410E+02  0.00000000000E+00 0. -1.
         11    1    3    3    0    0  0.58169479317E+01 -0.80968551735E+01 -0.31182299651E+01  0.10446018635E+02  0.51100000000E-03 0. -1.
        -11    1    3    3    0    0 -0.46792347171E+01  0.19219540734E+02 -0.11581073269E+02  0.22921763499E+02  0.51100000000E-03 0.  1.
         12    1    3    3    0    0  0.30084351985E+01  0.20479099844E+02  0.15624881843E+02  0.25934169456E+02  0.00000000000E+00 0. -1.
</event>
<event>
 7    1  0.5662448E-012  0.5930190E+02  0.7816164E-02  0.1266605E+00
        -11   -1    0    0    0    0  0.00000000000E+00  0.00000000000E+00  0.45593999997E+02  0.45594000000E+02  0.51100000000E-03 0.  1.
         11   -1    0    0    0    0 -0.00000000000E+00 -0.00000000000E+00 -0.45593999997E+02  0.45594000000E+02  0.51100000000E-03 0. -1.
    9900012    2    1    2    0    0 -0.12345457766E+02 -0.58987723608E+01  0.28801346892E+02  0.59301899179E+02  0.49999918206E+02 0.  0.
         12    1    1    2    0    0  0.12345457766E+02  0.58987723608E+01 -0.28801346892E+02  0.31886100821E+02  0.00000000000E+00 0. -1.
         11    1    3    3    0    0  0.10425140187E+02 -0.55776766727E+01 -0.18685436926E+01  0.11970191343E+02  0.51100000000E-03 0. -1.
        -11    1    3    3    0    0 -0.12758968840E+01 -0.92059993154E+01  0.59576304159E+00  0.93130698545E+01  0.51100000000E-03 0.  1.
        -12    1    3    3    0    0 -0.21494701069E+02  0.88849036273E+01  0.30074127543E+02  0.38018637981E+02  0.00000000000E+00 0.  1.
</event>
<event>
 7    1  0.5662448E-012  0.5930212E+02  0.7816164E-02  0.1266604E+00
        -11   -1    0    0    0    0  0.00000000000E+00  0.00000000000E+00  0.45593999997E+02  0.45594000000E+02  0.51100000000E-03 0.  1.
         11   -1    0    0    0    0 -0.00000000000E+00 -0.00000000000E+00 -0.45593999997E+02  0.45594000000E+02  0.51100000000E-03 0. -1.
    9900012    2    1    2    0    0 -0.22698543533E+02 -0.13055668659E+02  0.18194359709E+02  0.59302124007E+02  0.50000328237E+02 0.  0.
         12    1    1    2    0    0  0.22698543533E+02  0.13055668659E+02 -0.18194359709E+02  0.31885875993E+02  0.00000000000E+00 0. -1.
         11    1    3    3    0    0 -0.14292777432E+02 -0.14094366090E+02  0.18584664961E+02  0.27355518898E+02  0.51100000000E-03 0. -1.
        -11    1    3    3    0    0 -0.49975235302E+01 -0.14860548822E+02  0.10225307362E+00  0.15678699203E+02  0.51100000000E-03 0.  1.
         12    1    3    3    0    0 -0.34082425706E+01  0.15899246254E+02 -0.49255832491E+00  0.16267905906E+02  0.00000000000E+00 0. -1.
</event>
<event>
 7    1  0.5662448E-012  0.5930202E+02  0.7816164E-02  0.1266604E+00
        -11   -1    0    0    0    0  0.00000000000E+00  0.00000000000E+00  0.45593999997E+02  0.45594000000E+02  0.51100000000E-03 0. -1.
         11   -1    0    0    0    0 -0.00000000000E+00 -0.00000000000E+00 -0.45593999997E+02  0.45594000000E+02  0.51100000000E-03 0.  1.
    9900012    2    1    2    0    0 -0.18349471961E+01 -0.30134032269E+02 -0.10261034807E+02  0.59302019267E+02  0.50000137218E+02 0.  0.
         12    1    1    2    0    0  0.18349471961E+01  0.30134032269E+02  0.10261034807E+02  0.31885980733E+02  0.00000000000E+00 0. -1.
         11    1    3    3    0    0  0.12457318428E+02 -0.47577766012E+00 -0.14105869980E+01  0.12545951647E+02  0.51100000000E-03 0. -1.
        -11    1    3    3    0    0 -0.19251726398E+01 -0.27364598326E+02 -0.16521680292E+02  0.32023326672E+02  0.51100000000E-03 0.  1.
         12    1    3    3    0    0 -0.12367092984E+02 -0.22936562834E+01  0.76712324828E+01  0.14732740948E+02  0.00000000000E+00 0. -1.
</event>
<event>
 7    1  0.5662448E-012  0.5930196E+02  0.7816164E-02  0.1266605E+00
        -11   -1    0    0    0    0  0.00000000000E+00  0.00000000000E+00  0.45593999997E+02  0.45594000000E+02  0.51100000000E-03 0.  1.
         11   -1    0    0    0    0 -0.00000000000E+00 -0.00000000000E+00 -0.45593999997E+02  0.45594000000E+02  0.51100000000E-03 0. -1.
    9900012    2    1    2    0    0 -0.25248001215E+02 -0.18155740397E+02 -0.70446573235E+01  0.59301958046E+02  0.50000025566E+02 0.  0.
         12    1    1    2    0    0  0.25248001215E+02  0.18155740397E+02  0.70446573235E+01  0.31886041954E+02  0.00000000000E+00 0. -1.
         11    1    3    3    0    0 -0.16903501817E+02  0.57161487957E+01 -0.96492193546E+01  0.20285713326E+02  0.51100000000E-03 0. -1.
        -11    1    3    3    0    0 -0.10690672934E+02  0.15174407333E+01  0.73753277716E+01  0.13076259945E+02  0.51100000000E-03 0.  1.
        -12    1    3    3    0    0  0.23461735363E+01 -0.25389329926E+02 -0.47707657405E+01  0.25939984774E+02  0.00000000000E+00 0.  1.
</event>
<event>
 7    1  0.5662448E-012  0.5930194E+02  0.7816164E-02  0.1266605E+00
        -11   -1    0    0    0    0  0.00000000000E+00  0.00000000000E+00  0.45593999997E+02  0.45594000000E+02  0.51100000000E-03 0.  1.
         11   -1    0    0    0    0 -0.00000000000E+00 -0.00000000000E+00 -0.45593999997E+02  0.45594000000E+02  0.51100000000E-03 0. -1.
    9900012    2    1    2    0    0 -0.16250935213E+02 -0.15611315154E+02  0.22559143276E+02  0.59301937191E+02  0.49999987531E+02 0.  0.
         12    1    1    2    0    0  0.16250935213E+02  0.15611315154E+02 -0.22559143276E+02  0.31886062809E+02  0.00000000000E+00 0. -1.
         11    1    3    3    0    0  0.65749478231E+01 -0.10731860505E+02 -0.16183283107E+01  0.12689434800E+02  0.51100000000E-03 0. -1.
        -11    1    3    3    0    0  0.59526506972E+01  0.50384898409E+01  0.10901270592E+02  0.13403661104E+02  0.51100000000E-03 0.  1.
         12    1    3    3    0    0 -0.28778533733E+02 -0.99179444902E+01  0.13276200995E+02  0.33208841287E+02  0.00000000000E+00 0. -1.
</event>
<event>
 7    1  0.5662448E-012  0.5930195E+02  0.7816164E-02  0.1266605E+00
        -11   -1    0    0    0    0  0.00000000000E+00  0.00000000000E+00  0.45593999997E+02  0.45594000000E+02  0.51100000000E-03 0.  1.
         11   -1    0    0    0    0 -0.00000000000E+00 -0.00000000000E+00 -0.45593999997E+02  0.45594000000E+02  0.51100000000E-03 0. -1.
    9900012    2    1    2    0    0  0.10571717241E+02  0.29889227396E+02  0.34048163816E+01  0.59301954551E+02  0.50000019193E+02 0.  0.
         12    1    1    2    0    0 -0.10571717241E+02 -0.29889227396E+02 -0.34048163816E+01  0.31886045449E+02  0.00000000000E+00 0. -1.
         11    1    3    3    0    0 -0.11973163846E+02  0.87265165410E+01  0.53118360614E+01  0.15739261292E+02  0.51100000000E-03 0. -1.
        -11    1    3    3    0    0 -0.24242203989E+01  0.16909880196E+02 -0.55757268158E+01  0.17969686213E+02  0.51100000000E-03 0.  1.
        -12    1    3    3    0    0  0.24969101486E+02  0.42528306587E+01  0.36687071360E+01  0.25593007047E+02  0.00000000000E+00 0.  1.
</event>
<event>
 7    1  0.5662448E-012  0.5930191E+02  0.7816164E-02  0.1266605E+00
        -11   -1    0    0    0    0  0.00000000000E+00  0.00000000000E+00  0.45593999997E+02  0.45594000000E+02  0.51100000000E-03 0. -1.
         11   -1    0    0    0    0 -0.00000000000E+00 -0.00000000000E+00 -0.45593999997E+02  0.45594000000E+02  0.51100000000E-03 0.  1.
    9900012    2    1    2    0    0 -0.22466565316E+02  0.17186753112E+02  0.14717060405E+02  0.59301907317E+02  0.49999933049E+02 0.  0.
         12    1    1    2    0    0  0.22466565316E+02 -0.17186753112E+02 -0.14717060405E+02  0.31886092683E+02  0.00000000000E+00 0. -1.
         11    1    3    3    0    0  0.41379162923E+01 -0.30687902860E+01 -0.55983110467E+01  0.76079505715E+01  0.51100000000E-03 0. -1.
        -11    1    3    3    0    0 -0.11207774099E+02 -0.90462758147E+01  0.53074208021E+01  0.15349854143E+02  0.51100000000E-03 0.  1.
        -12    1    3    3    0    0 -0.15396707509E+02  0.29301819213E+02  0.15007950649E+02  0.36344102603E+02  0.00000000000E+00 0.  1.
</event>
<event>
 7    1  0.5662448E-012  0.5930217E+02  0.7816164E-02  0.1266604E+00
        -11   -1    0    0    0    0  0.00000000000E+00  0.00000000000E+00  0.45593999997E+02  0.45594000000E+02  0.51100000000E-03 0. -1.
         11   -1    0    0    0    0 -0.00000000000E+00 -0.00000000000E+00 -0.45593999997E+02  0.45594000000E+02  0.51100000000E-03 0.  1.
    9900012    2    1    2    0    0 -0.29670175600E+01 -0.87112842762E+01 -0.30528942534E+02  0.59302172440E+02  0.50000416568E+02 0.  0.
         12    1    1    2    0    0  0.29670175600E+01  0.87112842762E+01  0.30528942534E+02  0.31885827560E+02  0.00000000000E+00 0. -1.
         11    1    3    3    0    0  0.92902423890E+01  0.24541797110E+01  0.54784264458E+01  0.11060956481E+02  0.51100000000E-03 0. -1.
        -11    1    3    3    0    0 -0.11635808887E+02 -0.16780412557E+02 -0.37228978986E+02  0.42461408015E+02  0.51100000000E-03 0.  1.
         12    1    3    3    0    0 -0.62145106231E+00  0.56149485694E+01  0.12216100061E+01  0.57798079438E+01  0.00000000000E+00 0. -1.
</event>
<event>
 7    1  0.5662448E-012  0.5930193E+02  0.7816164E-02  0.1266605E+00
        -11   -1    0    0    0    0  0.00000000000E+00  0.00000000000E+00  0.45593999997E+02  0.45594000000E+02  0.51100000000E-03 0.  1.
         11   -1    0    0    0    0 -0.00000000000E+00 -0.00000000000E+00 -0.45593999997E+02  0.45594000000E+02  0.51100000000E-03 0. -1.
    9900012    2    1    2    0    0  0.25972294713E+02 -0.12098770657E+02  0.13992185329E+02  0.59301927894E+02  0.49999970576E+02 0.  0.
         12    1    1    2    0    0 -0.25972294713E+02  0.12098770657E+02 -0.13992185329E+02  0.31886072106E+02  0.00000000000E+00 0. -1.
         11    1    3    3    0    0 -0.52863172441E-01 -0.77611445438E+01 -0.24985373349E+01  0.81535788596E+01  0.51100000000E-03 0. -1.
        -11    1    3    3    0    0  0.31487832329E+02 -0.16088708520E+02  0.10608534046E+02  0.36917084412E+02  0.51100000000E-03 0.  1.
         12    1    3    3    0    0 -0.54626744441E+01  0.11751082407E+02  0.58821886186E+01  0.14231264623E+02  0.00000000000E+00 0. -1.
</event>
<event>
 7    1  0.5662448E-012  0.5930199E+02  0.7816164E-02  0.1266605E+00
        -11   -1    0    0    0    0  0.00000000000E+00  0.00000000000E+00  0.45593999997E+02  0.45594000000E+02  0.51100000000E-03 0. -1.
         11   -1    0    0    0    0 -0.00000000000E+00 -0.00000000000E+00 -0.45593999997E+02  0.45594000000E+02  0.51100000000E-03 0.  1.
    9900012    2    1    2    0    0  0.24461799179E+02 -0.14042899691E+02 -0.14870618163E+02  0.59301985270E+02  0.50000075216E+02 0.  0.
         12    1    1    2    0    0 -0.24461799179E+02  0.14042899691E+02  0.14870618163E+02  0.31886014730E+02  0.00000000000E+00 0. -1.
         11    1    3    3    0    0  0.33947644689E+01 -0.12500528706E+02 -0.51649679022E+01  0.13945054228E+02  0.51100000000E-03 0.  1.
        -11    1    3    3    0    0  0.31922674332E+02 -0.44465799591E+01 -0.10974678183E+02  0.34048094973E+02  0.51100000000E-03 0. -1.
         12    1    3    3    0    0 -0.10855639622E+02  0.29042089744E+01  0.12690279213E+01  0.11308836069E+02  0.00000000000E+00 0. -1.
</event>
<event>
 7    1  0.5662448E-012  0.5930190E+02  0.7816164E-02  0.1266605E+00
        -11   -1    0    0    0    0  0.00000000000E+00  0.00000000000E+00  0.45593999997E+02  0.45594000000E+02  0.51100000000E-03 0.  1.
         11   -1    0    0    0    0 -0.00000000000E+00 -0.00000000000E+00 -0.45593999997E+02  0.45594000000E+02  0.51100000000E-03 0. -1.
    9900012    2    1    2    0    0  0.24021035172E+02  0.53400787683E+01  0.20277990697E+02  0.59301898346E+02  0.49999916688E+02 0.  0.
         12    1    1    2    0    0 -0.24021035172E+02 -0.53400787683E+01 -0.20277990697E+02  0.31886101654E+02  0.00000000000E+00 0. -1.
         11    1    3    3    0    0  0.24549051454E+01  0.10333028586E+02  0.54796482428E+01  0.11950923987E+02  0.51100000000E-03 0. -1.
        -11    1    3    3    0    0 -0.13872309760E-01  0.78771245424E+00 -0.12246591486E+02  0.12271906398E+02  0.51100000000E-03 0.  1.
        -12    1    3    3    0    0  0.21580002336E+02 -0.57806622715E+01  0.27044933941E+02  0.35079067961E+02  0.00000000000E+00 0.  1.
</event>
<event>
 7    1  0.5662448E-012  0.5930189E+02  0.7816164E-02  0.1266605E+00
        -11   -1    0    0    0    0  0.00000000000E+00  0.00000000000E+00  0.45593999997E+02  0.45594000000E+02  0.51100000000E-03 0. -1.
         11   -1    0    0    0    0 -0.00000000000E+00 -0.00000000000E+00 -0.45593999997E+02  0.45594000000E+02  0.51100000000E-03 0.  1.
    9900012    2    1    2    0    0  0.25848611251E+02  0.12789228060E+02  0.13601788159E+02  0.59301894890E+02  0.49999910385E+02 0.  0.
         12    1    1    2    0    0 -0.25848611251E+02 -0.12789228060E+02 -0.13601788159E+02  0.31886105110E+02  0.00000000000E+00 0. -1.
         11    1    3    3    0    0 -0.56814729300E+01 -0.90019371723E+01  0.22224873896E+01  0.10874440582E+02  0.51100000000E-03 0. -1.
        -11    1    3    3    0    0  0.40302896883E+01  0.14138722647E+02 -0.49858054630E+01  0.15524334751E+02  0.51100000000E-03 0.  1.
         12    1    3    3    0    0  0.27499794493E+02  0.76524425845E+01  0.16365106232E+02  0.32903119558E+02  0.00000000000E+00 0. -1.
</event>
<event>
 7    1  0.5662448E-012  0.5930192E+02  0.7816164E-02  0.1266605E+00
        -11   -1    0    0    0    0  0.00000000000E+00  0.00000000000E+00  0.45593999997E+02  0.45594000000E+02  0.51100000000E-03 0.  1.
         11   -1    0    0    0    0 -0.00000000000E+00 -0.00000000000E+00 -0.45593999997E+02  0.45594000000E+02  0.51100000000E-03 0. -1.
    9900012    2    1    2    0    0  0.24282952926E+02 -0.20268891419E+02 -0.40289539167E+01  0.59301917898E+02  0.49999952346E+02 0.  0.
         12    1    1    2    0    0 -0.24282952926E+02  0.20268891419E+02  0.40289539167E+01  0.31886082102E+02  0.00000000000E+00 0. -1.
         11    1    3    3    0    0 -0.44930472654E+01 -0.83639094725E+01 -0.25984497869E+01  0.98434951592E+01  0.51100000000E-03 0. -1.
        -11    1    3    3    0    0  0.22636938789E+02 -0.24542998417E+02  0.54227003825E+01  0.33825958209E+02  0.51100000000E-03 0.  1.
         12    1    3    3    0    0  0.61390614023E+01  0.12638016470E+02 -0.68532045122E+01  0.15632464530E+02  0.00000000000E+00 0. -1.
</event>
<event>
 7    1  0.5662448E-012  0.5930209E+02  0.7816164E-02  0.1266604E+00
        -11   -1    0    0    0    0  0.00000000000E+00  0.00000000000E+00  0.45593999997E+02  0.45594000000E+02  0.51100000000E-03 0.  1.
         11   -1    0    0    0    0 -0.00000000000E+00 -0.00000000000E+00 -0.45593999997E+02  0.45594000000E+02  0.51100000000E-03 0. -1.
    9900012    2    1    2    0    0  0.13022312201E+02  0.27723382642E+02  0.88625580577E+01  0.59302086252E+02  0.50000259383E+02 0.  0.
         12    1    1    2    0    0 -0.13022312201E+02 -0.27723382642E+02 -0.88625580577E+01  0.31885913748E+02  0.00000000000E+00 0. -1.
         11    1    3    3    0    0 -0.10491584250E+02  0.76471459821E+01 -0.89439182809E+01  0.15765337174E+02  0.51100000000E-03 0. -1.
        -11    1    3    3    0    0 -0.52990502796E+01  0.43690052522E+01  0.38764626501E+01  0.78863872400E+01  0.51100000000E-03 0.  1.
         12    1    3    3    0    0  0.28812946731E+02  0.15707231408E+02  0.13930013688E+02  0.35650361838E+02  0.00000000000E+00 0. -1.
</event>
<event>
 7    1  0.5662448E-012  0.5930194E+02  0.7816164E-02  0.1266605E+00
        -11   -1    0    0    0    0  0.00000000000E+00  0.00000000000E+00  0.45593999997E+02  0.45594000000E+02  0.51100000000E-03 0.  1.
         11   -1    0    0    0    0 -0.00000000000E+00 -0.00000000000E+00 -0.45593999997E+02  0.45594000000E+02  0.51100000000E-03 0. -1.
    9900012    2    1    2    0    0  0.63219309070E+01 -0.35521180560E+01  0.31050543430E+02  0.59301943480E+02  0.49999999002E+02 0.  0.
         12    1    1    2    0    0 -0.63219309070E+01  0.35521180560E+01 -0.31050543430E+02  0.31886056520E+02  0.00000000000E+00 0. -1.
         11    1    3    3    0    0 -0.90752006252E+01 -0.19094188949E+01 -0.31019521688E+01  0.97789188780E+01  0.51100000000E-03 0. -1.
        -11    1    3    3    0    0 -0.61761363728E+01 -0.10351570685E+02  0.15900094265E+02  0.19952761063E+02  0.51100000000E-03 0.  1.
        -12    1    3    3    0    0  0.21573267905E+02  0.87088715241E+01  0.18252401334E+02  0.29570263539E+02  0.00000000000E+00 0.  1.
</event>
<event>
 7    1  0.5662448E-012  0.5930194E+02  0.7816164E-02  0.1266605E+00
        -11   -1    0    0    0    0  0.00000000000E+00  0.00000000000E+00  0.45593999997E+02  0.45594000000E+02  0.51100000000E-03 0.  1.
         11   -1    0    0    0    0 -0.00000000000E+00 -0.00000000000E+00 -0.45593999997E+02  0.45594000000E+02  0.51100000000E-03 0. -1.
    9900012    2    1    2    0    0 -0.47494817686E+01 -0.44995600032E+01  0.31207649434E+02  0.59301937206E+02  0.49999987559E+02 0.  0.
         12    1    1    2    0    0  0.47494817686E+01  0.44995600032E+01 -0.31207649434E+02  0.31886062794E+02  0.00000000000E+00 0. -1.
         11    1    3    3    0    0  0.83698564165E+01  0.15071284059E+02  0.58851563957E+01  0.18216288471E+02  0.51100000000E-03 0. -1.
        -11    1    3    3    0    0 -0.18068353226E+01  0.26406234197E+01 -0.22535831199E+01  0.39135895374E+01  0.51100000000E-03 0.  1.
        -12    1    3    3    0    0 -0.11312502863E+02 -0.22211467482E+02  0.27576076158E+02  0.37172059197E+02  0.00000000000E+00 0.  1.
</event>
<event>
 7    1  0.5662448E-012  0.5930195E+02  0.7816164E-02  0.1266605E+00
        -11   -1    0    0    0    0  0.00000000000E+00  0.00000000000E+00  0.45593999997E+02  0.45594000000E+02  0.51100000000E-03 0.  1.
         11   -1    0    0    0    0 -0.00000000000E+00 -0.00000000000E+00 -0.45593999997E+02  0.45594000000E+02  0.51100000000E-03 0. -1.
    9900012    2    1    2    0    0 -0.16068211869E+02 -0.11738180017E+02  0.24914817241E+02  0.59301946294E+02  0.50000004133E+02 0.  0.
         12    1    1    2    0    0  0.16068211869E+02  0.11738180017E+02 -0.24914817241E+02  0.31886053706E+02  0.00000000000E+00 0. -1.
         11    1    3    3    0    0  0.63584736841E+01  0.56024866245E+00 -0.87250518720E+01  0.10810670497E+02  0.51100000000E-03 0. -1.
        -11    1    3    3    0    0 -0.10432963095E+02  0.55007298283E+00  0.28229782727E+02  0.30100995537E+02  0.51100000000E-03 0.  1.
        -12    1    3    3    0    0 -0.11993722458E+02 -0.12848501663E+02  0.54100863862E+01  0.18390280261E+02  0.00000000000E+00 0.  1.
</event>
<event>
 7    1  0.5662448E-012  0.5930195E+02  0.7816164E-02  0.1266605E+00
        -11   -1    0    0    0    0  0.00000000000E+00  0.00000000000E+00  0.45593999997E+02  0.45594000000E+02  0.51100000000E-03 0.  1.
         11   -1    0    0    0    0 -0.00000000000E+00 -0.00000000000E+00 -0.45593999997E+02  0.45594000000E+02  0.51100000000E-03 0. -1.
    9900012    2    1    2    0    0 -0.30387023558E+02  0.94152788086E+01  0.21682767150E+01  0.59301951332E+02  0.50000013320E+02 0.  0.
         12    1    1    2    0    0  0.30387023558E+02 -0.94152788086E+01 -0.21682767150E+01  0.31886048668E+02  0.00000000000E+00 0. -1.
         11    1    3    3    0    0 -0.24865471672E+01 -0.42427913577E+01 -0.69398732363E+01  0.85056473074E+01  0.51100000000E-03 0. -1.
        -11    1    3    3    0    0 -0.33757019305E+02  0.20914577136E+02  0.33846248258E+01  0.39854881440E+02  0.51100000000E-03 0.  1.
         12    1    3    3    0    0  0.58565429141E+01 -0.72565069694E+01  0.57235251255E+01  0.10941422584E+02  0.00000000000E+00 0. -1.
</event>
<event>
 7    1  0.5662448E-012  0.5930195E+02  0.7816164E-02  0.1266605E+00
        -11   -1    0    0    0    0  0.00000000000E+00  0.00000000000E+00  0.45593999997E+02  0.45594000000E+02  0.51100000000E-03 0.  1.
         11   -1    0    0    0    0 -0.00000000000E+00 -0.00000000000E+00 -0.45593999997E+02  0.45594000000E+02  0.51100000000E-03 0. -1.
    9900012    2    1    2    0    0  0.30304553335E+02 -0.88165621594E+01  0.45411736775E+01  0.59301953216E+02  0.50000016758E+02 0.  0.
         12    1    1    2    0    0 -0.30304553335E+02  0.88165621594E+01 -0.45411736775E+01  0.31886046784E+02  0.00000000000E+00 0. -1.
         11    1    3    3    0    0  0.43372987101E+01 -0.21784179002E+02  0.11051229246E+02  0.24809116933E+02  0.51100000000E-03 0. -1.
        -11    1    3    3    0    0  0.47348920352E+01  0.67242974927E+00  0.54052583699E+01  0.72172143282E+01  0.51100000000E-03 0.  1.
         12    1    3    3    0    0  0.21232362590E+02  0.12295187093E+02 -0.11915313939E+02  0.27275621955E+02  0.00000000000E+00 0. -1.
</event>
<event>
 7    1  0.5662448E-012  0.5930196E+02  0.7816164E-02  0.1266605E+00
        -11   -1    0    0    0    0  0.00000000000E+00  0.00000000000E+00  0.45593999997E+02  0.45594000000E+02  0.51100000000E-03 0. -1.
         11   -1    0    0    0    0 -0.00000000000E+00 -0.00000000000E+00 -0.45593999997E+02  0.45594000000E+02  0.51100000000E-03 0.  1.
    9900012    2    1    2    0    0 -0.28966252699E+02  0.59533140734E+01 -0.11926182830E+02  0.59301959469E+02  0.50000028160E+02 0.  0.
         12    1    1    2    0    0  0.28966252699E+02 -0.59533140734E+01  0.11926182830E+02  0.31886040531E+02  0.00000000000E+00 0. -1.
         11    1    3    3    0    0 -0.18285647402E+02 -0.71727712135E+01 -0.28067809860E+01  0.19841662419E+02  0.51100000000E-03 0. -1.
        -11    1    3    3    0    0  0.35403584746E+00  0.17299327961E+01 -0.20093714220E+02  0.20171151684E+02  0.51100000000E-03 0.  1.
         12    1    3    3    0    0 -0.11034641144E+02  0.11396152491E+02  0.10974312376E+02  0.19289145365E+02  0.00000000000E+00 0. -1.
</event>
<event>
 7    1  0.5662448E-012  0.5930195E+02  0.7816164E-02  0.1266605E+00
        -11   -1    0    0    0    0  0.00000000000E+00  0.00000000000E+00  0.45593999997E+02  0.45594000000E+02  0.51100000000E-03 0. -1.
         11   -1    0    0    0    0 -0.00000000000E+00 -0.00000000000E+00 -0.45593999997E+02  0.45594000000E+02  0.51100000000E-03 0.  1.
    9900012    2    1    2    0    0  0.12784620404E+02 -0.16961938742E+02  0.23781637414E+02  0.59301950341E+02  0.50000011515E+02 0.  0.
         12    1    1    2    0    0 -0.12784620404E+02  0.16961938742E+02 -0.23781637414E+02  0.31886049659E+02  0.00000000000E+00 0. -1.
         11    1    3    3    0    0  0.19446829581E+02 -0.29689644742E+02  0.24451451160E+02  0.43099044650E+02  0.51100000000E-03 0. -1.
        -11    1    3    3    0    0 -0.14467107642E+01 -0.82627551897E+00 -0.93815085436E-01  0.16686835530E+01  0.51100000000E-03 0.  1.
        -12    1    3    3    0    0 -0.52154984128E+01  0.13553981519E+02 -0.57599866152E+00  0.14534222138E+02  0.00000000000E+00 0.  1.
</event>
<event>
 7    1  0.5662448E-012  0.5930191E+02  0.7816164E-02  0.1266605E+00
        -11   -1    0    0    0    0  0.00000000000E+00  0.00000000000E+00  0.45593999997E+02  0.45594000000E+02  0.51100000000E-03 0.  1.
         11   -1    0    0    0    0 -0.00000000000E+00 -0.00000000000E+00 -0.45593999997E+02  0.45594000000E+02  0.51100000000E-03 0. -1.
    9900012    2    1    2    0    0  0.80717207068E+00  0.15600427967E+00  0.31875492650E+02  0.59301907486E+02  0.49999933357E+02 0.  0.
         12    1    1    2    0    0 -0.80717207068E+00 -0.15600427967E+00 -0.31875492650E+02  0.31886092514E+02  0.00000000000E+00 0. -1.
         11    1    3    3    0    0  0.10973685934E+02  0.24897795508E+01  0.18751748827E+01  0.11407763422E+02  0.51100000000E-03 0. -1.
        -11    1    3    3    0    0  0.84041864636E+01 -0.87215080923E+01  0.24767509513E+02  0.27570356931E+02  0.51100000000E-03 0.  1.
        -12    1    3    3    0    0 -0.18570700327E+02  0.63877328212E+01  0.52328082544E+01  0.20323787134E+02  0.00000000000E+00 0.  1.
</event>
<event>
 7    1  0.5662448E-012  0.5930196E+02  0.7816164E-02  0.1266605E+00
        -11   -1    0    0    0    0  0.00000000000E+00  0.00000000000E+00  0.45593999997E+02  0.45594000000E+02  0.51100000000E-03 0. -1.
         11   -1    0    0    0    0 -0.00000000000E+00 -0.00000000000E+00 -0.45593999997E+02  0.45594000000E+02  0.51100000000E-03 0.  1.
    9900012    2    1    2    0    0 -0.24857863412E+02 -0.12704816132E+02 -0.15407593161E+02  0.59301958330E+02  0.50000026084E+02 0.  0.
         12    1    1    2    0    0  0.24857863412E+02  0.12704816132E+02  0.15407593161E+02  0.31886041670E+02  0.00000000000E+00 0. -1.
         11    1    3    3    0    0  0.19088930022E+01  0.25262273774E+01  0.13847796332E+01  0.34559097427E+01  0.51100000000E-03 0. -1.
        -11    1    3    3    0    0 -0.23956437080E+02  0.53867022121E+01 -0.23495348157E+02  0.33984685133E+02  0.51100000000E-03 0.  1.
         12    1    3    3    0    0 -0.28103193344E+01 -0.20617745721E+02  0.67029753630E+01  0.21861363455E+02  0.00000000000E+00 0. -1.
</event>
<event>
 7    1  0.5662448E-012  0.5930197E+02  0.7816164E-02  0.1266605E+00
        -11   -1    0    0    0    0  0.00000000000E+00  0.00000000000E+00  0.45593999997E+02  0.45594000000E+02  0.51100000000E-03 0.  1.
         11   -1    0    0    0    0 -0.00000000000E+00 -0.00000000000E+00 -0.45593999997E+02  0.45594000000E+02  0.51100000000E-03 0. -1.
    9900012    2    1    2    0    0 -0.18419431815E+02  0.64130243458E+01  0.25225311634E+02  0.59301973332E+02  0.50000053443E+02 0.  0.
         12    1    1    2    0    0  0.18419431815E+02 -0.64130243458E+01 -0.25225311634E+02  0.31886026668E+02  0.00000000000E+00 0. -1.
         11    1    3    3    0    0  0.10284011150E+02  0.12319989205E+02  0.10812927695E+02  0.19351031625E+02  0.51100000000E-03 0. -1.
        -11    1    3    3    0    0 -0.28369218619E+00 -0.28181347184E+01  0.10765840115E+02  0.11132191078E+02  0.51100000000E-03 0.  1.
         12    1    3    3    0    0 -0.28419750779E+02 -0.30888301406E+01  0.36465438241E+01  0.28818750629E+02  0.00000000000E+00 0. -1.
</event>
<event>
 7    1  0.5662448E-012  0.5930193E+02  0.7816164E-02  0.1266605E+00
        -11   -1    0    0    0    0  0.00000000000E+00  0.00000000000E+00  0.45593999997E+02  0.45594000000E+02  0.51100000000E-03 0.  1.
         11   -1    0    0    0    0 -0.00000000000E+00 -0.00000000000E+00 -0.45593999997E+02  0.45594000000E+02  0.51100000000E-03 0. -1.
    9900012    2    1    2    0    0  0.21037001533E+02  0.13974709665E+02  0.19464665669E+02  0.59301934810E+02  0.49999983188E+02 0.  0.
         12    1    1    2    0    0 -0.21037001533E+02 -0.13974709665E+02 -0.19464665669E+02  0.31886065190E+02  0.00000000000E+00 0. -1.
         11    1    3    3    0    0 -0.54457092253E+00  0.95164110599E+01 -0.13912666041E+02  0.16864783236E+02  0.51100000000E-03 0. -1.
        -11    1    3    3    0    0  0.60478435599E-01 -0.17530007915E+01  0.96458129682E+01  0.98039980363E+01  0.51100000000E-03 0.  1.
        -12    1    3    3    0    0  0.21521094020E+02  0.62112993964E+01  0.23731518742E+02  0.32633153538E+02  0.00000000000E+00 0.  1.
</event>
<event>
 7    1  0.5662448E-012  0.5930196E+02  0.7816164E-02  0.1266605E+00
        -11   -1    0    0    0    0  0.00000000000E+00  0.00000000000E+00  0.45593999997E+02  0.45594000000E+02  0.51100000000E-03 0. -1.
         11   -1    0    0    0    0 -0.00000000000E+00 -0.00000000000E+00 -0.45593999997E+02  0.45594000000E+02  0.51100000000E-03 0.  1.
    9900012    2    1    2    0    0 -0.82636818856E+01  0.30212727638E+02 -0.59684440994E+01  0.59301957997E+02  0.50000025477E+02 0.  0.
         12    1    1    2    0    0  0.82636818856E+01 -0.30212727638E+02  0.59684440994E+01  0.31886042003E+02  0.00000000000E+00 0. -1.
         11    1    3    3    0    0 -0.15344554522E+02  0.29002105309E+02 -0.70696534535E+01  0.33564228966E+02  0.51100000000E-03 0. -1.
        -11    1    3    3    0    0 -0.80110059824E-01  0.10632969957E+02 -0.57239273518E+01  0.12076001503E+02  0.51100000000E-03 0.  1.
         12    1    3    3    0    0  0.71609826965E+01 -0.94223476278E+01  0.68251367059E+01  0.13661727528E+02  0.00000000000E+00 0. -1.
</event>
<event>
 7    1  0.5662448E-012  0.5930197E+02  0.7816164E-02  0.1266605E+00
        -11   -1    0    0    0    0  0.00000000000E+00  0.00000000000E+00  0.45593999997E+02  0.45594000000E+02  0.51100000000E-03 0. -1.
         11   -1    0    0    0    0 -0.00000000000E+00 -0.00000000000E+00 -0.45593999997E+02  0.45594000000E+02  0.51100000000E-03 0.  1.
    9900012    2    1    2    0    0 -0.92308626075E+01  0.12452941639E+02 -0.27864572889E+02  0.59301968541E+02  0.50000044707E+02 0.  0.
         12    1    1    2    0    0  0.92308626075E+01 -0.12452941639E+02  0.27864572889E+02  0.31886031459E+02  0.00000000000E+00 0. -1.
         11    1    3    3    0    0 -0.16164823127E+02  0.14924952007E+01 -0.30677093730E+00  0.16236476136E+02  0.51100000000E-03 0. -1.
        -11    1    3    3    0    0 -0.11517418800E+02  0.15573695773E+00 -0.11914234311E+02  0.16571788355E+02  0.51100000000E-03 0.  1.
        -12    1    3    3    0    0  0.18451379320E+02  0.10804709480E+02 -0.15643567641E+02  0.26493704050E+02  0.00000000000E+00 0.  1.
</event>
<event>
 7    1  0.5662448E-012  0.5930186E+02  0.7816164E-02  0.1266605E+00
        -11   -1    0    0    0    0  0.00000000000E+00  0.00000000000E+00  0.45593999997E+02  0.45594000000E+02  0.51100000000E-03 0. -1.
         11   -1    0    0    0    0 -0.00000000000E+00 -0.00000000000E+00 -0.45593999997E+02  0.45594000000E+02  0.51100000000E-03 0.  1.
    9900012    2    1    2    0    0 -0.51843174671E+01 -0.28421572253E+02 -0.13493083655E+02  0.59301855306E+02  0.49999838193E+02 0.  0.
         12    1    1    2    0    0  0.51843174671E+01  0.28421572253E+02  0.13493083655E+02  0.31886144694E+02  0.00000000000E+00 0. -1.
         11    1    3    3    0    0  0.18902974497E+01 -0.17313069195E+01  0.67878342722E+01  0.72557110241E+01  0.51100000000E-03 0. -1.
        -11    1    3    3    0    0 -0.21662073178E+02 -0.25255819548E+02 -0.14243748389E+02  0.36193731555E+02  0.51100000000E-03 0.  1.
         12    1    3    3    0    0  0.14587458262E+02 -0.14344457850E+01 -0.60371695377E+01  0.15852412727E+02  0.00000000000E+00 0. -1.
</event>
<event>
 7    1  0.5662448E-012  0.5930194E+02  0.7816164E-02  0.1266605E+00
        -11   -1    0    0    0    0  0.00000000000E+00  0.00000000000E+00  0.45593999997E+02  0.45594000000E+02  0.51100000000E-03 0.  1.
         11   -1    0    0    0    0 -0.00000000000E+00 -0.00000000000E+00 -0.45593999997E+02  0.45594000000E+02  0.51100000000E-03 0. -1.
    9900012    2    1    2    0    0 -0.20332555668E+02 -0.12211593319E+02  0.21311617364E+02  0.59301939314E+02  0.49999991404E+02 0.  0.
         12    1    1    2    0    0  0.20332555668E+02  0.12211593319E+02 -0.21311617364E+02  0.31886060686E+02  0.00000000000E+00 0. -1.
         11    1    3    3    0    0 -0.70762039818E+01  0.76511078469E+01 -0.56377436203E+00  0.10436951464E+02  0.51100000000E-03 0. -1.
        -11    1    3    3    0    0 -0.25959114009E+02 -0.11652829016E+02  0.12574644422E+02  0.31109254360E+02  0.51100000000E-03 0.  1.
         12    1    3    3    0    0  0.12702762323E+02 -0.82098721497E+01  0.93007473045E+01  0.17755733490E+02  0.00000000000E+00 0. -1.
</event>
<event>
 7    1  0.5662448E-012  0.5930196E+02  0.7816164E-02  0.1266605E+00
        -11   -1    0    0    0    0  0.00000000000E+00  0.00000000000E+00  0.45593999997E+02  0.45594000000E+02  0.51100000000E-03 0.  1.
         11   -1    0    0    0    0 -0.00000000000E+00 -0.00000000000E+00 -0.45593999997E+02  0.45594000000E+02  0.51100000000E-03 0. -1.
    9900012    2    1    2    0    0  0.31174642408E+02  0.51051292343E+01  0.43357987831E+01  0.59301955641E+02  0.50000021180E+02 0.  0.
         12    1    1    2    0    0 -0.31174642408E+02 -0.51051292343E+01 -0.43357987831E+01  0.31886044359E+02  0.00000000000E+00 0. -1.
         11    1    3    3    0    0 -0.90088481300E+01  0.35858132836E+01  0.92466025818E+01  0.13398397707E+02  0.51100000000E-03 0. -1.
        -11    1    3    3    0    0  0.13560512828E+02  0.10285386112E+02 -0.54442955940E+01  0.17869444043E+02  0.51100000000E-03 0.  1.
        -12    1    3    3    0    0  0.26622977710E+02 -0.87660701608E+01  0.53349179525E+00  0.28034113892E+02  0.00000000000E+00 0.  1.
</event>
<event>
 7    1  0.5662448E-012  0.5930188E+02  0.7816164E-02  0.1266605E+00
        -11   -1    0    0    0    0  0.00000000000E+00  0.00000000000E+00  0.45593999997E+02  0.45594000000E+02  0.51100000000E-03 0.  1.
         11   -1    0    0    0    0 -0.00000000000E+00 -0.00000000000E+00 -0.45593999997E+02  0.45594000000E+02  0.51100000000E-03 0. -1.
    9900012    2    1    2    0    0 -0.66041162853E+01 -0.29632482090E+02  0.97481381696E+01  0.59301881634E+02  0.49999886208E+02 0.  0.
         12    1    1    2    0    0  0.66041162853E+01  0.29632482090E+02 -0.97481381696E+01  0.31886118366E+02  0.00000000000E+00 0. -1.
         11    1    3    3    0    0  0.13681411887E+02 -0.97102980888E+01  0.74158772663E+01  0.18343013822E+02  0.51100000000E-03 0. -1.
        -11    1    3    3    0    0 -0.30049580536E+01 -0.27806159732E+01 -0.12022816971E+02  0.12700776601E+02  0.51100000000E-03 0.  1.
        -12    1    3    3    0    0 -0.17280570118E+02 -0.17141568028E+02  0.14355077874E+02  0.28258091210E+02  0.00000000000E+00 0.  1.
</event>
<event>
 7    1  0.5662448E-012  0.5930156E+02  0.7816164E-02  0.1266606E+00
        -11   -1    0    0    0    0  0.00000000000E+00  0.00000000000E+00  0.45593999997E+02  0.45594000000E+02  0.51100000000E-03 0.  1.
         11   -1    0    0    0    0 -0.00000000000E+00 -0.00000000000E+00 -0.45593999997E+02  0.45594000000E+02  0.51100000000E-03 0. -1.
    9900012    2    1    2    0    0 -0.20840066477E+02  0.67984844363E+01  0.23156370369E+02  0.59301556955E+02  0.49999294067E+02 0.  0.
         12    1    1    2    0    0  0.20840066477E+02 -0.67984844363E+01 -0.23156370369E+02  0.31886443045E+02  0.00000000000E+00 0. -1.
         11    1    3    3    0    0 -0.29634660674E+02 -0.81513700880E+00 -0.24879018525E+01  0.29750079285E+02  0.51100000000E-03 0. -1.
        -11    1    3    3    0    0 -0.96566053353E+00  0.29367707798E+01  0.24091018096E+01  0.39192977266E+01  0.51100000000E-03 0.  1.
        -12    1    3    3    0    0  0.97602547301E+01  0.46768506652E+01  0.23235170412E+02  0.25632179943E+02  0.00000000000E+00 0.  1.
</event>
<event>
 7    1  0.5662448E-012  0.5930195E+02  0.7816164E-02  0.1266605E+00
        -11   -1    0    0    0    0  0.00000000000E+00  0.00000000000E+00  0.45593999997E+02  0.45594000000E+02  0.51100000000E-03 0. -1.
         11   -1    0    0    0    0 -0.00000000000E+00 -0.00000000000E+00 -0.45593999997E+02  0.45594000000E+02  0.51100000000E-03 0.  1.
    9900012    2    1    2    0    0 -0.15449787089E+02  0.62142128843E+01 -0.27192055756E+02  0.59301948832E+02  0.50000008762E+02 0.  0.
         12    1    1    2    0    0  0.15449787089E+02 -0.62142128843E+01  0.27192055756E+02  0.31886051168E+02  0.00000000000E+00 0. -1.
         11    1    3    3    0    0  0.10216930323E+02 -0.18358684036E+01  0.85151461037E+01  0.13426235193E+02  0.51100000000E-03 0. -1.
        -11    1    3    3    0    0 -0.33434459716E+01  0.39594527499E+01 -0.27683508901E+01  0.58753437308E+01  0.51100000000E-03 0.  1.
        -12    1    3    3    0    0 -0.22323271440E+02  0.40906285380E+01 -0.32938850970E+02  0.40000369908E+02  0.00000000000E+00 0.  1.
</event>
<event>
 7    1  0.5662448E-012  0.5930192E+02  0.7816164E-02  0.1266605E+00
        -11   -1    0    0    0    0  0.00000000000E+00  0.00000000000E+00  0.45593999997E+02  0.45594000000E+02  0.51100000000E-03 0. -1.
         11   -1    0    0    0    0 -0.00000000000E+00 -0.00000000000E+00 -0.45593999997E+02  0.45594000000E+02  0.51100000000E-03 0.  1.
    9900012    2    1    2    0    0  0.86626219146E+01  0.87964342848E+01  0.29399045910E+02  0.59301918789E+02  0.49999953971E+02 0.  0.
         12    1    1    2    0    0 -0.86626219146E+01 -0.87964342848E+01 -0.29399045910E+02  0.31886081211E+02  0.00000000000E+00 0. -1.
         11    1    3    3    0    0  0.10693096545E+02  0.67161897268E+01  0.17759619641E+02  0.21791136001E+02  0.51100000000E-03 0. -1.
        -11    1    3    3    0    0 -0.12119588052E+02 -0.10712965097E+01  0.20419775675E+02  0.23769714546E+02  0.51100000000E-03 0.  1.
        -12    1    3    3    0    0  0.10089113422E+02  0.31515410678E+01 -0.87803494062E+01  0.13741068242E+02  0.00000000000E+00 0.  1.
</event>
<event>
 7    1  0.5662448E-012  0.5930195E+02  0.7816164E-02  0.1266605E+00
        -11   -1    0    0    0    0  0.00000000000E+00  0.00000000000E+00  0.45593999997E+02  0.45594000000E+02  0.51100000000E-03 0.  1.
         11   -1    0    0    0    0 -0.00000000000E+00 -0.00000000000E+00 -0.45593999997E+02  0.45594000000E+02  0.51100000000E-03 0. -1.
    9900012    2    1    2    0    0 -0.22925776534E+02  0.19481004186E+02  0.10565010466E+02  0.59301949760E+02  0.50000010455E+02 0.  0.
         12    1    1    2    0    0  0.22925776534E+02 -0.19481004186E+02 -0.10565010466E+02  0.31886050240E+02  0.00000000000E+00 0. -1.
         11    1    3    3    0    0  0.32160421960E+01 -0.79812640748E+01 -0.38906312657E+01  0.94435435904E+01  0.51100000000E-03 0. -1.
        -11    1    3    3    0    0 -0.20492875979E+02  0.40673562131E+01 -0.15577408748E+01  0.20950606420E+02  0.51100000000E-03 0.  1.
        -12    1    3    3    0    0 -0.56489427508E+01  0.23394912047E+02  0.16013382606E+02  0.28907799750E+02  0.00000000000E+00 0.  1.
</event>
<event>
 7    1  0.5662448E-012  0.5930193E+02  0.7816164E-02  0.1266605E+00
        -11   -1    0    0    0    0  0.00000000000E+00  0.00000000000E+00  0.45593999997E+02  0.45594000000E+02  0.51100000000E-03 0. -1.
         11   -1    0    0    0    0 -0.00000000000E+00 -0.00000000000E+00 -0.45593999997E+02  0.45594000000E+02  0.51100000000E-03 0.  1.
    9900012    2    1    2    0    0  0.12767201100E+02  0.14635084742E+02 -0.25289015672E+02  0.59301930268E+02  0.49999974905E+02 0.  0.
         12    1    1    2    0    0 -0.12767201100E+02 -0.14635084742E+02  0.25289015672E+02  0.31886069732E+02  0.00000000000E+00 0. -1.
         11    1    3    3    0    0  0.13650137060E+02  0.15971051147E+02  0.78706603152E+01  0.22435418662E+02  0.51100000000E-03 0. -1.
        -11    1    3    3    0    0 -0.62235487596E+01  0.41666396045E+01 -0.10159650329E+02  0.12621883371E+02  0.51100000000E-03 0.  1.
        -12    1    3    3    0    0  0.53406127990E+01 -0.55026060098E+01 -0.23000025658E+02  0.24244628235E+02  0.00000000000E+00 0.  1.
</event>
<event>
 7    1  0.5662448E-012  0.5930194E+02  0.7816164E-02  0.1266605E+00
        -11   -1    0    0    0    0  0.00000000000E+00  0.00000000000E+00  0.45593999997E+02  0.45594000000E+02  0.51100000000E-03 0.  1.
         11   -1    0    0    0    0 -0.00000000000E+00 -0.00000000000E+00 -0.45593999997E+02  0.45594000000E+02  0.51100000000E-03 0. -1.
    9900012    2    1    2    0    0  0.20880615283E+02  0.84091618893E+01  0.22583322170E+02  0.59301944451E+02  0.50000000771E+02 0.  0.
         12    1    1    2    0    0 -0.20880615283E+02 -0.84091618893E+01 -0.22583322170E+02  0.31886055549E+02  0.00000000000E+00 0. -1.
         11    1    3    3    0    0  0.17626853883E+02  0.66134621319E+01  0.12282761140E+02  0.22479103200E+02  0.51100000000E-03 0. -1.
        -11    1    3    3    0    0  0.78605488642E+01  0.12187309629E+02  0.17983839180E+02  0.23102753437E+02  0.51100000000E-03 0.  1.
         12    1    3    3    0    0 -0.46067874644E+01 -0.10391609871E+02 -0.76832781510E+01  0.13720087813E+02  0.00000000000E+00 0. -1.
</event>
<event>
 7    1  0.5662448E-012  0.5930204E+02  0.7816164E-02  0.1266604E+00
        -11   -1    0    0    0    0  0.00000000000E+00  0.00000000000E+00  0.45593999997E+02  0.45594000000E+02  0.51100000000E-03 0.  1.
         11   -1    0    0    0    0 -0.00000000000E+00 -0.00000000000E+00 -0.45593999997E+02  0.45594000000E+02  0.51100000000E-03 0. -1.
    9900012    2    1    2    0    0  0.26811153121E+02 -0.17047769964E+02  0.26925689363E+01  0.59302041963E+02  0.50000178611E+02 0.  0.
         12    1    1    2    0    0 -0.26811153121E+02  0.17047769964E+02 -0.26925689363E+01  0.31885958037E+02  0.00000000000E+00 0. -1.
         11    1    3    3    0    0  0.23213487087E+02 -0.16815386891E+02  0.27824150976E+01  0.28798698809E+02  0.51100000000E-03 0.  1.
        -11    1    3    3    0    0  0.84227288551E+01 -0.12446024990E+02 -0.58979380984E+01  0.16144087880E+02  0.51100000000E-03 0. -1.
         12    1    3    3    0    0 -0.48250628206E+01  0.12213641917E+02  0.58080919370E+01  0.14359255275E+02  0.00000000000E+00 0. -1.
</event>
<event>
 7    1  0.5662448E-012  0.5930196E+02  0.7816164E-02  0.1266605E+00
        -11   -1    0    0    0    0  0.00000000000E+00  0.00000000000E+00  0.45593999997E+02  0.45594000000E+02  0.51100000000E-03 0.  1.
         11   -1    0    0    0    0 -0.00000000000E+00 -0.00000000000E+00 -0.45593999997E+02  0.45594000000E+02  0.51100000000E-03 0. -1.
    9900012    2    1    2    0    0  0.19656574089E+02  0.50491808112E+01  0.24593588853E+02  0.59301956902E+02  0.50000023480E+02 0.  0.
         12    1    1    2    0    0 -0.19656574089E+02 -0.50491808112E+01 -0.24593588853E+02  0.31886043098E+02  0.00000000000E+00 0. -1.
         11    1    3    3    0    0 -0.32785151824E+01  0.58280534836E+01  0.29305962471E+01  0.73009084253E+01  0.51100000000E-03 0. -1.
        -11    1    3    3    0    0  0.29182139633E+02  0.13120037832E+02  0.13670180135E+02  0.34793770871E+02  0.51100000000E-03 0.  1.
         12    1    3    3    0    0 -0.62470503613E+01 -0.13898910504E+02  0.79928124708E+01  0.17207277606E+02  0.00000000000E+00 0. -1.
</event>
<event>
 7    1  0.5662448E-012  0.5930181E+02  0.7816164E-02  0.1266605E+00
        -11   -1    0    0    0    0  0.00000000000E+00  0.00000000000E+00  0.45593999997E+02  0.45594000000E+02  0.51100000000E-03 0.  1.
         11   -1    0    0    0    0 -0.00000000000E+00 -0.00000000000E+00 -0.45593999997E+02  0.45594000000E+02  0.51100000000E-03 0. -1.
    9900012    2    1    2    0    0  0.65208871754E+01  0.17548515779E+02  0.25811943524E+02  0.59301814840E+02  0.49999764392E+02 0.  0.
         12    1    1    2    0    0 -0.65208871754E+01 -0.17548515779E+02 -0.25811943524E+02  0.31886185160E+02  0.00000000000E+00 0. -1.
         11    1    3    3    0    0 -0.93626331202E+01  0.16726647421E+02  0.22991067875E+02  0.29933740748E+02  0.51100000000E-03 0. -1.
        -11    1    3    3    0    0  0.85949685936E+01 -0.33126067439E+01  0.13157652762E+02  0.16061465531E+02  0.51100000000E-03 0.  1.
        -12    1    3    3    0    0  0.72885517020E+01  0.41344751020E+01 -0.10336777113E+02  0.13306608560E+02  0.00000000000E+00 0.  1.
</event>
<event>
 7    1  0.5662448E-012  0.5930191E+02  0.7816164E-02  0.1266605E+00
        -11   -1    0    0    0    0  0.00000000000E+00  0.00000000000E+00  0.45593999997E+02  0.45594000000E+02  0.51100000000E-03 0.  1.
         11   -1    0    0    0    0 -0.00000000000E+00 -0.00000000000E+00 -0.45593999997E+02  0.45594000000E+02  0.51100000000E-03 0. -1.
    9900012    2    1    2    0    0 -0.14046055181E+02  0.20727439453E+02  0.19743460397E+02  0.59301911483E+02  0.49999940647E+02 0.  0.
         12    1    1    2    0    0  0.14046055181E+02 -0.20727439453E+02 -0.19743460397E+02  0.31886088517E+02  0.00000000000E+00 0. -1.
         11    1    3    3    0    0 -0.69869324394E+01  0.90307014545E+01 -0.93492131793E+00  0.11456215422E+02  0.51100000000E-03 0. -1.
        -11    1    3    3    0    0 -0.58014614785E+01  0.27045674796E+02  0.11830997293E+02  0.30084846313E+02  0.51100000000E-03 0.  1.
         12    1    3    3    0    0 -0.12576612634E+01 -0.15348936797E+02  0.88473844218E+01  0.17760849748E+02  0.00000000000E+00 0. -1.
</event>
<event>
 7    1  0.5662448E-012  0.5930194E+02  0.7816164E-02  0.1266605E+00
        -11   -1    0    0    0    0  0.00000000000E+00  0.00000000000E+00  0.45593999997E+02  0.45594000000E+02  0.51100000000E-03 0.  1.
         11   -1    0    0    0    0 -0.00000000000E+00 -0.00000000000E+00 -0.45593999997E+02  0.45594000000E+02  0.51100000000E-03 0. -1.
    9900012    2    1    2    0    0  0.26370072514E+02 -0.21497475309E+01  0.17796595293E+02  0.59301938110E+02  0.49999989207E+02 0.  0.
         12    1    1    2    0    0 -0.26370072514E+02  0.21497475309E+01 -0.17796595293E+02  0.31886061890E+02  0.00000000000E+00 0. -1.
         11    1    3    3    0    0  0.35658939284E+01 -0.46560023438E+01  0.21561359772E+01  0.62484301987E+01  0.51100000000E-03 0. -1.
        -11    1    3    3    0    0  0.12839973573E+02  0.13677071222E+02  0.27957630117E+02  0.33668327558E+02  0.51100000000E-03 0.  1.
         12    1    3    3    0    0  0.99642050127E+01 -0.11170816409E+02 -0.12317170801E+02  0.19385180353E+02  0.00000000000E+00 0. -1.
</event>
<event>
 7    1  0.5662448E-012  0.5930194E+02  0.7816164E-02  0.1266605E+00
        -11   -1    0    0    0    0  0.00000000000E+00  0.00000000000E+00  0.45593999997E+02  0.45594000000E+02  0.51100000000E-03 0. -1.
         11   -1    0    0    0    0 -0.00000000000E+00 -0.00000000000E+00 -0.45593999997E+02  0.45594000000E+02  0.51100000000E-03 0.  1.
    9900012    2    1    2    0    0  0.14445213965E+01  0.22896584198E+02 -0.22144541644E+02  0.59301938239E+02  0.49999989443E+02 0.  0.
         12    1    1    2    0    0 -0.14445213965E+01 -0.22896584198E+02  0.22144541644E+02  0.31886061761E+02  0.00000000000E+00 0. -1.
         11    1    3    3    0    0 -0.12264169458E+02  0.17178173414E+02  0.46696317898E+01  0.21617237465E+02  0.51100000000E-03 0. -1.
        -11    1    3    3    0    0 -0.56496625107E+01  0.29358963641E+01 -0.35416190493E+01  0.72856873181E+01  0.51100000000E-03 0.  1.
        -12    1    3    3    0    0  0.19358353365E+02  0.27825144201E+01 -0.23272554384E+02  0.30399013456E+02  0.00000000000E+00 0.  1.
</event>
<event>
 7    1  0.5662448E-012  0.5930197E+02  0.7816164E-02  0.1266605E+00
        -11   -1    0    0    0    0  0.00000000000E+00  0.00000000000E+00  0.45593999997E+02  0.45594000000E+02  0.51100000000E-03 0. -1.
         11   -1    0    0    0    0 -0.00000000000E+00 -0.00000000000E+00 -0.45593999997E+02  0.45594000000E+02  0.51100000000E-03 0.  1.
    9900012    2    1    2    0    0  0.16774602609E+02  0.22426699115E+02 -0.15243847744E+02  0.59301968264E+02  0.50000044200E+02 0.  0.
         12    1    1    2    0    0 -0.16774602609E+02 -0.22426699115E+02  0.15243847744E+02  0.31886031736E+02  0.00000000000E+00 0. -1.
         11    1    3    3    0    0 -0.61766664216E+01  0.50642259844E+01  0.88244828997E+01  0.11902482582E+02  0.51100000000E-03 0. -1.
        -11    1    3    3    0    0 -0.24864907351E+01  0.12314448385E+02 -0.85169516315E+00  0.12591809248E+02  0.51100000000E-03 0.  1.
        -12    1    3    3    0    0  0.25437759766E+02  0.50480247446E+01 -0.23216635480E+02  0.34807676434E+02  0.00000000000E+00 0.  1.
</event>
<event>
 7    1  0.5662448E-012  0.5930200E+02  0.7816164E-02  0.1266605E+00
        -11   -1    0    0    0    0  0.00000000000E+00  0.00000000000E+00  0.45593999997E+02  0.45594000000E+02  0.51100000000E-03 0.  1.
         11   -1    0    0    0    0 -0.00000000000E+00 -0.00000000000E+00 -0.45593999997E+02  0.45594000000E+02  0.51100000000E-03 0. -1.
    9900012    2    1    2    0    0  0.22028815896E+02 -0.11857914887E+02  0.19769625570E+02  0.59302000401E+02  0.50000102812E+02 0.  0.
         12    1    1    2    0    0 -0.22028815896E+02  0.11857914887E+02 -0.19769625570E+02  0.31885999599E+02  0.00000000000E+00 0. -1.
         11    1    3    3    0    0  0.19233528209E+02 -0.10890324232E+02  0.17086993417E+02  0.27937306841E+02  0.51100000000E-03 0. -1.
        -11    1    3    3    0    0  0.87492134410E+01  0.12030018186E+02  0.69870075625E+01  0.16434364859E+02  0.51100000000E-03 0.  1.
         12    1    3    3    0    0 -0.59539257541E+01 -0.12997608841E+02 -0.43043754089E+01  0.14930328701E+02  0.00000000000E+00 0. -1.
</event>
