<event>
 7    1  0.5006721E-012  0.5052886E+02  0.7816164E-02  0.1300439E+00
        -11   -1    0    0    0    0  0.00000000000E+00  0.00000000000E+00  0.45593999997E+02  0.45594000000E+02  0.51100000000E-03 0.  1.
         11   -1    0    0    0    0 -0.00000000000E+00 -0.00000000000E+00 -0.45593999997E+02  0.45594000000E+02  0.51100000000E-03 0. -1.
    9900012    2    1    2    0    0  0.38379529451E+02  0.12614823452E+02 -0.45873457638E+01  0.50528858435E+02  0.29999995699E+02 0.  0.
        -12    1    1    2    0    0 -0.38379529451E+02 -0.12614823452E+02  0.45873457638E+01  0.40659141565E+02  0.00000000000E+00 0.  1.
         11    1    3    3    0    0  0.11385683587E+02  0.10873651864E+02 -0.70598389733E+01  0.17254316045E+02  0.51100000000E-03 0. -1.
        -11    1    3    3    0    0  0.97885484017E+01 -0.13101541563E+01  0.10173902164E+02  0.14178874047E+02  0.51100000000E-03 0.  1.
        -12    1    3    3    0    0  0.17205297463E+02  0.30513257449E+01 -0.77014089546E+01  0.19095668343E+02  0.00000000000E+00 0.  1.
</event>
<event>
 7    1  0.5006721E-012  0.5052886E+02  0.7816164E-02  0.1300439E+00
        -11   -1    0    0    0    0  0.00000000000E+00  0.00000000000E+00  0.45593999997E+02  0.45594000000E+02  0.51100000000E-03 0. -1.
         11   -1    0    0    0    0 -0.00000000000E+00 -0.00000000000E+00 -0.45593999997E+02  0.45594000000E+02  0.51100000000E-03 0.  1.
    9900012    2    1    2    0    0 -0.14677396553E+02 -0.42402796961E+01  0.37679698638E+02  0.50528860426E+02  0.30000001750E+02 0.  0.
        -12    1    1    2    0    0  0.14677396553E+02  0.42402796961E+01 -0.37679698638E+02  0.40659139574E+02  0.00000000000E+00 0.  1.
         11    1    3    3    0    0  0.20443004842E+01  0.33468584955E+01  0.25437494198E+02  0.25738040671E+02  0.51100000000E-03 0. -1.
        -11    1    3    3    0    0 -0.87490628715E+01  0.18036309170E+01  0.72270176565E+01  0.11490385985E+02  0.51100000000E-03 0.  1.
         12    1    3    3    0    0 -0.79726341652E+01 -0.93907691086E+01  0.50151867836E+01  0.13300433770E+02  0.00000000000E+00 0. -1.
</event>
<event>
 7    1  0.5006721E-012  0.5052885E+02  0.7816164E-02  0.1300439E+00
        -11   -1    0    0    0    0  0.00000000000E+00  0.00000000000E+00  0.45593999997E+02  0.45594000000E+02  0.51100000000E-03 0.  1.
         11   -1    0    0    0    0 -0.00000000000E+00 -0.00000000000E+00 -0.45593999997E+02  0.45594000000E+02  0.51100000000E-03 0. -1.
    9900012    2    1    2    0    0 -0.36535586971E+02  0.12997720498E+02 -0.12221976136E+02  0.50528849073E+02  0.29999967241E+02 0.  0.
         12    1    1    2    0    0  0.36535586971E+02 -0.12997720498E+02  0.12221976136E+02  0.40659150927E+02  0.00000000000E+00 0. -1.
         11    1    3    3    0    0 -0.17095266495E+02  0.13936820844E+02 -0.69736220381E+01  0.23132542367E+02  0.51100000000E-03 0. -1.
        -11    1    3    3    0    0 -0.31056065869E+01 -0.61315875605E+01 -0.74257050346E+01  0.10118411625E+02  0.51100000000E-03 0.  1.
        -12    1    3    3    0    0 -0.16334713890E+02  0.51924872143E+01  0.21773509367E+01  0.17277895081E+02  0.00000000000E+00 0.  1.
</event>
<event>
 7    1  0.5164378E-012  0.5052886E+02  0.7816164E-02  0.1300439E+00
        -11   -1    0    0    0    0  0.00000000000E+00  0.00000000000E+00  0.45593999997E+02  0.45594000000E+02  0.51100000000E-03 0. -1.
         11   -1    0    0    0    0 -0.00000000000E+00 -0.00000000000E+00 -0.45593999997E+02  0.45594000000E+02  0.51100000000E-03 0.  1.
    9900012    2    1    2    0    0  0.93904659873E+00  0.71293156269E+00  0.40642045870E+02  0.50528856226E+02  0.29999988984E+02 0.  0.
        -12    1    1    2    0    0 -0.93904659873E+00 -0.71293156269E+00 -0.40642045870E+02  0.40659143774E+02  0.00000000000E+00 0.  1.
         11    1    3    3    0    0  0.33978599342E+01 -0.62370651473E+01  0.28698146810E+02  0.29563999465E+02  0.51100000000E-03 0.  1.
        -11    1    3    3    0    0  0.36254777544E+01  0.96084106630E+01  0.91740030404E+01  0.13770547428E+02  0.51100000000E-03 0. -1.
        -12    1    3    3    0    0 -0.60842910899E+01 -0.26584139530E+01  0.27698960198E+01  0.71943093326E+01  0.00000000000E+00 0.  1.
</event>
<event>
 7    1  0.5006721E-012  0.5052886E+02  0.7816164E-02  0.1300439E+00
        -11   -1    0    0    0    0  0.00000000000E+00  0.00000000000E+00  0.45593999997E+02  0.45594000000E+02  0.51100000000E-03 0.  1.
         11   -1    0    0    0    0 -0.00000000000E+00 -0.00000000000E+00 -0.45593999997E+02  0.45594000000E+02  0.51100000000E-03 0. -1.
    9900012    2    1    2    0    0 -0.30688529395E+02  0.26667866334E+02 -0.45228928263E+00  0.50528862074E+02  0.30000006761E+02 0.  0.
         12    1    1    2    0    0  0.30688529395E+02 -0.26667866334E+02  0.45228928263E+00  0.40659137926E+02  0.00000000000E+00 0. -1.
         11    1    3    3    0    0  0.46695788595E+01  0.50662557831E+01  0.52232313888E+00  0.69097565882E+01  0.51100000000E-03 0. -1.
        -11    1    3    3    0    0 -0.19106948056E+02  0.52730576026E+01 -0.44674259429E+01  0.20318427482E+02  0.51100000000E-03 0.  1.
        -12    1    3    3    0    0 -0.16251160198E+02  0.16328552949E+02  0.34928135214E+01  0.23300678005E+02  0.00000000000E+00 0.  1.
</event>
<event>
 7    1  0.5006721E-012  0.5052886E+02  0.7816164E-02  0.1300439E+00
        -11   -1    0    0    0    0  0.00000000000E+00  0.00000000000E+00  0.45593999997E+02  0.45594000000E+02  0.51100000000E-03 0. -1.
         11   -1    0    0    0    0 -0.00000000000E+00 -0.00000000000E+00 -0.45593999997E+02  0.45594000000E+02  0.51100000000E-03 0.  1.
    9900012    2    1    2    0    0  0.86651000833E+01 -0.25693495554E+02  0.30297292057E+02  0.50528861061E+02  0.30000003682E+02 0.  0.
        -12    1    1    2    0    0 -0.86651000833E+01  0.25693495554E+02 -0.30297292057E+02  0.40659138939E+02  0.00000000000E+00 0.  1.
         11    1    3    3    0    0  0.11774456179E+02 -0.14652619848E+02  0.20309260922E+02  0.27673148830E+02  0.51100000000E-03 0. -1.
        -11    1    3    3    0    0 -0.51031785941E+01  0.95237625641E+00  0.93337344862E+01  0.10680264604E+02  0.51100000000E-03 0.  1.
        -12    1    3    3    0    0  0.19938224983E+01 -0.11993251963E+02  0.65429664838E+00  0.12175447627E+02  0.00000000000E+00 0.  1.
</event>
<event>
 7    1  0.5006721E-012  0.5052882E+02  0.7816164E-02  0.1300439E+00
        -11   -1    0    0    0    0  0.00000000000E+00  0.00000000000E+00  0.45593999997E+02  0.45594000000E+02  0.51100000000E-03 0. -1.
         11   -1    0    0    0    0 -0.00000000000E+00 -0.00000000000E+00 -0.45593999997E+02  0.45594000000E+02  0.51100000000E-03 0.  1.
    9900012    2    1    2    0    0 -0.25703167194E+01 -0.22704513061E+02  0.33631342544E+02  0.50528823389E+02  0.29999889172E+02 0.  0.
        -12    1    1    2    0    0  0.25703167194E+01  0.22704513061E+02 -0.33631342544E+02  0.40659176611E+02  0.00000000000E+00 0.  1.
         11    1    3    3    0    0  0.27487368893E+01 -0.14014501224E+02  0.48160523008E+01  0.15071700603E+02  0.51100000000E-03 0.  1.
        -11    1    3    3    0    0 -0.95323258320E+01 -0.10463067813E+02  0.27101956037E+02  0.30575432051E+02  0.51100000000E-03 0. -1.
        -12    1    3    3    0    0  0.42132722233E+01  0.17730559763E+01  0.17133342067E+01  0.48816907344E+01  0.00000000000E+00 0.  1.
</event>
<event>
 7    1  0.5006721E-012  0.5052887E+02  0.7816164E-02  0.1300439E+00
        -11   -1    0    0    0    0  0.00000000000E+00  0.00000000000E+00  0.45593999997E+02  0.45594000000E+02  0.51100000000E-03 0. -1.
         11   -1    0    0    0    0 -0.00000000000E+00 -0.00000000000E+00 -0.45593999997E+02  0.45594000000E+02  0.51100000000E-03 0.  1.
    9900012    2    1    2    0    0  0.29039403358E+02 -0.36125134555E+01  0.28228141401E+02  0.50528866121E+02  0.30000019062E+02 0.  0.
        -12    1    1    2    0    0 -0.29039403358E+02  0.36125134555E+01 -0.28228141401E+02  0.40659133879E+02  0.00000000000E+00 0.  1.
         11    1    3    3    0    0  0.10271492183E+02  0.23662706511E+01  0.11998315902E+02  0.15970672284E+02  0.51100000000E-03 0. -1.
        -11    1    3    3    0    0  0.12191899057E+02 -0.14625725226E+02  0.13547473196E+02  0.23368531645E+02  0.51100000000E-03 0.  1.
        -12    1    3    3    0    0  0.65760121178E+01  0.86469411192E+01  0.26823523023E+01  0.11189662192E+02  0.00000000000E+00 0.  1.
</event>
<event>
 7    1  0.5006721E-012  0.5052887E+02  0.7816164E-02  0.1300439E+00
        -11   -1    0    0    0    0  0.00000000000E+00  0.00000000000E+00  0.45593999997E+02  0.45594000000E+02  0.51100000000E-03 0. -1.
         11   -1    0    0    0    0 -0.00000000000E+00 -0.00000000000E+00 -0.45593999997E+02  0.45594000000E+02  0.51100000000E-03 0.  1.
    9900012    2    1    2    0    0 -0.29281890763E+01  0.36420374189E+02 -0.17836668696E+02  0.50528871905E+02  0.30000036641E+02 0.  0.
         12    1    1    2    0    0  0.29281890763E+01 -0.36420374189E+02  0.17836668696E+02  0.40659128095E+02  0.00000000000E+00 0. -1.
         11    1    3    3    0    0 -0.95191620029E+00  0.15637502686E+01  0.35229757182E+01  0.39702414949E+01  0.51100000000E-03 0. -1.
        -11    1    3    3    0    0  0.37232683400E+01  0.78402263226E+01 -0.16329924466E+02  0.18493196297E+02  0.51100000000E-03 0.  1.
        -12    1    3    3    0    0 -0.56995412160E+01  0.27016397597E+02 -0.50297199478E+01  0.28065434113E+02  0.00000000000E+00 0.  1.
</event>
<event>
 7    1  0.5006721E-012  0.5052886E+02  0.7816164E-02  0.1300439E+00
        -11   -1    0    0    0    0  0.00000000000E+00  0.00000000000E+00  0.45593999997E+02  0.45594000000E+02  0.51100000000E-03 0.  1.
         11   -1    0    0    0    0 -0.00000000000E+00 -0.00000000000E+00 -0.45593999997E+02  0.45594000000E+02  0.51100000000E-03 0. -1.
    9900012    2    1    2    0    0 -0.84377123706E+01 -0.39682507119E+02 -0.26961458696E+01  0.50528861250E+02  0.30000004257E+02 0.  0.
        -12    1    1    2    0    0  0.84377123706E+01  0.39682507119E+02  0.26961458696E+01  0.40659138750E+02  0.00000000000E+00 0.  1.
         11    1    3    3    0    0 -0.60667146782E+01 -0.62803293938E+01 -0.11435015050E+02  0.14387742483E+02  0.51100000000E-03 0. -1.
        -11    1    3    3    0    0 -0.46309962798E+01 -0.31735499044E+02  0.90283221046E+01  0.33318142601E+02  0.51100000000E-03 0.  1.
        -12    1    3    3    0    0  0.22599985873E+01 -0.16666786815E+01 -0.28945292384E+00  0.28229761666E+01  0.00000000000E+00 0.  1.
</event>
<event>
 7    1  0.5006721E-012  0.5052886E+02  0.7816164E-02  0.1300439E+00
        -11   -1    0    0    0    0  0.00000000000E+00  0.00000000000E+00  0.45593999997E+02  0.45594000000E+02  0.51100000000E-03 0. -1.
         11   -1    0    0    0    0 -0.00000000000E+00 -0.00000000000E+00 -0.45593999997E+02  0.45594000000E+02  0.51100000000E-03 0.  1.
    9900012    2    1    2    0    0 -0.14187525653E+02  0.16892925719E+02  0.34154186777E+02  0.50528864521E+02  0.30000014198E+02 0.  0.
        -12    1    1    2    0    0  0.14187525653E+02 -0.16892925719E+02 -0.34154186777E+02  0.40659135479E+02  0.00000000000E+00 0.  1.
         11    1    3    3    0    0 -0.20546559114E+01 -0.38424107986E+01  0.16624216633E+02  0.17185758947E+02  0.51100000000E-03 0. -1.
        -11    1    3    3    0    0 -0.12132775105E+02  0.22680776241E+02  0.17933140148E+02  0.31356328843E+02  0.51100000000E-03 0.  1.
        -12    1    3    3    0    0 -0.94636934856E-04 -0.19454397240E+01 -0.40317000405E+00  0.19867767315E+01  0.00000000000E+00 0.  1.
</event>
<event>
 7    1  0.5006721E-012  0.5052882E+02  0.7816164E-02  0.1300439E+00
        -11   -1    0    0    0    0  0.00000000000E+00  0.00000000000E+00  0.45593999997E+02  0.45594000000E+02  0.51100000000E-03 0. -1.
         11   -1    0    0    0    0 -0.00000000000E+00 -0.00000000000E+00 -0.45593999997E+02  0.45594000000E+02  0.51100000000E-03 0.  1.
    9900012    2    1    2    0    0  0.13361192301E+01  0.15165907085E+02  0.37701180172E+02  0.50528819749E+02  0.29999878109E+02 0.  0.
        -12    1    1    2    0    0 -0.13361192301E+01 -0.15165907085E+02 -0.37701180172E+02  0.40659180251E+02  0.00000000000E+00 0.  1.
         11    1    3    3    0    0  0.93212292419E+01  0.15898842687E+02  0.27935238441E+02  0.33466939812E+02  0.51100000000E-03 0. -1.
        -11    1    3    3    0    0 -0.31133861654E+01 -0.60196392699E+01  0.52418689491E+01  0.85677547056E+01  0.51100000000E-03 0.  1.
         12    1    3    3    0    0 -0.48717238464E+01  0.52867036680E+01  0.45240727818E+01  0.84941252312E+01  0.00000000000E+00 0. -1.
</event>
<event>
 7    1  0.5006721E-012  0.5052885E+02  0.7816164E-02  0.1300439E+00
        -11   -1    0    0    0    0  0.00000000000E+00  0.00000000000E+00  0.45593999997E+02  0.45594000000E+02  0.51100000000E-03 0. -1.
         11   -1    0    0    0    0 -0.00000000000E+00 -0.00000000000E+00 -0.45593999997E+02  0.45594000000E+02  0.51100000000E-03 0.  1.
    9900012    2    1    2    0    0 -0.27931288844E+02  0.97598541140E+01  0.27888261147E+02  0.50528846558E+02  0.29999959598E+02 0.  0.
        -12    1    1    2    0    0  0.27931288844E+02 -0.97598541140E+01 -0.27888261147E+02  0.40659153442E+02  0.00000000000E+00 0.  1.
         11    1    3    3    0    0 -0.14346796602E+02  0.83057226858E+01  0.12017134579E+02  0.20475036650E+02  0.51100000000E-03 0. -1.
        -11    1    3    3    0    0 -0.30155387054E+01 -0.96928187438E+01  0.59176285251E+01  0.11750001553E+02  0.51100000000E-03 0.  1.
        -12    1    3    3    0    0 -0.10568953537E+02  0.11146950172E+02  0.99534980427E+01  0.18303808355E+02  0.00000000000E+00 0.  1.
</event>
<event>
 7    1  0.5006721E-012  0.5052886E+02  0.7816164E-02  0.1300439E+00
        -11   -1    0    0    0    0  0.00000000000E+00  0.00000000000E+00  0.45593999997E+02  0.45594000000E+02  0.51100000000E-03 0. -1.
         11   -1    0    0    0    0 -0.00000000000E+00 -0.00000000000E+00 -0.45593999997E+02  0.45594000000E+02  0.51100000000E-03 0.  1.
    9900012    2    1    2    0    0  0.10044137111E+02 -0.23199406644E+02 -0.31844440298E+02  0.50528861583E+02  0.30000005266E+02 0.  0.
         12    1    1    2    0    0 -0.10044137111E+02  0.23199406644E+02  0.31844440298E+02  0.40659138417E+02  0.00000000000E+00 0. -1.
         11    1    3    3    0    0  0.16528658872E+01 -0.16422767979E+02 -0.11452182001E+01  0.16545416245E+02  0.51100000000E-03 0. -1.
        -11    1    3    3    0    0  0.30665107610E+01 -0.82663520446E+01 -0.15834423024E+02  0.18123603867E+02  0.51100000000E-03 0.  1.
         12    1    3    3    0    0  0.53247604629E+01  0.14897133798E+01 -0.14864799075E+02  0.15859841470E+02  0.00000000000E+00 0. -1.
</event>
<event>
 7    1  0.5006721E-012  0.5052886E+02  0.7816164E-02  0.1300439E+00
        -11   -1    0    0    0    0  0.00000000000E+00  0.00000000000E+00  0.45593999997E+02  0.45594000000E+02  0.51100000000E-03 0. -1.
         11   -1    0    0    0    0 -0.00000000000E+00 -0.00000000000E+00 -0.45593999997E+02  0.45594000000E+02  0.51100000000E-03 0.  1.
    9900012    2    1    2    0    0 -0.12747885216E+02  0.15040418719E+02  0.35559003592E+02  0.50528861922E+02  0.30000006299E+02 0.  0.
        -12    1    1    2    0    0  0.12747885216E+02 -0.15040418719E+02 -0.35559003592E+02  0.40659138078E+02  0.00000000000E+00 0.  1.
         11    1    3    3    0    0  0.59235620223E+01  0.54334557557E+01  0.67176829281E+01  0.10475604644E+02  0.51100000000E-03 0. -1.
        -11    1    3    3    0    0 -0.10512048874E+02  0.14751641553E+02  0.19738536939E+02  0.26790370300E+02  0.51100000000E-03 0.  1.
        -12    1    3    3    0    0 -0.81593983649E+01 -0.51446785894E+01  0.91027837249E+01  0.13262886979E+02  0.00000000000E+00 0.  1.
</event>
<event>
 7    1  0.5006721E-012  0.5052887E+02  0.7816164E-02  0.1300439E+00
        -11   -1    0    0    0    0  0.00000000000E+00  0.00000000000E+00  0.45593999997E+02  0.45594000000E+02  0.51100000000E-03 0. -1.
         11   -1    0    0    0    0 -0.00000000000E+00 -0.00000000000E+00 -0.45593999997E+02  0.45594000000E+02  0.51100000000E-03 0.  1.
    9900012    2    1    2    0    0 -0.33998174800E+02 -0.12546986150E+02 -0.18435347979E+02  0.50528870566E+02  0.30000032573E+02 0.  0.
         12    1    1    2    0    0  0.33998174800E+02  0.12546986150E+02  0.18435347979E+02  0.40659129434E+02  0.00000000000E+00 0. -1.
         11    1    3    3    0    0 -0.26097048729E+02 -0.79932791388E+01 -0.21132599028E+02  0.34518621144E+02  0.51100000000E-03 0.  1.
        -11    1    3    3    0    0  0.44563232339E+00  0.37919487267E+01  0.16540143314E+01  0.41609166037E+01  0.51100000000E-03 0. -1.
        -12    1    3    3    0    0 -0.83467583951E+01 -0.83456557382E+01  0.10432367176E+01  0.11849332819E+02  0.00000000000E+00 0.  1.
</event>
<event>
 7    1  0.5006721E-012  0.5052886E+02  0.7816164E-02  0.1300439E+00
        -11   -1    0    0    0    0  0.00000000000E+00  0.00000000000E+00  0.45593999997E+02  0.45594000000E+02  0.51100000000E-03 0. -1.
         11   -1    0    0    0    0 -0.00000000000E+00 -0.00000000000E+00 -0.45593999997E+02  0.45594000000E+02  0.51100000000E-03 0.  1.
    9900012    2    1    2    0    0 -0.13176511175E+02 -0.20025626394E+02 -0.32840817418E+02  0.50528862676E+02  0.30000008591E+02 0.  0.
         12    1    1    2    0    0  0.13176511175E+02  0.20025626394E+02  0.32840817418E+02  0.40659137324E+02  0.00000000000E+00 0. -1.
         11    1    3    3    0    0 -0.86021572394E+01 -0.17308244220E+02 -0.96479020158E+01  0.21602186017E+02  0.51100000000E-03 0. -1.
        -11    1    3    3    0    0  0.23764324222E+01 -0.74955940185E+01 -0.16054334537E+02  0.17876605339E+02  0.51100000000E-03 0.  1.
         12    1    3    3    0    0 -0.69507863577E+01  0.47782118445E+01 -0.71385808651E+01  0.11050071321E+02  0.00000000000E+00 0. -1.
</event>
<event>
 7    1  0.5006721E-012  0.5052886E+02  0.7816164E-02  0.1300439E+00
        -11   -1    0    0    0    0  0.00000000000E+00  0.00000000000E+00  0.45593999997E+02  0.45594000000E+02  0.51100000000E-03 0.  1.
         11   -1    0    0    0    0 -0.00000000000E+00 -0.00000000000E+00 -0.45593999997E+02  0.45594000000E+02  0.51100000000E-03 0. -1.
    9900012    2    1    2    0    0  0.62781160520E+01 -0.39011971433E+02 -0.95821222671E+01  0.50528859289E+02  0.29999998294E+02 0.  0.
         12    1    1    2    0    0 -0.62781160520E+01  0.39011971433E+02  0.95821222671E+01  0.40659140711E+02  0.00000000000E+00 0. -1.
         11    1    3    3    0    0  0.35276367001E+01 -0.31828056222E+02 -0.11275394446E+02  0.33950020674E+02  0.51100000000E-03 0. -1.
        -11    1    3    3    0    0  0.20458759328E+01 -0.72815268141E+01  0.75454223579E+01  0.10683615488E+02  0.51100000000E-03 0.  1.
        -12    1    3    3    0    0  0.70460341912E+00  0.97611603391E-01 -0.58521501785E+01  0.58952231268E+01  0.00000000000E+00 0.  1.
</event>
<event>
 7    1  0.5006721E-012  0.5052889E+02  0.7816164E-02  0.1300439E+00
        -11   -1    0    0    0    0  0.00000000000E+00  0.00000000000E+00  0.45593999997E+02  0.45594000000E+02  0.51100000000E-03 0.  1.
         11   -1    0    0    0    0 -0.00000000000E+00 -0.00000000000E+00 -0.45593999997E+02  0.45594000000E+02  0.51100000000E-03 0. -1.
    9900012    2    1    2    0    0  0.13538293192E+02  0.37173838236E+02  0.93799555756E+01  0.50528890339E+02  0.30000092676E+02 0.  0.
        -12    1    1    2    0    0 -0.13538293192E+02 -0.37173838236E+02 -0.93799555756E+01  0.40659109661E+02  0.00000000000E+00 0.  1.
         11    1    3    3    0    0  0.10570418217E+00  0.13326323798E+02 -0.77453781981E+01  0.15414050831E+02  0.51100000000E-03 0. -1.
        -11    1    3    3    0    0  0.17848255654E+01  0.56925654377E+01  0.11289981390E+02  0.12769282815E+02  0.51100000000E-03 0.  1.
         12    1    3    3    0    0  0.11647763445E+02  0.18154949001E+02  0.58353523841E+01  0.22345556694E+02  0.00000000000E+00 0. -1.
</event>
<event>
 7    1  0.5006721E-012  0.5052886E+02  0.7816164E-02  0.1300439E+00
        -11   -1    0    0    0    0  0.00000000000E+00  0.00000000000E+00  0.45593999997E+02  0.45594000000E+02  0.51100000000E-03 0.  1.
         11   -1    0    0    0    0 -0.00000000000E+00 -0.00000000000E+00 -0.45593999997E+02  0.45594000000E+02  0.51100000000E-03 0. -1.
    9900012    2    1    2    0    0  0.25813775672E+02 -0.29226234235E+02  0.11517024684E+02  0.50528860320E+02  0.30000001428E+02 0.  0.
        -12    1    1    2    0    0 -0.25813775672E+02  0.29226234235E+02 -0.11517024684E+02  0.40659139680E+02  0.00000000000E+00 0.  1.
         11    1    3    3    0    0  0.13435686904E+01  0.39335559821E+00 -0.34390656854E+01  0.37130955417E+01  0.51100000000E-03 0. -1.
        -11    1    3    3    0    0  0.19849841931E+02 -0.23110165275E+02  0.69499462838E+00  0.30472593941E+02  0.51100000000E-03 0.  1.
        -12    1    3    3    0    0  0.46203650506E+01 -0.65094245578E+01  0.14261095741E+02  0.16343170837E+02  0.00000000000E+00 0.  1.
</event>
<event>
 7    1  0.5006721E-012  0.5052886E+02  0.7816164E-02  0.1300439E+00
        -11   -1    0    0    0    0  0.00000000000E+00  0.00000000000E+00  0.45593999997E+02  0.45594000000E+02  0.51100000000E-03 0. -1.
         11   -1    0    0    0    0 -0.00000000000E+00 -0.00000000000E+00 -0.45593999997E+02  0.45594000000E+02  0.51100000000E-03 0.  1.
    9900012    2    1    2    0    0 -0.19724998528E+01  0.13923101332E+02 -0.38150000328E+02  0.50528855501E+02  0.29999986781E+02 0.  0.
         12    1    1    2    0    0  0.19724998528E+01 -0.13923101332E+02  0.38150000328E+02  0.40659144499E+02  0.00000000000E+00 0. -1.
         11    1    3    3    0    0  0.13628085068E+01  0.16788949540E+01 -0.31305403459E+01  0.38047625959E+01  0.51100000000E-03 0. -1.
        -11    1    3    3    0    0  0.33534578068E+01  0.10809837030E+02 -0.37711001915E+02  0.39372806879E+02  0.51100000000E-03 0.  1.
        -12    1    3    3    0    0 -0.66887661663E+01  0.14343693483E+01  0.26915419329E+01  0.73512860257E+01  0.00000000000E+00 0.  1.
</event>
<event>
 7    1  0.5006721E-012  0.5052886E+02  0.7816164E-02  0.1300439E+00
        -11   -1    0    0    0    0  0.00000000000E+00  0.00000000000E+00  0.45593999997E+02  0.45594000000E+02  0.51100000000E-03 0.  1.
         11   -1    0    0    0    0 -0.00000000000E+00 -0.00000000000E+00 -0.45593999997E+02  0.45594000000E+02  0.51100000000E-03 0. -1.
    9900012    2    1    2    0    0 -0.15311426331E+02  0.36982230304E+02  0.71442432052E+01  0.50528863935E+02  0.30000012418E+02 0.  0.
         12    1    1    2    0    0  0.15311426331E+02 -0.36982230304E+02 -0.71442432052E+01  0.40659136065E+02  0.00000000000E+00 0. -1.
         11    1    3    3    0    0 -0.63827848629E+01  0.48082941786E+01 -0.50399041855E+01  0.94477653429E+01  0.51100000000E-03 0. -1.
        -11    1    3    3    0    0 -0.57054396217E+01  0.10585442824E+02  0.14830900135E+02  0.19093434477E+02  0.51100000000E-03 0.  1.
        -12    1    3    3    0    0 -0.32232018464E+01  0.21588493302E+02 -0.26467527441E+01  0.21987664116E+02  0.00000000000E+00 0.  1.
</event>
<event>
 7    1  0.5006721E-012  0.5052885E+02  0.7816164E-02  0.1300439E+00
        -11   -1    0    0    0    0  0.00000000000E+00  0.00000000000E+00  0.45593999997E+02  0.45594000000E+02  0.51100000000E-03 0. -1.
         11   -1    0    0    0    0 -0.00000000000E+00 -0.00000000000E+00 -0.45593999997E+02  0.45594000000E+02  0.51100000000E-03 0.  1.
    9900012    2    1    2    0    0  0.26354419167E+02 -0.21170008008E+02 -0.22592967750E+02  0.50528845552E+02  0.29999956541E+02 0.  0.
         12    1    1    2    0    0 -0.26354419167E+02  0.21170008008E+02  0.22592967750E+02  0.40659154448E+02  0.00000000000E+00 0. -1.
         11    1    3    3    0    0 -0.14980525511E+01  0.33959660519E+01 -0.70977356181E+01  0.80096565493E+01  0.51100000000E-03 0.  1.
        -11    1    3    3    0    0  0.22737839105E+02 -0.11964712296E+02 -0.12590934411E+02  0.28612851957E+02  0.51100000000E-03 0. -1.
        -12    1    3    3    0    0  0.51146326122E+01 -0.12601261764E+02 -0.29042977205E+01  0.13906337046E+02  0.00000000000E+00 0.  1.
</event>
<event>
 7    1  0.5006721E-012  0.5052880E+02  0.7816164E-02  0.1300439E+00
        -11   -1    0    0    0    0  0.00000000000E+00  0.00000000000E+00  0.45593999997E+02  0.45594000000E+02  0.51100000000E-03 0. -1.
         11   -1    0    0    0    0 -0.00000000000E+00 -0.00000000000E+00 -0.45593999997E+02  0.45594000000E+02  0.51100000000E-03 0.  1.
    9900012    2    1    2    0    0 -0.14994818205E+02 -0.33477595234E+02 -0.17537864857E+02  0.50528798589E+02  0.29999813791E+02 0.  0.
         12    1    1    2    0    0  0.14994818205E+02  0.33477595234E+02  0.17537864857E+02  0.40659201411E+02  0.00000000000E+00 0. -1.
         11    1    3    3    0    0 -0.85728776408E+01 -0.21568316595E+02 -0.19810716377E+02  0.30514766842E+02  0.51100000000E-03 0.  1.
        -11    1    3    3    0    0 -0.48163671464E+01 -0.26217264857E+01  0.74576689307E+01  0.92567633866E+01  0.51100000000E-03 0. -1.
         12    1    3    3    0    0 -0.16055734173E+01 -0.92875521533E+01 -0.51848174107E+01  0.10757268361E+02  0.00000000000E+00 0. -1.
</event>
<event>
 7    1  0.5006721E-012  0.5052887E+02  0.7816164E-02  0.1300439E+00
        -11   -1    0    0    0    0  0.00000000000E+00  0.00000000000E+00  0.45593999997E+02  0.45594000000E+02  0.51100000000E-03 0.  1.
         11   -1    0    0    0    0 -0.00000000000E+00 -0.00000000000E+00 -0.45593999997E+02  0.45594000000E+02  0.51100000000E-03 0. -1.
    9900012    2    1    2    0    0 -0.21173480620E+02 -0.34252487627E+02  0.56227995169E+01  0.50528867390E+02  0.30000022919E+02 0.  0.
        -12    1    1    2    0    0  0.21173480620E+02  0.34252487627E+02 -0.56227995169E+01  0.40659132610E+02  0.00000000000E+00 0.  1.
         11    1    3    3    0    0 -0.63733009420E+01 -0.65513242357E+01 -0.40769320008E+01  0.10008006242E+02  0.51100000000E-03 0. -1.
        -11    1    3    3    0    0 -0.46036324598E+01 -0.28657794318E+02  0.82688032582E+01  0.30180054913E+02  0.51100000000E-03 0.  1.
        -12    1    3    3    0    0 -0.10196547218E+02  0.95663092695E+00  0.14309282596E+01  0.10340806235E+02  0.00000000000E+00 0.  1.
</event>
<event>
 7    1  0.5006721E-012  0.5052885E+02  0.7816164E-02  0.1300439E+00
        -11   -1    0    0    0    0  0.00000000000E+00  0.00000000000E+00  0.45593999997E+02  0.45594000000E+02  0.51100000000E-03 0. -1.
         11   -1    0    0    0    0 -0.00000000000E+00 -0.00000000000E+00 -0.45593999997E+02  0.45594000000E+02  0.51100000000E-03 0.  1.
    9900012    2    1    2    0    0  0.26318611229E+02 -0.29164637770E+02  0.10484323662E+02  0.50528850526E+02  0.29999971658E+02 0.  0.
        -12    1    1    2    0    0 -0.26318611229E+02  0.29164637770E+02 -0.10484323662E+02  0.40659149474E+02  0.00000000000E+00 0.  1.
         11    1    3    3    0    0  0.29437035595E+02 -0.32746207313E+02  0.94995369007E+01  0.45045469912E+02  0.51100000000E-03 0. -1.
        -11    1    3    3    0    0 -0.21838853029E+01  0.38277763190E+01  0.61977576703E+00  0.44503200814E+01  0.51100000000E-03 0.  1.
         12    1    3    3    0    0 -0.93453906334E+00 -0.24620677685E+00  0.36501099423E+00  0.10330605325E+01  0.00000000000E+00 0. -1.
</event>
<event>
 7    1  0.5006721E-012  0.5052886E+02  0.7816164E-02  0.1300439E+00
        -11   -1    0    0    0    0  0.00000000000E+00  0.00000000000E+00  0.45593999997E+02  0.45594000000E+02  0.51100000000E-03 0. -1.
         11   -1    0    0    0    0 -0.00000000000E+00 -0.00000000000E+00 -0.45593999997E+02  0.45594000000E+02  0.51100000000E-03 0.  1.
    9900012    2    1    2    0    0 -0.25116745332E+02  0.22647468890E+02 -0.22570045472E+02  0.50528859628E+02  0.29999999325E+02 0.  0.
         12    1    1    2    0    0  0.25116745332E+02 -0.22647468890E+02  0.22570045472E+02  0.40659140372E+02  0.00000000000E+00 0. -1.
         11    1    3    3    0    0 -0.76196016333E+01 -0.39673270206E+01 -0.55187342217E+01  0.10210506374E+02  0.51100000000E-03 0. -1.
        -11    1    3    3    0    0 -0.18396716792E+02  0.25188652428E+02 -0.95365738596E+01  0.32616769324E+02  0.51100000000E-03 0.  1.
        -12    1    3    3    0    0  0.89957309387E+00  0.14261434823E+01 -0.75147373909E+01  0.77015839304E+01  0.00000000000E+00 0.  1.
</event>
<event>
 7    1  0.5006721E-012  0.5052887E+02  0.7816164E-02  0.1300439E+00
        -11   -1    0    0    0    0  0.00000000000E+00  0.00000000000E+00  0.45593999997E+02  0.45594000000E+02  0.51100000000E-03 0. -1.
         11   -1    0    0    0    0 -0.00000000000E+00 -0.00000000000E+00 -0.45593999997E+02  0.45594000000E+02  0.51100000000E-03 0.  1.
    9900012    2    1    2    0    0  0.29871198242E+02  0.26624989729E+02  0.72101436746E+01  0.50528871452E+02  0.30000035266E+02 0.  0.
        -12    1    1    2    0    0 -0.29871198242E+02 -0.26624989729E+02 -0.72101436746E+01  0.40659128548E+02  0.00000000000E+00 0.  1.
         11    1    3    3    0    0  0.12500025175E+02  0.13240633051E+02  0.27923936026E+01  0.18421792943E+02  0.51100000000E-03 0. -1.
        -11    1    3    3    0    0 -0.49644152467E+01  0.49302608135E+01  0.43238733864E+01  0.82248873398E+01  0.51100000000E-03 0.  1.
        -12    1    3    3    0    0  0.22335588314E+02  0.84540958649E+01  0.93876685619E-01  0.23882191169E+02  0.00000000000E+00 0.  1.
</event>
<event>
 7    1  0.5006721E-012  0.5052886E+02  0.7816164E-02  0.1300439E+00
        -11   -1    0    0    0    0  0.00000000000E+00  0.00000000000E+00  0.45593999997E+02  0.45594000000E+02  0.51100000000E-03 0. -1.
         11   -1    0    0    0    0 -0.00000000000E+00 -0.00000000000E+00 -0.45593999997E+02  0.45594000000E+02  0.51100000000E-03 0.  1.
    9900012    2    1    2    0    0 -0.16574123693E+02  0.24545022465E+02  0.27856881005E+02  0.50528861749E+02  0.30000005773E+02 0.  0.
        -12    1    1    2    0    0  0.16574123693E+02 -0.24545022465E+02 -0.27856881005E+02  0.40659138251E+02  0.00000000000E+00 0.  1.
         11    1    3    3    0    0 -0.19440403589E+02  0.48482625867E+01  0.16549437210E+02  0.25986896968E+02  0.51100000000E-03 0. -1.
        -11    1    3    3    0    0 -0.45478759587E+00  0.18032119452E+02  0.88886367887E+01  0.20109003653E+02  0.51100000000E-03 0.  1.
         12    1    3    3    0    0  0.33210674916E+01  0.16646404260E+01  0.24188070065E+01  0.44329611284E+01  0.00000000000E+00 0. -1.
</event>
<event>
 7    1  0.5112972E-012  0.5052887E+02  0.7816164E-02  0.1300439E+00
        -11   -1    0    0    0    0  0.00000000000E+00  0.00000000000E+00  0.45593999997E+02  0.45594000000E+02  0.51100000000E-03 0. -1.
         11   -1    0    0    0    0 -0.00000000000E+00 -0.00000000000E+00 -0.45593999997E+02  0.45594000000E+02  0.51100000000E-03 0.  1.
    9900012    2    1    2    0    0  0.82846061403E+00 -0.20949820550E+02  0.34836530437E+02  0.50528865959E+02  0.30000018569E+02 0.  0.
        -12    1    1    2    0    0 -0.82846061403E+00  0.20949820550E+02 -0.34836530437E+02  0.40659134041E+02  0.00000000000E+00 0.  1.
         11    1    3    3    0    0  0.87032209683E+01 -0.15388413516E+02  0.23414073778E+02  0.29338850981E+02  0.51100000000E-03 0. -1.
        -11    1    3    3    0    0 -0.10793019773E+02 -0.84577980932E+01  0.92425423888E+01  0.16536269666E+02  0.51100000000E-03 0.  1.
         12    1    3    3    0    0  0.29182594187E+01  0.28963910587E+01  0.21799142706E+01  0.46537453118E+01  0.00000000000E+00 0. -1.
</event>
<event>
 7    1  0.5006721E-012  0.5052888E+02  0.7816164E-02  0.1300439E+00
        -11   -1    0    0    0    0  0.00000000000E+00  0.00000000000E+00  0.45593999997E+02  0.45594000000E+02  0.51100000000E-03 0. -1.
         11   -1    0    0    0    0 -0.00000000000E+00 -0.00000000000E+00 -0.45593999997E+02  0.45594000000E+02  0.51100000000E-03 0.  1.
    9900012    2    1    2    0    0  0.35385773269E+02  0.18115082469E+02 -0.85355082075E+01  0.50528879706E+02  0.30000060354E+02 0.  0.
         12    1    1    2    0    0 -0.35385773269E+02 -0.18115082469E+02  0.85355082075E+01  0.40659120294E+02  0.00000000000E+00 0. -1.
         11    1    3    3    0    0  0.31815692763E+02  0.63962781289E+01 -0.15759140603E+02  0.36076324545E+02  0.51100000000E-03 0.  1.
        -11    1    3    3    0    0  0.13649698738E+01  0.65139272928E+01  0.25834064805E+01  0.71392143011E+01  0.51100000000E-03 0. -1.
         12    1    3    3    0    0  0.22051106331E+01  0.52048770474E+01  0.46402259155E+01  0.73133408596E+01  0.00000000000E+00 0. -1.
</event>
<event>
 7    1  0.5006721E-012  0.5052886E+02  0.7816164E-02  0.1300439E+00
        -11   -1    0    0    0    0  0.00000000000E+00  0.00000000000E+00  0.45593999997E+02  0.45594000000E+02  0.51100000000E-03 0. -1.
         11   -1    0    0    0    0 -0.00000000000E+00 -0.00000000000E+00 -0.45593999997E+02  0.45594000000E+02  0.51100000000E-03 0.  1.
    9900012    2    1    2    0    0 -0.27812108094E+02  0.28249686466E+02  0.90336857084E+01  0.50528860566E+02  0.30000002176E+02 0.  0.
        -12    1    1    2    0    0  0.27812108094E+02 -0.28249686466E+02 -0.90336857084E+01  0.40659139434E+02  0.00000000000E+00 0.  1.
         11    1    3    3    0    0 -0.15298148729E+02  0.28466652049E+02  0.14819344704E+02  0.35552730010E+02  0.51100000000E-03 0. -1.
        -11    1    3    3    0    0 -0.83855035041E+01  0.26266423551E+01 -0.39967737616E+01  0.96535029830E+01  0.51100000000E-03 0.  1.
         12    1    3    3    0    0 -0.41284558610E+01 -0.28436079386E+01 -0.17888852342E+01  0.53226275734E+01  0.00000000000E+00 0. -1.
</event>
<event>
 7    1  0.1142219E-011  0.5052886E+02  0.7816164E-02  0.1300439E+00
        -11   -1    0    0    0    0  0.00000000000E+00  0.00000000000E+00  0.45593999997E+02  0.45594000000E+02  0.51100000000E-03 0. -1.
         11   -1    0    0    0    0 -0.00000000000E+00 -0.00000000000E+00 -0.45593999997E+02  0.45594000000E+02  0.51100000000E-03 0.  1.
    9900012    2    1    2    0    0 -0.61945670070E+01 -0.17441022036E+02  0.36202260364E+02  0.50528861230E+02  0.30000004194E+02 0.  0.
        -12    1    1    2    0    0  0.61945670070E+01  0.17441022036E+02 -0.36202260364E+02  0.40659138770E+02  0.00000000000E+00 0.  1.
         11    1    3    3    0    0 -0.10141661140E+02 -0.86495367177E+01  0.22875820212E+02  0.26475855543E+02  0.51100000000E-03 0. -1.
        -11    1    3    3    0    0  0.17769633397E+01 -0.51581864040E+00 -0.41781361013E+01  0.45695173839E+01  0.51100000000E-03 0.  1.
         12    1    3    3    0    0  0.21701307937E+01 -0.82756666777E+01  0.17504576254E+02  0.19483488303E+02  0.00000000000E+00 0. -1.
</event>
<event>
 7    1  0.5006721E-012  0.5052883E+02  0.7816164E-02  0.1300439E+00
        -11   -1    0    0    0    0  0.00000000000E+00  0.00000000000E+00  0.45593999997E+02  0.45594000000E+02  0.51100000000E-03 0. -1.
         11   -1    0    0    0    0 -0.00000000000E+00 -0.00000000000E+00 -0.45593999997E+02  0.45594000000E+02  0.51100000000E-03 0.  1.
    9900012    2    1    2    0    0  0.59415403507E+00  0.78553670683E+01 -0.39888697380E+02  0.50528831422E+02  0.29999913589E+02 0.  0.
         12    1    1    2    0    0 -0.59415403507E+00 -0.78553670683E+01  0.39888697380E+02  0.40659168578E+02  0.00000000000E+00 0. -1.
         11    1    3    3    0    0 -0.36596839547E+01  0.93813073625E+00  0.81981601803E+00  0.38659377247E+01  0.51100000000E-03 0. -1.
        -11    1    3    3    0    0 -0.17255806777E+01  0.89040490165E+01 -0.39129938115E+02  0.40167297329E+02  0.51100000000E-03 0.  1.
        -12    1    3    3    0    0  0.59794186676E+01 -0.19868126845E+01 -0.15785752830E+01  0.64955963675E+01  0.00000000000E+00 0.  1.
</event>
<event>
 7    1  0.5006721E-012  0.5052886E+02  0.7816164E-02  0.1300439E+00
        -11   -1    0    0    0    0  0.00000000000E+00  0.00000000000E+00  0.45593999997E+02  0.45594000000E+02  0.51100000000E-03 0. -1.
         11   -1    0    0    0    0 -0.00000000000E+00 -0.00000000000E+00 -0.45593999997E+02  0.45594000000E+02  0.51100000000E-03 0.  1.
    9900012    2    1    2    0    0 -0.51381779430E+01 -0.10398524110E+02  0.38969674017E+02  0.50528859955E+02  0.30000000319E+02 0.  0.
        -12    1    1    2    0    0  0.51381779430E+01  0.10398524110E+02 -0.38969674017E+02  0.40659140045E+02  0.00000000000E+00 0.  1.
         11    1    3    3    0    0 -0.93836459462E+01 -0.15077731480E+01  0.26453861284E+02  0.28109303944E+02  0.51100000000E-03 0. -1.
        -11    1    3    3    0    0  0.26900467301E+01 -0.77913790299E+01 -0.14114390830E+01  0.83626610086E+01  0.51100000000E-03 0.  1.
        -12    1    3    3    0    0  0.15554212731E+01 -0.10993719318E+01  0.13927251816E+02  0.14056895003E+02  0.00000000000E+00 0.  1.
</event>
<event>
 7    1  0.5006721E-012  0.5052887E+02  0.7816164E-02  0.1300439E+00
        -11   -1    0    0    0    0  0.00000000000E+00  0.00000000000E+00  0.45593999997E+02  0.45594000000E+02  0.51100000000E-03 0. -1.
         11   -1    0    0    0    0 -0.00000000000E+00 -0.00000000000E+00 -0.45593999997E+02  0.45594000000E+02  0.51100000000E-03 0.  1.
    9900012    2    1    2    0    0  0.35382033161E+02 -0.96352756843E+01 -0.17562406262E+02  0.50528869146E+02  0.30000028256E+02 0.  0.
         12    1    1    2    0    0 -0.35382033161E+02  0.96352756843E+01  0.17562406262E+02  0.40659130854E+02  0.00000000000E+00 0. -1.
         11    1    3    3    0    0  0.21977437841E+02  0.44415099605E+01 -0.44674279989E+01  0.22862473576E+02  0.51100000000E-03 0. -1.
        -11    1    3    3    0    0  0.84556901328E+00 -0.59178684237E+01 -0.11033172704E+02  0.12548587722E+02  0.51100000000E-03 0.  1.
         12    1    3    3    0    0  0.12559026306E+02 -0.81589172211E+01 -0.20618055593E+01  0.15117807848E+02  0.00000000000E+00 0. -1.
</event>
<event>
 7    1  0.5006721E-012  0.5052897E+02  0.7816164E-02  0.1300438E+00
        -11   -1    0    0    0    0  0.00000000000E+00  0.00000000000E+00  0.45593999997E+02  0.45594000000E+02  0.51100000000E-03 0. -1.
         11   -1    0    0    0    0 -0.00000000000E+00 -0.00000000000E+00 -0.45593999997E+02  0.45594000000E+02  0.51100000000E-03 0.  1.
    9900012    2    1    2    0    0 -0.10481328570E+02  0.24111009141E+01 -0.39210781725E+02  0.50528965830E+02  0.30000322134E+02 0.  0.
         12    1    1    2    0    0  0.10481328570E+02 -0.24111009141E+01  0.39210781725E+02  0.40659034170E+02  0.00000000000E+00 0. -1.
         11    1    3    3    0    0  0.73134340216E+01 -0.35479223359E+01 -0.94154576453E+01  0.12438846933E+02  0.51100000000E-03 0. -1.
        -11    1    3    3    0    0 -0.16546648694E+02 -0.75659406946E-01 -0.16168993375E+02  0.23135117341E+02  0.51100000000E-03 0.  1.
         12    1    3    3    0    0 -0.12481138974E+01  0.60346826569E+01 -0.13626330704E+02  0.14955001555E+02  0.00000000000E+00 0. -1.
</event>
<event>
 7    1  0.5006721E-012  0.5052889E+02  0.7816164E-02  0.1300439E+00
        -11   -1    0    0    0    0  0.00000000000E+00  0.00000000000E+00  0.45593999997E+02  0.45594000000E+02  0.51100000000E-03 0. -1.
         11   -1    0    0    0    0 -0.00000000000E+00 -0.00000000000E+00 -0.45593999997E+02  0.45594000000E+02  0.51100000000E-03 0.  1.
    9900012    2    1    2    0    0  0.35986757339E+01 -0.26880307470E+02 -0.30292934609E+02  0.50528889287E+02  0.30000089477E+02 0.  0.
         12    1    1    2    0    0 -0.35986757339E+01  0.26880307470E+02  0.30292934609E+02  0.40659110713E+02  0.00000000000E+00 0. -1.
         11    1    3    3    0    0 -0.34244687232E+01 -0.22242438184E+02 -0.43062624087E+01  0.22912811669E+02  0.51100000000E-03 0. -1.
        -11    1    3    3    0    0  0.51049198447E+01 -0.36474459877E+01 -0.23499654922E+02  0.24322784597E+02  0.51100000000E-03 0.  1.
         12    1    3    3    0    0  0.19182246125E+01 -0.99042329814E+00 -0.24870172792E+01  0.32932930207E+01  0.00000000000E+00 0. -1.
</event>
<event>
 7    1  0.5006721E-012  0.5052883E+02  0.7816164E-02  0.1300439E+00
        -11   -1    0    0    0    0  0.00000000000E+00  0.00000000000E+00  0.45593999997E+02  0.45594000000E+02  0.51100000000E-03 0. -1.
         11   -1    0    0    0    0 -0.00000000000E+00 -0.00000000000E+00 -0.45593999997E+02  0.45594000000E+02  0.51100000000E-03 0.  1.
    9900012    2    1    2    0    0 -0.27221707338E+02 -0.20276175175E+02  0.22383562372E+02  0.50528825211E+02  0.29999894710E+02 0.  0.
        -12    1    1    2    0    0  0.27221707338E+02  0.20276175175E+02 -0.22383562372E+02  0.40659174789E+02  0.00000000000E+00 0.  1.
         11    1    3    3    0    0 -0.28709085796E+01 -0.78085827253E+01 -0.48872612737E+01  0.96489068432E+01  0.51100000000E-03 0. -1.
        -11    1    3    3    0    0 -0.17458495432E+02 -0.88259172786E+01  0.26650946127E+02  0.33060078770E+02  0.51100000000E-03 0.  1.
        -12    1    3    3    0    0 -0.68923033262E+01 -0.36416751711E+01  0.61987751834E+00  0.78198395974E+01  0.00000000000E+00 0.  1.
</event>
<event>
 7    1  0.5006721E-012  0.5052886E+02  0.7816164E-02  0.1300439E+00
        -11   -1    0    0    0    0  0.00000000000E+00  0.00000000000E+00  0.45593999997E+02  0.45594000000E+02  0.51100000000E-03 0.  1.
         11   -1    0    0    0    0 -0.00000000000E+00 -0.00000000000E+00 -0.45593999997E+02  0.45594000000E+02  0.51100000000E-03 0. -1.
    9900012    2    1    2    0    0  0.60040396704E+01 -0.40072634802E+02 -0.33616757474E+01  0.50528863067E+02  0.30000009777E+02 0.  0.
         12    1    1    2    0    0 -0.60040396704E+01  0.40072634802E+02  0.33616757474E+01  0.40659136933E+02  0.00000000000E+00 0. -1.
         11    1    3    3    0    0 -0.98911522107E+00 -0.91485428092E+01 -0.41692611390E+01  0.10102322662E+02  0.51100000000E-03 0. -1.
        -11    1    3    3    0    0  0.10801510039E+02 -0.13570773871E+02  0.10412471786E+02  0.20230128312E+02  0.51100000000E-03 0.  1.
        -12    1    3    3    0    0 -0.38083551479E+01 -0.17353318122E+02 -0.96048863941E+01  0.20196412093E+02  0.00000000000E+00 0.  1.
</event>
<event>
 7    1  0.5006721E-012  0.5052885E+02  0.7816164E-02  0.1300439E+00
        -11   -1    0    0    0    0  0.00000000000E+00  0.00000000000E+00  0.45593999997E+02  0.45594000000E+02  0.51100000000E-03 0.  1.
         11   -1    0    0    0    0 -0.00000000000E+00 -0.00000000000E+00 -0.45593999997E+02  0.45594000000E+02  0.51100000000E-03 0. -1.
    9900012    2    1    2    0    0  0.24369846224E+02 -0.16218036103E+02 -0.28217941306E+02  0.50528852056E+02  0.29999976308E+02 0.  0.
         12    1    1    2    0    0 -0.24369846224E+02  0.16218036103E+02  0.28217941306E+02  0.40659147944E+02  0.00000000000E+00 0. -1.
         11    1    3    3    0    0  0.40936020427E+01 -0.14759327385E+02 -0.25222877184E+02  0.29509131744E+02  0.51100000000E-03 0. -1.
        -11    1    3    3    0    0  0.15121570767E+02 -0.29951237697E+01 -0.25206612319E+01  0.15620064090E+02  0.51100000000E-03 0.  1.
         12    1    3    3    0    0  0.51546734138E+01  0.15364150516E+01 -0.47440288986E+00  0.53996562220E+01  0.00000000000E+00 0. -1.
</event>
<event>
 7    1  0.6911831E-012  0.5052886E+02  0.7816164E-02  0.1300439E+00
        -11   -1    0    0    0    0  0.00000000000E+00  0.00000000000E+00  0.45593999997E+02  0.45594000000E+02  0.51100000000E-03 0. -1.
         11   -1    0    0    0    0 -0.00000000000E+00 -0.00000000000E+00 -0.45593999997E+02  0.45594000000E+02  0.51100000000E-03 0.  1.
    9900012    2    1    2    0    0 -0.12385301172E+02  0.40080411670E+01  0.38518896157E+02  0.50528862770E+02  0.30000008877E+02 0.  0.
        -12    1    1    2    0    0  0.12385301172E+02 -0.40080411670E+01 -0.38518896157E+02  0.40659137230E+02  0.00000000000E+00 0.  1.
         11    1    3    3    0    0 -0.65693623089E+01 -0.96764777221E+01  0.78009644593E+01  0.14058655306E+02  0.51100000000E-03 0. -1.
        -11    1    3    3    0    0 -0.31373362020E+01  0.63433274234E+01  0.30256794741E+01  0.76964548843E+01  0.51100000000E-03 0.  1.
         12    1    3    3    0    0 -0.26786026614E+01  0.73411914657E+01  0.27692252223E+02  0.28773752580E+02  0.00000000000E+00 0. -1.
</event>
<event>
 7    1  0.5006721E-012  0.5052886E+02  0.7816164E-02  0.1300439E+00
        -11   -1    0    0    0    0  0.00000000000E+00  0.00000000000E+00  0.45593999997E+02  0.45594000000E+02  0.51100000000E-03 0. -1.
         11   -1    0    0    0    0 -0.00000000000E+00 -0.00000000000E+00 -0.45593999997E+02  0.45594000000E+02  0.51100000000E-03 0.  1.
    9900012    2    1    2    0    0  0.30673046899E+01 -0.13938417666E+02 -0.38072011649E+02  0.50528856919E+02  0.29999991090E+02 0.  0.
         12    1    1    2    0    0 -0.30673046899E+01  0.13938417666E+02  0.38072011649E+02  0.40659143081E+02  0.00000000000E+00 0. -1.
         11    1    3    3    0    0  0.41201435690E+01  0.42334389647E+01 -0.88683672156E+01  0.10655774295E+02  0.51100000000E-03 0. -1.
        -11    1    3    3    0    0 -0.78348374657E+01 -0.75711364661E+01 -0.38278051537E+01  0.11548111450E+02  0.51100000000E-03 0.  1.
        -12    1    3    3    0    0  0.67819985866E+01 -0.10600720164E+02 -0.25375839280E+02  0.28324971174E+02  0.00000000000E+00 0.  1.
</event>
<event>
 7    1  0.5006721E-012  0.5052886E+02  0.7816164E-02  0.1300439E+00
        -11   -1    0    0    0    0  0.00000000000E+00  0.00000000000E+00  0.45593999997E+02  0.45594000000E+02  0.51100000000E-03 0. -1.
         11   -1    0    0    0    0 -0.00000000000E+00 -0.00000000000E+00 -0.45593999997E+02  0.45594000000E+02  0.51100000000E-03 0.  1.
    9900012    2    1    2    0    0  0.17133482163E+01  0.30284953823E+02 -0.27074922155E+02  0.50528863267E+02  0.30000010387E+02 0.  0.
         12    1    1    2    0    0 -0.17133482163E+01 -0.30284953823E+02  0.27074922155E+02  0.40659136733E+02  0.00000000000E+00 0. -1.
         11    1    3    3    0    0  0.63768162090E+01  0.28161046094E+02 -0.27211878017E+02  0.39676121378E+02  0.51100000000E-03 0. -1.
        -11    1    3    3    0    0 -0.64186112457E+01  0.54786917793E+00 -0.28520315625E+01  0.70450560860E+01  0.51100000000E-03 0.  1.
         12    1    3    3    0    0  0.17551432530E+01  0.15760385504E+01  0.29889874247E+01  0.38076858032E+01  0.00000000000E+00 0. -1.
</event>
<event>
 7    1  0.5006721E-012  0.5052887E+02  0.7816164E-02  0.1300439E+00
        -11   -1    0    0    0    0  0.00000000000E+00  0.00000000000E+00  0.45593999997E+02  0.45594000000E+02  0.51100000000E-03 0. -1.
         11   -1    0    0    0    0 -0.00000000000E+00 -0.00000000000E+00 -0.45593999997E+02  0.45594000000E+02  0.51100000000E-03 0.  1.
    9900012    2    1    2    0    0  0.38383043233E+02 -0.91771222172E+01 -0.97819853797E+01  0.50528870423E+02  0.30000032137E+02 0.  0.
         12    1    1    2    0    0 -0.38383043233E+02  0.91771222172E+01  0.97819853797E+01  0.40659129577E+02  0.00000000000E+00 0. -1.
         11    1    3    3    0    0  0.11502284452E+02  0.60938206475E+00  0.92405507728E+01  0.14766911422E+02  0.51100000000E-03 0. -1.
        -11    1    3    3    0    0  0.11607352763E+02 -0.82211725583E+01 -0.53296303015E+01  0.15189577868E+02  0.51100000000E-03 0.  1.
         12    1    3    3    0    0  0.15273406018E+02 -0.15653317237E+01 -0.13692905851E+02  0.20572381132E+02  0.00000000000E+00 0. -1.
</event>
<event>
 7    1  0.5006721E-012  0.5052886E+02  0.7816164E-02  0.1300439E+00
        -11   -1    0    0    0    0  0.00000000000E+00  0.00000000000E+00  0.45593999997E+02  0.45594000000E+02  0.51100000000E-03 0. -1.
         11   -1    0    0    0    0 -0.00000000000E+00 -0.00000000000E+00 -0.45593999997E+02  0.45594000000E+02  0.51100000000E-03 0.  1.
    9900012    2    1    2    0    0 -0.15606121227E+01  0.18464360315E+02 -0.36191123215E+02  0.50528861893E+02  0.30000006210E+02 0.  0.
         12    1    1    2    0    0  0.15606121227E+01 -0.18464360315E+02  0.36191123215E+02  0.40659138107E+02  0.00000000000E+00 0. -1.
         11    1    3    3    0    0  0.18921447361E+01  0.14363185600E+02 -0.75703569118E+01  0.16345996951E+02  0.51100000000E-03 0. -1.
        -11    1    3    3    0    0 -0.99621625420E+01 -0.58780771041E+00 -0.20323722716E+02  0.22641640968E+02  0.51100000000E-03 0.  1.
        -12    1    3    3    0    0  0.65094056831E+01  0.46889824257E+01 -0.82970435867E+01  0.11541223974E+02  0.00000000000E+00 0.  1.
</event>
<event>
 7    1  0.5006721E-012  0.5052886E+02  0.7816164E-02  0.1300439E+00
        -11   -1    0    0    0    0  0.00000000000E+00  0.00000000000E+00  0.45593999997E+02  0.45594000000E+02  0.51100000000E-03 0. -1.
         11   -1    0    0    0    0 -0.00000000000E+00 -0.00000000000E+00 -0.45593999997E+02  0.45594000000E+02  0.51100000000E-03 0.  1.
    9900012    2    1    2    0    0  0.19705187605E+02  0.90134438718E+00 -0.35553603330E+02  0.50528861421E+02  0.30000004775E+02 0.  0.
         12    1    1    2    0    0 -0.19705187605E+02 -0.90134438718E+00  0.35553603330E+02  0.40659138579E+02  0.00000000000E+00 0. -1.
         11    1    3    3    0    0  0.75805190625E+01 -0.48990475991E+01 -0.13490988436E+02  0.16231811540E+02  0.51100000000E-03 0. -1.
        -11    1    3    3    0    0  0.14212219610E+02  0.12231419683E+02 -0.12312527683E+02  0.22431967188E+02  0.51100000000E-03 0.  1.
        -12    1    3    3    0    0 -0.20875510677E+01 -0.64310276963E+01 -0.97500872113E+01  0.11865082693E+02  0.00000000000E+00 0.  1.
</event>
<event>
 7    1  0.5006721E-012  0.5052886E+02  0.7816164E-02  0.1300439E+00
        -11   -1    0    0    0    0  0.00000000000E+00  0.00000000000E+00  0.45593999997E+02  0.45594000000E+02  0.51100000000E-03 0. -1.
         11   -1    0    0    0    0 -0.00000000000E+00 -0.00000000000E+00 -0.45593999997E+02  0.45594000000E+02  0.51100000000E-03 0.  1.
    9900012    2    1    2    0    0 -0.11587768360E+02 -0.39752825046E+01  0.38769659120E+02  0.50528859393E+02  0.29999998612E+02 0.  0.
        -12    1    1    2    0    0  0.11587768360E+02  0.39752825046E+01 -0.38769659120E+02  0.40659140607E+02  0.00000000000E+00 0.  1.
         11    1    3    3    0    0 -0.47879433185E+01 -0.10296999660E+02  0.90963771946E+01  0.14549800052E+02  0.51100000000E-03 0. -1.
        -11    1    3    3    0    0  0.43171904877E+01  0.63946780559E+01  0.19254192728E+02  0.20742564427E+02  0.51100000000E-03 0.  1.
        -12    1    3    3    0    0 -0.11117015530E+02 -0.72960900866E-01  0.10419089198E+02  0.15236494915E+02  0.00000000000E+00 0.  1.
</event>
<event>
 7    1  0.5006721E-012  0.5052889E+02  0.7816164E-02  0.1300439E+00
        -11   -1    0    0    0    0  0.00000000000E+00  0.00000000000E+00  0.45593999997E+02  0.45594000000E+02  0.51100000000E-03 0. -1.
         11   -1    0    0    0    0 -0.00000000000E+00 -0.00000000000E+00 -0.45593999997E+02  0.45594000000E+02  0.51100000000E-03 0.  1.
    9900012    2    1    2    0    0  0.20242055428E+02 -0.18155926524E+01 -0.35215429101E+02  0.50528885015E+02  0.30000076491E+02 0.  0.
         12    1    1    2    0    0 -0.20242055428E+02  0.18155926524E+01  0.35215429101E+02  0.40659114985E+02  0.00000000000E+00 0. -1.
         11    1    3    3    0    0 -0.29164302877E+01  0.28043169710E+01  0.57509731890E+00  0.40866240938E+01  0.51100000000E-03 0. -1.
        -11    1    3    3    0    0  0.16679598436E+02 -0.11204563896E+02 -0.27283856223E+02  0.33884510720E+02  0.51100000000E-03 0.  1.
        -12    1    3    3    0    0  0.64788872796E+01  0.65846542724E+01 -0.85066701973E+01  0.12557750201E+02  0.00000000000E+00 0.  1.
</event>
<event>
 7    1  0.5006721E-012  0.5052888E+02  0.7816164E-02  0.1300439E+00
        -11   -1    0    0    0    0  0.00000000000E+00  0.00000000000E+00  0.45593999997E+02  0.45594000000E+02  0.51100000000E-03 0.  1.
         11   -1    0    0    0    0 -0.00000000000E+00 -0.00000000000E+00 -0.45593999997E+02  0.45594000000E+02  0.51100000000E-03 0. -1.
    9900012    2    1    2    0    0 -0.17602528753E+02 -0.35457219222E+02 -0.92790454279E+01  0.50528879283E+02  0.30000059068E+02 0.  0.
        -12    1    1    2    0    0  0.17602528753E+02  0.35457219222E+02  0.92790454279E+01  0.40659120717E+02  0.00000000000E+00 0.  1.
         11    1    3    3    0    0 -0.57939858841E+01 -0.29303749835E+02 -0.79439346465E+01  0.30909321001E+02  0.51100000000E-03 0. -1.
        -11    1    3    3    0    0  0.31446633403E+01 -0.46430140755E+00  0.12451384984E+01  0.34139205413E+01  0.51100000000E-03 0.  1.
         12    1    3    3    0    0 -0.14953206209E+02 -0.56891679793E+01 -0.25802492798E+01  0.16205637740E+02  0.00000000000E+00 0. -1.
</event>
<event>
 7    1  0.5006721E-012  0.5052886E+02  0.7816164E-02  0.1300439E+00
        -11   -1    0    0    0    0  0.00000000000E+00  0.00000000000E+00  0.45593999997E+02  0.45594000000E+02  0.51100000000E-03 0. -1.
         11   -1    0    0    0    0 -0.00000000000E+00 -0.00000000000E+00 -0.45593999997E+02  0.45594000000E+02  0.51100000000E-03 0.  1.
    9900012    2    1    2    0    0  0.34815030581E+02  0.12268138482E+02 -0.17046184377E+02  0.50528856158E+02  0.29999988778E+02 0.  0.
         12    1    1    2    0    0 -0.34815030581E+02 -0.12268138482E+02  0.17046184377E+02  0.40659143842E+02  0.00000000000E+00 0. -1.
         11    1    3    3    0    0  0.30241050195E+02  0.13754628086E+02 -0.26657655765E+01  0.33328924631E+02  0.51100000000E-03 0. -1.
        -11    1    3    3    0    0  0.25506622336E+01 -0.46917544058E+01 -0.10473829728E+02  0.11756680937E+02  0.51100000000E-03 0.  1.
         12    1    3    3    0    0  0.20233181518E+01  0.32052648024E+01 -0.39065890729E+01  0.54432505896E+01  0.00000000000E+00 0. -1.
</event>
<event>
 7    1  0.5006721E-012  0.5052887E+02  0.7816164E-02  0.1300439E+00
        -11   -1    0    0    0    0  0.00000000000E+00  0.00000000000E+00  0.45593999997E+02  0.45594000000E+02  0.51100000000E-03 0. -1.
         11   -1    0    0    0    0 -0.00000000000E+00 -0.00000000000E+00 -0.45593999997E+02  0.45594000000E+02  0.51100000000E-03 0.  1.
    9900012    2    1    2    0    0  0.14980568008E+02  0.16488881811E+02 -0.34012712488E+02  0.50528865086E+02  0.30000015914E+02 0.  0.
         12    1    1    2    0    0 -0.14980568008E+02 -0.16488881811E+02  0.34012712488E+02  0.40659134914E+02  0.00000000000E+00 0. -1.
         11    1    3    3    0    0 -0.23265709229E+01  0.12075188039E+02 -0.39255387048E+01  0.12908638690E+02  0.51100000000E-03 0. -1.
        -11    1    3    3    0    0  0.81710357351E+01  0.69944511506E+01 -0.24113462552E+02  0.26403546133E+02  0.51100000000E-03 0.  1.
        -12    1    3    3    0    0  0.91361031955E+01 -0.25807573789E+01 -0.59737112306E+01  0.11216680263E+02  0.00000000000E+00 0.  1.
</event>
<event>
 7    1  0.5006721E-012  0.5052886E+02  0.7816164E-02  0.1300439E+00
        -11   -1    0    0    0    0  0.00000000000E+00  0.00000000000E+00  0.45593999997E+02  0.45594000000E+02  0.51100000000E-03 0. -1.
         11   -1    0    0    0    0 -0.00000000000E+00 -0.00000000000E+00 -0.45593999997E+02  0.45594000000E+02  0.51100000000E-03 0.  1.
    9900012    2    1    2    0    0  0.36171649019E+01 -0.82193214477E+01 -0.39655066924E+02  0.50528862531E+02  0.30000008150E+02 0.  0.
         12    1    1    2    0    0 -0.36171649019E+01  0.82193214477E+01  0.39655066924E+02  0.40659137469E+02  0.00000000000E+00 0. -1.
         11    1    3    3    0    0  0.45859030350E+01 -0.24750223767E+01 -0.96476149486E+00  0.52997176731E+01  0.51100000000E-03 0. -1.
        -11    1    3    3    0    0 -0.67943042026E+01 -0.10402786173E+02 -0.11142668704E+02  0.16689505561E+02  0.51100000000E-03 0.  1.
        -12    1    3    3    0    0  0.58255660694E+01  0.46584871016E+01 -0.27547636725E+02  0.28539639298E+02  0.00000000000E+00 0.  1.
</event>
<event>
 7    1  0.5006721E-012  0.5052886E+02  0.7816164E-02  0.1300439E+00
        -11   -1    0    0    0    0  0.00000000000E+00  0.00000000000E+00  0.45593999997E+02  0.45594000000E+02  0.51100000000E-03 0. -1.
         11   -1    0    0    0    0 -0.00000000000E+00 -0.00000000000E+00 -0.45593999997E+02  0.45594000000E+02  0.51100000000E-03 0.  1.
    9900012    2    1    2    0    0  0.38899747456E+02 -0.10511916104E+01  0.11784335134E+02  0.50528856987E+02  0.29999991298E+02 0.  0.
        -12    1    1    2    0    0 -0.38899747456E+02  0.10511916104E+01 -0.11784335134E+02  0.40659143013E+02  0.00000000000E+00 0.  1.
         11    1    3    3    0    0  0.31692108158E+02 -0.53774431473E+01  0.66618477034E+01  0.32828140815E+02  0.51100000000E-03 0. -1.
        -11    1    3    3    0    0  0.96741969823E-02  0.30854962587E+01 -0.46007746217E+01  0.55396306857E+01  0.51100000000E-03 0.  1.
        -12    1    3    3    0    0  0.71979651013E+01  0.12407552782E+01  0.97232620526E+01  0.12161085486E+02  0.00000000000E+00 0.  1.
</event>
<event>
 7    1  0.5006721E-012  0.5052886E+02  0.7816164E-02  0.1300439E+00
        -11   -1    0    0    0    0  0.00000000000E+00  0.00000000000E+00  0.45593999997E+02  0.45594000000E+02  0.51100000000E-03 0. -1.
         11   -1    0    0    0    0 -0.00000000000E+00 -0.00000000000E+00 -0.45593999997E+02  0.45594000000E+02  0.51100000000E-03 0.  1.
    9900012    2    1    2    0    0 -0.36391401577E+02  0.11101703673E+02  0.14338179314E+02  0.50528864258E+02  0.30000013400E+02 0.  0.
        -12    1    1    2    0    0  0.36391401577E+02 -0.11101703673E+02 -0.14338179314E+02  0.40659135742E+02  0.00000000000E+00 0.  1.
         11    1    3    3    0    0 -0.14751064924E+02  0.12149575513E+02  0.12809715185E+02  0.23006410084E+02  0.51100000000E-03 0. -1.
        -11    1    3    3    0    0  0.97262994502E+00 -0.80942155607E+00 -0.40393361556E+01  0.42328960658E+01  0.51100000000E-03 0.  1.
        -12    1    3    3    0    0 -0.22612966598E+02 -0.23845028357E+00  0.55678002846E+01  0.23289558109E+02  0.00000000000E+00 0.  1.
</event>
<event>
 7    1  0.5006721E-012  0.5052888E+02  0.7816164E-02  0.1300439E+00
        -11   -1    0    0    0    0  0.00000000000E+00  0.00000000000E+00  0.45593999997E+02  0.45594000000E+02  0.51100000000E-03 0. -1.
         11   -1    0    0    0    0 -0.00000000000E+00 -0.00000000000E+00 -0.45593999997E+02  0.45594000000E+02  0.51100000000E-03 0.  1.
    9900012    2    1    2    0    0  0.61326133977E+01 -0.37061027632E+02  0.15557472320E+02  0.50528884648E+02  0.30000075377E+02 0.  0.
        -12    1    1    2    0    0 -0.61326133977E+01  0.37061027632E+02 -0.15557472320E+02  0.40659115352E+02  0.00000000000E+00 0.  1.
         11    1    3    3    0    0  0.10770313700E+02 -0.31151890303E+02  0.21699699514E+02  0.39462854508E+02  0.51100000000E-03 0. -1.
        -11    1    3    3    0    0 -0.17809347585E+01 -0.29083978192E+01 -0.60226334823E+01  0.69211719248E+01  0.51100000000E-03 0.  1.
         12    1    3    3    0    0 -0.28567655434E+01 -0.30007395094E+01 -0.11959371197E+00  0.41448582158E+01  0.00000000000E+00 0. -1.
</event>
<event>
 7    1  0.5006721E-012  0.5052885E+02  0.7816164E-02  0.1300439E+00
        -11   -1    0    0    0    0  0.00000000000E+00  0.00000000000E+00  0.45593999997E+02  0.45594000000E+02  0.51100000000E-03 0. -1.
         11   -1    0    0    0    0 -0.00000000000E+00 -0.00000000000E+00 -0.45593999997E+02  0.45594000000E+02  0.51100000000E-03 0.  1.
    9900012    2    1    2    0    0 -0.60738860295E+01  0.28073425827E+02  0.28777712719E+02  0.50528854922E+02  0.29999985021E+02 0.  0.
        -12    1    1    2    0    0  0.60738860295E+01 -0.28073425827E+02 -0.28777712719E+02  0.40659145078E+02  0.00000000000E+00 0.  1.
         11    1    3    3    0    0  0.34090649460E+00  0.11970571717E+02  0.22582262255E+02  0.25561091003E+02  0.51100000000E-03 0. -1.
        -11    1    3    3    0    0 -0.61954511505E+01  0.24391127071E+01 -0.41342645321E+01  0.78374121519E+01  0.51100000000E-03 0.  1.
        -12    1    3    3    0    0 -0.21934137363E+00  0.13663741403E+02  0.10329714996E+02  0.17130351767E+02  0.00000000000E+00 0.  1.
</event>
<event>
 7    1  0.5006721E-012  0.5052887E+02  0.7816164E-02  0.1300439E+00
        -11   -1    0    0    0    0  0.00000000000E+00  0.00000000000E+00  0.45593999997E+02  0.45594000000E+02  0.51100000000E-03 0. -1.
         11   -1    0    0    0    0 -0.00000000000E+00 -0.00000000000E+00 -0.45593999997E+02  0.45594000000E+02  0.51100000000E-03 0.  1.
    9900012    2    1    2    0    0  0.44713019788E+01 -0.25822369229E+02 -0.31086610542E+02  0.50528872501E+02  0.30000038455E+02 0.  0.
         12    1    1    2    0    0 -0.44713019788E+01  0.25822369229E+02  0.31086610542E+02  0.40659127499E+02  0.00000000000E+00 0. -1.
         11    1    3    3    0    0  0.63047769096E+01  0.28353288829E+01 -0.19640631595E+01  0.71865740176E+01  0.51100000000E-03 0. -1.
        -11    1    3    3    0    0 -0.18697655351E+01 -0.13243066597E+02 -0.41645716852E+01  0.14007801170E+02  0.51100000000E-03 0.  1.
        -12    1    3    3    0    0  0.36290604325E-01 -0.15414631515E+02 -0.24957975697E+02  0.29334497314E+02  0.00000000000E+00 0.  1.
</event>
<event>
 7    1  0.5006721E-012  0.5052886E+02  0.7816164E-02  0.1300439E+00
        -11   -1    0    0    0    0  0.00000000000E+00  0.00000000000E+00  0.45593999997E+02  0.45594000000E+02  0.51100000000E-03 0. -1.
         11   -1    0    0    0    0 -0.00000000000E+00 -0.00000000000E+00 -0.45593999997E+02  0.45594000000E+02  0.51100000000E-03 0.  1.
    9900012    2    1    2    0    0  0.84423918263E+01  0.17079452202E+02 -0.35919126714E+02  0.50528864112E+02  0.30000012956E+02 0.  0.
         12    1    1    2    0    0 -0.84423918263E+01 -0.17079452202E+02  0.35919126714E+02  0.40659135888E+02  0.00000000000E+00 0. -1.
         11    1    3    3    0    0  0.27051117276E+01 -0.13180046984E+01  0.17918565754E+01  0.35022158831E+01  0.51100000000E-03 0. -1.
        -11    1    3    3    0    0  0.10003836108E+02  0.14276056796E+02 -0.13358460067E+02  0.21962035201E+02  0.51100000000E-03 0.  1.
        -12    1    3    3    0    0 -0.42665560094E+01  0.41214001041E+01 -0.24352523222E+02  0.25064613028E+02  0.00000000000E+00 0.  1.
</event>
<event>
 7    1  0.5006721E-012  0.5052886E+02  0.7816164E-02  0.1300439E+00
        -11   -1    0    0    0    0  0.00000000000E+00  0.00000000000E+00  0.45593999997E+02  0.45594000000E+02  0.51100000000E-03 0. -1.
         11   -1    0    0    0    0 -0.00000000000E+00 -0.00000000000E+00 -0.45593999997E+02  0.45594000000E+02  0.51100000000E-03 0.  1.
    9900012    2    1    2    0    0 -0.17154078928E+02 -0.34898413662E+01 -0.36697744887E+02  0.50528857161E+02  0.29999991826E+02 0.  0.
         12    1    1    2    0    0  0.17154078928E+02  0.34898413662E+01  0.36697744887E+02  0.40659142839E+02  0.00000000000E+00 0. -1.
         11    1    3    3    0    0 -0.35621780464E+01  0.97876499216E+01 -0.10583038726E+02  0.14848835387E+02  0.51100000000E-03 0. -1.
        -11    1    3    3    0    0 -0.18349032148E+01 -0.11996589041E+02 -0.16235425141E+02  0.20270028322E+02  0.51100000000E-03 0.  1.
        -12    1    3    3    0    0 -0.11756997666E+02 -0.12809022471E+01 -0.98792810206E+01  0.15409993451E+02  0.00000000000E+00 0.  1.
</event>
<event>
 7    1  0.5006721E-012  0.5052886E+02  0.7816164E-02  0.1300439E+00
        -11   -1    0    0    0    0  0.00000000000E+00  0.00000000000E+00  0.45593999997E+02  0.45594000000E+02  0.51100000000E-03 0. -1.
         11   -1    0    0    0    0 -0.00000000000E+00 -0.00000000000E+00 -0.45593999997E+02  0.45594000000E+02  0.51100000000E-03 0.  1.
    9900012    2    1    2    0    0 -0.18333440153E+01 -0.23905359761E+02  0.32838061725E+02  0.50528859903E+02  0.30000000160E+02 0.  0.
        -12    1    1    2    0    0  0.18333440153E+01  0.23905359761E+02 -0.32838061725E+02  0.40659140097E+02  0.00000000000E+00 0.  1.
         11    1    3    3    0    0 -0.45381920275E+01 -0.19962210074E+02  0.10905370861E+02  0.23195088527E+02  0.51100000000E-03 0. -1.
        -11    1    3    3    0    0 -0.26439149089E-01  0.19658070591E+01  0.20594325488E+02  0.20687951541E+02  0.51100000000E-03 0.  1.
        -12    1    3    3    0    0  0.27312871613E+01 -0.59089567462E+01  0.13383653769E+01  0.66458198342E+01  0.00000000000E+00 0.  1.
</event>
<event>
 7    1  0.5006721E-012  0.5052886E+02  0.7816164E-02  0.1300439E+00
        -11   -1    0    0    0    0  0.00000000000E+00  0.00000000000E+00  0.45593999997E+02  0.45594000000E+02  0.51100000000E-03 0. -1.
         11   -1    0    0    0    0 -0.00000000000E+00 -0.00000000000E+00 -0.45593999997E+02  0.45594000000E+02  0.51100000000E-03 0.  1.
    9900012    2    1    2    0    0 -0.34363782818E+01  0.23892891288E+02 -0.32718297424E+02  0.50528856672E+02  0.29999990341E+02 0.  0.
         12    1    1    2    0    0  0.34363782818E+01 -0.23892891288E+02  0.32718297424E+02  0.40659143328E+02  0.00000000000E+00 0. -1.
         11    1    3    3    0    0  0.15230651922E+01 -0.93174971349E+00 -0.22267301761E+02  0.22338769283E+02  0.51100000000E-03 0. -1.
        -11    1    3    3    0    0 -0.18861099007E+01  0.20995424434E+02 -0.97667518916E+01  0.23232621472E+02  0.51100000000E-03 0.  1.
         12    1    3    3    0    0 -0.30733335733E+01  0.38292165684E+01 -0.68424377197E+00  0.49574659172E+01  0.00000000000E+00 0. -1.
</event>
<event>
 7    1  0.5006721E-012  0.5052884E+02  0.7816164E-02  0.1300439E+00
        -11   -1    0    0    0    0  0.00000000000E+00  0.00000000000E+00  0.45593999997E+02  0.45594000000E+02  0.51100000000E-03 0. -1.
         11   -1    0    0    0    0 -0.00000000000E+00 -0.00000000000E+00 -0.45593999997E+02  0.45594000000E+02  0.51100000000E-03 0.  1.
    9900012    2    1    2    0    0  0.69316751917E+01 -0.17181530324E+02  0.36192739891E+02  0.50528837121E+02  0.29999930912E+02 0.  0.
        -12    1    1    2    0    0 -0.69316751917E+01  0.17181530324E+02 -0.36192739891E+02  0.40659162879E+02  0.00000000000E+00 0.  1.
         11    1    3    3    0    0 -0.77859165324E+01  0.40366788553E+01  0.10559469370E+02  0.13726531465E+02  0.51100000000E-03 0. -1.
        -11    1    3    3    0    0  0.73120880840E+01 -0.12993240374E+02  0.17923899524E+02  0.23314311098E+02  0.51100000000E-03 0.  1.
         12    1    3    3    0    0  0.74055036402E+01 -0.82249688053E+01  0.77093709980E+01  0.13487994558E+02  0.00000000000E+00 0. -1.
</event>
<event>
 7    1  0.5006721E-012  0.5052885E+02  0.7816164E-02  0.1300439E+00
        -11   -1    0    0    0    0  0.00000000000E+00  0.00000000000E+00  0.45593999997E+02  0.45594000000E+02  0.51100000000E-03 0. -1.
         11   -1    0    0    0    0 -0.00000000000E+00 -0.00000000000E+00 -0.45593999997E+02  0.45594000000E+02  0.51100000000E-03 0.  1.
    9900012    2    1    2    0    0 -0.31469487177E+02 -0.85412665166E+01  0.24287536349E+02  0.50528852459E+02  0.29999977534E+02 0.  0.
        -12    1    1    2    0    0  0.31469487177E+02  0.85412665166E+01 -0.24287536349E+02  0.40659147541E+02  0.00000000000E+00 0.  1.
         11    1    3    3    0    0 -0.10931275369E+02 -0.46010542929E+01  0.21197117693E+02  0.24289509681E+02  0.51100000000E-03 0. -1.
        -11    1    3    3    0    0 -0.57172004379E+01  0.43039923412E+01 -0.35964294349E+01  0.80090596115E+01  0.51100000000E-03 0.  1.
        -12    1    3    3    0    0 -0.14821011370E+02 -0.82442045649E+01  0.66868480908E+01  0.18230283166E+02  0.00000000000E+00 0.  1.
</event>
<event>
 7    1  0.5006721E-012  0.5052886E+02  0.7816164E-02  0.1300439E+00
        -11   -1    0    0    0    0  0.00000000000E+00  0.00000000000E+00  0.45593999997E+02  0.45594000000E+02  0.51100000000E-03 0.  1.
         11   -1    0    0    0    0 -0.00000000000E+00 -0.00000000000E+00 -0.45593999997E+02  0.45594000000E+02  0.51100000000E-03 0. -1.
    9900012    2    1    2    0    0 -0.32416142772E+02 -0.16591008631E+02  0.18085834613E+02  0.50528864578E+02  0.30000014371E+02 0.  0.
        -12    1    1    2    0    0  0.32416142772E+02  0.16591008631E+02 -0.18085834613E+02  0.40659135422E+02  0.00000000000E+00 0.  1.
         11    1    3    3    0    0 -0.13374550323E+02 -0.33611759126E+01 -0.55380884062E+00  0.13801550796E+02  0.51100000000E-03 0. -1.
        -11    1    3    3    0    0 -0.55966223460E+00 -0.13070749489E+02  0.90233799622E+01  0.15892737342E+02  0.51100000000E-03 0.  1.
        -12    1    3    3    0    0 -0.18481930214E+02 -0.15908322985E+00  0.96162634911E+01  0.20834576440E+02  0.00000000000E+00 0.  1.
</event>
<event>
 7    1  0.5006721E-012  0.5052886E+02  0.7816164E-02  0.1300439E+00
        -11   -1    0    0    0    0  0.00000000000E+00  0.00000000000E+00  0.45593999997E+02  0.45594000000E+02  0.51100000000E-03 0. -1.
         11   -1    0    0    0    0 -0.00000000000E+00 -0.00000000000E+00 -0.45593999997E+02  0.45594000000E+02  0.51100000000E-03 0.  1.
    9900012    2    1    2    0    0 -0.13758203040E+02  0.29310098735E+02 -0.24592599923E+02  0.50528855767E+02  0.29999987590E+02 0.  0.
         12    1    1    2    0    0  0.13758203040E+02 -0.29310098735E+02  0.24592599923E+02  0.40659144233E+02  0.00000000000E+00 0. -1.
         11    1    3    3    0    0 -0.45638522778E+01 -0.13761624645E+01 -0.10576213220E+02  0.11600812777E+02  0.51100000000E-03 0. -1.
        -11    1    3    3    0    0  0.21846197727E+01  0.19711402663E+02 -0.11484756106E+02  0.22917495098E+02  0.51100000000E-03 0.  1.
         12    1    3    3    0    0 -0.11378970535E+02  0.10974858537E+02 -0.25316305979E+01  0.16010547893E+02  0.00000000000E+00 0. -1.
</event>
<event>
 7    1  0.5006721E-012  0.5052887E+02  0.7816164E-02  0.1300439E+00
        -11   -1    0    0    0    0  0.00000000000E+00  0.00000000000E+00  0.45593999997E+02  0.45594000000E+02  0.51100000000E-03 0.  1.
         11   -1    0    0    0    0 -0.00000000000E+00 -0.00000000000E+00 -0.45593999997E+02  0.45594000000E+02  0.51100000000E-03 0. -1.
    9900012    2    1    2    0    0 -0.26737615128E+02  0.28840156526E+02  0.10320361031E+02  0.50528873804E+02  0.30000042415E+02 0.  0.
         12    1    1    2    0    0  0.26737615128E+02 -0.28840156526E+02 -0.10320361031E+02  0.40659126196E+02  0.00000000000E+00 0. -1.
         11    1    3    3    0    0 -0.11065049223E+02  0.55035367950E+01 -0.52483014375E+01  0.13426425429E+02  0.51100000000E-03 0. -1.
        -11    1    3    3    0    0 -0.10127309441E+02  0.23421996785E+02  0.17812585981E+02  0.31119777465E+02  0.51100000000E-03 0.  1.
        -12    1    3    3    0    0 -0.55452564634E+01 -0.85377053819E-01 -0.22439235116E+01  0.59826709096E+01  0.00000000000E+00 0.  1.
</event>
<event>
 7    1  0.5006721E-012  0.5052886E+02  0.7816164E-02  0.1300439E+00
        -11   -1    0    0    0    0  0.00000000000E+00  0.00000000000E+00  0.45593999997E+02  0.45594000000E+02  0.51100000000E-03 0. -1.
         11   -1    0    0    0    0 -0.00000000000E+00 -0.00000000000E+00 -0.45593999997E+02  0.45594000000E+02  0.51100000000E-03 0.  1.
    9900012    2    1    2    0    0 -0.11784095665E+02 -0.38741833794E+02  0.36565921684E+01  0.50528864954E+02  0.30000015514E+02 0.  0.
        -12    1    1    2    0    0  0.11784095665E+02  0.38741833794E+02 -0.36565921684E+01  0.40659135046E+02  0.00000000000E+00 0.  1.
         11    1    3    3    0    0 -0.12200523002E+02 -0.32288047036E+02 -0.44398387646E+01  0.34800616538E+02  0.51100000000E-03 0. -1.
        -11    1    3    3    0    0  0.14164417999E+01  0.23628559606E+01 -0.10840843308E+01  0.29605125841E+01  0.51100000000E-03 0.  1.
         12    1    3    3    0    0 -0.10000144631E+01 -0.88166427190E+01  0.91805152638E+01  0.12767735832E+02  0.00000000000E+00 0. -1.
</event>
<event>
 7    1  0.5006721E-012  0.5052895E+02  0.7816164E-02  0.1300438E+00
        -11   -1    0    0    0    0  0.00000000000E+00  0.00000000000E+00  0.45593999997E+02  0.45594000000E+02  0.51100000000E-03 0. -1.
         11   -1    0    0    0    0 -0.00000000000E+00 -0.00000000000E+00 -0.45593999997E+02  0.45594000000E+02  0.51100000000E-03 0.  1.
    9900012    2    1    2    0    0  0.44295950632E+01  0.18753739836E+02 -0.35802710187E+02  0.50528952704E+02  0.30000282239E+02 0.  0.
         12    1    1    2    0    0 -0.44295950632E+01 -0.18753739836E+02  0.35802710187E+02  0.40659047296E+02  0.00000000000E+00 0. -1.
         11    1    3    3    0    0  0.15865947695E+01  0.83784025580E+01  0.17273358352E+01  0.87004943386E+01  0.51100000000E-03 0. -1.
        -11    1    3    3    0    0 -0.54996393410E+00 -0.37946649681E+01 -0.93153206650E+01  0.10073586348E+02  0.51100000000E-03 0.  1.
         12    1    3    3    0    0  0.33929642278E+01  0.14170002246E+02 -0.28214725357E+02  0.31754872018E+02  0.00000000000E+00 0. -1.
</event>
<event>
 7    1  0.5006721E-012  0.5052886E+02  0.7816164E-02  0.1300439E+00
        -11   -1    0    0    0    0  0.00000000000E+00  0.00000000000E+00  0.45593999997E+02  0.45594000000E+02  0.51100000000E-03 0. -1.
         11   -1    0    0    0    0 -0.00000000000E+00 -0.00000000000E+00 -0.45593999997E+02  0.45594000000E+02  0.51100000000E-03 0.  1.
    9900012    2    1    2    0    0 -0.34511081905E+02 -0.15706682190E+02 -0.14678236898E+02  0.50528864765E+02  0.30000014938E+02 0.  0.
         12    1    1    2    0    0  0.34511081905E+02  0.15706682190E+02  0.14678236898E+02  0.40659135235E+02  0.00000000000E+00 0. -1.
         11    1    3    3    0    0 -0.14532151204E+01  0.37153567615E+01  0.43200476097E+01  0.58803504711E+01  0.51100000000E-03 0. -1.
        -11    1    3    3    0    0 -0.16065763562E+02 -0.16734550844E+02 -0.10620963476E+02  0.25513894571E+02  0.51100000000E-03 0.  1.
         12    1    3    3    0    0 -0.16992103223E+02 -0.26874881084E+01 -0.83773210316E+01  0.19134619723E+02  0.00000000000E+00 0. -1.
</event>
<event>
 7    1  0.5006721E-012  0.5052887E+02  0.7816164E-02  0.1300439E+00
        -11   -1    0    0    0    0  0.00000000000E+00  0.00000000000E+00  0.45593999997E+02  0.45594000000E+02  0.51100000000E-03 0.  1.
         11   -1    0    0    0    0 -0.00000000000E+00 -0.00000000000E+00 -0.45593999997E+02  0.45594000000E+02  0.51100000000E-03 0. -1.
    9900012    2    1    2    0    0  0.29092964337E+02  0.28402386646E+02 -0.26288695373E+00  0.50528865102E+02  0.30000015965E+02 0.  0.
        -12    1    1    2    0    0 -0.29092964337E+02 -0.28402386646E+02  0.26288695373E+00  0.40659134898E+02  0.00000000000E+00 0.  1.
         11    1    3    3    0    0  0.19880304685E+02  0.22675516036E+02  0.48715505422E+01  0.30547300156E+02  0.51100000000E-03 0. -1.
        -11    1    3    3    0    0  0.62226094907E+01 -0.49263356521E+01 -0.39150781964E+01  0.88497169093E+01  0.51100000000E-03 0.  1.
        -12    1    3    3    0    0  0.29900501611E+01  0.10653206261E+02 -0.12193592995E+01  0.11131848037E+02  0.00000000000E+00 0.  1.
</event>
<event>
 7    1  0.5006721E-012  0.5052888E+02  0.7816164E-02  0.1300439E+00
        -11   -1    0    0    0    0  0.00000000000E+00  0.00000000000E+00  0.45593999997E+02  0.45594000000E+02  0.51100000000E-03 0.  1.
         11   -1    0    0    0    0 -0.00000000000E+00 -0.00000000000E+00 -0.45593999997E+02  0.45594000000E+02  0.51100000000E-03 0. -1.
    9900012    2    1    2    0    0 -0.63583983289E+01  0.39607434058E+02 -0.66321946056E+01  0.50528879655E+02  0.30000060198E+02 0.  0.
         12    1    1    2    0    0  0.63583983289E+01 -0.39607434058E+02  0.66321946056E+01  0.40659120345E+02  0.00000000000E+00 0. -1.
         11    1    3    3    0    0 -0.40878378532E+01  0.32558039884E+01 -0.78658271173E+01  0.94436176556E+01  0.51100000000E-03 0. -1.
        -11    1    3    3    0    0  0.15189326706E+01  0.26254437874E+02  0.89992385485E+01  0.27795484512E+02  0.51100000000E-03 0.  1.
        -12    1    3    3    0    0 -0.37894931463E+01  0.10097192196E+02 -0.77656060369E+01  0.13289777487E+02  0.00000000000E+00 0.  1.
</event>
<event>
 7    1  0.5006721E-012  0.5052885E+02  0.7816164E-02  0.1300439E+00
        -11   -1    0    0    0    0  0.00000000000E+00  0.00000000000E+00  0.45593999997E+02  0.45594000000E+02  0.51100000000E-03 0. -1.
         11   -1    0    0    0    0 -0.00000000000E+00 -0.00000000000E+00 -0.45593999997E+02  0.45594000000E+02  0.51100000000E-03 0.  1.
    9900012    2    1    2    0    0  0.27810163869E+02  0.10621867906E+02 -0.27693627972E+02  0.50528851922E+02  0.29999975901E+02 0.  0.
         12    1    1    2    0    0 -0.27810163869E+02 -0.10621867906E+02  0.27693627972E+02  0.40659148078E+02  0.00000000000E+00 0. -1.
         11    1    3    3    0    0 -0.35716692964E+01  0.31559114058E+00  0.22581908973E+01  0.42374338603E+01  0.51100000000E-03 0. -1.
        -11    1    3    3    0    0  0.24133075498E+02  0.71160268983E+01 -0.28874796567E+02  0.38298786519E+02  0.51100000000E-03 0.  1.
         12    1    3    3    0    0  0.72487576669E+01  0.31902498668E+01 -0.10770223022E+01  0.79926315419E+01  0.00000000000E+00 0. -1.
</event>
<event>
 7    1  0.5006721E-012  0.5052883E+02  0.7816164E-02  0.1300439E+00
        -11   -1    0    0    0    0  0.00000000000E+00  0.00000000000E+00  0.45593999997E+02  0.45594000000E+02  0.51100000000E-03 0. -1.
         11   -1    0    0    0    0 -0.00000000000E+00 -0.00000000000E+00 -0.45593999997E+02  0.45594000000E+02  0.51100000000E-03 0.  1.
    9900012    2    1    2    0    0  0.54003943452E+01  0.13048930988E+02  0.38127805066E+02  0.50528826642E+02  0.29999899061E+02 0.  0.
        -12    1    1    2    0    0 -0.54003943452E+01 -0.13048930988E+02 -0.38127805066E+02  0.40659173358E+02  0.00000000000E+00 0.  1.
         11    1    3    3    0    0  0.15045848333E+02 -0.36797109126E+00  0.24762796533E+02  0.28977733644E+02  0.51100000000E-03 0. -1.
        -11    1    3    3    0    0 -0.20509549568E+01  0.24777366826E+01  0.97317657126E+00  0.33604565468E+01  0.51100000000E-03 0.  1.
         12    1    3    3    0    0 -0.75944990312E+01  0.10939165397E+02  0.12391831962E+02  0.18190636451E+02  0.00000000000E+00 0. -1.
</event>
<event>
 7    1  0.5006721E-012  0.5052886E+02  0.7816164E-02  0.1300439E+00
        -11   -1    0    0    0    0  0.00000000000E+00  0.00000000000E+00  0.45593999997E+02  0.45594000000E+02  0.51100000000E-03 0. -1.
         11   -1    0    0    0    0 -0.00000000000E+00 -0.00000000000E+00 -0.45593999997E+02  0.45594000000E+02  0.51100000000E-03 0.  1.
    9900012    2    1    2    0    0 -0.33087602784E+01 -0.14120014155E+02 -0.37984778154E+02  0.50528855079E+02  0.29999985497E+02 0.  0.
         12    1    1    2    0    0  0.33087602784E+01  0.14120014155E+02  0.37984778154E+02  0.40659144921E+02  0.00000000000E+00 0. -1.
         11    1    3    3    0    0 -0.42307956615E+01 -0.73032207239E+01 -0.28379898233E+01  0.89045410533E+01  0.51100000000E-03 0. -1.
        -11    1    3    3    0    0  0.74400302864E+01 -0.93563267889E+01 -0.31591411513E+02  0.33777391600E+02  0.51100000000E-03 0.  1.
        -12    1    3    3    0    0 -0.65179949033E+01  0.25395333577E+01 -0.35553768172E+01  0.78469224252E+01  0.00000000000E+00 0.  1.
</event>
<event>
 7    1  0.5006721E-012  0.5052887E+02  0.7816164E-02  0.1300439E+00
        -11   -1    0    0    0    0  0.00000000000E+00  0.00000000000E+00  0.45593999997E+02  0.45594000000E+02  0.51100000000E-03 0. -1.
         11   -1    0    0    0    0 -0.00000000000E+00 -0.00000000000E+00 -0.45593999997E+02  0.45594000000E+02  0.51100000000E-03 0.  1.
    9900012    2    1    2    0    0  0.13960073526E+02 -0.22092189483E+02  0.31148299452E+02  0.50528867597E+02  0.30000023547E+02 0.  0.
        -12    1    1    2    0    0 -0.13960073526E+02  0.22092189483E+02 -0.31148299452E+02  0.40659132403E+02  0.00000000000E+00 0.  1.
         11    1    3    3    0    0  0.77703784567E+01 -0.83065885299E+01  0.22096417943E+02  0.24852160480E+02  0.51100000000E-03 0.  1.
        -11    1    3    3    0    0 -0.29810265330E+01 -0.11283518764E+02 -0.11564048109E+01  0.11727812552E+02  0.51100000000E-03 0. -1.
         12    1    3    3    0    0  0.91707216025E+01 -0.25020821884E+01  0.10208286320E+02  0.13948894565E+02  0.00000000000E+00 0. -1.
</event>
<event>
 7    1  0.5316251E-012  0.5052887E+02  0.7816164E-02  0.1300439E+00
        -11   -1    0    0    0    0  0.00000000000E+00  0.00000000000E+00  0.45593999997E+02  0.45594000000E+02  0.51100000000E-03 0. -1.
         11   -1    0    0    0    0 -0.00000000000E+00 -0.00000000000E+00 -0.45593999997E+02  0.45594000000E+02  0.51100000000E-03 0.  1.
    9900012    2    1    2    0    0  0.25558982972E+02 -0.14062972980E+02  0.28322012153E+02  0.50528865824E+02  0.30000018157E+02 0.  0.
        -12    1    1    2    0    0 -0.25558982972E+02  0.14062972980E+02 -0.28322012153E+02  0.40659134176E+02  0.00000000000E+00 0.  1.
         11    1    3    3    0    0  0.17242669397E+02  0.32957016801E+01  0.21203688711E+02  0.27527580945E+02  0.51100000000E-03 0. -1.
        -11    1    3    3    0    0 -0.74567705829E-01 -0.51545421422E+01 -0.20889012422E+01  0.55622274045E+01  0.51100000000E-03 0.  1.
         12    1    3    3    0    0  0.83908812809E+01 -0.12204132518E+02  0.92072246839E+01  0.17439057474E+02  0.00000000000E+00 0. -1.
</event>
<event>
 7    1  0.5006721E-012  0.5052887E+02  0.7816164E-02  0.1300439E+00
        -11   -1    0    0    0    0  0.00000000000E+00  0.00000000000E+00  0.45593999997E+02  0.45594000000E+02  0.51100000000E-03 0. -1.
         11   -1    0    0    0    0 -0.00000000000E+00 -0.00000000000E+00 -0.45593999997E+02  0.45594000000E+02  0.51100000000E-03 0.  1.
    9900012    2    1    2    0    0  0.13742363349E+02  0.25169033028E+01 -0.38183468724E+02  0.50528872656E+02  0.30000038924E+02 0.  0.
         12    1    1    2    0    0 -0.13742363349E+02 -0.25169033028E+01  0.38183468724E+02  0.40659127344E+02  0.00000000000E+00 0. -1.
         11    1    3    3    0    0  0.59104723718E+01 -0.23598471684E+00  0.20515430470E+01  0.62608467142E+01  0.51100000000E-03 0. -1.
        -11    1    3    3    0    0 -0.14007021288E+01  0.57334178913E+01 -0.28192506979E+02  0.28803671592E+02  0.51100000000E-03 0.  1.
        -12    1    3    3    0    0  0.92325931060E+01 -0.29805298717E+01 -0.12042504791E+02  0.15464354349E+02  0.00000000000E+00 0.  1.
</event>
<event>
 7    1  0.5006721E-012  0.5052887E+02  0.7816164E-02  0.1300439E+00
        -11   -1    0    0    0    0  0.00000000000E+00  0.00000000000E+00  0.45593999997E+02  0.45594000000E+02  0.51100000000E-03 0. -1.
         11   -1    0    0    0    0 -0.00000000000E+00 -0.00000000000E+00 -0.45593999997E+02  0.45594000000E+02  0.51100000000E-03 0.  1.
    9900012    2    1    2    0    0  0.47861317520E+01 -0.18121440817E+02 -0.36081456668E+02  0.50528865851E+02  0.30000018242E+02 0.  0.
         12    1    1    2    0    0 -0.47861317520E+01  0.18121440817E+02  0.36081456668E+02  0.40659134149E+02  0.00000000000E+00 0. -1.
         11    1    3    3    0    0  0.11604235641E+02 -0.22606893272E+01 -0.15313392846E+02  0.19346033230E+02  0.51100000000E-03 0. -1.
        -11    1    3    3    0    0 -0.54507236763E+01  0.86281298482E+00 -0.16808752218E+01  0.57688973482E+01  0.51100000000E-03 0.  1.
        -12    1    3    3    0    0 -0.13673802124E+01 -0.16723564475E+02 -0.19087188600E+02  0.25413935273E+02  0.00000000000E+00 0.  1.
</event>
<event>
 7    1  0.5006721E-012  0.5052886E+02  0.7816164E-02  0.1300439E+00
        -11   -1    0    0    0    0  0.00000000000E+00  0.00000000000E+00  0.45593999997E+02  0.45594000000E+02  0.51100000000E-03 0. -1.
         11   -1    0    0    0    0 -0.00000000000E+00 -0.00000000000E+00 -0.45593999997E+02  0.45594000000E+02  0.51100000000E-03 0.  1.
    9900012    2    1    2    0    0 -0.18337046725E+02 -0.23774469122E+02  0.27417026616E+02  0.50528855726E+02  0.29999987465E+02 0.  0.
        -12    1    1    2    0    0  0.18337046725E+02  0.23774469122E+02 -0.27417026616E+02  0.40659144274E+02  0.00000000000E+00 0.  1.
         11    1    3    3    0    0 -0.26818933564E+01 -0.99123632718E+01  0.19168773228E+02  0.21746019519E+02  0.51100000000E-03 0. -1.
        -11    1    3    3    0    0 -0.19542309927E+01 -0.46050986272E-01 -0.49159850197E+01  0.52903731855E+01  0.51100000000E-03 0.  1.
        -12    1    3    3    0    0 -0.13700922376E+02 -0.13816054864E+02  0.13164238408E+02  0.23492463021E+02  0.00000000000E+00 0.  1.
</event>
<event>
 7    1  0.5006721E-012  0.5052886E+02  0.7816164E-02  0.1300439E+00
        -11   -1    0    0    0    0  0.00000000000E+00  0.00000000000E+00  0.45593999997E+02  0.45594000000E+02  0.51100000000E-03 0.  1.
         11   -1    0    0    0    0 -0.00000000000E+00 -0.00000000000E+00 -0.45593999997E+02  0.45594000000E+02  0.51100000000E-03 0. -1.
    9900012    2    1    2    0    0 -0.40018497702E+02 -0.61533262512E+01  0.37178594412E+01  0.50528855135E+02  0.29999985669E+02 0.  0.
        -12    1    1    2    0    0  0.40018497702E+02  0.61533262512E+01 -0.37178594412E+01  0.40659144865E+02  0.00000000000E+00 0.  1.
         11    1    3    3    0    0 -0.31599481939E+02  0.53131241324E+01  0.34177697940E+01  0.32224799417E+02  0.51100000000E-03 0. -1.
        -11    1    3    3    0    0  0.17866904429E+01 -0.23788668472E+00 -0.22865919489E+01  0.29115899120E+01  0.51100000000E-03 0.  1.
         12    1    3    3    0    0 -0.10205706207E+02 -0.11228563699E+02  0.25866815962E+01  0.15392465806E+02  0.00000000000E+00 0. -1.
</event>
<event>
 7    1  0.5006721E-012  0.5052886E+02  0.7816164E-02  0.1300439E+00
        -11   -1    0    0    0    0  0.00000000000E+00  0.00000000000E+00  0.45593999997E+02  0.45594000000E+02  0.51100000000E-03 0. -1.
         11   -1    0    0    0    0 -0.00000000000E+00 -0.00000000000E+00 -0.45593999997E+02  0.45594000000E+02  0.51100000000E-03 0.  1.
    9900012    2    1    2    0    0  0.16453422848E+02  0.57914059044E+01 -0.36727507948E+02  0.50528863931E+02  0.30000012405E+02 0.  0.
         12    1    1    2    0    0 -0.16453422848E+02 -0.57914059044E+01  0.36727507948E+02  0.40659136069E+02  0.00000000000E+00 0. -1.
         11    1    3    3    0    0  0.17044786651E+02  0.26820162509E+01 -0.92314976889E+01  0.19568814808E+02  0.51100000000E-03 0. -1.
        -11    1    3    3    0    0  0.41274994456E+00 -0.17587664268E+01 -0.25563045096E+02  0.25626800360E+02  0.51100000000E-03 0.  1.
        -12    1    3    3    0    0 -0.10041137481E+01  0.48681560802E+01 -0.19329651635E+01  0.53332487626E+01  0.00000000000E+00 0.  1.
</event>
<event>
 7    1  0.5006721E-012  0.5052879E+02  0.7816164E-02  0.1300439E+00
        -11   -1    0    0    0    0  0.00000000000E+00  0.00000000000E+00  0.45593999997E+02  0.45594000000E+02  0.51100000000E-03 0.  1.
         11   -1    0    0    0    0 -0.00000000000E+00 -0.00000000000E+00 -0.45593999997E+02  0.45594000000E+02  0.51100000000E-03 0. -1.
    9900012    2    1    2    0    0 -0.13960915861E+02 -0.27163472032E+02 -0.26840453713E+02  0.50528790219E+02  0.29999788349E+02 0.  0.
         12    1    1    2    0    0  0.13960915861E+02  0.27163472032E+02  0.26840453713E+02  0.40659209781E+02  0.00000000000E+00 0. -1.
         11    1    3    3    0    0  0.41467337741E+01  0.26782990225E+01 -0.28670431149E+01  0.57086445967E+01  0.51100000000E-03 0. -1.
        -11    1    3    3    0    0 -0.20152981069E+02 -0.24963980738E+02 -0.22914072994E+02  0.39425850932E+02  0.51100000000E-03 0.  1.
        -12    1    3    3    0    0  0.20453314340E+01 -0.48777903165E+01 -0.10593376039E+01  0.53942946903E+01  0.00000000000E+00 0.  1.
</event>
<event>
 7    1  0.5006721E-012  0.5052886E+02  0.7816164E-02  0.1300439E+00
        -11   -1    0    0    0    0  0.00000000000E+00  0.00000000000E+00  0.45593999997E+02  0.45594000000E+02  0.51100000000E-03 0. -1.
         11   -1    0    0    0    0 -0.00000000000E+00 -0.00000000000E+00 -0.45593999997E+02  0.45594000000E+02  0.51100000000E-03 0.  1.
    9900012    2    1    2    0    0  0.20096758764E+02  0.13757109354E+01 -0.35318455783E+02  0.50528860655E+02  0.30000002448E+02 0.  0.
         12    1    1    2    0    0 -0.20096758764E+02 -0.13757109354E+01  0.35318455783E+02  0.40659139345E+02  0.00000000000E+00 0. -1.
         11    1    3    3    0    0  0.20436188617E+02 -0.85549772959E+01 -0.16737107697E+02  0.27766098322E+02  0.51100000000E-03 0. -1.
        -11    1    3    3    0    0  0.23155653134E+01  0.59291061899E+01 -0.16193535730E+02  0.17399619037E+02  0.51100000000E-03 0.  1.
         12    1    3    3    0    0 -0.26549951664E+01  0.40015820415E+01 -0.23878123558E+01  0.53631432961E+01  0.00000000000E+00 0. -1.
</event>
<event>
 7    1  0.5006721E-012  0.5052886E+02  0.7816164E-02  0.1300439E+00
        -11   -1    0    0    0    0  0.00000000000E+00  0.00000000000E+00  0.45593999997E+02  0.45594000000E+02  0.51100000000E-03 0.  1.
         11   -1    0    0    0    0 -0.00000000000E+00 -0.00000000000E+00 -0.45593999997E+02  0.45594000000E+02  0.51100000000E-03 0. -1.
    9900012    2    1    2    0    0 -0.12996917246E+02  0.35549214539E+02 -0.14849213189E+02  0.50528860258E+02  0.30000001239E+02 0.  0.
        -12    1    1    2    0    0  0.12996917246E+02 -0.35549214539E+02  0.14849213189E+02  0.40659139742E+02  0.00000000000E+00 0.  1.
         11    1    3    3    0    0 -0.15771482465E+02  0.85293847595E+01 -0.10644939827E+02  0.20851973713E+02  0.51100000000E-03 0. -1.
        -11    1    3    3    0    0  0.52036035475E+01  0.64271805302E+01 -0.33545252048E+01  0.89240674055E+01  0.51100000000E-03 0.  1.
         12    1    3    3    0    0 -0.24290383280E+01  0.20592649249E+02 -0.84974815712E+00  0.20752819140E+02  0.00000000000E+00 0. -1.
</event>
<event>
 7    1  0.5006721E-012  0.5052887E+02  0.7816164E-02  0.1300439E+00
        -11   -1    0    0    0    0  0.00000000000E+00  0.00000000000E+00  0.45593999997E+02  0.45594000000E+02  0.51100000000E-03 0. -1.
         11   -1    0    0    0    0 -0.00000000000E+00 -0.00000000000E+00 -0.45593999997E+02  0.45594000000E+02  0.51100000000E-03 0.  1.
    9900012    2    1    2    0    0 -0.49035481428E+01  0.20677650082E+02 -0.34663455659E+02  0.50528866272E+02  0.30000019520E+02 0.  0.
         12    1    1    2    0    0  0.49035481428E+01 -0.20677650082E+02  0.34663455659E+02  0.40659133728E+02  0.00000000000E+00 0. -1.
         11    1    3    3    0    0  0.45024624553E+01  0.13395369317E+02 -0.87409152299E+01  0.16616608758E+02  0.51100000000E-03 0. -1.
        -11    1    3    3    0    0 -0.66797609548E+01  0.18034262232E+00 -0.25425363883E+02  0.26288797209E+02  0.51100000000E-03 0.  1.
        -12    1    3    3    0    0 -0.27262496432E+01  0.71019381423E+01 -0.49717654632E+00  0.76234603044E+01  0.00000000000E+00 0.  1.
</event>
<event>
 7    1  0.5006721E-012  0.5052886E+02  0.7816164E-02  0.1300439E+00
        -11   -1    0    0    0    0  0.00000000000E+00  0.00000000000E+00  0.45593999997E+02  0.45594000000E+02  0.51100000000E-03 0. -1.
         11   -1    0    0    0    0 -0.00000000000E+00 -0.00000000000E+00 -0.45593999997E+02  0.45594000000E+02  0.51100000000E-03 0.  1.
    9900012    2    1    2    0    0  0.43898457751E+00 -0.16583563610E+02 -0.37120861532E+02  0.50528860187E+02  0.30000001024E+02 0.  0.
         12    1    1    2    0    0 -0.43898457751E+00  0.16583563610E+02  0.37120861532E+02  0.40659139813E+02  0.00000000000E+00 0. -1.
         11    1    3    3    0    0 -0.26984077129E+01  0.42637328937E+01 -0.18960008148E+02  0.19619957482E+02  0.51100000000E-03 0. -1.
        -11    1    3    3    0    0  0.80724188024E+01 -0.10576983203E+02 -0.12187705518E+02  0.18043743654E+02  0.51100000000E-03 0.  1.
         12    1    3    3    0    0 -0.49350265119E+01 -0.10270313301E+02 -0.59731478663E+01  0.12865159051E+02  0.00000000000E+00 0. -1.
</event>
<event>
 7    1  0.5006721E-012  0.5052885E+02  0.7816164E-02  0.1300439E+00
        -11   -1    0    0    0    0  0.00000000000E+00  0.00000000000E+00  0.45593999997E+02  0.45594000000E+02  0.51100000000E-03 0. -1.
         11   -1    0    0    0    0 -0.00000000000E+00 -0.00000000000E+00 -0.45593999997E+02  0.45594000000E+02  0.51100000000E-03 0.  1.
    9900012    2    1    2    0    0 -0.15574663994E+02 -0.30138741896E+02 -0.22410994576E+02  0.50528848515E+02  0.29999965546E+02 0.  0.
         12    1    1    2    0    0  0.15574663994E+02  0.30138741896E+02  0.22410994576E+02  0.40659151485E+02  0.00000000000E+00 0. -1.
         11    1    3    3    0    0 -0.12076614946E+01  0.37823900043E+01 -0.28818854629E+01  0.49061374331E+01  0.51100000000E-03 0. -1.
        -11    1    3    3    0    0 -0.29897710544E+01 -0.28099472730E+02 -0.15458026062E+02  0.32209775980E+02  0.51100000000E-03 0.  1.
         12    1    3    3    0    0 -0.11377231445E+02 -0.58216591704E+01 -0.40710830509E+01  0.13412935102E+02  0.00000000000E+00 0. -1.
</event>
<event>
 7    1  0.5006721E-012  0.5052885E+02  0.7816164E-02  0.1300439E+00
        -11   -1    0    0    0    0  0.00000000000E+00  0.00000000000E+00  0.45593999997E+02  0.45594000000E+02  0.51100000000E-03 0.  1.
         11   -1    0    0    0    0 -0.00000000000E+00 -0.00000000000E+00 -0.45593999997E+02  0.45594000000E+02  0.51100000000E-03 0. -1.
    9900012    2    1    2    0    0 -0.33515212273E+02 -0.21063589656E+02  0.92855931163E+01  0.50528849708E+02  0.29999969173E+02 0.  0.
         12    1    1    2    0    0  0.33515212273E+02  0.21063589656E+02 -0.92855931163E+01  0.40659150292E+02  0.00000000000E+00 0. -1.
         11    1    3    3    0    0  0.39176312213E+01 -0.17762954592E+00  0.56531579492E+01  0.68802312244E+01  0.51100000000E-03 0. -1.
        -11    1    3    3    0    0 -0.26215314837E+02 -0.14376326056E+02 -0.89410263392E+00  0.29911885642E+02  0.51100000000E-03 0.  1.
        -12    1    3    3    0    0 -0.11217528657E+02 -0.65096340548E+01  0.45265378011E+01  0.13736732842E+02  0.00000000000E+00 0.  1.
</event>
<event>
 7    1  0.5006721E-012  0.5052886E+02  0.7816164E-02  0.1300439E+00
        -11   -1    0    0    0    0  0.00000000000E+00  0.00000000000E+00  0.45593999997E+02  0.45594000000E+02  0.51100000000E-03 0. -1.
         11   -1    0    0    0    0 -0.00000000000E+00 -0.00000000000E+00 -0.45593999997E+02  0.45594000000E+02  0.51100000000E-03 0.  1.
    9900012    2    1    2    0    0 -0.24694615838E+02  0.18886935537E+02 -0.26203541556E+02  0.50528856189E+02  0.29999988873E+02 0.  0.
         12    1    1    2    0    0  0.24694615838E+02 -0.18886935537E+02  0.26203541556E+02  0.40659143811E+02  0.00000000000E+00 0. -1.
         11    1    3    3    0    0 -0.21158006240E+02  0.10069363181E+02 -0.24072434648E+01  0.23555214376E+02  0.51100000000E-03 0. -1.
        -11    1    3    3    0    0 -0.32497027182E+01  0.10154537445E+02 -0.23094176107E+02  0.25436512513E+02  0.51100000000E-03 0.  1.
         12    1    3    3    0    0 -0.28690687952E+00 -0.13369650895E+01 -0.70212198403E+00  0.15371293012E+01  0.00000000000E+00 0. -1.
</event>
<event>
 7    1  0.5006721E-012  0.5052886E+02  0.7816164E-02  0.1300439E+00
        -11   -1    0    0    0    0  0.00000000000E+00  0.00000000000E+00  0.45593999997E+02  0.45594000000E+02  0.51100000000E-03 0.  1.
         11   -1    0    0    0    0 -0.00000000000E+00 -0.00000000000E+00 -0.45593999997E+02  0.45594000000E+02  0.51100000000E-03 0. -1.
    9900012    2    1    2    0    0 -0.72916853685E+01  0.33054975199E+02  0.22524778886E+02  0.50528859272E+02  0.29999998242E+02 0.  0.
        -12    1    1    2    0    0  0.72916853685E+01 -0.33054975199E+02 -0.22524778886E+02  0.40659140728E+02  0.00000000000E+00 0.  1.
         11    1    3    3    0    0 -0.57848208401E+01 -0.34623157165E+01  0.33734574354E+01  0.75386999942E+01  0.51100000000E-03 0. -1.
        -11    1    3    3    0    0 -0.38311144924E+01  0.12593918789E+02  0.12252846049E+02  0.17983783397E+02  0.51100000000E-03 0.  1.
         12    1    3    3    0    0  0.23242499640E+01  0.23923372127E+02  0.68984754011E+01  0.25006375880E+02  0.00000000000E+00 0. -1.
</event>
<event>
 7    1  0.5006721E-012  0.5052885E+02  0.7816164E-02  0.1300439E+00
        -11   -1    0    0    0    0  0.00000000000E+00  0.00000000000E+00  0.45593999997E+02  0.45594000000E+02  0.51100000000E-03 0.  1.
         11   -1    0    0    0    0 -0.00000000000E+00 -0.00000000000E+00 -0.45593999997E+02  0.45594000000E+02  0.51100000000E-03 0. -1.
    9900012    2    1    2    0    0  0.37209163051E+02  0.95663990485E+01 -0.13308980785E+02  0.50528846354E+02  0.29999958977E+02 0.  0.
         12    1    1    2    0    0 -0.37209163051E+02 -0.95663990485E+01  0.13308980785E+02  0.40659153646E+02  0.00000000000E+00 0. -1.
         11    1    3    3    0    0  0.58357171873E+01  0.10166998173E+02  0.11513233842E+01  0.11779176233E+02  0.51100000000E-03 0.  1.
        -11    1    3    3    0    0  0.28972809384E+02 -0.59387827379E+01 -0.94595658961E+01  0.31051186954E+02  0.51100000000E-03 0. -1.
         12    1    3    3    0    0  0.24006364792E+01  0.53381836139E+01 -0.50007382731E+01  0.76984831673E+01  0.00000000000E+00 0. -1.
</event>
<event>
 7    1  0.5006721E-012  0.5052887E+02  0.7816164E-02  0.1300439E+00
        -11   -1    0    0    0    0  0.00000000000E+00  0.00000000000E+00  0.45593999997E+02  0.45594000000E+02  0.51100000000E-03 0. -1.
         11   -1    0    0    0    0 -0.00000000000E+00 -0.00000000000E+00 -0.45593999997E+02  0.45594000000E+02  0.51100000000E-03 0.  1.
    9900012    2    1    2    0    0 -0.15190372797E+02 -0.15541024122E+02  0.34364141753E+02  0.50528867018E+02  0.30000021786E+02 0.  0.
        -12    1    1    2    0    0  0.15190372797E+02  0.15541024122E+02 -0.34364141753E+02  0.40659132982E+02  0.00000000000E+00 0.  1.
         11    1    3    3    0    0 -0.23485518303E+01 -0.13681822679E+02  0.16760231164E+02  0.21762658764E+02  0.51100000000E-03 0.  1.
        -11    1    3    3    0    0 -0.80643454836E+01  0.80938575607E+01  0.11217895700E+02  0.16012038674E+02  0.51100000000E-03 0. -1.
        -12    1    3    3    0    0 -0.47774754834E+01 -0.99530590033E+01  0.63860148886E+01  0.12754169580E+02  0.00000000000E+00 0.  1.
</event>
<event>
 7    1  0.5006721E-012  0.5052886E+02  0.7816164E-02  0.1300439E+00
        -11   -1    0    0    0    0  0.00000000000E+00  0.00000000000E+00  0.45593999997E+02  0.45594000000E+02  0.51100000000E-03 0. -1.
         11   -1    0    0    0    0 -0.00000000000E+00 -0.00000000000E+00 -0.45593999997E+02  0.45594000000E+02  0.51100000000E-03 0.  1.
    9900012    2    1    2    0    0  0.13841486544E+02  0.25963600242E+02 -0.28061901077E+02  0.50528861060E+02  0.30000003679E+02 0.  0.
         12    1    1    2    0    0 -0.13841486544E+02 -0.25963600242E+02  0.28061901077E+02  0.40659138940E+02  0.00000000000E+00 0. -1.
         11    1    3    3    0    0  0.21988183455E+02  0.11573191066E+02 -0.20659869520E+02  0.32314844451E+02  0.51100000000E-03 0.  1.
        -11    1    3    3    0    0 -0.43430765685E+01  0.91492970540E+01 -0.51151609486E+01  0.11346225031E+02  0.51100000000E-03 0. -1.
        -12    1    3    3    0    0 -0.38036203418E+01  0.52411121214E+01 -0.22868706089E+01  0.68677915778E+01  0.00000000000E+00 0.  1.
</event>
<event>
 7    1  0.5006721E-012  0.5052886E+02  0.7816164E-02  0.1300439E+00
        -11   -1    0    0    0    0  0.00000000000E+00  0.00000000000E+00  0.45593999997E+02  0.45594000000E+02  0.51100000000E-03 0. -1.
         11   -1    0    0    0    0 -0.00000000000E+00 -0.00000000000E+00 -0.45593999997E+02  0.45594000000E+02  0.51100000000E-03 0.  1.
    9900012    2    1    2    0    0 -0.18118721131E+02  0.20385903120E+02  0.30154475854E+02  0.50528861846E+02  0.30000006067E+02 0.  0.
        -12    1    1    2    0    0  0.18118721131E+02 -0.20385903120E+02 -0.30154475854E+02  0.40659138154E+02  0.00000000000E+00 0.  1.
         11    1    3    3    0    0 -0.33621562639E+01 -0.32040792540E+01 -0.38127031531E+00  0.46599984896E+01  0.51100000000E-03 0. -1.
        -11    1    3    3    0    0 -0.17912557005E+02  0.22096082634E+02  0.31300468069E+02  0.42294395229E+02  0.51100000000E-03 0.  1.
        -12    1    3    3    0    0  0.31559921379E+01  0.14938997396E+01 -0.76472190002E+00  0.35744681270E+01  0.00000000000E+00 0.  1.
</event>
<event>
 7    1  0.5006721E-012  0.5052882E+02  0.7816164E-02  0.1300439E+00
        -11   -1    0    0    0    0  0.00000000000E+00  0.00000000000E+00  0.45593999997E+02  0.45594000000E+02  0.51100000000E-03 0. -1.
         11   -1    0    0    0    0 -0.00000000000E+00 -0.00000000000E+00 -0.45593999997E+02  0.45594000000E+02  0.51100000000E-03 0.  1.
    9900012    2    1    2    0    0 -0.22971919548E+02 -0.98167297228E+01 -0.32079453881E+02  0.50528823527E+02  0.29999889591E+02 0.  0.
         12    1    1    2    0    0  0.22971919548E+02  0.98167297228E+01  0.32079453881E+02  0.40659176473E+02  0.00000000000E+00 0. -1.
         11    1    3    3    0    0  0.36136520440E+01 -0.94110097305E+01 -0.20322436180E+01  0.10283754160E+02  0.51100000000E-03 0. -1.
        -11    1    3    3    0    0 -0.14919480844E+02  0.12628691260E+01 -0.17503062263E+02  0.23033517663E+02  0.51100000000E-03 0.  1.
         12    1    3    3    0    0 -0.11666090748E+02 -0.16685891183E+01 -0.12544148000E+02  0.17211551704E+02  0.00000000000E+00 0. -1.
</event>
<event>
 7    1  0.5006721E-012  0.5052886E+02  0.7816164E-02  0.1300439E+00
        -11   -1    0    0    0    0  0.00000000000E+00  0.00000000000E+00  0.45593999997E+02  0.45594000000E+02  0.51100000000E-03 0. -1.
         11   -1    0    0    0    0 -0.00000000000E+00 -0.00000000000E+00 -0.45593999997E+02  0.45594000000E+02  0.51100000000E-03 0.  1.
    9900012    2    1    2    0    0 -0.35367414053E+02  0.26288088157E+00  0.20055976169E+02  0.50528864947E+02  0.30000015493E+02 0.  0.
        -12    1    1    2    0    0  0.35367414053E+02 -0.26288088157E+00 -0.20055976169E+02  0.40659135053E+02  0.00000000000E+00 0.  1.
         11    1    3    3    0    0 -0.16360402884E+02  0.67464523223E+01  0.16871318435E+02  0.24450333074E+02  0.51100000000E-03 0. -1.
        -11    1    3    3    0    0 -0.28246729361E+01 -0.76981375534E+01 -0.29720961035E+01  0.87220097739E+01  0.51100000000E-03 0.  1.
        -12    1    3    3    0    0 -0.16182338234E+02  0.12145661126E+01  0.61567538372E+01  0.17356522099E+02  0.00000000000E+00 0.  1.
</event>
<event>
 7    1  0.5006721E-012  0.5052886E+02  0.7816164E-02  0.1300439E+00
        -11   -1    0    0    0    0  0.00000000000E+00  0.00000000000E+00  0.45593999997E+02  0.45594000000E+02  0.51100000000E-03 0. -1.
         11   -1    0    0    0    0 -0.00000000000E+00 -0.00000000000E+00 -0.45593999997E+02  0.45594000000E+02  0.51100000000E-03 0.  1.
    9900012    2    1    2    0    0 -0.29818507543E+01 -0.25495156186E+02  0.31532066032E+02  0.50528860669E+02  0.30000002491E+02 0.  0.
        -12    1    1    2    0    0  0.29818507543E+01  0.25495156186E+02 -0.31532066032E+02  0.40659139331E+02  0.00000000000E+00 0.  1.
         11    1    3    3    0    0 -0.25443891673E+00 -0.22727531959E+01  0.57291901070E+01  0.61687734434E+01  0.51100000000E-03 0. -1.
        -11    1    3    3    0    0 -0.21937305287E+01 -0.78374419312E+00  0.21351160929E+02  0.21477867256E+02  0.51100000000E-03 0.  1.
        -12    1    3    3    0    0 -0.53368130888E+00 -0.22438658797E+02  0.44517149956E+01  0.22882219970E+02  0.00000000000E+00 0.  1.
</event>
<event>
 7    1  0.5006721E-012  0.5052884E+02  0.7816164E-02  0.1300439E+00
        -11   -1    0    0    0    0  0.00000000000E+00  0.00000000000E+00  0.45593999997E+02  0.45594000000E+02  0.51100000000E-03 0. -1.
         11   -1    0    0    0    0 -0.00000000000E+00 -0.00000000000E+00 -0.45593999997E+02  0.45594000000E+02  0.51100000000E-03 0.  1.
    9900012    2    1    2    0    0 -0.30358122624E+02  0.54983029374E+01 -0.26482450153E+02  0.50528842230E+02  0.29999946442E+02 0.  0.
         12    1    1    2    0    0  0.30358122624E+02 -0.54983029374E+01  0.26482450153E+02  0.40659157770E+02  0.00000000000E+00 0. -1.
         11    1    3    3    0    0 -0.10011818672E+02 -0.40872958062E+01 -0.49267971823E+01  0.11883426731E+02  0.51100000000E-03 0. -1.
        -11    1    3    3    0    0 -0.49279529755E-03  0.11204043836E+02 -0.46015734997E+01  0.12112187146E+02  0.51100000000E-03 0.  1.
        -12    1    3    3    0    0 -0.20345811157E+02 -0.16184450921E+01 -0.16954079471E+02  0.26533228353E+02  0.00000000000E+00 0.  1.
</event>
<event>
 7    1  0.5006721E-012  0.5052888E+02  0.7816164E-02  0.1300439E+00
        -11   -1    0    0    0    0  0.00000000000E+00  0.00000000000E+00  0.45593999997E+02  0.45594000000E+02  0.51100000000E-03 0. -1.
         11   -1    0    0    0    0 -0.00000000000E+00 -0.00000000000E+00 -0.45593999997E+02  0.45594000000E+02  0.51100000000E-03 0.  1.
    9900012    2    1    2    0    0 -0.12994586762E+02  0.20382556312E+02 -0.32693360796E+02  0.50528883838E+02  0.30000072914E+02 0.  0.
         12    1    1    2    0    0  0.12994586762E+02 -0.20382556312E+02  0.32693360796E+02  0.40659116162E+02  0.00000000000E+00 0. -1.
         11    1    3    3    0    0 -0.24945846747E+01 -0.10416156411E+01 -0.80370410681E-01  0.27045102157E+01  0.51100000000E-03 0. -1.
        -11    1    3    3    0    0 -0.35770850146E-01  0.13709218554E+02 -0.31995585655E+02  0.34808927800E+02  0.51100000000E-03 0.  1.
        -12    1    3    3    0    0 -0.10464231237E+02  0.77149534001E+01 -0.61740473003E+00  0.13015445822E+02  0.00000000000E+00 0.  1.
</event>
<event>
 7    1  0.5006721E-012  0.5052890E+02  0.7816164E-02  0.1300439E+00
        -11   -1    0    0    0    0  0.00000000000E+00  0.00000000000E+00  0.45593999997E+02  0.45594000000E+02  0.51100000000E-03 0. -1.
         11   -1    0    0    0    0 -0.00000000000E+00 -0.00000000000E+00 -0.45593999997E+02  0.45594000000E+02  0.51100000000E-03 0.  1.
    9900012    2    1    2    0    0  0.26154607737E+02  0.18680370661E+02 -0.24902659129E+02  0.50528902794E+02  0.30000130532E+02 0.  0.
         12    1    1    2    0    0 -0.26154607737E+02 -0.18680370661E+02  0.24902659129E+02  0.40659097206E+02  0.00000000000E+00 0. -1.
         11    1    3    3    0    0  0.15951577169E+02  0.13494851085E+02  0.34805165469E+00  0.20897008404E+02  0.51100000000E-03 0. -1.
        -11    1    3    3    0    0  0.10579622921E+02  0.13157863094E+01 -0.22409984742E+02  0.24816670429E+02  0.51100000000E-03 0.  1.
         12    1    3    3    0    0 -0.37659235401E+00  0.38697332666E+01 -0.28407260418E+01  0.48152239616E+01  0.00000000000E+00 0. -1.
</event>
<event>
 7    1  0.5006721E-012  0.5052886E+02  0.7816164E-02  0.1300439E+00
        -11   -1    0    0    0    0  0.00000000000E+00  0.00000000000E+00  0.45593999997E+02  0.45594000000E+02  0.51100000000E-03 0. -1.
         11   -1    0    0    0    0 -0.00000000000E+00 -0.00000000000E+00 -0.45593999997E+02  0.45594000000E+02  0.51100000000E-03 0.  1.
    9900012    2    1    2    0    0  0.85793538462E+01 -0.11788319989E+02 -0.37955181711E+02  0.50528860568E+02  0.30000002184E+02 0.  0.
         12    1    1    2    0    0 -0.85793538462E+01  0.11788319989E+02  0.37955181711E+02  0.40659139432E+02  0.00000000000E+00 0. -1.
         11    1    3    3    0    0  0.21575472604E+01 -0.16082467075E+02 -0.10654408398E+02  0.19411779310E+02  0.51100000000E-03 0. -1.
        -11    1    3    3    0    0 -0.37836654704E+01  0.99742693818E+00 -0.10277085872E+02  0.10996794041E+02  0.51100000000E-03 0.  1.
         12    1    3    3    0    0  0.10205472056E+02  0.32967201483E+01 -0.17023687441E+02  0.20120287218E+02  0.00000000000E+00 0. -1.
</event>
<event>
 7    1  0.5006721E-012  0.5052886E+02  0.7816164E-02  0.1300439E+00
        -11   -1    0    0    0    0  0.00000000000E+00  0.00000000000E+00  0.45593999997E+02  0.45594000000E+02  0.51100000000E-03 0.  1.
         11   -1    0    0    0    0 -0.00000000000E+00 -0.00000000000E+00 -0.45593999997E+02  0.45594000000E+02  0.51100000000E-03 0. -1.
    9900012    2    1    2    0    0 -0.36019418753E+02 -0.37989804275E+01  0.18475261212E+02  0.50528855193E+02  0.29999985844E+02 0.  0.
         12    1    1    2    0    0  0.36019418753E+02  0.37989804275E+01 -0.18475261212E+02  0.40659144807E+02  0.00000000000E+00 0. -1.
         11    1    3    3    0    0  0.66838941187E+00  0.76029937260E+01  0.22395264559E+00  0.76356016824E+01  0.51100000000E-03 0. -1.
        -11    1    3    3    0    0 -0.82495460581E+01 -0.23956544529E+01  0.16260873666E+01  0.87429017385E+01  0.51100000000E-03 0.  1.
         12    1    3    3    0    0 -0.28438262107E+02 -0.90063197006E+01  0.16625221200E+02  0.34150351772E+02  0.00000000000E+00 0. -1.
</event>
<event>
 7    1  0.5006721E-012  0.5052886E+02  0.7816164E-02  0.1300439E+00
        -11   -1    0    0    0    0  0.00000000000E+00  0.00000000000E+00  0.45593999997E+02  0.45594000000E+02  0.51100000000E-03 0. -1.
         11   -1    0    0    0    0 -0.00000000000E+00 -0.00000000000E+00 -0.45593999997E+02  0.45594000000E+02  0.51100000000E-03 0.  1.
    9900012    2    1    2    0    0 -0.11258594600E+02 -0.23491497341E+02 -0.31217932083E+02  0.50528859782E+02  0.29999999794E+02 0.  0.
         12    1    1    2    0    0  0.11258594600E+02  0.23491497341E+02  0.31217932083E+02  0.40659140218E+02  0.00000000000E+00 0. -1.
         11    1    3    3    0    0  0.59349978543E+01 -0.11128219299E+02 -0.69373213190E+01  0.14394022775E+02  0.51100000000E-03 0. -1.
        -11    1    3    3    0    0 -0.16505443548E+02 -0.10427865901E+02 -0.10434225719E+02  0.22136917595E+02  0.51100000000E-03 0.  1.
        -12    1    3    3    0    0 -0.68814890662E+00 -0.19354121408E+01 -0.13846385045E+02  0.13997919413E+02  0.00000000000E+00 0.  1.
</event>
<event>
 7    1  0.5006721E-012  0.5052886E+02  0.7816164E-02  0.1300439E+00
        -11   -1    0    0    0    0  0.00000000000E+00  0.00000000000E+00  0.45593999997E+02  0.45594000000E+02  0.51100000000E-03 0. -1.
         11   -1    0    0    0    0 -0.00000000000E+00 -0.00000000000E+00 -0.45593999997E+02  0.45594000000E+02  0.51100000000E-03 0.  1.
    9900012    2    1    2    0    0  0.13292981279E+02 -0.15915156431E+02  0.34973852869E+02  0.50528856625E+02  0.29999990196E+02 0.  0.
        -12    1    1    2    0    0 -0.13292981279E+02  0.15915156431E+02 -0.34973852869E+02  0.40659143375E+02  0.00000000000E+00 0.  1.
         11    1    3    3    0    0  0.56561937648E+01 -0.26833492215E+01  0.27355926566E+01  0.68320098356E+01  0.51100000000E-03 0. -1.
        -11    1    3    3    0    0  0.96898689137E+01 -0.68890827788E+01  0.34630002761E+02  0.36614069872E+02  0.51100000000E-03 0.  1.
        -12    1    3    3    0    0 -0.20530813998E+01 -0.63427244305E+01 -0.23917425485E+01  0.70827769169E+01  0.00000000000E+00 0.  1.
</event>
<event>
 7    1  0.5006721E-012  0.5052888E+02  0.7816164E-02  0.1300439E+00
        -11   -1    0    0    0    0  0.00000000000E+00  0.00000000000E+00  0.45593999997E+02  0.45594000000E+02  0.51100000000E-03 0. -1.
         11   -1    0    0    0    0 -0.00000000000E+00 -0.00000000000E+00 -0.45593999997E+02  0.45594000000E+02  0.51100000000E-03 0.  1.
    9900012    2    1    2    0    0  0.22134119879E+02 -0.61219078239E+01 -0.33552449744E+02  0.50528881686E+02  0.30000066373E+02 0.  0.
         12    1    1    2    0    0 -0.22134119879E+02  0.61219078239E+01  0.33552449744E+02  0.40659118314E+02  0.00000000000E+00 0. -1.
         11    1    3    3    0    0  0.55156516242E+01 -0.72882546674E+01  0.17014486031E+01  0.92970961352E+01  0.51100000000E-03 0. -1.
        -11    1    3    3    0    0  0.38199120792E+01  0.64002274307E+01 -0.10478903018E+02  0.12859317563E+02  0.51100000000E-03 0.  1.
        -12    1    3    3    0    0  0.12798556176E+02 -0.52338805872E+01 -0.24774995329E+02  0.28372467988E+02  0.00000000000E+00 0.  1.
</event>
<event>
 7    1  0.5006721E-012  0.5052896E+02  0.7816164E-02  0.1300438E+00
        -11   -1    0    0    0    0  0.00000000000E+00  0.00000000000E+00  0.45593999997E+02  0.45594000000E+02  0.51100000000E-03 0. -1.
         11   -1    0    0    0    0 -0.00000000000E+00 -0.00000000000E+00 -0.45593999997E+02  0.45594000000E+02  0.51100000000E-03 0.  1.
    9900012    2    1    2    0    0  0.36756118893E+02  0.93191692386E+01  0.14673055495E+02  0.50528957353E+02  0.30000296369E+02 0.  0.
        -12    1    1    2    0    0 -0.36756118893E+02 -0.93191692386E+01 -0.14673055495E+02  0.40659042647E+02  0.00000000000E+00 0.  1.
         11    1    3    3    0    0  0.13708336261E+02  0.14288021700E+02  0.12291519785E+02  0.23305525225E+02  0.51100000000E-03 0. -1.
        -11    1    3    3    0    0  0.10061896752E+02  0.12143731593E+01 -0.47232732237E+01  0.11181492683E+02  0.51100000000E-03 0.  1.
         12    1    3    3    0    0  0.12985885880E+02 -0.61832256204E+01  0.71048089337E+01  0.16041939444E+02  0.00000000000E+00 0. -1.
</event>
<event>
 7    1  0.5006721E-012  0.5052886E+02  0.7816164E-02  0.1300439E+00
        -11   -1    0    0    0    0  0.00000000000E+00  0.00000000000E+00  0.45593999997E+02  0.45594000000E+02  0.51100000000E-03 0. -1.
         11   -1    0    0    0    0 -0.00000000000E+00 -0.00000000000E+00 -0.45593999997E+02  0.45594000000E+02  0.51100000000E-03 0.  1.
    9900012    2    1    2    0    0 -0.37236065273E+02  0.79113614604E+01  0.14284647389E+02  0.50528863902E+02  0.30000012316E+02 0.  0.
        -12    1    1    2    0    0  0.37236065273E+02 -0.79113614604E+01 -0.14284647389E+02  0.40659136098E+02  0.00000000000E+00 0.  1.
         11    1    3    3    0    0 -0.24735331843E+02 -0.10982163542E+01  0.11487824921E+02  0.27294923378E+02  0.51100000000E-03 0. -1.
        -11    1    3    3    0    0 -0.14230857612E+00  0.10225231498E+02  0.34666001584E+01  0.10797820513E+02  0.51100000000E-03 0.  1.
        -12    1    3    3    0    0 -0.12358424854E+02 -0.12156536834E+01 -0.66977769003E+00  0.12436120010E+02  0.00000000000E+00 0.  1.
</event>
<event>
 7    1  0.5006721E-012  0.5052886E+02  0.7816164E-02  0.1300439E+00
        -11   -1    0    0    0    0  0.00000000000E+00  0.00000000000E+00  0.45593999997E+02  0.45594000000E+02  0.51100000000E-03 0. -1.
         11   -1    0    0    0    0 -0.00000000000E+00 -0.00000000000E+00 -0.45593999997E+02  0.45594000000E+02  0.51100000000E-03 0.  1.
    9900012    2    1    2    0    0 -0.22489607009E+02 -0.69077948218E+01  0.33161203231E+02  0.50528862621E+02  0.30000008422E+02 0.  0.
        -12    1    1    2    0    0  0.22489607009E+02  0.69077948218E+01 -0.33161203231E+02  0.40659137379E+02  0.00000000000E+00 0.  1.
         11    1    3    3    0    0 -0.33722035883E+01  0.22430170756E+01  0.10262935276E+00  0.40513473916E+01  0.51100000000E-03 0. -1.
        -11    1    3    3    0    0 -0.19537155929E+02 -0.12898923065E+02  0.35098307813E+02  0.42189736781E+02  0.51100000000E-03 0.  1.
        -12    1    3    3    0    0  0.41975250828E+00  0.37481111680E+01 -0.20397339349E+01  0.42877784482E+01  0.00000000000E+00 0.  1.
</event>
<event>
 7    1  0.5006721E-012  0.5052886E+02  0.7816164E-02  0.1300439E+00
        -11   -1    0    0    0    0  0.00000000000E+00  0.00000000000E+00  0.45593999997E+02  0.45594000000E+02  0.51100000000E-03 0. -1.
         11   -1    0    0    0    0 -0.00000000000E+00 -0.00000000000E+00 -0.45593999997E+02  0.45594000000E+02  0.51100000000E-03 0.  1.
    9900012    2    1    2    0    0 -0.23852705748E+02 -0.23904179418E+02  0.22645187141E+02  0.50528857538E+02  0.29999992971E+02 0.  0.
        -12    1    1    2    0    0  0.23852705748E+02  0.23904179418E+02 -0.22645187141E+02  0.40659142462E+02  0.00000000000E+00 0.  1.
         11    1    3    3    0    0 -0.15563792133E+02 -0.21917957862E+02  0.18200856080E+01  0.26943296277E+02  0.51100000000E-03 0. -1.
        -11    1    3    3    0    0 -0.62701672318E+01  0.13401367120E+01  0.84125195437E+01  0.10577402746E+02  0.51100000000E-03 0.  1.
         12    1    3    3    0    0 -0.20187463831E+01 -0.33263582675E+01  0.12412581989E+02  0.13008158514E+02  0.00000000000E+00 0. -1.
</event>
<event>
 7    1  0.5006721E-012  0.5052887E+02  0.7816164E-02  0.1300439E+00
        -11   -1    0    0    0    0  0.00000000000E+00  0.00000000000E+00  0.45593999997E+02  0.45594000000E+02  0.51100000000E-03 0. -1.
         11   -1    0    0    0    0 -0.00000000000E+00 -0.00000000000E+00 -0.45593999997E+02  0.45594000000E+02  0.51100000000E-03 0.  1.
    9900012    2    1    2    0    0  0.35452203929E+01  0.14081746546E+02  0.37977631551E+02  0.50528872223E+02  0.30000037608E+02 0.  0.
        -12    1    1    2    0    0 -0.35452203929E+01 -0.14081746546E+02 -0.37977631551E+02  0.40659127777E+02  0.00000000000E+00 0.  1.
         11    1    3    3    0    0  0.60787446454E+01  0.41720940888E+01  0.14362935695E+02  0.16144702772E+02  0.51100000000E-03 0. -1.
        -11    1    3    3    0    0 -0.11475089310E+02  0.39526966649E+00  0.78219354660E+01  0.13893040973E+02  0.51100000000E-03 0.  1.
        -12    1    3    3    0    0  0.89415650577E+01  0.95143827904E+01  0.15792760390E+02  0.20491128478E+02  0.00000000000E+00 0.  1.
</event>
<event>
 7    1  0.5006721E-012  0.5052885E+02  0.7816164E-02  0.1300439E+00
        -11   -1    0    0    0    0  0.00000000000E+00  0.00000000000E+00  0.45593999997E+02  0.45594000000E+02  0.51100000000E-03 0.  1.
         11   -1    0    0    0    0 -0.00000000000E+00 -0.00000000000E+00 -0.45593999997E+02  0.45594000000E+02  0.51100000000E-03 0. -1.
    9900012    2    1    2    0    0 -0.39933208819E+01 -0.39071496366E+02  0.10518469853E+02  0.50528847918E+02  0.29999963732E+02 0.  0.
        -12    1    1    2    0    0  0.39933208819E+01  0.39071496366E+02 -0.10518469853E+02  0.40659152082E+02  0.00000000000E+00 0.  1.
         11    1    3    3    0    0 -0.13761886690E+02 -0.18296771655E+02  0.96937072626E+01  0.24862207042E+02  0.51100000000E-03 0.  1.
        -11    1    3    3    0    0  0.11059833039E+02 -0.15713554830E+02  0.38971802040E+01  0.19606726551E+02  0.51100000000E-03 0. -1.
        -12    1    3    3    0    0 -0.12912672310E+01 -0.50611698816E+01 -0.30724176140E+01  0.60599143250E+01  0.00000000000E+00 0.  1.
</event>
<event>
 7    1  0.5006721E-012  0.5052886E+02  0.7816164E-02  0.1300439E+00
        -11   -1    0    0    0    0  0.00000000000E+00  0.00000000000E+00  0.45593999997E+02  0.45594000000E+02  0.51100000000E-03 0. -1.
         11   -1    0    0    0    0 -0.00000000000E+00 -0.00000000000E+00 -0.45593999997E+02  0.45594000000E+02  0.51100000000E-03 0.  1.
    9900012    2    1    2    0    0 -0.14809120074E+01 -0.12697154174E+02  0.38597342126E+02  0.50528860269E+02  0.30000001273E+02 0.  0.
        -12    1    1    2    0    0  0.14809120074E+01  0.12697154174E+02 -0.38597342126E+02  0.40659139731E+02  0.00000000000E+00 0.  1.
         11    1    3    3    0    0 -0.30933089703E+01 -0.42845734798E+01  0.30001520084E+02  0.30463376994E+02  0.51100000000E-03 0. -1.
        -11    1    3    3    0    0  0.78170331664E+01 -0.81206391385E+01  0.29021564835E+01  0.11639299810E+02  0.51100000000E-03 0.  1.
        -12    1    3    3    0    0 -0.62046362035E+01 -0.29194155557E+00  0.56936655587E+01  0.84261834649E+01  0.00000000000E+00 0.  1.
</event>
<event>
 7    1  0.5006721E-012  0.5052886E+02  0.7816164E-02  0.1300439E+00
        -11   -1    0    0    0    0  0.00000000000E+00  0.00000000000E+00  0.45593999997E+02  0.45594000000E+02  0.51100000000E-03 0. -1.
         11   -1    0    0    0    0 -0.00000000000E+00 -0.00000000000E+00 -0.45593999997E+02  0.45594000000E+02  0.51100000000E-03 0.  1.
    9900012    2    1    2    0    0 -0.18503865777E+02 -0.35059707997E+02  0.90327046445E+01  0.50528856788E+02  0.29999990693E+02 0.  0.
        -12    1    1    2    0    0  0.18503865777E+02  0.35059707997E+02 -0.90327046445E+01  0.40659143212E+02  0.00000000000E+00 0.  1.
         11    1    3    3    0    0 -0.13789646659E+02 -0.13659038982E+02  0.29858294262E+01  0.19637690255E+02  0.51100000000E-03 0. -1.
        -11    1    3    3    0    0  0.77800889449E+01 -0.13003038579E+02  0.18666062814E+01  0.15267384044E+02  0.51100000000E-03 0.  1.
        -12    1    3    3    0    0 -0.12494308062E+02 -0.83976304361E+01  0.41802689369E+01  0.15623782490E+02  0.00000000000E+00 0.  1.
</event>
<event>
 7    1  0.5006721E-012  0.5052886E+02  0.7816164E-02  0.1300439E+00
        -11   -1    0    0    0    0  0.00000000000E+00  0.00000000000E+00  0.45593999997E+02  0.45594000000E+02  0.51100000000E-03 0. -1.
         11   -1    0    0    0    0 -0.00000000000E+00 -0.00000000000E+00 -0.45593999997E+02  0.45594000000E+02  0.51100000000E-03 0.  1.
    9900012    2    1    2    0    0  0.17352731269E+02  0.10041678284E+02  0.35372490799E+02  0.50528859692E+02  0.29999999520E+02 0.  0.
        -12    1    1    2    0    0 -0.17352731269E+02 -0.10041678284E+02 -0.35372490799E+02  0.40659140308E+02  0.00000000000E+00 0.  1.
         11    1    3    3    0    0  0.79078663206E+01 -0.39789904250E+01  0.37912303513E+01  0.96301683467E+01  0.51100000000E-03 0. -1.
        -11    1    3    3    0    0  0.59391820718E+00  0.12908742146E+02  0.68879651008E+01  0.14643511400E+02  0.51100000000E-03 0.  1.
         12    1    3    3    0    0  0.88509467414E+01  0.11119265639E+01  0.24693295347E+02  0.26255179946E+02  0.00000000000E+00 0. -1.
</event>
<event>
 7    1  0.5006721E-012  0.5052886E+02  0.7816164E-02  0.1300439E+00
        -11   -1    0    0    0    0  0.00000000000E+00  0.00000000000E+00  0.45593999997E+02  0.45594000000E+02  0.51100000000E-03 0. -1.
         11   -1    0    0    0    0 -0.00000000000E+00 -0.00000000000E+00 -0.45593999997E+02  0.45594000000E+02  0.51100000000E-03 0.  1.
    9900012    2    1    2    0    0  0.15927050879E+02 -0.20869395865E+02 -0.31047756788E+02  0.50528857915E+02  0.29999994119E+02 0.  0.
         12    1    1    2    0    0 -0.15927050879E+02  0.20869395865E+02  0.31047756788E+02  0.40659142085E+02  0.00000000000E+00 0. -1.
         11    1    3    3    0    0  0.10441271337E+02  0.12401469360E+01  0.16747570217E+00  0.10515995432E+02  0.51100000000E-03 0. -1.
        -11    1    3    3    0    0 -0.43109137253E+00 -0.17472446402E+02 -0.20803682203E+02  0.27171040033E+02  0.51100000000E-03 0.  1.
        -12    1    3    3    0    0  0.59168709150E+01 -0.46370963996E+01 -0.10411550288E+02  0.12841822450E+02  0.00000000000E+00 0.  1.
</event>
<event>
 7    1  0.5006721E-012  0.5052884E+02  0.7816164E-02  0.1300439E+00
        -11   -1    0    0    0    0  0.00000000000E+00  0.00000000000E+00  0.45593999997E+02  0.45594000000E+02  0.51100000000E-03 0. -1.
         11   -1    0    0    0    0 -0.00000000000E+00 -0.00000000000E+00 -0.45593999997E+02  0.45594000000E+02  0.51100000000E-03 0.  1.
    9900012    2    1    2    0    0 -0.18760709543E+02 -0.40122700653E+01  0.35848352444E+02  0.50528844739E+02  0.29999954068E+02 0.  0.
        -12    1    1    2    0    0  0.18760709543E+02  0.40122700653E+01 -0.35848352444E+02  0.40659155261E+02  0.00000000000E+00 0.  1.
         11    1    3    3    0    0 -0.99836898715E+01 -0.11322428809E+02  0.25700938219E+02  0.29806202092E+02  0.51100000000E-03 0. -1.
        -11    1    3    3    0    0 -0.33054678903E+01  0.35954272636E+01 -0.31914868724E+01  0.58342783529E+01  0.51100000000E-03 0.  1.
        -12    1    3    3    0    0 -0.54715517809E+01  0.37147314799E+01  0.13338901097E+02  0.14888364294E+02  0.00000000000E+00 0.  1.
</event>
<event>
 7    1  0.5006721E-012  0.5052886E+02  0.7816164E-02  0.1300439E+00
        -11   -1    0    0    0    0  0.00000000000E+00  0.00000000000E+00  0.45593999997E+02  0.45594000000E+02  0.51100000000E-03 0. -1.
         11   -1    0    0    0    0 -0.00000000000E+00 -0.00000000000E+00 -0.45593999997E+02  0.45594000000E+02  0.51100000000E-03 0.  1.
    9900012    2    1    2    0    0  0.12286511371E+02 -0.95850632999E+01  0.37554409155E+02  0.50528862686E+02  0.30000008621E+02 0.  0.
        -12    1    1    2    0    0 -0.12286511371E+02  0.95850632999E+01 -0.37554409155E+02  0.40659137314E+02  0.00000000000E+00 0.  1.
         11    1    3    3    0    0  0.99596480125E+01 -0.65223467365E+01 -0.80244225255E+00  0.11932288520E+02  0.51100000000E-03 0. -1.
        -11    1    3    3    0    0 -0.26061479408E+00 -0.47147998755E+00  0.83019621482E+01  0.83194224090E+01  0.51100000000E-03 0.  1.
         12    1    3    3    0    0  0.25874781522E+01 -0.25912365759E+01  0.30054889259E+02  0.30277151758E+02  0.00000000000E+00 0. -1.
</event>
<event>
 7    1  0.5006721E-012  0.5052888E+02  0.7816164E-02  0.1300439E+00
        -11   -1    0    0    0    0  0.00000000000E+00  0.00000000000E+00  0.45593999997E+02  0.45594000000E+02  0.51100000000E-03 0. -1.
         11   -1    0    0    0    0 -0.00000000000E+00 -0.00000000000E+00 -0.45593999997E+02  0.45594000000E+02  0.51100000000E-03 0.  1.
    9900012    2    1    2    0    0 -0.11057529033E+02 -0.33519500558E+01 -0.38982808538E+02  0.50528881969E+02  0.30000067233E+02 0.  0.
         12    1    1    2    0    0  0.11057529033E+02  0.33519500558E+01  0.38982808538E+02  0.40659118031E+02  0.00000000000E+00 0. -1.
         11    1    3    3    0    0  0.43276827427E+01  0.38677111660E+01 -0.73952041859E+01  0.94009080836E+01  0.51100000000E-03 0. -1.
        -11    1    3    3    0    0 -0.74628110434E+01 -0.10075489708E+02 -0.54578994295E+01  0.13674710526E+02  0.51100000000E-03 0.  1.
        -12    1    3    3    0    0 -0.79224007327E+01  0.28558284866E+01 -0.26129704923E+02  0.27453263359E+02  0.00000000000E+00 0.  1.
</event>
<event>
 7    1  0.5006721E-012  0.5052884E+02  0.7816164E-02  0.1300439E+00
        -11   -1    0    0    0    0  0.00000000000E+00  0.00000000000E+00  0.45593999997E+02  0.45594000000E+02  0.51100000000E-03 0. -1.
         11   -1    0    0    0    0 -0.00000000000E+00 -0.00000000000E+00 -0.45593999997E+02  0.45594000000E+02  0.51100000000E-03 0.  1.
    9900012    2    1    2    0    0  0.15435626961E+02  0.10679439712E+02  0.36067411565E+02  0.50528841262E+02  0.29999943500E+02 0.  0.
        -12    1    1    2    0    0 -0.15435626961E+02 -0.10679439712E+02 -0.36067411565E+02  0.40659158738E+02  0.00000000000E+00 0.  1.
         11    1    3    3    0    0  0.65442036308E+01  0.13831666205E+01  0.25573700195E+02  0.26433953412E+02  0.51100000000E-03 0. -1.
        -11    1    3    3    0    0  0.69179046997E+01  0.10915941971E+02 -0.37646702187E+00  0.12928918061E+02  0.51100000000E-03 0.  1.
        -12    1    3    3    0    0  0.19735186310E+01 -0.16196688788E+01  0.10870178392E+02  0.11165969789E+02  0.00000000000E+00 0.  1.
</event>
<event>
 7    1  0.5006721E-012  0.5052883E+02  0.7816164E-02  0.1300439E+00
        -11   -1    0    0    0    0  0.00000000000E+00  0.00000000000E+00  0.45593999997E+02  0.45594000000E+02  0.51100000000E-03 0. -1.
         11   -1    0    0    0    0 -0.00000000000E+00 -0.00000000000E+00 -0.45593999997E+02  0.45594000000E+02  0.51100000000E-03 0.  1.
    9900012    2    1    2    0    0  0.16768014693E+02  0.14034340887E+02 -0.34278842676E+02  0.50528830111E+02  0.29999909604E+02 0.  0.
         12    1    1    2    0    0 -0.16768014693E+02 -0.14034340887E+02  0.34278842676E+02  0.40659169889E+02  0.00000000000E+00 0. -1.
         11    1    3    3    0    0  0.64613834515E+01 -0.44902037084E+01 -0.26871445274E+01  0.83145746387E+01  0.51100000000E-03 0. -1.
        -11    1    3    3    0    0  0.12225458051E+02  0.16914476130E+02 -0.33216363277E+02  0.39228664481E+02  0.51100000000E-03 0.  1.
        -12    1    3    3    0    0 -0.19188268097E+01  0.16100684653E+01  0.16246651282E+01  0.29855909913E+01  0.00000000000E+00 0.  1.
</event>
<event>
 7    1  0.5006721E-012  0.5052886E+02  0.7816164E-02  0.1300439E+00
        -11   -1    0    0    0    0  0.00000000000E+00  0.00000000000E+00  0.45593999997E+02  0.45594000000E+02  0.51100000000E-03 0.  1.
         11   -1    0    0    0    0 -0.00000000000E+00 -0.00000000000E+00 -0.45593999997E+02  0.45594000000E+02  0.51100000000E-03 0. -1.
    9900012    2    1    2    0    0 -0.84950029337E+01  0.37328006730E+02  0.13697465928E+02  0.50528859156E+02  0.29999997891E+02 0.  0.
         12    1    1    2    0    0  0.84950029337E+01 -0.37328006730E+02 -0.13697465928E+02  0.40659140844E+02  0.00000000000E+00 0. -1.
         11    1    3    3    0    0 -0.11160238063E+02  0.12899591926E+02 -0.42083881374E+01  0.17568748289E+02  0.51100000000E-03 0. -1.
        -11    1    3    3    0    0 -0.42924606812E+01  0.14988509411E+02  0.12789625823E+02  0.20165692699E+02  0.51100000000E-03 0.  1.
         12    1    3    3    0    0  0.69576958109E+01  0.94399053938E+01  0.51162282419E+01  0.12794418168E+02  0.00000000000E+00 0. -1.
</event>
<event>
 7    1  0.6252043E-012  0.5052887E+02  0.7816164E-02  0.1300439E+00
        -11   -1    0    0    0    0  0.00000000000E+00  0.00000000000E+00  0.45593999997E+02  0.45594000000E+02  0.51100000000E-03 0. -1.
         11   -1    0    0    0    0 -0.00000000000E+00 -0.00000000000E+00 -0.45593999997E+02  0.45594000000E+02  0.51100000000E-03 0.  1.
    9900012    2    1    2    0    0  0.47407580401E+01  0.50276976525E+01  0.40067601439E+02  0.50528865534E+02  0.30000017276E+02 0.  0.
        -12    1    1    2    0    0 -0.47407580401E+01 -0.50276976525E+01 -0.40067601439E+02  0.40659134466E+02  0.00000000000E+00 0.  1.
         11    1    3    3    0    0 -0.11248989830E+02  0.19852372054E+01  0.14181745416E+02  0.18209965466E+02  0.51100000000E-03 0. -1.
        -11    1    3    3    0    0  0.59273521447E+01  0.22555992756E+01  0.24442106800E+01  0.67967196241E+01  0.51100000000E-03 0.  1.
         12    1    3    3    0    0  0.10062395725E+02  0.78686117153E+00  0.23441645343E+02  0.25522180444E+02  0.00000000000E+00 0. -1.
</event>
<event>
 7    1  0.5006721E-012  0.5052886E+02  0.7816164E-02  0.1300439E+00
        -11   -1    0    0    0    0  0.00000000000E+00  0.00000000000E+00  0.45593999997E+02  0.45594000000E+02  0.51100000000E-03 0.  1.
         11   -1    0    0    0    0 -0.00000000000E+00 -0.00000000000E+00 -0.45593999997E+02  0.45594000000E+02  0.51100000000E-03 0. -1.
    9900012    2    1    2    0    0 -0.25136527182E+01  0.22429011069E+02 -0.33819914777E+02  0.50528860523E+02  0.30000002046E+02 0.  0.
         12    1    1    2    0    0  0.25136527182E+01 -0.22429011069E+02  0.33819914777E+02  0.40659139477E+02  0.00000000000E+00 0. -1.
         11    1    3    3    0    0  0.19227063419E+00 -0.36630115488E+01 -0.87540238468E+01  0.94914464322E+01  0.51100000000E-03 0. -1.
        -11    1    3    3    0    0  0.27736912484E+01  0.97625394613E+01  0.55599563931E+00  0.10164136524E+02  0.51100000000E-03 0.  1.
        -12    1    3    3    0    0 -0.54796146008E+01  0.16329483156E+02 -0.25621886569E+02  0.30873277566E+02  0.00000000000E+00 0.  1.
</event>
<event>
 7    1  0.6065357E-012  0.5052886E+02  0.7816164E-02  0.1300439E+00
        -11   -1    0    0    0    0  0.00000000000E+00  0.00000000000E+00  0.45593999997E+02  0.45594000000E+02  0.51100000000E-03 0. -1.
         11   -1    0    0    0    0 -0.00000000000E+00 -0.00000000000E+00 -0.45593999997E+02  0.45594000000E+02  0.51100000000E-03 0.  1.
    9900012    2    1    2    0    0 -0.11374764619E+02  0.14083620391E+02  0.36406487543E+02  0.50528856272E+02  0.29999989125E+02 0.  0.
        -12    1    1    2    0    0  0.11374764619E+02 -0.14083620391E+02 -0.36406487543E+02  0.40659143728E+02  0.00000000000E+00 0.  1.
         11    1    3    3    0    0 -0.16763536778E+02  0.13101567243E+02  0.26427750461E+02  0.33927764798E+02  0.51100000000E-03 0. -1.
        -11    1    3    3    0    0  0.39311478185E+01  0.64745909523E+01  0.53805683021E+01  0.92911122415E+01  0.51100000000E-03 0.  1.
         12    1    3    3    0    0  0.14576243404E+01 -0.54925378042E+01  0.45981687805E+01  0.73099792326E+01  0.00000000000E+00 0. -1.
</event>
<event>
 7    1  0.5006721E-012  0.5052887E+02  0.7816164E-02  0.1300439E+00
        -11   -1    0    0    0    0  0.00000000000E+00  0.00000000000E+00  0.45593999997E+02  0.45594000000E+02  0.51100000000E-03 0. -1.
         11   -1    0    0    0    0 -0.00000000000E+00 -0.00000000000E+00 -0.45593999997E+02  0.45594000000E+02  0.51100000000E-03 0.  1.
    9900012    2    1    2    0    0  0.14575267547E+02  0.18657772402E+02  0.33054713030E+02  0.50528868817E+02  0.30000027255E+02 0.  0.
        -12    1    1    2    0    0 -0.14575267547E+02 -0.18657772402E+02 -0.33054713030E+02  0.40659131183E+02  0.00000000000E+00 0.  1.
         11    1    3    3    0    0  0.13171075823E+01  0.14735476653E+02  0.13116548828E+02  0.19771517341E+02  0.51100000000E-03 0. -1.
        -11    1    3    3    0    0  0.98239574721E+01 -0.43303485646E+01  0.18929328362E+02  0.21761928490E+02  0.51100000000E-03 0.  1.
        -12    1    3    3    0    0  0.34342024931E+01  0.82526443131E+01  0.10088358404E+01  0.89954229848E+01  0.00000000000E+00 0.  1.
</event>
<event>
 7    1  0.5006721E-012  0.5052886E+02  0.7816164E-02  0.1300439E+00
        -11   -1    0    0    0    0  0.00000000000E+00  0.00000000000E+00  0.45593999997E+02  0.45594000000E+02  0.51100000000E-03 0. -1.
         11   -1    0    0    0    0 -0.00000000000E+00 -0.00000000000E+00 -0.45593999997E+02  0.45594000000E+02  0.51100000000E-03 0.  1.
    9900012    2    1    2    0    0  0.36295158872E+01  0.15729432858E+02 -0.37317254800E+02  0.50528856509E+02  0.29999989844E+02 0.  0.
         12    1    1    2    0    0 -0.36295158872E+01 -0.15729432858E+02  0.37317254800E+02  0.40659143491E+02  0.00000000000E+00 0. -1.
         11    1    3    3    0    0  0.12006573315E+02  0.85075072360E+01 -0.34406635673E+02  0.37421278182E+02  0.51100000000E-03 0. -1.
        -11    1    3    3    0    0 -0.45179851911E+01  0.61279756275E+00 -0.29927619870E+01  0.54538367790E+01  0.51100000000E-03 0.  1.
         12    1    3    3    0    0 -0.38590722368E+01  0.66091280592E+01  0.82142859947E-01  0.76537415479E+01  0.00000000000E+00 0. -1.
</event>
<event>
 7    1  0.5006721E-012  0.5052886E+02  0.7816164E-02  0.1300439E+00
        -11   -1    0    0    0    0  0.00000000000E+00  0.00000000000E+00  0.45593999997E+02  0.45594000000E+02  0.51100000000E-03 0. -1.
         11   -1    0    0    0    0 -0.00000000000E+00 -0.00000000000E+00 -0.45593999997E+02  0.45594000000E+02  0.51100000000E-03 0.  1.
    9900012    2    1    2    0    0 -0.59416625402E+01  0.20822228066E+02  0.34413621250E+02  0.50528857573E+02  0.29999993080E+02 0.  0.
        -12    1    1    2    0    0  0.59416625402E+01 -0.20822228066E+02 -0.34413621250E+02  0.40659142427E+02  0.00000000000E+00 0.  1.
         11    1    3    3    0    0 -0.52098347883E+01 -0.26547422168E+01  0.14364999988E+02  0.15509457105E+02  0.51100000000E-03 0. -1.
        -11    1    3    3    0    0  0.42997527494E+01  0.10812295718E+02  0.11118117132E+01  0.11688872398E+02  0.51100000000E-03 0.  1.
        -12    1    3    3    0    0 -0.50315805012E+01  0.12664674564E+02  0.18936809548E+02  0.23330528070E+02  0.00000000000E+00 0.  1.
</event>
<event>
 7    1  0.5006721E-012  0.5052887E+02  0.7816164E-02  0.1300439E+00
        -11   -1    0    0    0    0  0.00000000000E+00  0.00000000000E+00  0.45593999997E+02  0.45594000000E+02  0.51100000000E-03 0. -1.
         11   -1    0    0    0    0 -0.00000000000E+00 -0.00000000000E+00 -0.45593999997E+02  0.45594000000E+02  0.51100000000E-03 0.  1.
    9900012    2    1    2    0    0  0.28380346036E+02 -0.16485361334E+02  0.23999028628E+02  0.50528873663E+02  0.30000041987E+02 0.  0.
        -12    1    1    2    0    0 -0.28380346036E+02  0.16485361334E+02 -0.23999028628E+02  0.40659126337E+02  0.00000000000E+00 0.  1.
         11    1    3    3    0    0  0.85131010291E+01 -0.13044064364E+02  0.16220078247E+02  0.22488028879E+02  0.51100000000E-03 0. -1.
        -11    1    3    3    0    0  0.20231447619E+02  0.10385815537E+01  0.10468376398E+02  0.22803004826E+02  0.51100000000E-03 0.  1.
        -12    1    3    3    0    0 -0.36420261275E+00 -0.44798785227E+01 -0.26894260176E+01  0.52378399580E+01  0.00000000000E+00 0.  1.
</event>
<event>
 7    1  0.5006721E-012  0.5052887E+02  0.7816164E-02  0.1300439E+00
        -11   -1    0    0    0    0  0.00000000000E+00  0.00000000000E+00  0.45593999997E+02  0.45594000000E+02  0.51100000000E-03 0. -1.
         11   -1    0    0    0    0 -0.00000000000E+00 -0.00000000000E+00 -0.45593999997E+02  0.45594000000E+02  0.51100000000E-03 0.  1.
    9900012    2    1    2    0    0  0.26126139415E+02 -0.17163413872E+02 -0.26000140476E+02  0.50528865217E+02  0.30000016315E+02 0.  0.
         12    1    1    2    0    0 -0.26126139415E+02  0.17163413872E+02  0.26000140476E+02  0.40659134783E+02  0.00000000000E+00 0. -1.
         11    1    3    3    0    0  0.11056090964E+02  0.64580669557E+01 -0.58080728081E+01  0.14059782580E+02  0.51100000000E-03 0. -1.
        -11    1    3    3    0    0  0.11863406910E+02 -0.24344600975E+02 -0.17944736149E+02  0.32487129387E+02  0.51100000000E-03 0.  1.
        -12    1    3    3    0    0  0.32066415416E+01  0.72312014710E+00 -0.22473315196E+01  0.39819532496E+01  0.00000000000E+00 0.  1.
</event>
<event>
 7    1  0.5793637E-012  0.5052885E+02  0.7816164E-02  0.1300439E+00
        -11   -1    0    0    0    0  0.00000000000E+00  0.00000000000E+00  0.45593999997E+02  0.45594000000E+02  0.51100000000E-03 0. -1.
         11   -1    0    0    0    0 -0.00000000000E+00 -0.00000000000E+00 -0.45593999997E+02  0.45594000000E+02  0.51100000000E-03 0.  1.
    9900012    2    1    2    0    0 -0.39440010651E+00 -0.87397974248E+01  0.39706763907E+02  0.50528847151E+02  0.29999961400E+02 0.  0.
        -12    1    1    2    0    0  0.39440010651E+00  0.87397974248E+01 -0.39706763907E+02  0.40659152849E+02  0.00000000000E+00 0.  1.
         11    1    3    3    0    0  0.26484525517E+00 -0.48888252620E+01  0.32829432151E+02  0.33192504742E+02  0.51100000000E-03 0. -1.
        -11    1    3    3    0    0 -0.71704066180E+01  0.15759683687E+01  0.22464264233E+01  0.76775542527E+01  0.51100000000E-03 0.  1.
        -12    1    3    3    0    0  0.65111612564E+01 -0.54269405316E+01  0.46309053324E+01  0.96587881557E+01  0.00000000000E+00 0.  1.
</event>
<event>
 7    1  0.5006721E-012  0.5052887E+02  0.7816164E-02  0.1300439E+00
        -11   -1    0    0    0    0  0.00000000000E+00  0.00000000000E+00  0.45593999997E+02  0.45594000000E+02  0.51100000000E-03 0. -1.
         11   -1    0    0    0    0 -0.00000000000E+00 -0.00000000000E+00 -0.45593999997E+02  0.45594000000E+02  0.51100000000E-03 0.  1.
    9900012    2    1    2    0    0 -0.13655163396E+02  0.19777840218E+02 -0.32795403418E+02  0.50528868967E+02  0.30000027711E+02 0.  0.
         12    1    1    2    0    0  0.13655163396E+02 -0.19777840218E+02  0.32795403418E+02  0.40659131033E+02  0.00000000000E+00 0. -1.
         11    1    3    3    0    0 -0.60546411325E+01  0.10632034341E+01 -0.12776298977E+02  0.14178254356E+02  0.51100000000E-03 0. -1.
        -11    1    3    3    0    0  0.46872300041E+01  0.16521549633E+02 -0.15318929590E+02  0.23013068709E+02  0.51100000000E-03 0.  1.
        -12    1    3    3    0    0 -0.12287752267E+02  0.21930871506E+01 -0.47001748514E+01  0.13337545901E+02  0.00000000000E+00 0.  1.
</event>
<event>
 7    1  0.5006721E-012  0.5052886E+02  0.7816164E-02  0.1300439E+00
        -11   -1    0    0    0    0  0.00000000000E+00  0.00000000000E+00  0.45593999997E+02  0.45594000000E+02  0.51100000000E-03 0. -1.
         11   -1    0    0    0    0 -0.00000000000E+00 -0.00000000000E+00 -0.45593999997E+02  0.45594000000E+02  0.51100000000E-03 0.  1.
    9900012    2    1    2    0    0 -0.70199528314E+01 -0.10375786306E+02 -0.38681120369E+02  0.50528858934E+02  0.29999997216E+02 0.  0.
         12    1    1    2    0    0  0.70199528314E+01  0.10375786306E+02  0.38681120369E+02  0.40659141066E+02  0.00000000000E+00 0. -1.
         11    1    3    3    0    0 -0.25412425563E+01 -0.12005780232E+02 -0.33349034618E+01  0.12716849219E+02  0.51100000000E-03 0. -1.
        -11    1    3    3    0    0  0.19730543178E+01 -0.85390369675E+00 -0.26489066016E+02  0.26576168150E+02  0.51100000000E-03 0.  1.
         12    1    3    3    0    0 -0.64517645929E+01  0.24838976232E+01 -0.88571508914E+01  0.11235841565E+02  0.00000000000E+00 0. -1.
</event>
<event>
 7    1  0.5006721E-012  0.5052886E+02  0.7816164E-02  0.1300439E+00
        -11   -1    0    0    0    0  0.00000000000E+00  0.00000000000E+00  0.45593999997E+02  0.45594000000E+02  0.51100000000E-03 0. -1.
         11   -1    0    0    0    0 -0.00000000000E+00 -0.00000000000E+00 -0.45593999997E+02  0.45594000000E+02  0.51100000000E-03 0.  1.
    9900012    2    1    2    0    0  0.59336227300E+01 -0.12586568504E+02  0.38203869909E+02  0.50528864970E+02  0.30000015562E+02 0.  0.
        -12    1    1    2    0    0 -0.59336227300E+01  0.12586568504E+02 -0.38203869909E+02  0.40659135030E+02  0.00000000000E+00 0.  1.
         11    1    3    3    0    0  0.43307017704E+01 -0.93778591688E+01  0.18506831051E+02  0.21194386432E+02  0.51100000000E-03 0. -1.
        -11    1    3    3    0    0 -0.22042071905E+01 -0.87027395288E+01  0.48248494456E+00  0.89904947933E+01  0.51100000000E-03 0.  1.
        -12    1    3    3    0    0  0.38071281501E+01  0.54940301937E+01  0.19214553913E+02  0.20343983744E+02  0.00000000000E+00 0.  1.
</event>
<event>
 7    1  0.5006721E-012  0.5052886E+02  0.7816164E-02  0.1300439E+00
        -11   -1    0    0    0    0  0.00000000000E+00  0.00000000000E+00  0.45593999997E+02  0.45594000000E+02  0.51100000000E-03 0. -1.
         11   -1    0    0    0    0 -0.00000000000E+00 -0.00000000000E+00 -0.45593999997E+02  0.45594000000E+02  0.51100000000E-03 0.  1.
    9900012    2    1    2    0    0  0.15681480430E+02  0.51460203293E+01  0.37158781236E+02  0.50528863552E+02  0.30000011254E+02 0.  0.
        -12    1    1    2    0    0 -0.15681480430E+02 -0.51460203293E+01 -0.37158781236E+02  0.40659136448E+02  0.00000000000E+00 0.  1.
         11    1    3    3    0    0  0.36434775681E+01  0.80943065835E+01  0.19937629513E+02  0.21824339594E+02  0.51100000000E-03 0. -1.
        -11    1    3    3    0    0  0.12851647198E+01 -0.99645532815E+01  0.87421745737E+01  0.13318017382E+02  0.51100000000E-03 0.  1.
        -12    1    3    3    0    0  0.10752838142E+02  0.70162670272E+01  0.84789771498E+01  0.15386506576E+02  0.00000000000E+00 0.  1.
</event>
<event>
 7    1  0.5006721E-012  0.5052886E+02  0.7816164E-02  0.1300439E+00
        -11   -1    0    0    0    0  0.00000000000E+00  0.00000000000E+00  0.45593999997E+02  0.45594000000E+02  0.51100000000E-03 0. -1.
         11   -1    0    0    0    0 -0.00000000000E+00 -0.00000000000E+00 -0.45593999997E+02  0.45594000000E+02  0.51100000000E-03 0.  1.
    9900012    2    1    2    0    0 -0.78734888800E+01  0.26833143473E+02  0.29515355152E+02  0.50528860738E+02  0.30000002699E+02 0.  0.
        -12    1    1    2    0    0  0.78734888800E+01 -0.26833143473E+02 -0.29515355152E+02  0.40659139262E+02  0.00000000000E+00 0.  1.
         11    1    3    3    0    0  0.42060000356E+01 -0.13385453870E+01 -0.25429271414E+01  0.50939786768E+01  0.51100000000E-03 0. -1.
        -11    1    3    3    0    0 -0.10144660392E+01  0.51299597900E+01  0.12002763713E+01  0.53652858657E+01  0.51100000000E-03 0.  1.
         12    1    3    3    0    0 -0.11065022876E+02  0.23041729070E+02  0.30858005922E+02  0.40069596195E+02  0.00000000000E+00 0. -1.
</event>
<event>
 7    1  0.5006721E-012  0.5052885E+02  0.7816164E-02  0.1300439E+00
        -11   -1    0    0    0    0  0.00000000000E+00  0.00000000000E+00  0.45593999997E+02  0.45594000000E+02  0.51100000000E-03 0. -1.
         11   -1    0    0    0    0 -0.00000000000E+00 -0.00000000000E+00 -0.45593999997E+02  0.45594000000E+02  0.51100000000E-03 0.  1.
    9900012    2    1    2    0    0 -0.33442841001E+02  0.17954911692E+02  0.14572704041E+02  0.50528853783E+02  0.29999981558E+02 0.  0.
        -12    1    1    2    0    0  0.33442841001E+02 -0.17954911692E+02 -0.14572704041E+02  0.40659146217E+02  0.00000000000E+00 0.  1.
         11    1    3    3    0    0 -0.30223574544E+02  0.17055691529E+02  0.12613153937E+02  0.36924960721E+02  0.51100000000E-03 0. -1.
        -11    1    3    3    0    0 -0.22602457851E+01 -0.39714095041E+01  0.57596818628E+01  0.73521928620E+01  0.51100000000E-03 0.  1.
        -12    1    3    3    0    0 -0.95902067136E+00  0.48706296667E+01 -0.38001317593E+01  0.62517001996E+01  0.00000000000E+00 0.  1.
</event>
<event>
 7    1  0.5006721E-012  0.5052886E+02  0.7816164E-02  0.1300439E+00
        -11   -1    0    0    0    0  0.00000000000E+00  0.00000000000E+00  0.45593999997E+02  0.45594000000E+02  0.51100000000E-03 0. -1.
         11   -1    0    0    0    0 -0.00000000000E+00 -0.00000000000E+00 -0.45593999997E+02  0.45594000000E+02  0.51100000000E-03 0.  1.
    9900012    2    1    2    0    0 -0.19208606815E+01  0.73140534023E+01  0.39949729699E+02  0.50528856059E+02  0.29999988478E+02 0.  0.
        -12    1    1    2    0    0  0.19208606815E+01 -0.73140534023E+01 -0.39949729699E+02  0.40659143941E+02  0.00000000000E+00 0.  1.
         11    1    3    3    0    0  0.66814675570E-01 -0.56461609161E+01  0.13475910114E+02  0.14611083155E+02  0.51100000000E-03 0. -1.
        -11    1    3    3    0    0  0.13800589402E+01  0.25172165409E+01 -0.31888771402E+01  0.42906735449E+01  0.51100000000E-03 0.  1.
        -12    1    3    3    0    0 -0.33677342973E+01  0.10442997777E+02  0.29662696726E+02  0.31627099360E+02  0.00000000000E+00 0.  1.
</event>
<event>
 7    1  0.5006721E-012  0.5052886E+02  0.7816164E-02  0.1300439E+00
        -11   -1    0    0    0    0  0.00000000000E+00  0.00000000000E+00  0.45593999997E+02  0.45594000000E+02  0.51100000000E-03 0. -1.
         11   -1    0    0    0    0 -0.00000000000E+00 -0.00000000000E+00 -0.45593999997E+02  0.45594000000E+02  0.51100000000E-03 0.  1.
    9900012    2    1    2    0    0  0.29275468829E+01 -0.93091750994E+01 -0.39470677908E+02  0.50528859745E+02  0.29999999680E+02 0.  0.
         12    1    1    2    0    0 -0.29275468829E+01  0.93091750994E+01  0.39470677908E+02  0.40659140255E+02  0.00000000000E+00 0. -1.
         11    1    3    3    0    0  0.23180584780E+01  0.72912560319E+01 -0.88921381775E+01  0.11730555454E+02  0.51100000000E-03 0. -1.
        -11    1    3    3    0    0  0.14667755515E+00 -0.10715851537E+02 -0.37902074696E+01  0.11367350676E+02  0.51100000000E-03 0.  1.
        -12    1    3    3    0    0  0.46281084975E+00 -0.58845795939E+01 -0.26788332261E+02  0.27430953614E+02  0.00000000000E+00 0.  1.
</event>
<event>
 7    1  0.5006721E-012  0.5052884E+02  0.7816164E-02  0.1300439E+00
        -11   -1    0    0    0    0  0.00000000000E+00  0.00000000000E+00  0.45593999997E+02  0.45594000000E+02  0.51100000000E-03 0. -1.
         11   -1    0    0    0    0 -0.00000000000E+00 -0.00000000000E+00 -0.45593999997E+02  0.45594000000E+02  0.51100000000E-03 0.  1.
    9900012    2    1    2    0    0  0.93047161315E+01  0.20568266143E+02  0.33816211041E+02  0.50528838135E+02  0.29999933994E+02 0.  0.
        -12    1    1    2    0    0 -0.93047161315E+01 -0.20568266143E+02 -0.33816211041E+02  0.40659161865E+02  0.00000000000E+00 0.  1.
         11    1    3    3    0    0  0.12763806550E+01  0.67965889437E+01  0.17626619196E+02  0.18934636870E+02  0.51100000000E-03 0. -1.
        -11    1    3    3    0    0 -0.64141996011E+01 -0.95707490612E+00  0.33926991426E+01  0.73190406907E+01  0.51100000000E-03 0.  1.
         12    1    3    3    0    0  0.14442535078E+02  0.14728752106E+02  0.12796892702E+02  0.24275160574E+02  0.00000000000E+00 0. -1.
</event>
<event>
 7    1  0.5006721E-012  0.5052884E+02  0.7816164E-02  0.1300439E+00
        -11   -1    0    0    0    0  0.00000000000E+00  0.00000000000E+00  0.45593999997E+02  0.45594000000E+02  0.51100000000E-03 0.  1.
         11   -1    0    0    0    0 -0.00000000000E+00 -0.00000000000E+00 -0.45593999997E+02  0.45594000000E+02  0.51100000000E-03 0. -1.
    9900012    2    1    2    0    0 -0.40019137743E+02 -0.65668648719E+01  0.29175946245E+01  0.50528837953E+02  0.29999933443E+02 0.  0.
         12    1    1    2    0    0  0.40019137743E+02  0.65668648719E+01 -0.29175946245E+01  0.40659162047E+02  0.00000000000E+00 0. -1.
         11    1    3    3    0    0 -0.15938040282E+02  0.52797060768E+01 -0.95782638270E+01  0.19329758470E+02  0.51100000000E-03 0. -1.
        -11    1    3    3    0    0 -0.11759623281E+02 -0.41115214466E+01  0.71339690455E+00  0.12478072116E+02  0.51100000000E-03 0.  1.
         12    1    3    3    0    0 -0.12321474180E+02 -0.77350495022E+01  0.11782461547E+02  0.18721007368E+02  0.00000000000E+00 0. -1.
</event>
<event>
 7    1  0.5006721E-012  0.5052887E+02  0.7816164E-02  0.1300439E+00
        -11   -1    0    0    0    0  0.00000000000E+00  0.00000000000E+00  0.45593999997E+02  0.45594000000E+02  0.51100000000E-03 0. -1.
         11   -1    0    0    0    0 -0.00000000000E+00 -0.00000000000E+00 -0.45593999997E+02  0.45594000000E+02  0.51100000000E-03 0.  1.
    9900012    2    1    2    0    0  0.23906164362E+02  0.26674057100E+02 -0.19239405989E+02  0.50528871142E+02  0.30000034323E+02 0.  0.
         12    1    1    2    0    0 -0.23906164362E+02 -0.26674057100E+02  0.19239405989E+02  0.40659128858E+02  0.00000000000E+00 0. -1.
         11    1    3    3    0    0  0.12629673826E+02 -0.16165100211E+01 -0.12000211338E+02  0.17496480733E+02  0.51100000000E-03 0. -1.
        -11    1    3    3    0    0  0.14267513344E+01  0.65827855862E+01 -0.62270028987E+01  0.91730175409E+01  0.51100000000E-03 0.  1.
         12    1    3    3    0    0  0.98497392011E+01  0.21707781535E+02 -0.10121917518E+01  0.23859372868E+02  0.00000000000E+00 0. -1.
</event>
<event>
 7    1  0.5006721E-012  0.5052896E+02  0.7816164E-02  0.1300438E+00
        -11   -1    0    0    0    0  0.00000000000E+00  0.00000000000E+00  0.45593999997E+02  0.45594000000E+02  0.51100000000E-03 0. -1.
         11   -1    0    0    0    0 -0.00000000000E+00 -0.00000000000E+00 -0.45593999997E+02  0.45594000000E+02  0.51100000000E-03 0.  1.
    9900012    2    1    2    0    0  0.17046783935E+02 -0.18179644968E+02 -0.32125774864E+02  0.50528957410E+02  0.30000296543E+02 0.  0.
         12    1    1    2    0    0 -0.17046783935E+02  0.18179644968E+02  0.32125774864E+02  0.40659042590E+02  0.00000000000E+00 0. -1.
         11    1    3    3    0    0  0.99601142774E+01 -0.13522798567E+02 -0.45720350584E+01  0.17406132894E+02  0.51100000000E-03 0. -1.
        -11    1    3    3    0    0  0.11025285318E+01 -0.49532606941E+01 -0.26571082334E+02  0.27051298995E+02  0.51100000000E-03 0.  1.
        -12    1    3    3    0    0  0.59841411258E+01  0.29641429268E+00 -0.98265747182E+00  0.60715255211E+01  0.00000000000E+00 0.  1.
</event>
<event>
 7    1  0.5006721E-012  0.5052884E+02  0.7816164E-02  0.1300439E+00
        -11   -1    0    0    0    0  0.00000000000E+00  0.00000000000E+00  0.45593999997E+02  0.45594000000E+02  0.51100000000E-03 0.  1.
         11   -1    0    0    0    0 -0.00000000000E+00 -0.00000000000E+00 -0.45593999997E+02  0.45594000000E+02  0.51100000000E-03 0. -1.
    9900012    2    1    2    0    0 -0.11023677416E+02  0.29342023287E+02 -0.25897704620E+02  0.50528844832E+02  0.29999954352E+02 0.  0.
         12    1    1    2    0    0  0.11023677416E+02 -0.29342023287E+02  0.25897704620E+02  0.40659155168E+02  0.00000000000E+00 0. -1.
         11    1    3    3    0    0  0.24895885672E+01 -0.97574928431E+00  0.40428306317E+01  0.48471246814E+01  0.51100000000E-03 0. -1.
        -11    1    3    3    0    0 -0.11247693108E+02  0.13731974679E+02 -0.16002985132E+02  0.23899231415E+02  0.51100000000E-03 0.  1.
         12    1    3    3    0    0 -0.22655728751E+01  0.16585797892E+02 -0.13937550120E+02  0.21782488736E+02  0.00000000000E+00 0. -1.
</event>
<event>
 7    1  0.5006721E-012  0.5052883E+02  0.7816164E-02  0.1300439E+00
        -11   -1    0    0    0    0  0.00000000000E+00  0.00000000000E+00  0.45593999997E+02  0.45594000000E+02  0.51100000000E-03 0.  1.
         11   -1    0    0    0    0 -0.00000000000E+00 -0.00000000000E+00 -0.45593999997E+02  0.45594000000E+02  0.51100000000E-03 0. -1.
    9900012    2    1    2    0    0  0.16340468268E+02  0.99661708946E+00  0.37217790723E+02  0.50528830122E+02  0.29999909640E+02 0.  0.
        -12    1    1    2    0    0 -0.16340468268E+02 -0.99661708946E+00 -0.37217790723E+02  0.40659169878E+02  0.00000000000E+00 0.  1.
         11    1    3    3    0    0  0.13141128745E+02  0.73049592616E+01  0.29578540825E+02  0.33180442615E+02  0.51100000000E-03 0. -1.
        -11    1    3    3    0    0  0.74489471249E+01 -0.80440235520E+01  0.49574627472E+01  0.12032022495E+02  0.51100000000E-03 0.  1.
        -12    1    3    3    0    0 -0.42496076019E+01  0.17356813799E+01  0.26817871507E+01  0.53163650124E+01  0.00000000000E+00 0.  1.
</event>
<event>
 7    1  0.5006721E-012  0.5052887E+02  0.7816164E-02  0.1300439E+00
        -11   -1    0    0    0    0  0.00000000000E+00  0.00000000000E+00  0.45593999997E+02  0.45594000000E+02  0.51100000000E-03 0. -1.
         11   -1    0    0    0    0 -0.00000000000E+00 -0.00000000000E+00 -0.45593999997E+02  0.45594000000E+02  0.51100000000E-03 0.  1.
    9900012    2    1    2    0    0 -0.92644096178E+01  0.77612236307E+01 -0.38821372178E+02  0.50528870452E+02  0.30000032225E+02 0.  0.
         12    1    1    2    0    0  0.92644096178E+01 -0.77612236307E+01  0.38821372178E+02  0.40659129548E+02  0.00000000000E+00 0. -1.
         11    1    3    3    0    0 -0.96351298310E+01 -0.52228371597E+01 -0.44374058952E+01  0.11823887948E+02  0.51100000000E-03 0. -1.
        -11    1    3    3    0    0  0.50658474378E+01  0.18718399662E+01 -0.75360200519E+01  0.92713641718E+01  0.51100000000E-03 0.  1.
         12    1    3    3    0    0 -0.46951272246E+01  0.11112220824E+02 -0.26847946231E+02  0.29433618332E+02  0.00000000000E+00 0. -1.
</event>
<event>
 7    1  0.5006721E-012  0.5052885E+02  0.7816164E-02  0.1300439E+00
        -11   -1    0    0    0    0  0.00000000000E+00  0.00000000000E+00  0.45593999997E+02  0.45594000000E+02  0.51100000000E-03 0. -1.
         11   -1    0    0    0    0 -0.00000000000E+00 -0.00000000000E+00 -0.45593999997E+02  0.45594000000E+02  0.51100000000E-03 0.  1.
    9900012    2    1    2    0    0 -0.72987575649E+01 -0.14835405651E+02  0.37145732333E+02  0.50528849082E+02  0.29999967269E+02 0.  0.
        -12    1    1    2    0    0  0.72987575649E+01  0.14835405651E+02 -0.37145732333E+02  0.40659150918E+02  0.00000000000E+00 0.  1.
         11    1    3    3    0    0  0.73871419472E+00 -0.13846164965E+02  0.31840394102E+02  0.34728557121E+02  0.51100000000E-03 0. -1.
        -11    1    3    3    0    0 -0.50041814451E+01 -0.38054161556E+01 -0.26579883511E+01  0.68255348794E+01  0.51100000000E-03 0.  1.
        -12    1    3    3    0    0 -0.30332903145E+01  0.28161754696E+01  0.79633265824E+01  0.89747570811E+01  0.00000000000E+00 0.  1.
</event>
<event>
 7    1  0.5006721E-012  0.5052878E+02  0.7816164E-02  0.1300439E+00
        -11   -1    0    0    0    0  0.00000000000E+00  0.00000000000E+00  0.45593999997E+02  0.45594000000E+02  0.51100000000E-03 0. -1.
         11   -1    0    0    0    0 -0.00000000000E+00 -0.00000000000E+00 -0.45593999997E+02  0.45594000000E+02  0.51100000000E-03 0.  1.
    9900012    2    1    2    0    0 -0.17262130797E+02  0.34758169799E+02  0.12126871838E+02  0.50528775364E+02  0.29999743195E+02 0.  0.
        -12    1    1    2    0    0  0.17262130797E+02 -0.34758169799E+02 -0.12126871838E+02  0.40659224636E+02  0.00000000000E+00 0.  1.
         11    1    3    3    0    0 -0.50970899546E+01  0.11380167643E+02  0.16464690961E+02  0.20653682245E+02  0.51100000000E-03 0. -1.
        -11    1    3    3    0    0 -0.53734303731E+01  0.21802617298E+02 -0.44990664827E+01  0.22901298533E+02  0.51100000000E-03 0.  1.
        -12    1    3    3    0    0 -0.67916104692E+01  0.15753848579E+01  0.16124736031E+00  0.69737945859E+01  0.00000000000E+00 0.  1.
</event>
<event>
 7    1  0.5006721E-012  0.5052885E+02  0.7816164E-02  0.1300439E+00
        -11   -1    0    0    0    0  0.00000000000E+00  0.00000000000E+00  0.45593999997E+02  0.45594000000E+02  0.51100000000E-03 0. -1.
         11   -1    0    0    0    0 -0.00000000000E+00 -0.00000000000E+00 -0.45593999997E+02  0.45594000000E+02  0.51100000000E-03 0.  1.
    9900012    2    1    2    0    0 -0.84997199353E+01 -0.29528418152E+02  0.26626944157E+02  0.50528845155E+02  0.29999955333E+02 0.  0.
        -12    1    1    2    0    0  0.84997199353E+01  0.29528418152E+02 -0.26626944157E+02  0.40659154845E+02  0.00000000000E+00 0.  1.
         11    1    3    3    0    0 -0.97987996700E+01 -0.21713570316E+02  0.14462159997E+01  0.23866025052E+02  0.51100000000E-03 0. -1.
        -11    1    3    3    0    0  0.18294816570E+01 -0.15285377583E+01  0.85357338117E+01  0.88624027654E+01  0.51100000000E-03 0.  1.
         12    1    3    3    0    0 -0.53040192231E+00 -0.62863100782E+01  0.16644994346E+02  0.17800417337E+02  0.00000000000E+00 0. -1.
</event>
<event>
 7    1  0.5006721E-012  0.5052886E+02  0.7816164E-02  0.1300439E+00
        -11   -1    0    0    0    0  0.00000000000E+00  0.00000000000E+00  0.45593999997E+02  0.45594000000E+02  0.51100000000E-03 0. -1.
         11   -1    0    0    0    0 -0.00000000000E+00 -0.00000000000E+00 -0.45593999997E+02  0.45594000000E+02  0.51100000000E-03 0.  1.
    9900012    2    1    2    0    0  0.27882465859E+02 -0.10036713187E+02 -0.27838787880E+02  0.50528860504E+02  0.30000001987E+02 0.  0.
         12    1    1    2    0    0 -0.27882465859E+02  0.10036713187E+02  0.27838787880E+02  0.40659139496E+02  0.00000000000E+00 0. -1.
         11    1    3    3    0    0  0.13971513717E+02 -0.10040506238E+02  0.22568808163E+01  0.17352477412E+02  0.51100000000E-03 0. -1.
        -11    1    3    3    0    0  0.49163369930E+01 -0.44165034700E+00 -0.98249213006E+01  0.10995203649E+02  0.51100000000E-03 0.  1.
         12    1    3    3    0    0  0.89946151486E+01  0.44544339786E+00 -0.20270747395E+02  0.22181179443E+02  0.00000000000E+00 0. -1.
</event>
<event>
 7    1  0.5006721E-012  0.5052886E+02  0.7816164E-02  0.1300439E+00
        -11   -1    0    0    0    0  0.00000000000E+00  0.00000000000E+00  0.45593999997E+02  0.45594000000E+02  0.51100000000E-03 0.  1.
         11   -1    0    0    0    0 -0.00000000000E+00 -0.00000000000E+00 -0.45593999997E+02  0.45594000000E+02  0.51100000000E-03 0. -1.
    9900012    2    1    2    0    0 -0.79310151521E+01 -0.32947189770E+02  0.22466588110E+02  0.50528857161E+02  0.29999991826E+02 0.  0.
        -12    1    1    2    0    0  0.79310151521E+01  0.32947189770E+02 -0.22466588110E+02  0.40659142839E+02  0.00000000000E+00 0.  1.
         11    1    3    3    0    0 -0.11545082336E+02 -0.15074731819E+02 -0.26946721880E+01  0.19178053186E+02  0.51100000000E-03 0. -1.
        -11    1    3    3    0    0  0.16178543452E+01 -0.13044099237E+02  0.15141971765E+02  0.20051066974E+02  0.51100000000E-03 0.  1.
         12    1    3    3    0    0  0.19962128388E+01 -0.48283587143E+01  0.10019288533E+02  0.11299737001E+02  0.00000000000E+00 0. -1.
</event>
<event>
 7    1  0.5006721E-012  0.5052886E+02  0.7816164E-02  0.1300439E+00
        -11   -1    0    0    0    0  0.00000000000E+00  0.00000000000E+00  0.45593999997E+02  0.45594000000E+02  0.51100000000E-03 0. -1.
         11   -1    0    0    0    0 -0.00000000000E+00 -0.00000000000E+00 -0.45593999997E+02  0.45594000000E+02  0.51100000000E-03 0.  1.
    9900012    2    1    2    0    0 -0.97073804580E+01 -0.35771691557E+01 -0.39320937443E+02  0.50528862086E+02  0.30000006798E+02 0.  0.
         12    1    1    2    0    0  0.97073804580E+01  0.35771691557E+01  0.39320937443E+02  0.40659137914E+02  0.00000000000E+00 0. -1.
         11    1    3    3    0    0  0.64105438000E+01  0.76105744481E+01 -0.10782676291E+02  0.14672492069E+02  0.51100000000E-03 0. -1.
        -11    1    3    3    0    0 -0.16868637553E+02 -0.11196880673E+02 -0.24662767782E+02  0.31908826124E+02  0.51100000000E-03 0.  1.
        -12    1    3    3    0    0  0.75071329472E+00  0.91370692590E-02 -0.38754933689E+01  0.39475438933E+01  0.00000000000E+00 0.  1.
</event>
<event>
 7    1  0.5006721E-012  0.5052886E+02  0.7816164E-02  0.1300439E+00
        -11   -1    0    0    0    0  0.00000000000E+00  0.00000000000E+00  0.45593999997E+02  0.45594000000E+02  0.51100000000E-03 0. -1.
         11   -1    0    0    0    0 -0.00000000000E+00 -0.00000000000E+00 -0.45593999997E+02  0.45594000000E+02  0.51100000000E-03 0.  1.
    9900012    2    1    2    0    0  0.18605066576E+02 -0.34409674417E+02  0.11090141082E+02  0.50528862958E+02  0.30000009447E+02 0.  0.
        -12    1    1    2    0    0 -0.18605066576E+02  0.34409674417E+02 -0.11090141082E+02  0.40659137042E+02  0.00000000000E+00 0.  1.
         11    1    3    3    0    0  0.21862040584E+02 -0.24673714787E+02  0.13371710120E+02  0.35574480343E+02  0.51100000000E-03 0. -1.
        -11    1    3    3    0    0 -0.55720749526E+01 -0.96566960323E+01 -0.42329893804E+01  0.11925518726E+02  0.51100000000E-03 0.  1.
        -12    1    3    3    0    0  0.23151009452E+01 -0.79263597804E-01  0.19514203427E+01  0.30288638891E+01  0.00000000000E+00 0.  1.
</event>
<event>
 7    1  0.5006721E-012  0.5052882E+02  0.7816164E-02  0.1300439E+00
        -11   -1    0    0    0    0  0.00000000000E+00  0.00000000000E+00  0.45593999997E+02  0.45594000000E+02  0.51100000000E-03 0. -1.
         11   -1    0    0    0    0 -0.00000000000E+00 -0.00000000000E+00 -0.45593999997E+02  0.45594000000E+02  0.51100000000E-03 0.  1.
    9900012    2    1    2    0    0 -0.15470345623E+01  0.11994195102E+02 -0.38819000830E+02  0.50528820747E+02  0.29999881143E+02 0.  0.
         12    1    1    2    0    0  0.15470345623E+01 -0.11994195102E+02  0.38819000830E+02  0.40659179253E+02  0.00000000000E+00 0. -1.
         11    1    3    3    0    0  0.75165084954E+01 -0.56642691567E+01 -0.61217978580E+01  0.11227566714E+02  0.51100000000E-03 0. -1.
        -11    1    3    3    0    0 -0.83121826488E+01  0.92712037113E+01 -0.13653264303E+02  0.18478615344E+02  0.51100000000E-03 0.  1.
         12    1    3    3    0    0 -0.75136040896E+00  0.83872605476E+01 -0.19043938669E+02  0.20822638689E+02  0.00000000000E+00 0. -1.
</event>
<event>
 7    1  0.5006721E-012  0.5052885E+02  0.7816164E-02  0.1300439E+00
        -11   -1    0    0    0    0  0.00000000000E+00  0.00000000000E+00  0.45593999997E+02  0.45594000000E+02  0.51100000000E-03 0. -1.
         11   -1    0    0    0    0 -0.00000000000E+00 -0.00000000000E+00 -0.45593999997E+02  0.45594000000E+02  0.51100000000E-03 0.  1.
    9900012    2    1    2    0    0  0.35635833351E+01 -0.20230870370E+02 -0.35088162351E+02  0.50528851223E+02  0.29999973776E+02 0.  0.
         12    1    1    2    0    0 -0.35635833351E+01  0.20230870370E+02  0.35088162351E+02  0.40659148777E+02  0.00000000000E+00 0. -1.
         11    1    3    3    0    0 -0.38403592486E+01 -0.20677214505E+02 -0.81595565590E+01  0.22558234025E+02  0.51100000000E-03 0. -1.
        -11    1    3    3    0    0  0.38013793544E+01  0.28765874093E+00 -0.11098737178E+02  0.11735211961E+02  0.51100000000E-03 0.  1.
         12    1    3    3    0    0  0.36025632292E+01  0.15868539349E+00 -0.15829868614E+02  0.16235405237E+02  0.00000000000E+00 0. -1.
</event>
<event>
 7    1  0.5006721E-012  0.5052886E+02  0.7816164E-02  0.1300439E+00
        -11   -1    0    0    0    0  0.00000000000E+00  0.00000000000E+00  0.45593999997E+02  0.45594000000E+02  0.51100000000E-03 0. -1.
         11   -1    0    0    0    0 -0.00000000000E+00 -0.00000000000E+00 -0.45593999997E+02  0.45594000000E+02  0.51100000000E-03 0.  1.
    9900012    2    1    2    0    0  0.96673459789E+01  0.40928402388E+01  0.39280489504E+02  0.50528858652E+02  0.29999996357E+02 0.  0.
        -12    1    1    2    0    0 -0.96673459789E+01 -0.40928402388E+01 -0.39280489504E+02  0.40659141348E+02  0.00000000000E+00 0.  1.
         11    1    3    3    0    0  0.88783676854E-02  0.11694586085E+02  0.19163076591E+02  0.22449653165E+02  0.51100000000E-03 0. -1.
        -11    1    3    3    0    0 -0.15836258475E+01 -0.77949406794E+01  0.11155195906E+02  0.13700633817E+02  0.51100000000E-03 0.  1.
         12    1    3    3    0    0  0.11242093459E+02  0.19319483276E+00  0.89622170079E+01  0.14378571670E+02  0.00000000000E+00 0. -1.
</event>
<event>
 7    1  0.5006721E-012  0.5052883E+02  0.7816164E-02  0.1300439E+00
        -11   -1    0    0    0    0  0.00000000000E+00  0.00000000000E+00  0.45593999997E+02  0.45594000000E+02  0.51100000000E-03 0. -1.
         11   -1    0    0    0    0 -0.00000000000E+00 -0.00000000000E+00 -0.45593999997E+02  0.45594000000E+02  0.51100000000E-03 0.  1.
    9900012    2    1    2    0    0 -0.25664913641E+02  0.31389033070E+02  0.30345715884E+01  0.50528833579E+02  0.29999920148E+02 0.  0.
        -12    1    1    2    0    0  0.25664913641E+02 -0.31389033070E+02 -0.30345715884E+01  0.40659166421E+02  0.00000000000E+00 0.  1.
         11    1    3    3    0    0 -0.11619875540E+02  0.31513325604E+02  0.55628550696E+01  0.34044919665E+02  0.51100000000E-03 0. -1.
        -11    1    3    3    0    0 -0.99640446872E+01  0.35378702394E+01 -0.33650251098E+00  0.10578844292E+02  0.51100000000E-03 0.  1.
         12    1    3    3    0    0 -0.40809934143E+01 -0.36621627733E+01 -0.21917809703E+01  0.59050696226E+01  0.00000000000E+00 0. -1.
</event>
<event>
 7    1  0.5006721E-012  0.5052886E+02  0.7816164E-02  0.1300439E+00
        -11   -1    0    0    0    0  0.00000000000E+00  0.00000000000E+00  0.45593999997E+02  0.45594000000E+02  0.51100000000E-03 0. -1.
         11   -1    0    0    0    0 -0.00000000000E+00 -0.00000000000E+00 -0.45593999997E+02  0.45594000000E+02  0.51100000000E-03 0.  1.
    9900012    2    1    2    0    0 -0.40822677824E+01 -0.42208855453E+01  0.40232885865E+02  0.50528857239E+02  0.29999992064E+02 0.  0.
        -12    1    1    2    0    0  0.40822677824E+01  0.42208855453E+01 -0.40232885865E+02  0.40659142761E+02  0.00000000000E+00 0.  1.
         11    1    3    3    0    0  0.88587802594E+01  0.52407984760E+01  0.21892675432E+02  0.24191593461E+02  0.51100000000E-03 0. -1.
        -11    1    3    3    0    0 -0.85568899793E+01 -0.11019936081E+02  0.15635558938E+02  0.20955430344E+02  0.51100000000E-03 0.  1.
        -12    1    3    3    0    0 -0.43841580624E+01  0.15582520600E+01  0.27046514953E+01  0.53818334338E+01  0.00000000000E+00 0.  1.
</event>
<event>
 7    1  0.5006721E-012  0.5052886E+02  0.7816164E-02  0.1300439E+00
        -11   -1    0    0    0    0  0.00000000000E+00  0.00000000000E+00  0.45593999997E+02  0.45594000000E+02  0.51100000000E-03 0. -1.
         11   -1    0    0    0    0 -0.00000000000E+00 -0.00000000000E+00 -0.45593999997E+02  0.45594000000E+02  0.51100000000E-03 0.  1.
    9900012    2    1    2    0    0 -0.32681618370E+02 -0.13287808775E+02  0.20211676594E+02  0.50528856969E+02  0.29999991242E+02 0.  0.
        -12    1    1    2    0    0  0.32681618370E+02  0.13287808775E+02 -0.20211676594E+02  0.40659143031E+02  0.00000000000E+00 0.  1.
         11    1    3    3    0    0 -0.25021281000E+01  0.26883810457E+01  0.85317837422E+01  0.92886689984E+01  0.51100000000E-03 0.  1.
        -11    1    3    3    0    0 -0.31919500786E+02 -0.10213684198E+02  0.10349649940E+02  0.35075477608E+02  0.51100000000E-03 0. -1.
        -12    1    3    3    0    0  0.17400105162E+01 -0.57625056223E+01  0.13302429118E+01  0.61647103620E+01  0.00000000000E+00 0.  1.
</event>
<event>
 7    1  0.5006721E-012  0.5052886E+02  0.7816164E-02  0.1300439E+00
        -11   -1    0    0    0    0  0.00000000000E+00  0.00000000000E+00  0.45593999997E+02  0.45594000000E+02  0.51100000000E-03 0. -1.
         11   -1    0    0    0    0 -0.00000000000E+00 -0.00000000000E+00 -0.45593999997E+02  0.45594000000E+02  0.51100000000E-03 0.  1.
    9900012    2    1    2    0    0  0.38820733437E+01  0.22848498640E+01 -0.40408843248E+02  0.50528860253E+02  0.30000001225E+02 0.  0.
         12    1    1    2    0    0 -0.38820733437E+01 -0.22848498640E+01  0.40408843248E+02  0.40659139747E+02  0.00000000000E+00 0. -1.
         11    1    3    3    0    0  0.39095955369E+01  0.11537818371E+02 -0.15545579716E+02  0.19750221240E+02  0.51100000000E-03 0. -1.
        -11    1    3    3    0    0 -0.59160035449E+01 -0.64391194302E+01 -0.54639417478E+01  0.10310965845E+02  0.51100000000E-03 0.  1.
        -12    1    3    3    0    0  0.58884813517E+01 -0.28138490773E+01 -0.19399321783E+02  0.20467673168E+02  0.00000000000E+00 0.  1.
</event>
<event>
 7    1  0.5006721E-012  0.5052875E+02  0.7816164E-02  0.1300439E+00
        -11   -1    0    0    0    0  0.00000000000E+00  0.00000000000E+00  0.45593999997E+02  0.45594000000E+02  0.51100000000E-03 0. -1.
         11   -1    0    0    0    0 -0.00000000000E+00 -0.00000000000E+00 -0.45593999997E+02  0.45594000000E+02  0.51100000000E-03 0.  1.
    9900012    2    1    2    0    0  0.41501077007E+01 -0.35335844493E+02 -0.19680675426E+02  0.50528754001E+02  0.29999678261E+02 0.  0.
         12    1    1    2    0    0 -0.41501077007E+01  0.35335844493E+02  0.19680675426E+02  0.40659245999E+02  0.00000000000E+00 0. -1.
         11    1    3    3    0    0 -0.31040007276E+01 -0.50342398142E+01  0.52078929691E+01  0.78803896136E+01  0.51100000000E-03 0. -1.
        -11    1    3    3    0    0  0.10625279554E+02 -0.17046846341E+02 -0.10024645175E+02  0.22449611287E+02  0.51100000000E-03 0.  1.
         12    1    3    3    0    0 -0.33711711252E+01 -0.13254758337E+02 -0.14863923220E+02  0.20198753101E+02  0.00000000000E+00 0. -1.
</event>
<event>
 7    1  0.5006721E-012  0.5052886E+02  0.7816164E-02  0.1300439E+00
        -11   -1    0    0    0    0  0.00000000000E+00  0.00000000000E+00  0.45593999997E+02  0.45594000000E+02  0.51100000000E-03 0. -1.
         11   -1    0    0    0    0 -0.00000000000E+00 -0.00000000000E+00 -0.45593999997E+02  0.45594000000E+02  0.51100000000E-03 0.  1.
    9900012    2    1    2    0    0 -0.26419535472E+02  0.65662477846E+01 -0.30200307596E+02  0.50528855353E+02  0.29999986330E+02 0.  0.
         12    1    1    2    0    0  0.26419535472E+02 -0.65662477846E+01  0.30200307596E+02  0.40659144647E+02  0.00000000000E+00 0. -1.
         11    1    3    3    0    0 -0.14088727589E+02  0.14848232204E+01  0.31487577443E+01  0.14512464320E+02  0.51100000000E-03 0. -1.
        -11    1    3    3    0    0 -0.44604331891E+01  0.27187641939E+01 -0.15744202232E+02  0.16588159849E+02  0.51100000000E-03 0.  1.
        -12    1    3    3    0    0 -0.78703746944E+01  0.23626603702E+01 -0.17604863109E+02  0.19428231184E+02  0.00000000000E+00 0.  1.
</event>
<event>
 7    1  0.5006721E-012  0.5052886E+02  0.7816164E-02  0.1300439E+00
        -11   -1    0    0    0    0  0.00000000000E+00  0.00000000000E+00  0.45593999997E+02  0.45594000000E+02  0.51100000000E-03 0. -1.
         11   -1    0    0    0    0 -0.00000000000E+00 -0.00000000000E+00 -0.45593999997E+02  0.45594000000E+02  0.51100000000E-03 0.  1.
    9900012    2    1    2    0    0  0.71750740854E+01 -0.23571881147E+02 -0.32342701267E+02  0.50528860877E+02  0.30000003123E+02 0.  0.
         12    1    1    2    0    0 -0.71750740854E+01  0.23571881147E+02  0.32342701267E+02  0.40659139123E+02  0.00000000000E+00 0. -1.
         11    1    3    3    0    0  0.84375005200E+01 -0.54984610942E+01 -0.15205300616E+01  0.10185111750E+02  0.51100000000E-03 0. -1.
        -11    1    3    3    0    0 -0.25729473768E+01 -0.19048576633E+02 -0.32652786083E+02  0.37890272752E+02  0.51100000000E-03 0.  1.
        -12    1    3    3    0    0  0.13105209421E+01  0.97515657974E+00  0.18306148780E+01  0.24534763757E+01  0.00000000000E+00 0.  1.
</event>
<event>
 7    1  0.5006721E-012  0.5052886E+02  0.7816164E-02  0.1300439E+00
        -11   -1    0    0    0    0  0.00000000000E+00  0.00000000000E+00  0.45593999997E+02  0.45594000000E+02  0.51100000000E-03 0. -1.
         11   -1    0    0    0    0 -0.00000000000E+00 -0.00000000000E+00 -0.45593999997E+02  0.45594000000E+02  0.51100000000E-03 0.  1.
    9900012    2    1    2    0    0 -0.12185356519E+02  0.14677835259E+02 -0.35906040623E+02  0.50528861856E+02  0.30000006099E+02 0.  0.
         12    1    1    2    0    0  0.12185356519E+02 -0.14677835259E+02  0.35906040623E+02  0.40659138144E+02  0.00000000000E+00 0. -1.
         11    1    3    3    0    0  0.31267703684E+01 -0.59730904857E+01 -0.39469129044E+01  0.78123379742E+01  0.51100000000E-03 0. -1.
        -11    1    3    3    0    0 -0.89473136902E+01  0.20042447335E+02 -0.24794875587E+02  0.33114044952E+02  0.51100000000E-03 0.  1.
         12    1    3    3    0    0 -0.63648131970E+01  0.60847841016E+00 -0.71642521316E+01  0.96024789307E+01  0.00000000000E+00 0. -1.
</event>
<event>
 7    1  0.5006721E-012  0.5052887E+02  0.7816164E-02  0.1300439E+00
        -11   -1    0    0    0    0  0.00000000000E+00  0.00000000000E+00  0.45593999997E+02  0.45594000000E+02  0.51100000000E-03 0.  1.
         11   -1    0    0    0    0 -0.00000000000E+00 -0.00000000000E+00 -0.45593999997E+02  0.45594000000E+02  0.51100000000E-03 0. -1.
    9900012    2    1    2    0    0 -0.79803656901E+01 -0.39868172259E+02  0.88178185999E-01  0.50528866079E+02  0.30000018934E+02 0.  0.
         12    1    1    2    0    0  0.79803656901E+01  0.39868172259E+02 -0.88178185999E-01  0.40659133921E+02  0.00000000000E+00 0. -1.
         11    1    3    3    0    0 -0.14427947009E+02 -0.31021069629E+02  0.45650066696E+01  0.34515383555E+02  0.51100000000E-03 0.  1.
        -11    1    3    3    0    0  0.26333617717E+01 -0.65792853556E+01 -0.77483430559E+01  0.10500400487E+02  0.51100000000E-03 0. -1.
        -12    1    3    3    0    0  0.38142195474E+01 -0.22678172744E+01  0.32715145724E+01  0.55130820367E+01  0.00000000000E+00 0.  1.
</event>
<event>
 7    1  0.5006721E-012  0.5052885E+02  0.7816164E-02  0.1300439E+00
        -11   -1    0    0    0    0  0.00000000000E+00  0.00000000000E+00  0.45593999997E+02  0.45594000000E+02  0.51100000000E-03 0. -1.
         11   -1    0    0    0    0 -0.00000000000E+00 -0.00000000000E+00 -0.45593999997E+02  0.45594000000E+02  0.51100000000E-03 0.  1.
    9900012    2    1    2    0    0 -0.28176590282E+02 -0.49256420942E+01  0.28896099303E+02  0.50528846727E+02  0.29999960111E+02 0.  0.
        -12    1    1    2    0    0  0.28176590282E+02  0.49256420942E+01 -0.28896099303E+02  0.40659153273E+02  0.00000000000E+00 0.  1.
         11    1    3    3    0    0 -0.36805627499E+01  0.45951906046E+01  0.21516239923E+02  0.22307193897E+02  0.51100000000E-03 0. -1.
        -11    1    3    3    0    0 -0.76100852655E+01 -0.66330005360E+01  0.23079809264E+01  0.10355523651E+02  0.51100000000E-03 0.  1.
         12    1    3    3    0    0 -0.16885942266E+02 -0.28878321628E+01  0.50718784537E+01  0.17866129180E+02  0.00000000000E+00 0. -1.
</event>
<event>
 7    1  0.5006721E-012  0.5052887E+02  0.7816164E-02  0.1300439E+00
        -11   -1    0    0    0    0  0.00000000000E+00  0.00000000000E+00  0.45593999997E+02  0.45594000000E+02  0.51100000000E-03 0. -1.
         11   -1    0    0    0    0 -0.00000000000E+00 -0.00000000000E+00 -0.45593999997E+02  0.45594000000E+02  0.51100000000E-03 0.  1.
    9900012    2    1    2    0    0  0.62296981839E+01  0.22471832411E+02  0.33307245859E+02  0.50528867961E+02  0.30000024656E+02 0.  0.
        -12    1    1    2    0    0 -0.62296981839E+01 -0.22471832411E+02 -0.33307245859E+02  0.40659132039E+02  0.00000000000E+00 0.  1.
         11    1    3    3    0    0 -0.75774238122E+01  0.91099056686E+01  0.58653179772E+01  0.13221561487E+02  0.51100000000E-03 0. -1.
        -11    1    3    3    0    0  0.75412767858E+01 -0.22328130485E+01  0.12769886514E+02  0.14997543516E+02  0.51100000000E-03 0.  1.
         12    1    3    3    0    0  0.62658452103E+01  0.15594739791E+02  0.14672041368E+02  0.22309762959E+02  0.00000000000E+00 0. -1.
</event>
<event>
 7    1  0.5006721E-012  0.5052886E+02  0.7816164E-02  0.1300439E+00
        -11   -1    0    0    0    0  0.00000000000E+00  0.00000000000E+00  0.45593999997E+02  0.45594000000E+02  0.51100000000E-03 0. -1.
         11   -1    0    0    0    0 -0.00000000000E+00 -0.00000000000E+00 -0.45593999997E+02  0.45594000000E+02  0.51100000000E-03 0.  1.
    9900012    2    1    2    0    0 -0.29267964569E+02 -0.26438273820E+02 -0.98777356660E+01  0.50528859152E+02  0.29999997877E+02 0.  0.
         12    1    1    2    0    0  0.29267964569E+02  0.26438273820E+02  0.98777356660E+01  0.40659140848E+02  0.00000000000E+00 0. -1.
         11    1    3    3    0    0 -0.13899778082E+02  0.61237652878E+00 -0.18997902163E+01  0.14042365858E+02  0.51100000000E-03 0. -1.
        -11    1    3    3    0    0 -0.34282818246E+01 -0.21253126654E+02 -0.11458496971E+01  0.21558327408E+02  0.51100000000E-03 0.  1.
        -12    1    3    3    0    0 -0.11939904662E+02 -0.57975236948E+01 -0.68320957526E+01  0.14928165886E+02  0.00000000000E+00 0.  1.
</event>
<event>
 7    1  0.5006721E-012  0.5052886E+02  0.7816164E-02  0.1300439E+00
        -11   -1    0    0    0    0  0.00000000000E+00  0.00000000000E+00  0.45593999997E+02  0.45594000000E+02  0.51100000000E-03 0. -1.
         11   -1    0    0    0    0 -0.00000000000E+00 -0.00000000000E+00 -0.45593999997E+02  0.45594000000E+02  0.51100000000E-03 0.  1.
    9900012    2    1    2    0    0  0.91498578236E+01 -0.21814640280E+02  0.33069129729E+02  0.50528858718E+02  0.29999996561E+02 0.  0.
        -12    1    1    2    0    0 -0.91498578236E+01  0.21814640280E+02 -0.33069129729E+02  0.40659141282E+02  0.00000000000E+00 0.  1.
         11    1    3    3    0    0  0.27405733830E+01 -0.31185817414E+01  0.24294764149E+01  0.48102651129E+01  0.51100000000E-03 0.  1.
        -11    1    3    3    0    0  0.78764278775E+01 -0.14221904503E+02  0.35442165649E+02  0.38992919741E+02  0.51100000000E-03 0. -1.
        -12    1    3    3    0    0 -0.14671434369E+01 -0.44741540364E+01 -0.48025123350E+01  0.67256738646E+01  0.00000000000E+00 0.  1.
</event>
<event>
 7    1  0.5006721E-012  0.5052889E+02  0.7816164E-02  0.1300439E+00
        -11   -1    0    0    0    0  0.00000000000E+00  0.00000000000E+00  0.45593999997E+02  0.45594000000E+02  0.51100000000E-03 0. -1.
         11   -1    0    0    0    0 -0.00000000000E+00 -0.00000000000E+00 -0.45593999997E+02  0.45594000000E+02  0.51100000000E-03 0.  1.
    9900012    2    1    2    0    0 -0.15001275272E+02  0.14091509728E+02 -0.35065002822E+02  0.50528888732E+02  0.30000087788E+02 0.  0.
         12    1    1    2    0    0  0.15001275272E+02 -0.14091509728E+02  0.35065002822E+02  0.40659111268E+02  0.00000000000E+00 0. -1.
         11    1    3    3    0    0 -0.36937504305E+01 -0.37523058160E+00 -0.24803713704E+02  0.25080047927E+02  0.51100000000E-03 0. -1.
        -11    1    3    3    0    0 -0.10623492925E+02  0.98961621108E+01 -0.13484201869E+02  0.19814548361E+02  0.51100000000E-03 0.  1.
         12    1    3    3    0    0 -0.68403191632E+00  0.45705781988E+01  0.32229127511E+01  0.56342924432E+01  0.00000000000E+00 0. -1.
</event>
<event>
 7    1  0.5006721E-012  0.5052886E+02  0.7816164E-02  0.1300439E+00
        -11   -1    0    0    0    0  0.00000000000E+00  0.00000000000E+00  0.45593999997E+02  0.45594000000E+02  0.51100000000E-03 0. -1.
         11   -1    0    0    0    0 -0.00000000000E+00 -0.00000000000E+00 -0.45593999997E+02  0.45594000000E+02  0.51100000000E-03 0.  1.
    9900012    2    1    2    0    0 -0.20154264985E+02 -0.60601813251E+01 -0.34788586179E+02  0.50528856833E+02  0.29999990830E+02 0.  0.
         12    1    1    2    0    0  0.20154264985E+02  0.60601813251E+01  0.34788586179E+02  0.40659143167E+02  0.00000000000E+00 0. -1.
         11    1    3    3    0    0 -0.20588994390E+02 -0.13225166245E+02 -0.28067296135E+02  0.37236874531E+02  0.51100000000E-03 0. -1.
        -11    1    3    3    0    0 -0.11445010362E+01  0.82934376985E+01 -0.74616541083E+01  0.11214600919E+02  0.51100000000E-03 0.  1.
         12    1    3    3    0    0  0.15792304422E+01 -0.11284527787E+01  0.74036406470E+00  0.20773813833E+01  0.00000000000E+00 0. -1.
</event>
<event>
 7    1  0.5006721E-012  0.5052885E+02  0.7816164E-02  0.1300439E+00
        -11   -1    0    0    0    0  0.00000000000E+00  0.00000000000E+00  0.45593999997E+02  0.45594000000E+02  0.51100000000E-03 0. -1.
         11   -1    0    0    0    0 -0.00000000000E+00 -0.00000000000E+00 -0.45593999997E+02  0.45594000000E+02  0.51100000000E-03 0.  1.
    9900012    2    1    2    0    0  0.22513965578E+02 -0.17150362278E+02 -0.29191651879E+02  0.50528854513E+02  0.29999983779E+02 0.  0.
         12    1    1    2    0    0 -0.22513965578E+02  0.17150362278E+02  0.29191651879E+02  0.40659145487E+02  0.00000000000E+00 0. -1.
         11    1    3    3    0    0  0.68972321123E+01  0.14268611954E+00  0.22479555796E+01  0.72557201358E+01  0.51100000000E-03 0. -1.
        -11    1    3    3    0    0 -0.87545390351E+00 -0.12493189611E+02 -0.14281299912E+02  0.18994781748E+02  0.51100000000E-03 0.  1.
        -12    1    3    3    0    0  0.16492187369E+02 -0.47998587866E+01 -0.17158307546E+02  0.24278352630E+02  0.00000000000E+00 0.  1.
</event>
<event>
 7    1  0.5006721E-012  0.5052886E+02  0.7816164E-02  0.1300439E+00
        -11   -1    0    0    0    0  0.00000000000E+00  0.00000000000E+00  0.45593999997E+02  0.45594000000E+02  0.51100000000E-03 0. -1.
         11   -1    0    0    0    0 -0.00000000000E+00 -0.00000000000E+00 -0.45593999997E+02  0.45594000000E+02  0.51100000000E-03 0.  1.
    9900012    2    1    2    0    0 -0.22815530753E+02  0.14223620066E+02 -0.30500914415E+02  0.50528860911E+02  0.30000003224E+02 0.  0.
         12    1    1    2    0    0  0.22815530753E+02 -0.14223620066E+02  0.30500914415E+02  0.40659139089E+02  0.00000000000E+00 0. -1.
         11    1    3    3    0    0 -0.17763335752E+02  0.20012424457E+02 -0.12991981112E+02  0.29746004826E+02  0.51100000000E-03 0. -1.
        -11    1    3    3    0    0 -0.42297234175E+01 -0.75904191463E+01 -0.16275069285E+02  0.18449468922E+02  0.51100000000E-03 0.  1.
        -12    1    3    3    0    0 -0.82247158334E+00  0.18016147557E+01 -0.12338640191E+01  0.23333871626E+01  0.00000000000E+00 0.  1.
</event>
<event>
 7    1  0.5006721E-012  0.5052886E+02  0.7816164E-02  0.1300439E+00
        -11   -1    0    0    0    0  0.00000000000E+00  0.00000000000E+00  0.45593999997E+02  0.45594000000E+02  0.51100000000E-03 0. -1.
         11   -1    0    0    0    0 -0.00000000000E+00 -0.00000000000E+00 -0.45593999997E+02  0.45594000000E+02  0.51100000000E-03 0.  1.
    9900012    2    1    2    0    0 -0.22141904136E+02  0.49615796129E+01 -0.33738475591E+02  0.50528856794E+02  0.29999990712E+02 0.  0.
         12    1    1    2    0    0  0.22141904136E+02 -0.49615796129E+01  0.33738475591E+02  0.40659143206E+02  0.00000000000E+00 0. -1.
         11    1    3    3    0    0 -0.15626392485E+02  0.59479801548E+01 -0.13829997210E+01  0.16777225591E+02  0.51100000000E-03 0. -1.
        -11    1    3    3    0    0 -0.23942126136E+01 -0.28670568215E+01 -0.23598515014E+02  0.23892303781E+02  0.51100000000E-03 0.  1.
         12    1    3    3    0    0 -0.41212990370E+01  0.18806562797E+01 -0.87569608559E+01  0.98593274226E+01  0.00000000000E+00 0. -1.
</event>
<event>
 7    1  0.5006721E-012  0.5052887E+02  0.7816164E-02  0.1300439E+00
        -11   -1    0    0    0    0  0.00000000000E+00  0.00000000000E+00  0.45593999997E+02  0.45594000000E+02  0.51100000000E-03 0.  1.
         11   -1    0    0    0    0 -0.00000000000E+00 -0.00000000000E+00 -0.45593999997E+02  0.45594000000E+02  0.51100000000E-03 0. -1.
    9900012    2    1    2    0    0 -0.32267712778E+02  0.84358959575E+01  0.23255008914E+02  0.50528867347E+02  0.30000022787E+02 0.  0.
        -12    1    1    2    0    0  0.32267712778E+02 -0.84358959575E+01 -0.23255008914E+02  0.40659132653E+02  0.00000000000E+00 0.  1.
         11    1    3    3    0    0 -0.10782582792E+02  0.43840953232E+01 -0.36017984991E+01  0.12184306962E+02  0.51100000000E-03 0. -1.
        -11    1    3    3    0    0 -0.14384718541E+02  0.84530624445E+01  0.24541284545E+02  0.29675731491E+02  0.51100000000E-03 0.  1.
         12    1    3    3    0    0 -0.71004114453E+01 -0.44012618102E+01  0.23155228688E+01  0.86688288926E+01  0.00000000000E+00 0. -1.
</event>
<event>
 7    1  0.5006721E-012  0.5052886E+02  0.7816164E-02  0.1300439E+00
        -11   -1    0    0    0    0  0.00000000000E+00  0.00000000000E+00  0.45593999997E+02  0.45594000000E+02  0.51100000000E-03 0. -1.
         11   -1    0    0    0    0 -0.00000000000E+00 -0.00000000000E+00 -0.45593999997E+02  0.45594000000E+02  0.51100000000E-03 0.  1.
    9900012    2    1    2    0    0 -0.11095148749E+02  0.17873975546E+02  0.34793457040E+02  0.50528856128E+02  0.29999988687E+02 0.  0.
        -12    1    1    2    0    0  0.11095148749E+02 -0.17873975546E+02 -0.34793457040E+02  0.40659143872E+02  0.00000000000E+00 0.  1.
         11    1    3    3    0    0 -0.28957269864E+01  0.20999592559E+02  0.11446929857E+02  0.24091499037E+02  0.51100000000E-03 0. -1.
        -11    1    3    3    0    0 -0.39136239665E+01 -0.50941391833E+01  0.73575354470E+01  0.97672941332E+01  0.51100000000E-03 0.  1.
        -12    1    3    3    0    0 -0.42857977962E+01  0.19685221701E+01  0.15988991736E+02  0.16670062958E+02  0.00000000000E+00 0.  1.
</event>
<event>
 7    1  0.5006721E-012  0.5052886E+02  0.7816164E-02  0.1300439E+00
        -11   -1    0    0    0    0  0.00000000000E+00  0.00000000000E+00  0.45593999997E+02  0.45594000000E+02  0.51100000000E-03 0. -1.
         11   -1    0    0    0    0 -0.00000000000E+00 -0.00000000000E+00 -0.45593999997E+02  0.45594000000E+02  0.51100000000E-03 0.  1.
    9900012    2    1    2    0    0  0.19135890349E+02  0.12150621632E+02 -0.33754195341E+02  0.50528860700E+02  0.30000002585E+02 0.  0.
         12    1    1    2    0    0 -0.19135890349E+02 -0.12150621632E+02  0.33754195341E+02  0.40659139300E+02  0.00000000000E+00 0. -1.
         11    1    3    3    0    0 -0.16498529413E+01  0.23217213036E+01 -0.19648682717E+02  0.19854045867E+02  0.51100000000E-03 0. -1.
        -11    1    3    3    0    0  0.22295350260E+02  0.61442433424E+01 -0.10917531979E+02  0.25573949133E+02  0.51100000000E-03 0.  1.
         12    1    3    3    0    0 -0.15096069695E+01  0.36846569858E+01 -0.31879806444E+01  0.51008657005E+01  0.00000000000E+00 0. -1.
</event>
<event>
 7    1  0.5006721E-012  0.5052886E+02  0.7816164E-02  0.1300439E+00
        -11   -1    0    0    0    0  0.00000000000E+00  0.00000000000E+00  0.45593999997E+02  0.45594000000E+02  0.51100000000E-03 0. -1.
         11   -1    0    0    0    0 -0.00000000000E+00 -0.00000000000E+00 -0.45593999997E+02  0.45594000000E+02  0.51100000000E-03 0.  1.
    9900012    2    1    2    0    0  0.69351082093E+01 -0.27087435821E+02 -0.29518486211E+02  0.50528856706E+02  0.29999990444E+02 0.  0.
         12    1    1    2    0    0 -0.69351082093E+01  0.27087435821E+02  0.29518486211E+02  0.40659143294E+02  0.00000000000E+00 0. -1.
         11    1    3    3    0    0  0.48872144307E+01 -0.30339101513E+02 -0.30929811722E+02  0.43600449526E+02  0.51100000000E-03 0. -1.
        -11    1    3    3    0    0 -0.55904002095E+00  0.32629999894E+01 -0.91472603886E+00  0.34345914842E+01  0.51100000000E-03 0.  1.
         12    1    3    3    0    0  0.26069337996E+01 -0.11334297420E-01  0.23260515499E+01  0.34938156956E+01  0.00000000000E+00 0. -1.
</event>
<event>
 7    1  0.5006721E-012  0.5052886E+02  0.7816164E-02  0.1300439E+00
        -11   -1    0    0    0    0  0.00000000000E+00  0.00000000000E+00  0.45593999997E+02  0.45594000000E+02  0.51100000000E-03 0. -1.
         11   -1    0    0    0    0 -0.00000000000E+00 -0.00000000000E+00 -0.45593999997E+02  0.45594000000E+02  0.51100000000E-03 0.  1.
    9900012    2    1    2    0    0 -0.16329274244E+02  0.16141121124E+02  0.33555696913E+02  0.50528858545E+02  0.29999996035E+02 0.  0.
        -12    1    1    2    0    0  0.16329274244E+02 -0.16141121124E+02 -0.33555696913E+02  0.40659141455E+02  0.00000000000E+00 0.  1.
         11    1    3    3    0    0  0.28894340360E+01 -0.43044355685E+01  0.15820307530E+02  0.16648096744E+02  0.51100000000E-03 0. -1.
        -11    1    3    3    0    0 -0.60911810663E+01  0.58668734735E+01  0.18971745464E+01  0.86672926948E+01  0.51100000000E-03 0.  1.
         12    1    3    3    0    0 -0.13127527214E+02  0.14578683219E+02  0.15838214837E+02  0.25213469106E+02  0.00000000000E+00 0. -1.
</event>
<event>
 7    1  0.5006721E-012  0.5052891E+02  0.7816164E-02  0.1300439E+00
        -11   -1    0    0    0    0  0.00000000000E+00  0.00000000000E+00  0.45593999997E+02  0.45594000000E+02  0.51100000000E-03 0. -1.
         11   -1    0    0    0    0 -0.00000000000E+00 -0.00000000000E+00 -0.45593999997E+02  0.45594000000E+02  0.51100000000E-03 0.  1.
    9900012    2    1    2    0    0 -0.46677884651E+01 -0.17204039787E+02  0.36543045622E+02  0.50528912240E+02  0.30000159243E+02 0.  0.
        -12    1    1    2    0    0  0.46677884651E+01  0.17204039787E+02 -0.36543045622E+02  0.40659087760E+02  0.00000000000E+00 0.  1.
         11    1    3    3    0    0 -0.42730863548E+01 -0.15839758759E+02  0.13563789878E+02  0.21286935446E+02  0.51100000000E-03 0. -1.
        -11    1    3    3    0    0 -0.55028746860E+01  0.55982449701E+01  0.17040167124E+02  0.18761377147E+02  0.51100000000E-03 0.  1.
        -12    1    3    3    0    0  0.51081725757E+01 -0.69625259977E+01  0.59390886198E+01  0.10480599647E+02  0.00000000000E+00 0.  1.
</event>
<event>
 7    1  0.5006721E-012  0.5052886E+02  0.7816164E-02  0.1300439E+00
        -11   -1    0    0    0    0  0.00000000000E+00  0.00000000000E+00  0.45593999997E+02  0.45594000000E+02  0.51100000000E-03 0. -1.
         11   -1    0    0    0    0 -0.00000000000E+00 -0.00000000000E+00 -0.45593999997E+02  0.45594000000E+02  0.51100000000E-03 0.  1.
    9900012    2    1    2    0    0  0.64368341605E+01  0.50660386332E+01 -0.39825468852E+02  0.50528861412E+02  0.30000004747E+02 0.  0.
         12    1    1    2    0    0 -0.64368341605E+01 -0.50660386332E+01  0.39825468852E+02  0.40659138588E+02  0.00000000000E+00 0. -1.
         11    1    3    3    0    0 -0.25813972998E+01  0.32400543423E+01 -0.57640397318E+01  0.70982898258E+01  0.51100000000E-03 0. -1.
        -11    1    3    3    0    0  0.14413419189E+02 -0.73063806145E+01 -0.18075036997E+02  0.24245346216E+02  0.51100000000E-03 0.  1.
        -12    1    3    3    0    0 -0.53951877285E+01  0.91323649054E+01 -0.15986392123E+02  0.19185225370E+02  0.00000000000E+00 0.  1.
</event>
<event>
 7    1  0.5006721E-012  0.5052886E+02  0.7816164E-02  0.1300439E+00
        -11   -1    0    0    0    0  0.00000000000E+00  0.00000000000E+00  0.45593999997E+02  0.45594000000E+02  0.51100000000E-03 0. -1.
         11   -1    0    0    0    0 -0.00000000000E+00 -0.00000000000E+00 -0.45593999997E+02  0.45594000000E+02  0.51100000000E-03 0.  1.
    9900012    2    1    2    0    0  0.23956557257E+02 -0.28953518286E+02  0.15522327557E+02  0.50528861919E+02  0.30000006288E+02 0.  0.
        -12    1    1    2    0    0 -0.23956557257E+02  0.28953518286E+02 -0.15522327557E+02  0.40659138081E+02  0.00000000000E+00 0.  1.
         11    1    3    3    0    0  0.12654665996E+02 -0.87704908890E+01  0.49641925021E+00  0.15404821136E+02  0.51100000000E-03 0. -1.
        -11    1    3    3    0    0 -0.54205669239E+01  0.90444325465E-01  0.18704411244E+01  0.57349172804E+01  0.51100000000E-03 0.  1.
        -12    1    3    3    0    0  0.16722458184E+02 -0.20273471723E+02  0.13155467182E+02  0.29389123502E+02  0.00000000000E+00 0.  1.
</event>
<event>
 7    1  0.5006721E-012  0.5052886E+02  0.7816164E-02  0.1300439E+00
        -11   -1    0    0    0    0  0.00000000000E+00  0.00000000000E+00  0.45593999997E+02  0.45594000000E+02  0.51100000000E-03 0. -1.
         11   -1    0    0    0    0 -0.00000000000E+00 -0.00000000000E+00 -0.45593999997E+02  0.45594000000E+02  0.51100000000E-03 0.  1.
    9900012    2    1    2    0    0  0.31905904449E+02  0.73347356038E+01  0.24111832809E+02  0.50528861218E+02  0.30000004159E+02 0.  0.
        -12    1    1    2    0    0 -0.31905904449E+02 -0.73347356038E+01 -0.24111832809E+02  0.40659138782E+02  0.00000000000E+00 0.  1.
         11    1    3    3    0    0  0.18342391794E+02 -0.10054706494E+02  0.10135923881E+02  0.23243868279E+02  0.51100000000E-03 0. -1.
        -11    1    3    3    0    0 -0.66121350719E+00  0.20957438676E+01  0.81192069188E-01  0.21990766412E+01  0.51100000000E-03 0.  1.
         12    1    3    3    0    0  0.14224726161E+02  0.15293698230E+02  0.13894716859E+02  0.25085916298E+02  0.00000000000E+00 0. -1.
</event>
<event>
 7    1  0.5006721E-012  0.5052887E+02  0.7816164E-02  0.1300439E+00
        -11   -1    0    0    0    0  0.00000000000E+00  0.00000000000E+00  0.45593999997E+02  0.45594000000E+02  0.51100000000E-03 0. -1.
         11   -1    0    0    0    0 -0.00000000000E+00 -0.00000000000E+00 -0.45593999997E+02  0.45594000000E+02  0.51100000000E-03 0.  1.
    9900012    2    1    2    0    0  0.49762195061E+01  0.23808350425E+02 -0.32581661307E+02  0.50528868626E+02  0.30000026676E+02 0.  0.
         12    1    1    2    0    0 -0.49762195061E+01 -0.23808350425E+02  0.32581661307E+02  0.40659131374E+02  0.00000000000E+00 0. -1.
         11    1    3    3    0    0 -0.65290236524E+00  0.20337196936E+02 -0.95055749465E+01  0.22458490957E+02  0.51100000000E-03 0. -1.
        -11    1    3    3    0    0 -0.26824219386E+01  0.36323445532E+01 -0.17468771592E+02  0.18042929241E+02  0.51100000000E-03 0.  1.
         12    1    3    3    0    0  0.83115438100E+01 -0.16119106424E+00 -0.56073147688E+01  0.10027448428E+02  0.00000000000E+00 0. -1.
</event>
<event>
 7    1  0.5006721E-012  0.5052886E+02  0.7816164E-02  0.1300439E+00
        -11   -1    0    0    0    0  0.00000000000E+00  0.00000000000E+00  0.45593999997E+02  0.45594000000E+02  0.51100000000E-03 0. -1.
         11   -1    0    0    0    0 -0.00000000000E+00 -0.00000000000E+00 -0.45593999997E+02  0.45594000000E+02  0.51100000000E-03 0.  1.
    9900012    2    1    2    0    0 -0.95465310903E+01 -0.13354756205E+02 -0.37197843993E+02  0.50528863673E+02  0.30000011620E+02 0.  0.
         12    1    1    2    0    0  0.95465310903E+01  0.13354756205E+02  0.37197843993E+02  0.40659136327E+02  0.00000000000E+00 0. -1.
         11    1    3    3    0    0 -0.99903716183E+01 -0.41328281321E+01 -0.59323958354E+01  0.12332117176E+02  0.51100000000E-03 0. -1.
        -11    1    3    3    0    0  0.43040099458E+01  0.47734818587E+01 -0.15420742979E+02  0.16706583880E+02  0.51100000000E-03 0.  1.
        -12    1    3    3    0    0 -0.38601694179E+01 -0.13995409931E+02 -0.15844705179E+02  0.21490162617E+02  0.00000000000E+00 0.  1.
</event>
<event>
 7    1  0.5006721E-012  0.5052886E+02  0.7816164E-02  0.1300439E+00
        -11   -1    0    0    0    0  0.00000000000E+00  0.00000000000E+00  0.45593999997E+02  0.45594000000E+02  0.51100000000E-03 0. -1.
         11   -1    0    0    0    0 -0.00000000000E+00 -0.00000000000E+00 -0.45593999997E+02  0.45594000000E+02  0.51100000000E-03 0.  1.
    9900012    2    1    2    0    0  0.23157457040E+02 -0.24483945967E+02 -0.22747183393E+02  0.50528858605E+02  0.29999996216E+02 0.  0.
         12    1    1    2    0    0 -0.23157457040E+02  0.24483945967E+02  0.22747183393E+02  0.40659141395E+02  0.00000000000E+00 0. -1.
         11    1    3    3    0    0  0.86688415643E+00 -0.13929085243E+01  0.40876477519E+01  0.44046051699E+01  0.51100000000E-03 0. -1.
        -11    1    3    3    0    0  0.17735500822E+02 -0.26446534239E+02 -0.23231986615E+02  0.39416904559E+02  0.51100000000E-03 0.  1.
         12    1    3    3    0    0  0.45550720612E+01  0.33554967967E+01 -0.36028445307E+01  0.67073488762E+01  0.00000000000E+00 0. -1.
</event>
<event>
 7    1  0.5006721E-012  0.5052887E+02  0.7816164E-02  0.1300439E+00
        -11   -1    0    0    0    0  0.00000000000E+00  0.00000000000E+00  0.45593999997E+02  0.45594000000E+02  0.51100000000E-03 0. -1.
         11   -1    0    0    0    0 -0.00000000000E+00 -0.00000000000E+00 -0.45593999997E+02  0.45594000000E+02  0.51100000000E-03 0.  1.
    9900012    2    1    2    0    0 -0.17113905287E+02  0.36881084893E+02  0.25510931411E+00  0.50528865014E+02  0.30000015696E+02 0.  0.
         12    1    1    2    0    0  0.17113905287E+02 -0.36881084893E+02 -0.25510931411E+00  0.40659134986E+02  0.00000000000E+00 0. -1.
         11    1    3    3    0    0 -0.92101354798E+01 -0.25519052110E+00 -0.51031392575E+00  0.92277916276E+01  0.51100000000E-03 0. -1.
        -11    1    3    3    0    0 -0.24428077045E+01  0.31353887105E+02 -0.44904200667E+01  0.31767867708E+02  0.51100000000E-03 0.  1.
        -12    1    3    3    0    0 -0.54609621029E+01  0.57823883090E+01  0.52558433066E+01  0.95332056785E+01  0.00000000000E+00 0.  1.
</event>
<event>
 7    1  0.5006721E-012  0.5052886E+02  0.7816164E-02  0.1300439E+00
        -11   -1    0    0    0    0  0.00000000000E+00  0.00000000000E+00  0.45593999997E+02  0.45594000000E+02  0.51100000000E-03 0. -1.
         11   -1    0    0    0    0 -0.00000000000E+00 -0.00000000000E+00 -0.45593999997E+02  0.45594000000E+02  0.51100000000E-03 0.  1.
    9900012    2    1    2    0    0  0.34685064418E+01  0.67417720323E+01 -0.39946004591E+02  0.50528864374E+02  0.30000013751E+02 0.  0.
         12    1    1    2    0    0 -0.34685064418E+01 -0.67417720323E+01  0.39946004591E+02  0.40659135626E+02  0.00000000000E+00 0. -1.
         11    1    3    3    0    0  0.16242330289E+00 -0.74090160450E+01 -0.14058189022E+02  0.15891902936E+02  0.51100000000E-03 0. -1.
        -11    1    3    3    0    0 -0.35879878258E+00  0.17194684633E+02 -0.23969297977E+02  0.29501070523E+02  0.51100000000E-03 0.  1.
         12    1    3    3    0    0  0.36648819215E+01 -0.30438965561E+01 -0.19185175923E+01  0.51358909154E+01  0.00000000000E+00 0. -1.
</event>
<event>
 7    1  0.5006721E-012  0.5052886E+02  0.7816164E-02  0.1300439E+00
        -11   -1    0    0    0    0  0.00000000000E+00  0.00000000000E+00  0.45593999997E+02  0.45594000000E+02  0.51100000000E-03 0. -1.
         11   -1    0    0    0    0 -0.00000000000E+00 -0.00000000000E+00 -0.45593999997E+02  0.45594000000E+02  0.51100000000E-03 0.  1.
    9900012    2    1    2    0    0  0.12318754205E+02  0.64415548634E+01  0.38208905519E+02  0.50528858405E+02  0.29999995609E+02 0.  0.
        -12    1    1    2    0    0 -0.12318754205E+02 -0.64415548634E+01 -0.38208905519E+02  0.40659141595E+02  0.00000000000E+00 0.  1.
         11    1    3    3    0    0 -0.36460681894E+01  0.79935731128E+01  0.36509235562E+01  0.95142139679E+01  0.51100000000E-03 0. -1.
        -11    1    3    3    0    0  0.14066940559E+02 -0.73651710673E+01  0.23170038408E+02  0.28088703097E+02  0.51100000000E-03 0.  1.
         12    1    3    3    0    0  0.18978818352E+01  0.58131528179E+01  0.11387943555E+02  0.12925941341E+02  0.00000000000E+00 0. -1.
</event>
<event>
 7    1  0.5006721E-012  0.5052886E+02  0.7816164E-02  0.1300439E+00
        -11   -1    0    0    0    0  0.00000000000E+00  0.00000000000E+00  0.45593999997E+02  0.45594000000E+02  0.51100000000E-03 0. -1.
         11   -1    0    0    0    0 -0.00000000000E+00 -0.00000000000E+00 -0.45593999997E+02  0.45594000000E+02  0.51100000000E-03 0.  1.
    9900012    2    1    2    0    0  0.68907881535E+01 -0.21121262221E+02 -0.34052535556E+02  0.50528857645E+02  0.29999993299E+02 0.  0.
         12    1    1    2    0    0 -0.68907881535E+01  0.21121262221E+02  0.34052535556E+02  0.40659142355E+02  0.00000000000E+00 0. -1.
         11    1    3    3    0    0  0.71326582655E+01 -0.95675446929E+01 -0.22047924040E+02  0.25070374551E+02  0.51100000000E-03 0. -1.
        -11    1    3    3    0    0 -0.37735424872E+00 -0.15068298766E+02 -0.24419982830E+01  0.15269557289E+02  0.51100000000E-03 0.  1.
        -12    1    3    3    0    0  0.13548413675E+00  0.35145812375E+01 -0.95626132332E+01  0.10188925806E+02  0.00000000000E+00 0.  1.
</event>
<event>
 7    1  0.5006721E-012  0.5052885E+02  0.7816164E-02  0.1300439E+00
        -11   -1    0    0    0    0  0.00000000000E+00  0.00000000000E+00  0.45593999997E+02  0.45594000000E+02  0.51100000000E-03 0. -1.
         11   -1    0    0    0    0 -0.00000000000E+00 -0.00000000000E+00 -0.45593999997E+02  0.45594000000E+02  0.51100000000E-03 0.  1.
    9900012    2    1    2    0    0  0.20519950683E+02 -0.20064924092E+02  0.28800981399E+02  0.50528854849E+02  0.29999984800E+02 0.  0.
        -12    1    1    2    0    0 -0.20519950683E+02  0.20064924092E+02 -0.28800981399E+02  0.40659145151E+02  0.00000000000E+00 0.  1.
         11    1    3    3    0    0 -0.92564539093E+00 -0.11725082181E+01  0.12932397481E+02  0.13018390830E+02  0.51100000000E-03 0. -1.
        -11    1    3    3    0    0  0.14657862484E+02 -0.21986248515E+02  0.13568062681E+02  0.29704214878E+02  0.51100000000E-03 0.  1.
        -12    1    3    3    0    0  0.67877335899E+01  0.30938326410E+01  0.23005212368E+01  0.78062491415E+01  0.00000000000E+00 0.  1.
</event>
<event>
 7    1  0.5006721E-012  0.5052887E+02  0.7816164E-02  0.1300439E+00
        -11   -1    0    0    0    0  0.00000000000E+00  0.00000000000E+00  0.45593999997E+02  0.45594000000E+02  0.51100000000E-03 0. -1.
         11   -1    0    0    0    0 -0.00000000000E+00 -0.00000000000E+00 -0.45593999997E+02  0.45594000000E+02  0.51100000000E-03 0.  1.
    9900012    2    1    2    0    0 -0.40148144537E+02 -0.13639489448E+01  0.62794151312E+01  0.50528869158E+02  0.30000028292E+02 0.  0.
        -12    1    1    2    0    0  0.40148144537E+02  0.13639489448E+01 -0.62794151312E+01  0.40659130842E+02  0.00000000000E+00 0.  1.
         11    1    3    3    0    0 -0.13717098192E+01  0.10492304135E+01  0.21978546350E+01  0.27951811294E+01  0.51100000000E-03 0. -1.
        -11    1    3    3    0    0 -0.19360151750E+02  0.96107617503E+01  0.10473434880E+02  0.24018223407E+02  0.51100000000E-03 0.  1.
        -12    1    3    3    0    0 -0.19416282967E+02 -0.12023941109E+02 -0.63918743834E+01  0.23715464621E+02  0.00000000000E+00 0.  1.
</event>
<event>
 7    1  0.5006721E-012  0.5052886E+02  0.7816164E-02  0.1300439E+00
        -11   -1    0    0    0    0  0.00000000000E+00  0.00000000000E+00  0.45593999997E+02  0.45594000000E+02  0.51100000000E-03 0. -1.
         11   -1    0    0    0    0 -0.00000000000E+00 -0.00000000000E+00 -0.45593999997E+02  0.45594000000E+02  0.51100000000E-03 0.  1.
    9900012    2    1    2    0    0  0.18530949057E+01  0.33207576263E+02  0.23387789585E+02  0.50528858548E+02  0.29999996041E+02 0.  0.
        -12    1    1    2    0    0 -0.18530949057E+01 -0.33207576263E+02 -0.23387789585E+02  0.40659141452E+02  0.00000000000E+00 0.  1.
         11    1    3    3    0    0  0.59374272547E+01  0.24333665156E+02  0.39286556269E+01  0.25353789414E+02  0.51100000000E-03 0. -1.
        -11    1    3    3    0    0 -0.80069212644E+01  0.29423719372E+01  0.80369816617E+01  0.11720128636E+02  0.51100000000E-03 0.  1.
        -12    1    3    3    0    0  0.39225889153E+01  0.59315391692E+01  0.11422152297E+02  0.13454940498E+02  0.00000000000E+00 0.  1.
</event>
<event>
 7    1  0.5006721E-012  0.5052888E+02  0.7816164E-02  0.1300439E+00
        -11   -1    0    0    0    0  0.00000000000E+00  0.00000000000E+00  0.45593999997E+02  0.45594000000E+02  0.51100000000E-03 0.  1.
         11   -1    0    0    0    0 -0.00000000000E+00 -0.00000000000E+00 -0.45593999997E+02  0.45594000000E+02  0.51100000000E-03 0. -1.
    9900012    2    1    2    0    0 -0.38293524530E+02 -0.38926115553E+01 -0.13100300008E+02  0.50528876720E+02  0.30000051277E+02 0.  0.
         12    1    1    2    0    0  0.38293524530E+02  0.38926115553E+01  0.13100300008E+02  0.40659123280E+02  0.00000000000E+00 0. -1.
         11    1    3    3    0    0 -0.39167688272E+01  0.62173347862E+01 -0.69942954474E+01  0.10144776930E+02  0.51100000000E-03 0. -1.
        -11    1    3    3    0    0 -0.15465125851E+02 -0.11736670949E+02 -0.86103921570E+01  0.21238135886E+02  0.51100000000E-03 0.  1.
        -12    1    3    3    0    0 -0.18911629851E+02  0.16267246075E+01  0.25043875962E+01  0.19145963904E+02  0.00000000000E+00 0.  1.
</event>
<event>
 7    1  0.5006721E-012  0.5052887E+02  0.7816164E-02  0.1300439E+00
        -11   -1    0    0    0    0  0.00000000000E+00  0.00000000000E+00  0.45593999997E+02  0.45594000000E+02  0.51100000000E-03 0. -1.
         11   -1    0    0    0    0 -0.00000000000E+00 -0.00000000000E+00 -0.45593999997E+02  0.45594000000E+02  0.51100000000E-03 0.  1.
    9900012    2    1    2    0    0 -0.29240971624E+02  0.18962138080E+02 -0.20942016565E+02  0.50528866219E+02  0.30000019358E+02 0.  0.
         12    1    1    2    0    0  0.29240971624E+02 -0.18962138080E+02  0.20942016565E+02  0.40659133781E+02  0.00000000000E+00 0. -1.
         11    1    3    3    0    0 -0.17065101190E+02  0.21492575966E+02 -0.16235951455E+02  0.31886589975E+02  0.51100000000E-03 0. -1.
        -11    1    3    3    0    0 -0.12684199387E+02 -0.61434931848E+01 -0.23216562102E+01  0.14283609852E+02  0.51100000000E-03 0.  1.
        -12    1    3    3    0    0  0.50832895318E+00  0.36130552981E+01 -0.23844088991E+01  0.43586663912E+01  0.00000000000E+00 0.  1.
</event>
<event>
 7    1  0.5006721E-012  0.5052886E+02  0.7816164E-02  0.1300439E+00
        -11   -1    0    0    0    0  0.00000000000E+00  0.00000000000E+00  0.45593999997E+02  0.45594000000E+02  0.51100000000E-03 0. -1.
         11   -1    0    0    0    0 -0.00000000000E+00 -0.00000000000E+00 -0.45593999997E+02  0.45594000000E+02  0.51100000000E-03 0.  1.
    9900012    2    1    2    0    0  0.48347646896E+00 -0.35758463380E+02 -0.19345907861E+02  0.50528860760E+02  0.30000002765E+02 0.  0.
         12    1    1    2    0    0 -0.48347646896E+00  0.35758463380E+02  0.19345907861E+02  0.40659139240E+02  0.00000000000E+00 0. -1.
         11    1    3    3    0    0 -0.16286346805E+01 -0.15413509051E+01  0.31843274314E+00  0.22648649426E+01  0.51100000000E-03 0. -1.
        -11    1    3    3    0    0 -0.98491279361E+01 -0.26770761090E+02 -0.18768614539E+02  0.34145861571E+02  0.51100000000E-03 0.  1.
        -12    1    3    3    0    0  0.11961239086E+02 -0.74463513851E+01 -0.89572606492E+00  0.14118134246E+02  0.00000000000E+00 0.  1.
</event>
<event>
 7    1  0.5006721E-012  0.5052886E+02  0.7816164E-02  0.1300439E+00
        -11   -1    0    0    0    0  0.00000000000E+00  0.00000000000E+00  0.45593999997E+02  0.45594000000E+02  0.51100000000E-03 0. -1.
         11   -1    0    0    0    0 -0.00000000000E+00 -0.00000000000E+00 -0.45593999997E+02  0.45594000000E+02  0.51100000000E-03 0.  1.
    9900012    2    1    2    0    0  0.79168538931E+01 -0.52233549965E+01 -0.39537395106E+02  0.50528860502E+02  0.30000001980E+02 0.  0.
         12    1    1    2    0    0 -0.79168538931E+01  0.52233549965E+01  0.39537395106E+02  0.40659139498E+02  0.00000000000E+00 0. -1.
         11    1    3    3    0    0  0.47673779508E+00  0.11605074141E+01  0.19694301993E+01  0.23351042706E+01  0.51100000000E-03 0. -1.
        -11    1    3    3    0    0  0.97890373986E+01 -0.79234170726E+01 -0.43142894947E+02  0.44943466443E+02  0.51100000000E-03 0.  1.
        -12    1    3    3    0    0 -0.23489213006E+01  0.15395546620E+01  0.16360696412E+01  0.32502897878E+01  0.00000000000E+00 0.  1.
</event>
<event>
 7    1  0.5006721E-012  0.5052886E+02  0.7816164E-02  0.1300439E+00
        -11   -1    0    0    0    0  0.00000000000E+00  0.00000000000E+00  0.45593999997E+02  0.45594000000E+02  0.51100000000E-03 0. -1.
         11   -1    0    0    0    0 -0.00000000000E+00 -0.00000000000E+00 -0.45593999997E+02  0.45594000000E+02  0.51100000000E-03 0.  1.
    9900012    2    1    2    0    0 -0.19371533995E+02 -0.25925773263E+01  0.35653723344E+02  0.50528858657E+02  0.29999996373E+02 0.  0.
        -12    1    1    2    0    0  0.19371533995E+02  0.25925773263E+01 -0.35653723344E+02  0.40659141343E+02  0.00000000000E+00 0.  1.
         11    1    3    3    0    0 -0.56653672064E+01  0.10755543856E+01  0.18794469629E+02  0.19659229174E+02  0.51100000000E-03 0. -1.
        -11    1    3    3    0    0 -0.11450933746E+02 -0.21313227865E+01 -0.19964488050E+01  0.11817454403E+02  0.51100000000E-03 0.  1.
        -12    1    3    3    0    0 -0.22552330421E+01 -0.15368089254E+01  0.18855702520E+02  0.19052175080E+02  0.00000000000E+00 0.  1.
</event>
<event>
 7    1  0.5006721E-012  0.5052887E+02  0.7816164E-02  0.1300439E+00
        -11   -1    0    0    0    0  0.00000000000E+00  0.00000000000E+00  0.45593999997E+02  0.45594000000E+02  0.51100000000E-03 0. -1.
         11   -1    0    0    0    0 -0.00000000000E+00 -0.00000000000E+00 -0.45593999997E+02  0.45594000000E+02  0.51100000000E-03 0.  1.
    9900012    2    1    2    0    0  0.86967335235E+01  0.31164459424E+02 -0.24623332248E+02  0.50528865772E+02  0.30000018000E+02 0.  0.
         12    1    1    2    0    0 -0.86967335235E+01 -0.31164459424E+02  0.24623332248E+02  0.40659134228E+02  0.00000000000E+00 0. -1.
         11    1    3    3    0    0  0.18239339025E+02  0.22343838159E+02 -0.12965564753E+02  0.31623194990E+02  0.51100000000E-03 0. -1.
        -11    1    3    3    0    0 -0.46034016982E+01  0.82626926054E+01 -0.97429969119E+01  0.13579005316E+02  0.51100000000E-03 0.  1.
         12    1    3    3    0    0 -0.49392038031E+01  0.55792865992E+00 -0.19147705838E+01  0.53266654660E+01  0.00000000000E+00 0. -1.
</event>
<event>
 7    1  0.5006721E-012  0.5052884E+02  0.7816164E-02  0.1300439E+00
        -11   -1    0    0    0    0  0.00000000000E+00  0.00000000000E+00  0.45593999997E+02  0.45594000000E+02  0.51100000000E-03 0.  1.
         11   -1    0    0    0    0 -0.00000000000E+00 -0.00000000000E+00 -0.45593999997E+02  0.45594000000E+02  0.51100000000E-03 0. -1.
    9900012    2    1    2    0    0  0.10415325816E+02 -0.27239915609E+02 -0.28331524994E+02  0.50528839621E+02  0.29999938511E+02 0.  0.
         12    1    1    2    0    0 -0.10415325816E+02  0.27239915609E+02  0.28331524994E+02  0.40659160379E+02  0.00000000000E+00 0. -1.
         11    1    3    3    0    0  0.12901687613E+02 -0.56451442173E+01 -0.20190521841E+01  0.14226656968E+02  0.51100000000E-03 0. -1.
        -11    1    3    3    0    0  0.77819293573E+00 -0.17155465149E+02 -0.25483344150E+02  0.30729731500E+02  0.51100000000E-03 0.  1.
         12    1    3    3    0    0 -0.32645547325E+01 -0.44393062427E+01 -0.82912866040E+00  0.55724511531E+01  0.00000000000E+00 0. -1.
</event>
<event>
 7    1  0.5006721E-012  0.5052886E+02  0.7816164E-02  0.1300439E+00
        -11   -1    0    0    0    0  0.00000000000E+00  0.00000000000E+00  0.45593999997E+02  0.45594000000E+02  0.51100000000E-03 0. -1.
         11   -1    0    0    0    0 -0.00000000000E+00 -0.00000000000E+00 -0.45593999997E+02  0.45594000000E+02  0.51100000000E-03 0.  1.
    9900012    2    1    2    0    0  0.10215222838E+02  0.13606043256E+02  0.36928183259E+02  0.50528857000E+02  0.29999991337E+02 0.  0.
        -12    1    1    2    0    0 -0.10215222838E+02 -0.13606043256E+02 -0.36928183259E+02  0.40659143000E+02  0.00000000000E+00 0.  1.
         11    1    3    3    0    0  0.30566986472E+01 -0.84702844851E+01  0.12628069037E+02  0.15509908244E+02  0.51100000000E-03 0. -1.
        -11    1    3    3    0    0  0.75233601701E+01  0.11524071287E+02  0.18224330697E+02  0.22837061915E+02  0.51100000000E-03 0.  1.
         12    1    3    3    0    0 -0.36483597971E+00  0.10552256454E+02  0.60757835253E+01  0.12181886841E+02  0.00000000000E+00 0. -1.
</event>
<event>
 7    1  0.5006721E-012  0.5052886E+02  0.7816164E-02  0.1300439E+00
        -11   -1    0    0    0    0  0.00000000000E+00  0.00000000000E+00  0.45593999997E+02  0.45594000000E+02  0.51100000000E-03 0.  1.
         11   -1    0    0    0    0 -0.00000000000E+00 -0.00000000000E+00 -0.45593999997E+02  0.45594000000E+02  0.51100000000E-03 0. -1.
    9900012    2    1    2    0    0  0.26767884182E+02  0.29170639502E+02  0.92584863840E+01  0.50528863232E+02  0.30000010281E+02 0.  0.
        -12    1    1    2    0    0 -0.26767884182E+02 -0.29170639502E+02 -0.92584863840E+01  0.40659136768E+02  0.00000000000E+00 0.  1.
         11    1    3    3    0    0 -0.12041556275E+01  0.10997401109E+01  0.47669627871E+01  0.50381895123E+01  0.51100000000E-03 0.  1.
        -11    1    3    3    0    0  0.87271367481E+01  0.99507451271E+01 -0.88099422612E+01  0.15899538588E+02  0.51100000000E-03 0. -1.
        -12    1    3    3    0    0  0.19244903062E+02  0.18120154264E+02  0.13301465858E+02  0.29591135132E+02  0.00000000000E+00 0.  1.
</event>
<event>
 7    1  0.5006721E-012  0.5052885E+02  0.7816164E-02  0.1300439E+00
        -11   -1    0    0    0    0  0.00000000000E+00  0.00000000000E+00  0.45593999997E+02  0.45594000000E+02  0.51100000000E-03 0. -1.
         11   -1    0    0    0    0 -0.00000000000E+00 -0.00000000000E+00 -0.45593999997E+02  0.45594000000E+02  0.51100000000E-03 0.  1.
    9900012    2    1    2    0    0 -0.96797527978E+01  0.21691723831E+02 -0.32999054534E+02  0.50528854692E+02  0.29999984323E+02 0.  0.
         12    1    1    2    0    0  0.96797527978E+01 -0.21691723831E+02  0.32999054534E+02  0.40659145308E+02  0.00000000000E+00 0. -1.
         11    1    3    3    0    0 -0.46316583123E+01  0.98021345489E+00  0.12181771056E+01  0.48884591500E+01  0.51100000000E-03 0. -1.
        -11    1    3    3    0    0  0.81268685018E+01  0.94252863347E+01 -0.18065602980E+02  0.21937365964E+02  0.51100000000E-03 0.  1.
        -12    1    3    3    0    0 -0.13174962987E+02  0.11286224041E+02 -0.16151628660E+02  0.23703029579E+02  0.00000000000E+00 0.  1.
</event>
<event>
 7    1  0.5006721E-012  0.5052882E+02  0.7816164E-02  0.1300439E+00
        -11   -1    0    0    0    0  0.00000000000E+00  0.00000000000E+00  0.45593999997E+02  0.45594000000E+02  0.51100000000E-03 0. -1.
         11   -1    0    0    0    0 -0.00000000000E+00 -0.00000000000E+00 -0.45593999997E+02  0.45594000000E+02  0.51100000000E-03 0.  1.
    9900012    2    1    2    0    0 -0.24011414159E+02  0.27497388987E+02  0.17902918547E+02  0.50528820182E+02  0.29999879425E+02 0.  0.
        -12    1    1    2    0    0  0.24011414159E+02 -0.27497388987E+02 -0.17902918547E+02  0.40659179818E+02  0.00000000000E+00 0.  1.
         11    1    3    3    0    0 -0.26011983720E+02  0.93381476603E+01  0.11726196682E+02  0.30022124969E+02  0.51100000000E-03 0. -1.
        -11    1    3    3    0    0 -0.14172470204E+01  0.43918339084E+01 -0.82417093959E+00  0.46878622201E+01  0.51100000000E-03 0.  1.
         12    1    3    3    0    0  0.34178165815E+01  0.13767407418E+02  0.70008928041E+01  0.15818832993E+02  0.00000000000E+00 0. -1.
</event>
<event>
 7    1  0.5006721E-012  0.5052886E+02  0.7816164E-02  0.1300439E+00
        -11   -1    0    0    0    0  0.00000000000E+00  0.00000000000E+00  0.45593999997E+02  0.45594000000E+02  0.51100000000E-03 0. -1.
         11   -1    0    0    0    0 -0.00000000000E+00 -0.00000000000E+00 -0.45593999997E+02  0.45594000000E+02  0.51100000000E-03 0.  1.
    9900012    2    1    2    0    0  0.35369301243E+02  0.36842654759E+01 -0.19713052461E+02  0.50528859332E+02  0.29999998427E+02 0.  0.
         12    1    1    2    0    0 -0.35369301243E+02 -0.36842654759E+01  0.19713052461E+02  0.40659140668E+02  0.00000000000E+00 0. -1.
         11    1    3    3    0    0 -0.19422435546E+01  0.44043970954E+00 -0.28017257594E+01  0.34374357674E+01  0.51100000000E-03 0. -1.
        -11    1    3    3    0    0  0.38740475519E+02  0.36638665772E+01 -0.19933805609E+02  0.43721904900E+02  0.51100000000E-03 0.  1.
        -12    1    3    3    0    0 -0.14289307217E+01 -0.42004081083E+00  0.30224789075E+01  0.33695186654E+01  0.00000000000E+00 0.  1.
</event>
<event>
 7    1  0.5006721E-012  0.5052886E+02  0.7816164E-02  0.1300439E+00
        -11   -1    0    0    0    0  0.00000000000E+00  0.00000000000E+00  0.45593999997E+02  0.45594000000E+02  0.51100000000E-03 0. -1.
         11   -1    0    0    0    0 -0.00000000000E+00 -0.00000000000E+00 -0.45593999997E+02  0.45594000000E+02  0.51100000000E-03 0.  1.
    9900012    2    1    2    0    0  0.10184603765E+02  0.35974020467E+02 -0.15978399933E+02  0.50528861214E+02  0.30000004146E+02 0.  0.
         12    1    1    2    0    0 -0.10184603765E+02 -0.35974020467E+02  0.15978399933E+02  0.40659138786E+02  0.00000000000E+00 0. -1.
         11    1    3    3    0    0  0.26536194030E+01  0.19327989711E+01 -0.14023275321E+02  0.14402418505E+02  0.51100000000E-03 0. -1.
        -11    1    3    3    0    0  0.75882345892E+01  0.14617084216E+02  0.89777837056E+00  0.16493831011E+02  0.51100000000E-03 0.  1.
         12    1    3    3    0    0 -0.57250227368E-01  0.19424137280E+02 -0.28529029823E+01  0.19632611698E+02  0.00000000000E+00 0. -1.
</event>
<event>
 7    1  0.5006721E-012  0.5052886E+02  0.7816164E-02  0.1300439E+00
        -11   -1    0    0    0    0  0.00000000000E+00  0.00000000000E+00  0.45593999997E+02  0.45594000000E+02  0.51100000000E-03 0. -1.
         11   -1    0    0    0    0 -0.00000000000E+00 -0.00000000000E+00 -0.45593999997E+02  0.45594000000E+02  0.51100000000E-03 0.  1.
    9900012    2    1    2    0    0  0.50061777427E+01 -0.23405401916E+02  0.32867777995E+02  0.50528862223E+02  0.30000007213E+02 0.  0.
        -12    1    1    2    0    0 -0.50061777427E+01  0.23405401916E+02 -0.32867777995E+02  0.40659137777E+02  0.00000000000E+00 0.  1.
         11    1    3    3    0    0  0.72797037839E+01 -0.22156470423E+02  0.11598182318E+02  0.26046518042E+02  0.51100000000E-03 0. -1.
        -11    1    3    3    0    0 -0.61744230338E+01 -0.39061758573E+01  0.14400321079E+02  0.16147784896E+02  0.51100000000E-03 0.  1.
        -12    1    3    3    0    0  0.39008969926E+01  0.26572443640E+01  0.68692745986E+01  0.83345592845E+01  0.00000000000E+00 0.  1.
</event>
<event>
 7    1  0.5006721E-012  0.5052886E+02  0.7816164E-02  0.1300439E+00
        -11   -1    0    0    0    0  0.00000000000E+00  0.00000000000E+00  0.45593999997E+02  0.45594000000E+02  0.51100000000E-03 0. -1.
         11   -1    0    0    0    0 -0.00000000000E+00 -0.00000000000E+00 -0.45593999997E+02  0.45594000000E+02  0.51100000000E-03 0.  1.
    9900012    2    1    2    0    0  0.10409675244E+01  0.87838232339E+01 -0.39685346667E+02  0.50528857067E+02  0.29999991539E+02 0.  0.
         12    1    1    2    0    0 -0.10409675244E+01 -0.87838232339E+01  0.39685346667E+02  0.40659142933E+02  0.00000000000E+00 0. -1.
         11    1    3    3    0    0  0.19339701432E+00  0.11465583256E+02 -0.21928413051E+02  0.24745753192E+02  0.51100000000E-03 0.  1.
        -11    1    3    3    0    0  0.41307538603E+01 -0.97657309686E+01 -0.12394157391E+02  0.16310970740E+02  0.51100000000E-03 0. -1.
         12    1    3    3    0    0 -0.32831833503E+01  0.70839709463E+01 -0.53627762252E+01  0.94721331347E+01  0.00000000000E+00 0. -1.
</event>
<event>
 7    1  0.5006721E-012  0.5052886E+02  0.7816164E-02  0.1300439E+00
        -11   -1    0    0    0    0  0.00000000000E+00  0.00000000000E+00  0.45593999997E+02  0.45594000000E+02  0.51100000000E-03 0. -1.
         11   -1    0    0    0    0 -0.00000000000E+00 -0.00000000000E+00 -0.45593999997E+02  0.45594000000E+02  0.51100000000E-03 0.  1.
    9900012    2    1    2    0    0  0.10701941463E+02 -0.90394901539E+01 -0.38169646009E+02  0.50528858226E+02  0.29999995064E+02 0.  0.
         12    1    1    2    0    0 -0.10701941463E+02  0.90394901539E+01  0.38169646009E+02  0.40659141774E+02  0.00000000000E+00 0. -1.
         11    1    3    3    0    0  0.47128986749E+01  0.24679935299E+01 -0.23191904769E+01  0.58035377756E+01  0.51100000000E-03 0.  1.
        -11    1    3    3    0    0  0.10498663335E+02 -0.15865380090E+02 -0.19636757998E+02  0.27341076829E+02  0.51100000000E-03 0. -1.
        -12    1    3    3    0    0 -0.45096205463E+01  0.43578964064E+01 -0.16213697534E+02  0.17384243621E+02  0.00000000000E+00 0.  1.
</event>
<event>
 7    1  0.5006721E-012  0.5052886E+02  0.7816164E-02  0.1300439E+00
        -11   -1    0    0    0    0  0.00000000000E+00  0.00000000000E+00  0.45593999997E+02  0.45594000000E+02  0.51100000000E-03 0.  1.
         11   -1    0    0    0    0 -0.00000000000E+00 -0.00000000000E+00 -0.45593999997E+02  0.45594000000E+02  0.51100000000E-03 0. -1.
    9900012    2    1    2    0    0 -0.16492910314E+02  0.33223431727E+02 -0.16653924967E+02  0.50528859292E+02  0.29999998303E+02 0.  0.
         12    1    1    2    0    0  0.16492910314E+02 -0.33223431727E+02  0.16653924967E+02  0.40659140708E+02  0.00000000000E+00 0. -1.
         11    1    3    3    0    0 -0.28688988812E+01  0.88407809166E+01 -0.98085125091E+01  0.13512842259E+02  0.51100000000E-03 0. -1.
        -11    1    3    3    0    0 -0.93205889626E+01  0.82809190743E+01  0.79022281171E+01  0.14761172338E+02  0.51100000000E-03 0.  1.
        -12    1    3    3    0    0 -0.43034224698E+01  0.16101731736E+02 -0.14747640575E+02  0.22254844695E+02  0.00000000000E+00 0.  1.
</event>
<event>
 7    1  0.5006721E-012  0.5052885E+02  0.7816164E-02  0.1300439E+00
        -11   -1    0    0    0    0  0.00000000000E+00  0.00000000000E+00  0.45593999997E+02  0.45594000000E+02  0.51100000000E-03 0.  1.
         11   -1    0    0    0    0 -0.00000000000E+00 -0.00000000000E+00 -0.45593999997E+02  0.45594000000E+02  0.51100000000E-03 0. -1.
    9900012    2    1    2    0    0  0.32287113660E+02  0.21454965612E+02 -0.12263498751E+02  0.50528847776E+02  0.29999963301E+02 0.  0.
        -12    1    1    2    0    0 -0.32287113660E+02 -0.21454965612E+02  0.12263498751E+02  0.40659152224E+02  0.00000000000E+00 0.  1.
         11    1    3    3    0    0  0.19304816652E+02  0.68599529004E+01 -0.11209571337E+02  0.23353573379E+02  0.51100000000E-03 0. -1.
        -11    1    3    3    0    0  0.92961376439E+00  0.12003265436E+02  0.54742038427E+01  0.13225334432E+02  0.51100000000E-03 0.  1.
        -12    1    3    3    0    0  0.12052683243E+02  0.25917472762E+01 -0.65281312567E+01  0.13949939965E+02  0.00000000000E+00 0.  1.
</event>
<event>
 7    1  0.5006721E-012  0.5052886E+02  0.7816164E-02  0.1300439E+00
        -11   -1    0    0    0    0  0.00000000000E+00  0.00000000000E+00  0.45593999997E+02  0.45594000000E+02  0.51100000000E-03 0. -1.
         11   -1    0    0    0    0 -0.00000000000E+00 -0.00000000000E+00 -0.45593999997E+02  0.45594000000E+02  0.51100000000E-03 0.  1.
    9900012    2    1    2    0    0 -0.18825115285E+02  0.42900167144E+01 -0.35782352773E+02  0.50528856147E+02  0.29999988743E+02 0.  0.
         12    1    1    2    0    0  0.18825115285E+02 -0.42900167144E+01  0.35782352773E+02  0.40659143853E+02  0.00000000000E+00 0. -1.
         11    1    3    3    0    0 -0.16725626538E+02  0.62135445396E+01 -0.15064552976E+02  0.23351562592E+02  0.51100000000E-03 0. -1.
        -11    1    3    3    0    0  0.63950166478E+01 -0.20867562139E+00 -0.16171451179E+02  0.17391251161E+02  0.51100000000E-03 0.  1.
        -12    1    3    3    0    0 -0.84945053949E+01 -0.17148522038E+01 -0.45463486172E+01  0.97860423938E+01  0.00000000000E+00 0.  1.
</event>
<event>
 7    1  0.5006721E-012  0.5052886E+02  0.7816164E-02  0.1300439E+00
        -11   -1    0    0    0    0  0.00000000000E+00  0.00000000000E+00  0.45593999997E+02  0.45594000000E+02  0.51100000000E-03 0. -1.
         11   -1    0    0    0    0 -0.00000000000E+00 -0.00000000000E+00 -0.45593999997E+02  0.45594000000E+02  0.51100000000E-03 0.  1.
    9900012    2    1    2    0    0 -0.39650111153E+02 -0.82291444300E+01  0.36490389325E+01  0.50528860589E+02  0.30000002247E+02 0.  0.
        -12    1    1    2    0    0  0.39650111153E+02  0.82291444300E+01 -0.36490389325E+01  0.40659139411E+02  0.00000000000E+00 0.  1.
         11    1    3    3    0    0 -0.44957178492E+01  0.25154684918E+01  0.20033209502E+01  0.55274185479E+01  0.51100000000E-03 0. -1.
        -11    1    3    3    0    0 -0.23605739443E+02  0.34727677525E+01  0.86667656756E+01  0.25385111346E+02  0.51100000000E-03 0.  1.
        -12    1    3    3    0    0 -0.11548653861E+02 -0.14217380674E+02 -0.70210476934E+01  0.19616330696E+02  0.00000000000E+00 0.  1.
</event>
<event>
 7    1  0.5006721E-012  0.5052886E+02  0.7816164E-02  0.1300439E+00
        -11   -1    0    0    0    0  0.00000000000E+00  0.00000000000E+00  0.45593999997E+02  0.45594000000E+02  0.51100000000E-03 0.  1.
         11   -1    0    0    0    0 -0.00000000000E+00 -0.00000000000E+00 -0.45593999997E+02  0.45594000000E+02  0.51100000000E-03 0. -1.
    9900012    2    1    2    0    0 -0.32940214307E+02  0.15022002096E+02 -0.18505331425E+02  0.50528861338E+02  0.30000004523E+02 0.  0.
         12    1    1    2    0    0  0.32940214307E+02 -0.15022002096E+02  0.18505331425E+02  0.40659138662E+02  0.00000000000E+00 0. -1.
         11    1    3    3    0    0 -0.36555122079E+00 -0.41320198004E+01 -0.53068351451E+01  0.67357044802E+01  0.51100000000E-03 0. -1.
        -11    1    3    3    0    0 -0.33378668455E+02  0.16066571178E+02 -0.15184087464E+02  0.40035318528E+02  0.51100000000E-03 0.  1.
        -12    1    3    3    0    0  0.80400536810E+00  0.30874507178E+01  0.19855911840E+01  0.37578383303E+01  0.00000000000E+00 0.  1.
</event>
<event>
 7    1  0.5006721E-012  0.5052887E+02  0.7816164E-02  0.1300439E+00
        -11   -1    0    0    0    0  0.00000000000E+00  0.00000000000E+00  0.45593999997E+02  0.45594000000E+02  0.51100000000E-03 0.  1.
         11   -1    0    0    0    0 -0.00000000000E+00 -0.00000000000E+00 -0.45593999997E+02  0.45594000000E+02  0.51100000000E-03 0. -1.
    9900012    2    1    2    0    0  0.38801762937E+02 -0.25541427625E+01 -0.11877058486E+02  0.50528868547E+02  0.30000026434E+02 0.  0.
        -12    1    1    2    0    0 -0.38801762937E+02  0.25541427625E+01  0.11877058486E+02  0.40659131453E+02  0.00000000000E+00 0.  1.
         11    1    3    3    0    0  0.18241786488E+02  0.21916667310E+01 -0.12044065170E+02  0.21968743328E+02  0.51100000000E-03 0. -1.
        -11    1    3    3    0    0  0.10195290497E+02 -0.11936410543E+02  0.19558011666E+01  0.15819197307E+02  0.51100000000E-03 0.  1.
        -12    1    3    3    0    0  0.10364685953E+02  0.71906010499E+01 -0.17887944827E+01  0.12740927912E+02  0.00000000000E+00 0.  1.
</event>
<event>
 7    1  0.5006721E-012  0.5052887E+02  0.7816164E-02  0.1300439E+00
        -11   -1    0    0    0    0  0.00000000000E+00  0.00000000000E+00  0.45593999997E+02  0.45594000000E+02  0.51100000000E-03 0.  1.
         11   -1    0    0    0    0 -0.00000000000E+00 -0.00000000000E+00 -0.45593999997E+02  0.45594000000E+02  0.51100000000E-03 0. -1.
    9900012    2    1    2    0    0 -0.82829256199E+01  0.39458116056E+02 -0.52550361921E+01  0.50528865911E+02  0.30000018422E+02 0.  0.
        -12    1    1    2    0    0  0.82829256199E+01 -0.39458116056E+02  0.52550361921E+01  0.40659134089E+02  0.00000000000E+00 0.  1.
         11    1    3    3    0    0 -0.92646750242E+01  0.35186803300E+01 -0.16630695870E+01  0.10048936027E+02  0.51100000000E-03 0. -1.
        -11    1    3    3    0    0  0.54480379537E+01  0.17815306611E+02  0.58962729284E+01  0.19540529724E+02  0.51100000000E-03 0.  1.
         12    1    3    3    0    0 -0.44662885494E+01  0.18124129115E+02 -0.94882395335E+01  0.20939400159E+02  0.00000000000E+00 0. -1.
</event>
<event>
 7    1  0.5006721E-012  0.5052886E+02  0.7816164E-02  0.1300439E+00
        -11   -1    0    0    0    0  0.00000000000E+00  0.00000000000E+00  0.45593999997E+02  0.45594000000E+02  0.51100000000E-03 0. -1.
         11   -1    0    0    0    0 -0.00000000000E+00 -0.00000000000E+00 -0.45593999997E+02  0.45594000000E+02  0.51100000000E-03 0.  1.
    9900012    2    1    2    0    0  0.34532915839E+02 -0.88279724164E+01 -0.19562973987E+02  0.50528864193E+02  0.30000013201E+02 0.  0.
         12    1    1    2    0    0 -0.34532915839E+02  0.88279724164E+01  0.19562973987E+02  0.40659135807E+02  0.00000000000E+00 0. -1.
         11    1    3    3    0    0  0.45419612496E+01  0.25552424015E+00 -0.11240257849E+02  0.12125926827E+02  0.51100000000E-03 0. -1.
        -11    1    3    3    0    0  0.14792044768E+02  0.11679885163E+01  0.50904909781E+01  0.15686997298E+02  0.51100000000E-03 0.  1.
        -12    1    3    3    0    0  0.15198909822E+02 -0.10251485173E+02 -0.13413207116E+02  0.22715940068E+02  0.00000000000E+00 0.  1.
</event>
<event>
 7    1  0.5006721E-012  0.5052887E+02  0.7816164E-02  0.1300439E+00
        -11   -1    0    0    0    0  0.00000000000E+00  0.00000000000E+00  0.45593999997E+02  0.45594000000E+02  0.51100000000E-03 0.  1.
         11   -1    0    0    0    0 -0.00000000000E+00 -0.00000000000E+00 -0.45593999997E+02  0.45594000000E+02  0.51100000000E-03 0. -1.
    9900012    2    1    2    0    0  0.10280377482E+02 -0.37805362830E+02 -0.10873519425E+02  0.50528867637E+02  0.30000023669E+02 0.  0.
        -12    1    1    2    0    0 -0.10280377482E+02  0.37805362830E+02  0.10873519425E+02  0.40659132363E+02  0.00000000000E+00 0.  1.
         11    1    3    3    0    0 -0.77797563412E+01 -0.16077631479E+02 -0.30350421470E+01  0.18117017519E+02  0.51100000000E-03 0. -1.
        -11    1    3    3    0    0  0.10037027277E+02 -0.15855565443E+02  0.14293172299E+01  0.18819772052E+02  0.51100000000E-03 0.  1.
         12    1    3    3    0    0  0.80231065469E+01 -0.58721659076E+01 -0.92677945076E+01  0.13592078066E+02  0.00000000000E+00 0. -1.
</event>
<event>
 7    1  0.5006721E-012  0.5052887E+02  0.7816164E-02  0.1300439E+00
        -11   -1    0    0    0    0  0.00000000000E+00  0.00000000000E+00  0.45593999997E+02  0.45594000000E+02  0.51100000000E-03 0. -1.
         11   -1    0    0    0    0 -0.00000000000E+00 -0.00000000000E+00 -0.45593999997E+02  0.45594000000E+02  0.51100000000E-03 0.  1.
    9900012    2    1    2    0    0 -0.99963484419E+01  0.11572696662E+02  0.37673743349E+02  0.50528865379E+02  0.30000016806E+02 0.  0.
        -12    1    1    2    0    0  0.99963484419E+01 -0.11572696662E+02 -0.37673743349E+02  0.40659134621E+02  0.00000000000E+00 0.  1.
         11    1    3    3    0    0 -0.16677536667E+01 -0.50904273123E+01  0.23205543300E+02  0.23815774030E+02  0.51100000000E-03 0. -1.
        -11    1    3    3    0    0 -0.55392799963E+01  0.71291184168E+01 -0.16148332489E+00  0.90296195603E+01  0.51100000000E-03 0.  1.
         12    1    3    3    0    0 -0.27893147789E+01  0.95340055573E+01  0.14629683374E+02  0.17683471789E+02  0.00000000000E+00 0. -1.
</event>
<event>
 7    1  0.5006721E-012  0.5052883E+02  0.7816164E-02  0.1300439E+00
        -11   -1    0    0    0    0  0.00000000000E+00  0.00000000000E+00  0.45593999997E+02  0.45594000000E+02  0.51100000000E-03 0. -1.
         11   -1    0    0    0    0 -0.00000000000E+00 -0.00000000000E+00 -0.45593999997E+02  0.45594000000E+02  0.51100000000E-03 0.  1.
    9900012    2    1    2    0    0 -0.18027294249E+02  0.18110899909E+02 -0.31625618417E+02  0.50528834075E+02  0.29999921655E+02 0.  0.
         12    1    1    2    0    0  0.18027294249E+02 -0.18110899909E+02  0.31625618417E+02  0.40659165925E+02  0.00000000000E+00 0. -1.
         11    1    3    3    0    0  0.17595189721E+01  0.85503002912E+01 -0.24972494940E+01  0.90796364123E+01  0.51100000000E-03 0. -1.
        -11    1    3    3    0    0 -0.11824082851E+02 -0.49322791183E+01 -0.10727510902E+02  0.16709751733E+02  0.51100000000E-03 0.  1.
        -12    1    3    3    0    0 -0.79627303702E+01  0.14492878736E+02 -0.18400858021E+02  0.24739445930E+02  0.00000000000E+00 0.  1.
</event>
<event>
 7    1  0.5006721E-012  0.5052885E+02  0.7816164E-02  0.1300439E+00
        -11   -1    0    0    0    0  0.00000000000E+00  0.00000000000E+00  0.45593999997E+02  0.45594000000E+02  0.51100000000E-03 0. -1.
         11   -1    0    0    0    0 -0.00000000000E+00 -0.00000000000E+00 -0.45593999997E+02  0.45594000000E+02  0.51100000000E-03 0.  1.
    9900012    2    1    2    0    0  0.25703727328E+02 -0.29919144368E+02  0.98655684627E+01  0.50528852944E+02  0.29999979007E+02 0.  0.
        -12    1    1    2    0    0 -0.25703727328E+02  0.29919144368E+02 -0.98655684627E+01  0.40659147056E+02  0.00000000000E+00 0.  1.
         11    1    3    3    0    0  0.17796040716E+02 -0.21581377757E+02 -0.16398465819E+01  0.28020421627E+02  0.51100000000E-03 0. -1.
        -11    1    3    3    0    0  0.92367642049E+01 -0.37112620547E+01  0.13927975705E+02  0.17119573199E+02  0.51100000000E-03 0.  1.
        -12    1    3    3    0    0 -0.13290775933E+01 -0.46265045566E+01 -0.24225606604E+01  0.53888581179E+01  0.00000000000E+00 0.  1.
</event>
<event>
 7    1  0.5006721E-012  0.5052884E+02  0.7816164E-02  0.1300439E+00
        -11   -1    0    0    0    0  0.00000000000E+00  0.00000000000E+00  0.45593999997E+02  0.45594000000E+02  0.51100000000E-03 0. -1.
         11   -1    0    0    0    0 -0.00000000000E+00 -0.00000000000E+00 -0.45593999997E+02  0.45594000000E+02  0.51100000000E-03 0.  1.
    9900012    2    1    2    0    0 -0.21771000916E+01  0.22306211656E+01 -0.40539510821E+02  0.50528839000E+02  0.29999936626E+02 0.  0.
         12    1    1    2    0    0  0.21771000916E+01 -0.22306211656E+01  0.40539510821E+02  0.40659161000E+02  0.00000000000E+00 0. -1.
         11    1    3    3    0    0  0.52149939953E+01 -0.41983679250E+00  0.22674578302E+01  0.57020865108E+01  0.51100000000E-03 0. -1.
        -11    1    3    3    0    0  0.49856769565E+00 -0.34538900379E+00 -0.26116675369E+02  0.26123717115E+02  0.51100000000E-03 0.  1.
         12    1    3    3    0    0 -0.78906617825E+01  0.29958469619E+01 -0.16690293282E+02  0.18703035375E+02  0.00000000000E+00 0. -1.
</event>
<event>
 7    1  0.5006721E-012  0.5052886E+02  0.7816164E-02  0.1300439E+00
        -11   -1    0    0    0    0  0.00000000000E+00  0.00000000000E+00  0.45593999997E+02  0.45594000000E+02  0.51100000000E-03 0.  1.
         11   -1    0    0    0    0 -0.00000000000E+00 -0.00000000000E+00 -0.45593999997E+02  0.45594000000E+02  0.51100000000E-03 0. -1.
    9900012    2    1    2    0    0  0.37710780746E+02 -0.90321520725E+01  0.12226306256E+02  0.50528864247E+02  0.30000013365E+02 0.  0.
         12    1    1    2    0    0 -0.37710780746E+02  0.90321520725E+01 -0.12226306256E+02  0.40659135753E+02  0.00000000000E+00 0. -1.
         11    1    3    3    0    0  0.16254792879E+02 -0.12310129234E+02 -0.54875962609E+01  0.21115664477E+02  0.51100000000E-03 0. -1.
        -11    1    3    3    0    0  0.21660484587E+02  0.22619273260E+01  0.14828347120E+02  0.26347158981E+02  0.51100000000E-03 0.  1.
         12    1    3    3    0    0 -0.20449672041E+00  0.10160498357E+01  0.28855553969E+01  0.30660407900E+01  0.00000000000E+00 0. -1.
</event>
<event>
 7    1  0.5006721E-012  0.5052888E+02  0.7816164E-02  0.1300439E+00
        -11   -1    0    0    0    0  0.00000000000E+00  0.00000000000E+00  0.45593999997E+02  0.45594000000E+02  0.51100000000E-03 0. -1.
         11   -1    0    0    0    0 -0.00000000000E+00 -0.00000000000E+00 -0.45593999997E+02  0.45594000000E+02  0.51100000000E-03 0.  1.
    9900012    2    1    2    0    0 -0.59694352794E+01 -0.18984621622E+02  0.35455805525E+02  0.50528878501E+02  0.30000056691E+02 0.  0.
        -12    1    1    2    0    0  0.59694352794E+01  0.18984621622E+02 -0.35455805525E+02  0.40659121499E+02  0.00000000000E+00 0.  1.
         11    1    3    3    0    0  0.17258010768E+01 -0.14282331372E+02  0.36803537516E+02  0.39515360971E+02  0.51100000000E-03 0. -1.
        -11    1    3    3    0    0 -0.85947339218E+00 -0.36914373853E+01 -0.15636395747E+01  0.41000455439E+01  0.51100000000E-03 0.  1.
         12    1    3    3    0    0 -0.68357629640E+01 -0.10108528649E+01  0.21590758373E+00  0.69134719858E+01  0.00000000000E+00 0. -1.
</event>
<event>
 7    1  0.5006721E-012  0.5052887E+02  0.7816164E-02  0.1300439E+00
        -11   -1    0    0    0    0  0.00000000000E+00  0.00000000000E+00  0.45593999997E+02  0.45594000000E+02  0.51100000000E-03 0. -1.
         11   -1    0    0    0    0 -0.00000000000E+00 -0.00000000000E+00 -0.45593999997E+02  0.45594000000E+02  0.51100000000E-03 0.  1.
    9900012    2    1    2    0    0 -0.18478010826E+02  0.13221641975E+02  0.33718184925E+02  0.50528871933E+02  0.30000036726E+02 0.  0.
        -12    1    1    2    0    0  0.18478010826E+02 -0.13221641975E+02 -0.33718184925E+02  0.40659128067E+02  0.00000000000E+00 0.  1.
         11    1    3    3    0    0 -0.10260828821E+02  0.43776149173E+00  0.70177158088E+01  0.12438833493E+02  0.51100000000E-03 0. -1.
        -11    1    3    3    0    0 -0.59814212072E+01  0.18614641635E+02  0.14357815696E+02  0.24257558713E+02  0.51100000000E-03 0.  1.
        -12    1    3    3    0    0 -0.22357607973E+01 -0.58307611526E+01  0.12342653420E+02  0.13832479727E+02  0.00000000000E+00 0.  1.
</event>
<event>
 7    1  0.5006721E-012  0.5052886E+02  0.7816164E-02  0.1300439E+00
        -11   -1    0    0    0    0  0.00000000000E+00  0.00000000000E+00  0.45593999997E+02  0.45594000000E+02  0.51100000000E-03 0. -1.
         11   -1    0    0    0    0 -0.00000000000E+00 -0.00000000000E+00 -0.45593999997E+02  0.45594000000E+02  0.51100000000E-03 0.  1.
    9900012    2    1    2    0    0 -0.14186163415E+02 -0.24900441178E+02 -0.28842436930E+02  0.50528863618E+02  0.30000011453E+02 0.  0.
         12    1    1    2    0    0  0.14186163415E+02  0.24900441178E+02  0.28842436930E+02  0.40659136382E+02  0.00000000000E+00 0. -1.
         11    1    3    3    0    0 -0.35558382875E+01 -0.19121700340E+02 -0.14399305430E+01  0.19502738527E+02  0.51100000000E-03 0. -1.
        -11    1    3    3    0    0 -0.10782126542E+02 -0.50405808194E+01 -0.17912621076E+02  0.21506364217E+02  0.51100000000E-03 0.  1.
         12    1    3    3    0    0  0.15180141398E+00 -0.73816001791E+00 -0.94898853106E+01  0.95197608736E+01  0.00000000000E+00 0. -1.
</event>
<event>
 7    1  0.5006721E-012  0.5052886E+02  0.7816164E-02  0.1300439E+00
        -11   -1    0    0    0    0  0.00000000000E+00  0.00000000000E+00  0.45593999997E+02  0.45594000000E+02  0.51100000000E-03 0.  1.
         11   -1    0    0    0    0 -0.00000000000E+00 -0.00000000000E+00 -0.45593999997E+02  0.45594000000E+02  0.51100000000E-03 0. -1.
    9900012    2    1    2    0    0  0.15594940704E+02 -0.34318396606E+02  0.15238473137E+02  0.50528860994E+02  0.30000003477E+02 0.  0.
        -12    1    1    2    0    0 -0.15594940704E+02  0.34318396606E+02 -0.15238473137E+02  0.40659139006E+02  0.00000000000E+00 0.  1.
         11    1    3    3    0    0  0.19375848274E+02 -0.26055371310E+02  0.14028585400E+02  0.35370992056E+02  0.51100000000E-03 0. -1.
        -11    1    3    3    0    0  0.55021614445E+00  0.48102734793E+00  0.47287190237E+01  0.47848624830E+01  0.51100000000E-03 0.  1.
         12    1    3    3    0    0 -0.43311237151E+01 -0.87440526445E+01 -0.35188312869E+01  0.10373006455E+02  0.00000000000E+00 0. -1.
</event>
<event>
 7    1  0.5006721E-012  0.5052886E+02  0.7816164E-02  0.1300439E+00
        -11   -1    0    0    0    0  0.00000000000E+00  0.00000000000E+00  0.45593999997E+02  0.45594000000E+02  0.51100000000E-03 0. -1.
         11   -1    0    0    0    0 -0.00000000000E+00 -0.00000000000E+00 -0.45593999997E+02  0.45594000000E+02  0.51100000000E-03 0.  1.
    9900012    2    1    2    0    0 -0.34882513737E+02  0.62191736734E+01 -0.19942366570E+02  0.50528857483E+02  0.29999992805E+02 0.  0.
         12    1    1    2    0    0  0.34882513737E+02 -0.62191736734E+01  0.19942366570E+02  0.40659142517E+02  0.00000000000E+00 0. -1.
         11    1    3    3    0    0 -0.10352491360E+01 -0.57229917971E-01 -0.98455326731E+01  0.98999762583E+01  0.51100000000E-03 0. -1.
        -11    1    3    3    0    0 -0.28568894555E+02  0.86420702174E+01 -0.10189370187E+01  0.29864784390E+02  0.51100000000E-03 0.  1.
        -12    1    3    3    0    0 -0.52783700461E+01 -0.23656666260E+01 -0.90778968785E+01  0.10764096835E+02  0.00000000000E+00 0.  1.
</event>
<event>
 7    1  0.5820864E-012  0.5052886E+02  0.7816164E-02  0.1300439E+00
        -11   -1    0    0    0    0  0.00000000000E+00  0.00000000000E+00  0.45593999997E+02  0.45594000000E+02  0.51100000000E-03 0. -1.
         11   -1    0    0    0    0 -0.00000000000E+00 -0.00000000000E+00 -0.45593999997E+02  0.45594000000E+02  0.51100000000E-03 0.  1.
    9900012    2    1    2    0    0  0.21074120207E+01  0.32167850433E+02  0.24778094314E+02  0.50528859026E+02  0.29999997494E+02 0.  0.
        -12    1    1    2    0    0 -0.21074120207E+01 -0.32167850433E+02 -0.24778094314E+02  0.40659140974E+02  0.00000000000E+00 0.  1.
         11    1    3    3    0    0 -0.51112349483E+01  0.27588082556E+02  0.17563289787E+02  0.33101301639E+02  0.51100000000E-03 0. -1.
        -11    1    3    3    0    0  0.66052057298E+00 -0.17753149777E+01 -0.31113387277E+01  0.36425896883E+01  0.51100000000E-03 0.  1.
         12    1    3    3    0    0  0.65581263960E+01  0.63550828555E+01  0.10326143255E+02  0.13784967698E+02  0.00000000000E+00 0. -1.
</event>
<event>
 7    1  0.5006721E-012  0.5052901E+02  0.7816164E-02  0.1300438E+00
        -11   -1    0    0    0    0  0.00000000000E+00  0.00000000000E+00  0.45593999997E+02  0.45594000000E+02  0.51100000000E-03 0. -1.
         11   -1    0    0    0    0 -0.00000000000E+00 -0.00000000000E+00 -0.45593999997E+02  0.45594000000E+02  0.51100000000E-03 0.  1.
    9900012    2    1    2    0    0  0.26113642546E+02  0.21492193814E+02 -0.22568052545E+02  0.50529006928E+02  0.30000447055E+02 0.  0.
         12    1    1    2    0    0 -0.26113642546E+02 -0.21492193814E+02  0.22568052545E+02  0.40658993072E+02  0.00000000000E+00 0. -1.
         11    1    3    3    0    0  0.19738845554E+02 -0.70306011786E+00 -0.11846395986E+02  0.23031574315E+02  0.51100000000E-03 0. -1.
        -11    1    3    3    0    0  0.68945627419E+01  0.73070522278E+01 -0.20278019637E+01  0.10248901830E+02  0.51100000000E-03 0.  1.
         12    1    3    3    0    0 -0.51976575000E+00  0.14888201704E+02 -0.86938545955E+01  0.17248530782E+02  0.00000000000E+00 0. -1.
</event>
<event>
 7    1  0.5006721E-012  0.5052885E+02  0.7816164E-02  0.1300439E+00
        -11   -1    0    0    0    0  0.00000000000E+00  0.00000000000E+00  0.45593999997E+02  0.45594000000E+02  0.51100000000E-03 0. -1.
         11   -1    0    0    0    0 -0.00000000000E+00 -0.00000000000E+00 -0.45593999997E+02  0.45594000000E+02  0.51100000000E-03 0.  1.
    9900012    2    1    2    0    0  0.88733880036E+00 -0.19225606877E+02  0.35815566153E+02  0.50528854549E+02  0.29999983888E+02 0.  0.
        -12    1    1    2    0    0 -0.88733880036E+00  0.19225606877E+02 -0.35815566153E+02  0.40659145451E+02  0.00000000000E+00 0.  1.
         11    1    3    3    0    0  0.10634741120E+02 -0.76046004065E+01  0.17305809518E+02  0.21689138051E+02  0.51100000000E-03 0. -1.
        -11    1    3    3    0    0 -0.44887918594E+01 -0.24188141560E+01  0.17459756908E+02  0.18189090846E+02  0.51100000000E-03 0.  1.
         12    1    3    3    0    0 -0.52586104600E+01 -0.92021923144E+01  0.10499997264E+01  0.10650625652E+02  0.00000000000E+00 0. -1.
</event>
<event>
 7    1  0.5006721E-012  0.5052886E+02  0.7816164E-02  0.1300439E+00
        -11   -1    0    0    0    0  0.00000000000E+00  0.00000000000E+00  0.45593999997E+02  0.45594000000E+02  0.51100000000E-03 0. -1.
         11   -1    0    0    0    0 -0.00000000000E+00 -0.00000000000E+00 -0.45593999997E+02  0.45594000000E+02  0.51100000000E-03 0.  1.
    9900012    2    1    2    0    0  0.51748458085E+01 -0.65970992315E+01  0.39785230964E+02  0.50528863877E+02  0.30000012240E+02 0.  0.
        -12    1    1    2    0    0 -0.51748458085E+01  0.65970992315E+01 -0.39785230964E+02  0.40659136123E+02  0.00000000000E+00 0.  1.
         11    1    3    3    0    0  0.11739835539E+02 -0.91654613186E+01  0.73203768034E+01  0.16595702349E+02  0.51100000000E-03 0. -1.
        -11    1    3    3    0    0 -0.22709778605E+01  0.23673961018E+01  0.41313244999E+01  0.52753907088E+01  0.51100000000E-03 0.  1.
         12    1    3    3    0    0 -0.42940118700E+01  0.20096598528E+00  0.28333529661E+02  0.28657770819E+02  0.00000000000E+00 0. -1.
</event>
<event>
 7    1  0.5006721E-012  0.5052884E+02  0.7816164E-02  0.1300439E+00
        -11   -1    0    0    0    0  0.00000000000E+00  0.00000000000E+00  0.45593999997E+02  0.45594000000E+02  0.51100000000E-03 0. -1.
         11   -1    0    0    0    0 -0.00000000000E+00 -0.00000000000E+00 -0.45593999997E+02  0.45594000000E+02  0.51100000000E-03 0.  1.
    9900012    2    1    2    0    0  0.10775147167E+02  0.21836151339E+02 -0.32561418108E+02  0.50528840503E+02  0.29999941194E+02 0.  0.
         12    1    1    2    0    0 -0.10775147167E+02 -0.21836151339E+02  0.32561418108E+02  0.40659159497E+02  0.00000000000E+00 0. -1.
         11    1    3    3    0    0 -0.61530697496E+01  0.12246478666E+02 -0.78325405632E+01  0.15785601002E+02  0.51100000000E-03 0. -1.
        -11    1    3    3    0    0  0.17910738898E+02  0.12081584096E+02 -0.22997235803E+02  0.31553638411E+02  0.51100000000E-03 0.  1.
         12    1    3    3    0    0 -0.98252198153E+00 -0.24919114239E+01 -0.17316417417E+01  0.31896010896E+01  0.00000000000E+00 0. -1.
</event>
<event>
 7    1  0.5006721E-012  0.5052886E+02  0.7816164E-02  0.1300439E+00
        -11   -1    0    0    0    0  0.00000000000E+00  0.00000000000E+00  0.45593999997E+02  0.45594000000E+02  0.51100000000E-03 0. -1.
         11   -1    0    0    0    0 -0.00000000000E+00 -0.00000000000E+00 -0.45593999997E+02  0.45594000000E+02  0.51100000000E-03 0.  1.
    9900012    2    1    2    0    0 -0.27281280553E+02 -0.88255701345E+01  0.28827193903E+02  0.50528855087E+02  0.29999985521E+02 0.  0.
        -12    1    1    2    0    0  0.27281280553E+02  0.88255701345E+01 -0.28827193903E+02  0.40659144913E+02  0.00000000000E+00 0.  1.
         11    1    3    3    0    0 -0.12608814855E+02 -0.82982374411E+01  0.27810316532E+02  0.31642639943E+02  0.51100000000E-03 0. -1.
        -11    1    3    3    0    0 -0.11801250378E+02  0.11393622466E+01 -0.43051794206E+01  0.12613573123E+02  0.51100000000E-03 0.  1.
        -12    1    3    3    0    0 -0.28712153189E+01 -0.16666949399E+01  0.53220567912E+01  0.62726420207E+01  0.00000000000E+00 0.  1.
</event>
<event>
 7    1  0.5006721E-012  0.5052885E+02  0.7816164E-02  0.1300439E+00
        -11   -1    0    0    0    0  0.00000000000E+00  0.00000000000E+00  0.45593999997E+02  0.45594000000E+02  0.51100000000E-03 0.  1.
         11   -1    0    0    0    0 -0.00000000000E+00 -0.00000000000E+00 -0.45593999997E+02  0.45594000000E+02  0.51100000000E-03 0. -1.
    9900012    2    1    2    0    0 -0.30836275369E+02 -0.19997838137E+02  0.17388994276E+02  0.50528849361E+02  0.29999968116E+02 0.  0.
         12    1    1    2    0    0  0.30836275369E+02  0.19997838137E+02 -0.17388994276E+02  0.40659150639E+02  0.00000000000E+00 0. -1.
         11    1    3    3    0    0  0.43944642959E+01 -0.15467799848E+01  0.23185000757E+01  0.52037762857E+01  0.51100000000E-03 0. -1.
        -11    1    3    3    0    0 -0.30649327293E+02 -0.16420208958E+02  0.18369964400E+02  0.39325057127E+02  0.51100000000E-03 0.  1.
        -12    1    3    3    0    0 -0.45814123724E+01 -0.20308491946E+01 -0.32994701998E+01  0.60000159481E+01  0.00000000000E+00 0.  1.
</event>
<event>
 7    1  0.5006721E-012  0.5052889E+02  0.7816164E-02  0.1300439E+00
        -11   -1    0    0    0    0  0.00000000000E+00  0.00000000000E+00  0.45593999997E+02  0.45594000000E+02  0.51100000000E-03 0. -1.
         11   -1    0    0    0    0 -0.00000000000E+00 -0.00000000000E+00 -0.45593999997E+02  0.45594000000E+02  0.51100000000E-03 0.  1.
    9900012    2    1    2    0    0  0.30033783064E+01  0.84562134745E+01 -0.39656465502E+02  0.50528891750E+02  0.30000096964E+02 0.  0.
         12    1    1    2    0    0 -0.30033783064E+01 -0.84562134745E+01  0.39656465502E+02  0.40659108250E+02  0.00000000000E+00 0. -1.
         11    1    3    3    0    0 -0.33648870671E+00 -0.86186046406E+01 -0.33624367406E+01  0.92574052356E+01  0.51100000000E-03 0. -1.
        -11    1    3    3    0    0 -0.11041851005E+01 -0.50447015223E+00 -0.45971577045E+01  0.47547422740E+01  0.51100000000E-03 0.  1.
         12    1    3    3    0    0  0.44440521136E+01  0.17579288267E+02 -0.31696871056E+02  0.36516744241E+02  0.00000000000E+00 0. -1.
</event>
<event>
 7    1  0.5006721E-012  0.5052886E+02  0.7816164E-02  0.1300439E+00
        -11   -1    0    0    0    0  0.00000000000E+00  0.00000000000E+00  0.45593999997E+02  0.45594000000E+02  0.51100000000E-03 0. -1.
         11   -1    0    0    0    0 -0.00000000000E+00 -0.00000000000E+00 -0.45593999997E+02  0.45594000000E+02  0.51100000000E-03 0.  1.
    9900012    2    1    2    0    0  0.18017548470E+02  0.85726098641E+01  0.35426601458E+02  0.50528858548E+02  0.29999996042E+02 0.  0.
        -12    1    1    2    0    0 -0.18017548470E+02 -0.85726098641E+01 -0.35426601458E+02  0.40659141452E+02  0.00000000000E+00 0.  1.
         11    1    3    3    0    0  0.10201583197E+02  0.20579971286E+01  0.31831394950E+02  0.33489481283E+02  0.51100000000E-03 0. -1.
        -11    1    3    3    0    0 -0.25402537320E+01  0.31870206147E+01 -0.22867367130E+01  0.46732381147E+01  0.51100000000E-03 0.  1.
         12    1    3    3    0    0  0.10356219006E+02  0.33275921208E+01  0.58819432214E+01  0.12366139150E+02  0.00000000000E+00 0. -1.
</event>
<event>
 7    1  0.5006721E-012  0.5052885E+02  0.7816164E-02  0.1300439E+00
        -11   -1    0    0    0    0  0.00000000000E+00  0.00000000000E+00  0.45593999997E+02  0.45594000000E+02  0.51100000000E-03 0. -1.
         11   -1    0    0    0    0 -0.00000000000E+00 -0.00000000000E+00 -0.45593999997E+02  0.45594000000E+02  0.51100000000E-03 0.  1.
    9900012    2    1    2    0    0  0.97848400692E+01  0.35104739039E+02  0.18029987694E+02  0.50528852758E+02  0.29999978444E+02 0.  0.
        -12    1    1    2    0    0 -0.97848400692E+01 -0.35104739039E+02 -0.18029987694E+02  0.40659147242E+02  0.00000000000E+00 0.  1.
         11    1    3    3    0    0  0.18438714551E+02  0.11805081325E+02  0.72096849043E+01  0.23050503163E+02  0.51100000000E-03 0. -1.
        -11    1    3    3    0    0 -0.58322071378E+01  0.11469089638E+02  0.37142150424E+01  0.13392163786E+02  0.51100000000E-03 0.  1.
         12    1    3    3    0    0 -0.28216673438E+01  0.11830568076E+02  0.71060877478E+01  0.14086185810E+02  0.00000000000E+00 0. -1.
</event>
<event>
 7    1  0.5006721E-012  0.5052886E+02  0.7816164E-02  0.1300439E+00
        -11   -1    0    0    0    0  0.00000000000E+00  0.00000000000E+00  0.45593999997E+02  0.45594000000E+02  0.51100000000E-03 0. -1.
         11   -1    0    0    0    0 -0.00000000000E+00 -0.00000000000E+00 -0.45593999997E+02  0.45594000000E+02  0.51100000000E-03 0.  1.
    9900012    2    1    2    0    0  0.12948054527E+02  0.21866101823E+02 -0.31739366364E+02  0.50528857090E+02  0.29999991611E+02 0.  0.
         12    1    1    2    0    0 -0.12948054527E+02 -0.21866101823E+02  0.31739366364E+02  0.40659142910E+02  0.00000000000E+00 0. -1.
         11    1    3    3    0    0  0.10279451714E+02  0.12133083971E+02 -0.50283861021E+01  0.16678234955E+02  0.51100000000E-03 0. -1.
        -11    1    3    3    0    0 -0.63585164396E+01  0.57211221973E+00 -0.34149241307E+01  0.72401485333E+01  0.51100000000E-03 0.  1.
        -12    1    3    3    0    0  0.90271192531E+01  0.91609056326E+01 -0.23296056131E+02  0.26610473601E+02  0.00000000000E+00 0.  1.
</event>
<event>
 7    1  0.5300664E-012  0.5052886E+02  0.7816164E-02  0.1300439E+00
        -11   -1    0    0    0    0  0.00000000000E+00  0.00000000000E+00  0.45593999997E+02  0.45594000000E+02  0.51100000000E-03 0.  1.
         11   -1    0    0    0    0 -0.00000000000E+00 -0.00000000000E+00 -0.45593999997E+02  0.45594000000E+02  0.51100000000E-03 0. -1.
    9900012    2    1    2    0    0 -0.52609724845E+01 -0.33770316185E+02  0.22023925832E+02  0.50528863317E+02  0.30000010539E+02 0.  0.
        -12    1    1    2    0    0  0.52609724845E+01  0.33770316185E+02 -0.22023925832E+02  0.40659136683E+02  0.00000000000E+00 0.  1.
         11    1    3    3    0    0 -0.33583481645E+00 -0.29142667696E+02  0.20686600789E+02  0.35739940095E+02  0.51100000000E-03 0. -1.
        -11    1    3    3    0    0 -0.84349226666E+01 -0.53742880495E+01 -0.16289098957E+01  0.10133323252E+02  0.51100000000E-03 0.  1.
         12    1    3    3    0    0  0.35097849985E+01  0.74663956062E+00  0.29662349387E+01  0.46555999700E+01  0.00000000000E+00 0. -1.
</event>
<event>
 7    1  0.5006721E-012  0.5052882E+02  0.7816164E-02  0.1300439E+00
        -11   -1    0    0    0    0  0.00000000000E+00  0.00000000000E+00  0.45593999997E+02  0.45594000000E+02  0.51100000000E-03 0. -1.
         11   -1    0    0    0    0 -0.00000000000E+00 -0.00000000000E+00 -0.45593999997E+02  0.45594000000E+02  0.51100000000E-03 0.  1.
    9900012    2    1    2    0    0 -0.20211444488E+00 -0.19611540494E+02  0.35616222441E+02  0.50528823032E+02  0.29999888087E+02 0.  0.
        -12    1    1    2    0    0  0.20211444488E+00  0.19611540494E+02 -0.35616222441E+02  0.40659176968E+02  0.00000000000E+00 0.  1.
         11    1    3    3    0    0 -0.65699635634E+01  0.50758685538E+01  0.14299685497E+02  0.16535110171E+02  0.51100000000E-03 0. -1.
        -11    1    3    3    0    0  0.46651407484E+01 -0.13140554800E+02  0.72527099282E+01  0.15717490900E+02  0.51100000000E-03 0.  1.
        -12    1    3    3    0    0  0.17027083702E+01 -0.11546854248E+02  0.14063827016E+02  0.18276221961E+02  0.00000000000E+00 0.  1.
</event>
<event>
 7    1  0.5006721E-012  0.5052886E+02  0.7816164E-02  0.1300439E+00
        -11   -1    0    0    0    0  0.00000000000E+00  0.00000000000E+00  0.45593999997E+02  0.45594000000E+02  0.51100000000E-03 0. -1.
         11   -1    0    0    0    0 -0.00000000000E+00 -0.00000000000E+00 -0.45593999997E+02  0.45594000000E+02  0.51100000000E-03 0.  1.
    9900012    2    1    2    0    0  0.20433769957E+02  0.24358512617E+02  0.25343437045E+02  0.50528857205E+02  0.29999991961E+02 0.  0.
        -12    1    1    2    0    0 -0.20433769957E+02 -0.24358512617E+02 -0.25343437045E+02  0.40659142795E+02  0.00000000000E+00 0.  1.
         11    1    3    3    0    0  0.10291648191E+02  0.83319101762E+01 -0.29280475857E+01  0.13561423694E+02  0.51100000000E-03 0. -1.
        -11    1    3    3    0    0  0.12866323991E+02  0.15735632825E+02  0.27351862890E+02  0.34077512193E+02  0.51100000000E-03 0.  1.
        -12    1    3    3    0    0 -0.27242022250E+01  0.29096961558E+00  0.91962174031E+00  0.28899213182E+01  0.00000000000E+00 0.  1.
</event>
<event>
 7    1  0.5006721E-012  0.5052886E+02  0.7816164E-02  0.1300439E+00
        -11   -1    0    0    0    0  0.00000000000E+00  0.00000000000E+00  0.45593999997E+02  0.45594000000E+02  0.51100000000E-03 0.  1.
         11   -1    0    0    0    0 -0.00000000000E+00 -0.00000000000E+00 -0.45593999997E+02  0.45594000000E+02  0.51100000000E-03 0. -1.
    9900012    2    1    2    0    0  0.31300198389E+02  0.22737058553E+02  0.12509573838E+02  0.50528859718E+02  0.29999999600E+02 0.  0.
        -12    1    1    2    0    0 -0.31300198389E+02 -0.22737058553E+02 -0.12509573838E+02  0.40659140282E+02  0.00000000000E+00 0.  1.
         11    1    3    3    0    0  0.80144548918E+01  0.22376950622E+02  0.32379253061E+01  0.23988404843E+02  0.51100000000E-03 0. -1.
        -11    1    3    3    0    0  0.19222577355E+02  0.26343178193E+00  0.10971676660E+02  0.22134917336E+02  0.51100000000E-03 0.  1.
         12    1    3    3    0    0  0.40631661421E+01  0.96676149591E-01 -0.17000281285E+01  0.44055375398E+01  0.00000000000E+00 0. -1.
</event>
<event>
 7    1  0.5006721E-012  0.5052887E+02  0.7816164E-02  0.1300439E+00
        -11   -1    0    0    0    0  0.00000000000E+00  0.00000000000E+00  0.45593999997E+02  0.45594000000E+02  0.51100000000E-03 0. -1.
         11   -1    0    0    0    0 -0.00000000000E+00 -0.00000000000E+00 -0.45593999997E+02  0.45594000000E+02  0.51100000000E-03 0.  1.
    9900012    2    1    2    0    0 -0.74848496995E+01 -0.16440676157E+02  0.36425903033E+02  0.50528865487E+02  0.30000017135E+02 0.  0.
        -12    1    1    2    0    0  0.74848496995E+01  0.16440676157E+02 -0.36425903033E+02  0.40659134513E+02  0.00000000000E+00 0.  1.
         11    1    3    3    0    0 -0.37071692744E+01  0.46742466164E+01  0.19214217253E+02  0.20119091192E+02  0.51100000000E-03 0. -1.
        -11    1    3    3    0    0  0.74413867888E+00 -0.17520243524E+02  0.74202105367E+01  0.19041328740E+02  0.51100000000E-03 0.  1.
        -12    1    3    3    0    0 -0.45218191039E+01 -0.35946792495E+01  0.97914752435E+01  0.11368445556E+02  0.00000000000E+00 0.  1.
</event>
<event>
 7    1  0.5006721E-012  0.5052885E+02  0.7816164E-02  0.1300439E+00
        -11   -1    0    0    0    0  0.00000000000E+00  0.00000000000E+00  0.45593999997E+02  0.45594000000E+02  0.51100000000E-03 0.  1.
         11   -1    0    0    0    0 -0.00000000000E+00 -0.00000000000E+00 -0.45593999997E+02  0.45594000000E+02  0.51100000000E-03 0. -1.
    9900012    2    1    2    0    0 -0.22138175683E+02  0.21543278531E+02 -0.26437750469E+02  0.50528851923E+02  0.29999975907E+02 0.  0.
         12    1    1    2    0    0  0.22138175683E+02 -0.21543278531E+02  0.26437750469E+02  0.40659148077E+02  0.00000000000E+00 0. -1.
         11    1    3    3    0    0 -0.39749752983E+01 -0.31553120787E+01  0.24644983820E+01  0.56418237718E+01  0.51100000000E-03 0. -1.
        -11    1    3    3    0    0 -0.88662732796E+01  0.15949975732E+02 -0.70182842543E+01  0.19551696649E+02  0.51100000000E-03 0.  1.
         12    1    3    3    0    0 -0.92969271054E+01  0.87486148778E+01 -0.21883964597E+02  0.25335331503E+02  0.00000000000E+00 0. -1.
</event>
<event>
 7    1  0.5006721E-012  0.5052885E+02  0.7816164E-02  0.1300439E+00
        -11   -1    0    0    0    0  0.00000000000E+00  0.00000000000E+00  0.45593999997E+02  0.45594000000E+02  0.51100000000E-03 0. -1.
         11   -1    0    0    0    0 -0.00000000000E+00 -0.00000000000E+00 -0.45593999997E+02  0.45594000000E+02  0.51100000000E-03 0.  1.
    9900012    2    1    2    0    0  0.63964456542E+01  0.30220007948E+02  0.26438662694E+02  0.50528852414E+02  0.29999977398E+02 0.  0.
        -12    1    1    2    0    0 -0.63964456542E+01 -0.30220007948E+02 -0.26438662694E+02  0.40659147586E+02  0.00000000000E+00 0.  1.
         11    1    3    3    0    0 -0.38187598273E+01  0.16055078531E+02  0.20695038228E+02  0.26469474509E+02  0.51100000000E-03 0. -1.
        -11    1    3    3    0    0  0.13777705606E+02  0.10733334046E+02  0.14776900906E+01  0.17527498389E+02  0.51100000000E-03 0.  1.
        -12    1    3    3    0    0 -0.35625001244E+01  0.34315953708E+01  0.42659343753E+01  0.65318795167E+01  0.00000000000E+00 0.  1.
</event>
<event>
 7    1  0.5006721E-012  0.5052900E+02  0.7816164E-02  0.1300438E+00
        -11   -1    0    0    0    0  0.00000000000E+00  0.00000000000E+00  0.45593999997E+02  0.45594000000E+02  0.51100000000E-03 0. -1.
         11   -1    0    0    0    0 -0.00000000000E+00 -0.00000000000E+00 -0.45593999997E+02  0.45594000000E+02  0.51100000000E-03 0.  1.
    9900012    2    1    2    0    0  0.30848221383E+02 -0.10503215662E+02 -0.24315097815E+02  0.50528999969E+02  0.30000425902E+02 0.  0.
         12    1    1    2    0    0 -0.30848221383E+02  0.10503215662E+02  0.24315097815E+02  0.40659000031E+02  0.00000000000E+00 0. -1.
         11    1    3    3    0    0 -0.21797035271E+00 -0.94626527572E+01 -0.12820471164E+02  0.15935927629E+02  0.51100000000E-03 0. -1.
        -11    1    3    3    0    0  0.15150588929E+02 -0.34082699880E+01 -0.99159542591E+01  0.18425058978E+02  0.51100000000E-03 0.  1.
         12    1    3    3    0    0  0.15915602807E+02  0.23677070833E+01 -0.15786723924E+01  0.16168013362E+02  0.00000000000E+00 0. -1.
</event>
<event>
 7    1  0.5006721E-012  0.5052886E+02  0.7816164E-02  0.1300439E+00
        -11   -1    0    0    0    0  0.00000000000E+00  0.00000000000E+00  0.45593999997E+02  0.45594000000E+02  0.51100000000E-03 0. -1.
         11   -1    0    0    0    0 -0.00000000000E+00 -0.00000000000E+00 -0.45593999997E+02  0.45594000000E+02  0.51100000000E-03 0.  1.
    9900012    2    1    2    0    0  0.10781987558E+01 -0.20884805342E+02 -0.34868728650E+02  0.50528857800E+02  0.29999993770E+02 0.  0.
         12    1    1    2    0    0 -0.10781987558E+01  0.20884805342E+02  0.34868728650E+02  0.40659142200E+02  0.00000000000E+00 0. -1.
         11    1    3    3    0    0  0.12273602702E+02 -0.18201072931E+02 -0.29845189832E+02  0.37049368894E+02  0.51100000000E-03 0.  1.
        -11    1    3    3    0    0 -0.78925633083E+01 -0.21896115962E+01 -0.10014341070E+01  0.82516558974E+01  0.51100000000E-03 0. -1.
        -12    1    3    3    0    0 -0.33028406375E+01 -0.49412081544E+00 -0.40221047111E+01  0.52278330084E+01  0.00000000000E+00 0.  1.
</event>
<event>
 7    1  0.5006721E-012  0.5052886E+02  0.7816164E-02  0.1300439E+00
        -11   -1    0    0    0    0  0.00000000000E+00  0.00000000000E+00  0.45593999997E+02  0.45594000000E+02  0.51100000000E-03 0. -1.
         11   -1    0    0    0    0 -0.00000000000E+00 -0.00000000000E+00 -0.45593999997E+02  0.45594000000E+02  0.51100000000E-03 0.  1.
    9900012    2    1    2    0    0 -0.27403347804E+02  0.33972132689E+01 -0.29844279005E+02  0.50528861812E+02  0.30000005964E+02 0.  0.
         12    1    1    2    0    0  0.27403347804E+02 -0.33972132689E+01  0.29844279005E+02  0.40659138188E+02  0.00000000000E+00 0. -1.
         11    1    3    3    0    0  0.22190400391E+01 -0.62406315414E+00 -0.87596513611E+00  0.24659498568E+01  0.51100000000E-03 0. -1.
        -11    1    3    3    0    0 -0.33627734347E+02  0.53841191792E+01 -0.24848510851E+02  0.42157582337E+02  0.51100000000E-03 0.  1.
        -12    1    3    3    0    0  0.40053465049E+01 -0.13628427562E+01 -0.41198030176E+01  0.59053296188E+01  0.00000000000E+00 0.  1.
</event>
<event>
 7    1  0.5006721E-012  0.5052885E+02  0.7816164E-02  0.1300439E+00
        -11   -1    0    0    0    0  0.00000000000E+00  0.00000000000E+00  0.45593999997E+02  0.45594000000E+02  0.51100000000E-03 0. -1.
         11   -1    0    0    0    0 -0.00000000000E+00 -0.00000000000E+00 -0.45593999997E+02  0.45594000000E+02  0.51100000000E-03 0.  1.
    9900012    2    1    2    0    0 -0.54832425763E+01 -0.21087669803E+02  0.34327981641E+02  0.50528854775E+02  0.29999984574E+02 0.  0.
        -12    1    1    2    0    0  0.54832425763E+01  0.21087669803E+02 -0.34327981641E+02  0.40659145225E+02  0.00000000000E+00 0.  1.
         11    1    3    3    0    0  0.31600934479E+01 -0.72509337345E+01  0.59784548053E+01  0.99148450690E+01  0.51100000000E-03 0. -1.
        -11    1    3    3    0    0 -0.10914966832E+02 -0.12623765758E+02  0.32033142625E+02  0.36119498744E+02  0.51100000000E-03 0.  1.
        -12    1    3    3    0    0  0.22716308078E+01 -0.12129703106E+01 -0.36836157892E+01  0.44945109616E+01  0.00000000000E+00 0.  1.
</event>
<event>
 7    1  0.7090765E-012  0.5052887E+02  0.7816164E-02  0.1300439E+00
        -11   -1    0    0    0    0  0.00000000000E+00  0.00000000000E+00  0.45593999997E+02  0.45594000000E+02  0.51100000000E-03 0. -1.
         11   -1    0    0    0    0 -0.00000000000E+00 -0.00000000000E+00 -0.45593999997E+02  0.45594000000E+02  0.51100000000E-03 0.  1.
    9900012    2    1    2    0    0  0.26360416581E+02 -0.14790305128E+02  0.27194489185E+02  0.50528869044E+02  0.30000027945E+02 0.  0.
        -12    1    1    2    0    0 -0.26360416581E+02  0.14790305128E+02 -0.27194489185E+02  0.40659130956E+02  0.00000000000E+00 0.  1.
         11    1    3    3    0    0  0.18808323200E+02  0.38896792242E+00  0.18956025259E+02  0.26706463852E+02  0.51100000000E-03 0. -1.
        -11    1    3    3    0    0 -0.22134648194E+01 -0.21869632936E+01 -0.27912286320E+01  0.41800947946E+01  0.51100000000E-03 0.  1.
         12    1    3    3    0    0  0.97655582010E+01 -0.12992309757E+02  0.11029692558E+02  0.19642310397E+02  0.00000000000E+00 0. -1.
</event>
<event>
 7    1  0.5098091E-012  0.5052887E+02  0.7816164E-02  0.1300439E+00
        -11   -1    0    0    0    0  0.00000000000E+00  0.00000000000E+00  0.45593999997E+02  0.45594000000E+02  0.51100000000E-03 0. -1.
         11   -1    0    0    0    0 -0.00000000000E+00 -0.00000000000E+00 -0.45593999997E+02  0.45594000000E+02  0.51100000000E-03 0.  1.
    9900012    2    1    2    0    0 -0.28454950058E+02 -0.12403233907E+02  0.26261002156E+02  0.50528872754E+02  0.30000039224E+02 0.  0.
        -12    1    1    2    0    0  0.28454950058E+02  0.12403233907E+02 -0.26261002156E+02  0.40659127246E+02  0.00000000000E+00 0.  1.
         11    1    3    3    0    0 -0.21552602337E+02 -0.47289192687E+01  0.27010438699E+02  0.34877516310E+02  0.51100000000E-03 0. -1.
        -11    1    3    3    0    0  0.26548232147E+01 -0.23365146738E+01 -0.28042020708E+01  0.45134174012E+01  0.51100000000E-03 0.  1.
         12    1    3    3    0    0 -0.95571709363E+01 -0.53377999640E+01  0.20547655271E+01  0.11137939043E+02  0.00000000000E+00 0. -1.
</event>
<event>
 7    1  0.5006721E-012  0.5052886E+02  0.7816164E-02  0.1300439E+00
        -11   -1    0    0    0    0  0.00000000000E+00  0.00000000000E+00  0.45593999997E+02  0.45594000000E+02  0.51100000000E-03 0. -1.
         11   -1    0    0    0    0 -0.00000000000E+00 -0.00000000000E+00 -0.45593999997E+02  0.45594000000E+02  0.51100000000E-03 0.  1.
    9900012    2    1    2    0    0  0.11309434896E+02 -0.19322353030E+02  0.33939783772E+02  0.50528861215E+02  0.30000004149E+02 0.  0.
        -12    1    1    2    0    0 -0.11309434896E+02  0.19322353030E+02 -0.33939783772E+02  0.40659138785E+02  0.00000000000E+00 0.  1.
         11    1    3    3    0    0 -0.63644624247E+01 -0.12213845685E+02  0.92052727041E+01  0.16565670955E+02  0.51100000000E-03 0. -1.
        -11    1    3    3    0    0  0.49071923844E+01 -0.65178502526E+01  0.17424465095E+02  0.19239929655E+02  0.51100000000E-03 0.  1.
         12    1    3    3    0    0  0.12766704936E+02 -0.59065709219E+00  0.73100459729E+01  0.14723260605E+02  0.00000000000E+00 0. -1.
</event>
<event>
 7    1  0.5006721E-012  0.5052886E+02  0.7816164E-02  0.1300439E+00
        -11   -1    0    0    0    0  0.00000000000E+00  0.00000000000E+00  0.45593999997E+02  0.45594000000E+02  0.51100000000E-03 0. -1.
         11   -1    0    0    0    0 -0.00000000000E+00 -0.00000000000E+00 -0.45593999997E+02  0.45594000000E+02  0.51100000000E-03 0.  1.
    9900012    2    1    2    0    0  0.83003199469E+01  0.15911137139E+02 -0.36484323841E+02  0.50528862252E+02  0.30000007300E+02 0.  0.
         12    1    1    2    0    0 -0.83003199469E+01 -0.15911137139E+02  0.36484323841E+02  0.40659137748E+02  0.00000000000E+00 0. -1.
         11    1    3    3    0    0  0.14363071985E+02  0.17398395340E+02 -0.13457216932E+02  0.26269729444E+02  0.51100000000E-03 0. -1.
        -11    1    3    3    0    0 -0.53522388680E+01 -0.52473086529E+00 -0.11791220321E+02  0.12959733034E+02  0.51100000000E-03 0.  1.
         12    1    3    3    0    0 -0.71051316960E+00 -0.96252733518E+00 -0.11235886588E+02  0.11299399774E+02  0.00000000000E+00 0. -1.
</event>
<event>
 7    1  0.5006721E-012  0.5052883E+02  0.7816164E-02  0.1300439E+00
        -11   -1    0    0    0    0  0.00000000000E+00  0.00000000000E+00  0.45593999997E+02  0.45594000000E+02  0.51100000000E-03 0. -1.
         11   -1    0    0    0    0 -0.00000000000E+00 -0.00000000000E+00 -0.45593999997E+02  0.45594000000E+02  0.51100000000E-03 0.  1.
    9900012    2    1    2    0    0  0.20421913236E+02 -0.16725184629E+02  0.30925418670E+02  0.50528833001E+02  0.29999918390E+02 0.  0.
        -12    1    1    2    0    0 -0.20421913236E+02  0.16725184629E+02 -0.30925418670E+02  0.40659166999E+02  0.00000000000E+00 0.  1.
         11    1    3    3    0    0  0.93758804672E+01  0.17697475592E+01 -0.30626211873E+01  0.10020917611E+02  0.51100000000E-03 0. -1.
        -11    1    3    3    0    0  0.82643993839E+01 -0.15890506231E+02  0.25079955169E+02  0.30819030435E+02  0.51100000000E-03 0.  1.
         12    1    3    3    0    0  0.27816333850E+01 -0.26044259578E+01  0.89080846885E+01  0.96888849552E+01  0.00000000000E+00 0. -1.
</event>
<event>
 7    1  0.5006721E-012  0.5052886E+02  0.7816164E-02  0.1300439E+00
        -11   -1    0    0    0    0  0.00000000000E+00  0.00000000000E+00  0.45593999997E+02  0.45594000000E+02  0.51100000000E-03 0. -1.
         11   -1    0    0    0    0 -0.00000000000E+00 -0.00000000000E+00 -0.45593999997E+02  0.45594000000E+02  0.51100000000E-03 0.  1.
    9900012    2    1    2    0    0 -0.16058592252E+02  0.42786414989E+01 -0.37107688149E+02  0.50528859847E+02  0.29999999991E+02 0.  0.
         12    1    1    2    0    0  0.16058592252E+02 -0.42786414989E+01  0.37107688149E+02  0.40659140153E+02  0.00000000000E+00 0. -1.
         11    1    3    3    0    0 -0.12675276616E+02  0.42286328882E+01 -0.40534253716E+02  0.42679851194E+02  0.51100000000E-03 0. -1.
        -11    1    3    3    0    0 -0.34891586789E+01  0.26872783110E+01  0.18683554392E+01  0.47839779803E+01  0.51100000000E-03 0.  1.
         12    1    3    3    0    0  0.10584304315E+00 -0.26372697003E+01  0.15582101272E+01  0.30650306724E+01  0.00000000000E+00 0. -1.
</event>
<event>
 7    1  0.5006721E-012  0.5052887E+02  0.7816164E-02  0.1300439E+00
        -11   -1    0    0    0    0  0.00000000000E+00  0.00000000000E+00  0.45593999997E+02  0.45594000000E+02  0.51100000000E-03 0. -1.
         11   -1    0    0    0    0 -0.00000000000E+00 -0.00000000000E+00 -0.45593999997E+02  0.45594000000E+02  0.51100000000E-03 0.  1.
    9900012    2    1    2    0    0 -0.21587844348E+02 -0.99706884479E+01  0.32980522762E+02  0.50528873923E+02  0.30000042775E+02 0.  0.
        -12    1    1    2    0    0  0.21587844348E+02  0.99706884479E+01 -0.32980522762E+02  0.40659126077E+02  0.00000000000E+00 0.  1.
         11    1    3    3    0    0 -0.25856185402E+02 -0.36623186151E+01  0.22135793515E+02  0.34233729800E+02  0.51100000000E-03 0. -1.
        -11    1    3    3    0    0  0.43489673230E+01 -0.84870715774E+01  0.68413637606E+01  0.11736616169E+02  0.51100000000E-03 0.  1.
        -12    1    3    3    0    0 -0.80626268749E-01  0.21787017446E+01  0.40033654866E+01  0.45585279539E+01  0.00000000000E+00 0.  1.
</event>
<event>
 7    1  0.5006721E-012  0.5052884E+02  0.7816164E-02  0.1300439E+00
        -11   -1    0    0    0    0  0.00000000000E+00  0.00000000000E+00  0.45593999997E+02  0.45594000000E+02  0.51100000000E-03 0.  1.
         11   -1    0    0    0    0 -0.00000000000E+00 -0.00000000000E+00 -0.45593999997E+02  0.45594000000E+02  0.51100000000E-03 0. -1.
    9900012    2    1    2    0    0  0.17083415836E+02  0.35906010459E+02  0.84901359317E+01  0.50528842460E+02  0.29999947143E+02 0.  0.
        -12    1    1    2    0    0 -0.17083415836E+02 -0.35906010459E+02 -0.84901359317E+01  0.40659157540E+02  0.00000000000E+00 0.  1.
         11    1    3    3    0    0  0.69590039354E+01  0.17496536835E+02 -0.84734730717E+01  0.20648396624E+02  0.51100000000E-03 0. -1.
        -11    1    3    3    0    0 -0.18350045277E+01  0.95046756208E+01  0.63155411817E+01  0.11558207515E+02  0.51100000000E-03 0.  1.
         12    1    3    3    0    0  0.11959416428E+02  0.89047980033E+01  0.10648067822E+02  0.18322238322E+02  0.00000000000E+00 0. -1.
</event>
<event>
 7    1  0.5006721E-012  0.5052886E+02  0.7816164E-02  0.1300439E+00
        -11   -1    0    0    0    0  0.00000000000E+00  0.00000000000E+00  0.45593999997E+02  0.45594000000E+02  0.51100000000E-03 0. -1.
         11   -1    0    0    0    0 -0.00000000000E+00 -0.00000000000E+00 -0.45593999997E+02  0.45594000000E+02  0.51100000000E-03 0.  1.
    9900012    2    1    2    0    0  0.19886561534E+02 -0.19832073453E+02 -0.29400323352E+02  0.50528862278E+02  0.30000007380E+02 0.  0.
         12    1    1    2    0    0 -0.19886561534E+02  0.19832073453E+02  0.29400323352E+02  0.40659137722E+02  0.00000000000E+00 0. -1.
         11    1    3    3    0    0 -0.19016905095E+00  0.67542410266E+01 -0.71874253742E+01  0.98648375498E+01  0.51100000000E-03 0. -1.
        -11    1    3    3    0    0  0.11245166126E+02 -0.93008441175E+01 -0.10701241385E+02  0.18096298791E+02  0.51100000000E-03 0.  1.
         12    1    3    3    0    0  0.88315644585E+01 -0.17285470362E+02 -0.11511656593E+02  0.22567725937E+02  0.00000000000E+00 0. -1.
</event>
<event>
 7    1  0.5006721E-012  0.5052886E+02  0.7816164E-02  0.1300439E+00
        -11   -1    0    0    0    0  0.00000000000E+00  0.00000000000E+00  0.45593999997E+02  0.45594000000E+02  0.51100000000E-03 0. -1.
         11   -1    0    0    0    0 -0.00000000000E+00 -0.00000000000E+00 -0.45593999997E+02  0.45594000000E+02  0.51100000000E-03 0.  1.
    9900012    2    1    2    0    0 -0.11262073416E+02 -0.27316094684E+02  0.27931384425E+02  0.50528861270E+02  0.30000004315E+02 0.  0.
        -12    1    1    2    0    0  0.11262073416E+02  0.27316094684E+02 -0.27931384425E+02  0.40659138730E+02  0.00000000000E+00 0.  1.
         11    1    3    3    0    0 -0.85461081411E+00  0.56050021405E+01  0.30908694608E+01  0.64575446513E+01  0.51100000000E-03 0. -1.
        -11    1    3    3    0    0 -0.10784250515E+01 -0.14951789779E+02  0.52090767996E+01  0.15869892865E+02  0.51100000000E-03 0.  1.
         12    1    3    3    0    0 -0.93290375502E+01 -0.17969307045E+02  0.19631438165E+02  0.28201423753E+02  0.00000000000E+00 0. -1.
</event>
<event>
 7    1  0.5006721E-012  0.5052884E+02  0.7816164E-02  0.1300439E+00
        -11   -1    0    0    0    0  0.00000000000E+00  0.00000000000E+00  0.45593999997E+02  0.45594000000E+02  0.51100000000E-03 0. -1.
         11   -1    0    0    0    0 -0.00000000000E+00 -0.00000000000E+00 -0.45593999997E+02  0.45594000000E+02  0.51100000000E-03 0.  1.
    9900012    2    1    2    0    0  0.17726202718E+02 -0.32558074719E+02 -0.16700917363E+02  0.50528841954E+02  0.29999945605E+02 0.  0.
         12    1    1    2    0    0 -0.17726202718E+02  0.32558074719E+02  0.16700917363E+02  0.40659158046E+02  0.00000000000E+00 0. -1.
         11    1    3    3    0    0  0.90671296919E+01 -0.12003460957E+02  0.72919209832E+01  0.16717297260E+02  0.51100000000E-03 0. -1.
        -11    1    3    3    0    0  0.89770225845E+01 -0.12129326906E+02 -0.12729054202E+02  0.19741740724E+02  0.51100000000E-03 0.  1.
         12    1    3    3    0    0 -0.31794955808E+00 -0.84252868557E+01 -0.11263784143E+02  0.14069803970E+02  0.00000000000E+00 0. -1.
</event>
<event>
 7    1  0.5006721E-012  0.5052886E+02  0.7816164E-02  0.1300439E+00
        -11   -1    0    0    0    0  0.00000000000E+00  0.00000000000E+00  0.45593999997E+02  0.45594000000E+02  0.51100000000E-03 0. -1.
         11   -1    0    0    0    0 -0.00000000000E+00 -0.00000000000E+00 -0.45593999997E+02  0.45594000000E+02  0.51100000000E-03 0.  1.
    9900012    2    1    2    0    0  0.14726020652E+02  0.31118781429E+01 -0.37770706440E+02  0.50528859149E+02  0.29999997868E+02 0.  0.
         12    1    1    2    0    0 -0.14726020652E+02 -0.31118781429E+01  0.37770706440E+02  0.40659140851E+02  0.00000000000E+00 0. -1.
         11    1    3    3    0    0  0.31501851680E+01  0.60594372551E+01  0.33204316106E+01  0.75937943601E+01  0.51100000000E-03 0. -1.
        -11    1    3    3    0    0  0.52391823309E+01 -0.25410148021E+01 -0.24177700767E+02  0.24868996811E+02  0.51100000000E-03 0.  1.
         12    1    3    3    0    0  0.63366531530E+01 -0.40654431005E+00 -0.16913437283E+02  0.18066067978E+02  0.00000000000E+00 0. -1.
</event>
<event>
 7    1  0.5006721E-012  0.5052886E+02  0.7816164E-02  0.1300439E+00
        -11   -1    0    0    0    0  0.00000000000E+00  0.00000000000E+00  0.45593999997E+02  0.45594000000E+02  0.51100000000E-03 0. -1.
         11   -1    0    0    0    0 -0.00000000000E+00 -0.00000000000E+00 -0.45593999997E+02  0.45594000000E+02  0.51100000000E-03 0.  1.
    9900012    2    1    2    0    0  0.21784341531E+02 -0.24340040408E+02  0.24210959855E+02  0.50528859821E+02  0.29999999911E+02 0.  0.
        -12    1    1    2    0    0 -0.21784341531E+02  0.24340040408E+02 -0.24210959855E+02  0.40659140179E+02  0.00000000000E+00 0.  1.
         11    1    3    3    0    0  0.43407859965E+01 -0.16432085122E+02  0.91511112002E+01  0.19302815364E+02  0.51100000000E-03 0. -1.
        -11    1    3    3    0    0  0.12156678864E+01  0.57219775386E+01  0.53024578257E+01  0.78952475969E+01  0.51100000000E-03 0.  1.
        -12    1    3    3    0    0  0.16227887648E+02 -0.13629932824E+02  0.97573908296E+01  0.23330796860E+02  0.00000000000E+00 0.  1.
</event>
<event>
 7    1  0.5006721E-012  0.5052884E+02  0.7816164E-02  0.1300439E+00
        -11   -1    0    0    0    0  0.00000000000E+00  0.00000000000E+00  0.45593999997E+02  0.45594000000E+02  0.51100000000E-03 0. -1.
         11   -1    0    0    0    0 -0.00000000000E+00 -0.00000000000E+00 -0.45593999997E+02  0.45594000000E+02  0.51100000000E-03 0.  1.
    9900012    2    1    2    0    0 -0.27456383208E+02 -0.65650812349E+01  0.29261139065E+02  0.50528837074E+02  0.29999930770E+02 0.  0.
        -12    1    1    2    0    0  0.27456383208E+02  0.65650812349E+01 -0.29261139065E+02  0.40659162926E+02  0.00000000000E+00 0.  1.
         11    1    3    3    0    0  0.18258447844E+01  0.40555123657E+01  0.76705318610E+01  0.88666763230E+01  0.51100000000E-03 0. -1.
        -11    1    3    3    0    0 -0.31002654271E+02 -0.73218524482E+01  0.18594805731E+02  0.36885510645E+02  0.51100000000E-03 0.  1.
        -12    1    3    3    0    0  0.17204262785E+01 -0.32987411525E+01  0.29958014730E+01  0.47766501061E+01  0.00000000000E+00 0.  1.
</event>
<event>
 7    1  0.5006721E-012  0.5052886E+02  0.7816164E-02  0.1300439E+00
        -11   -1    0    0    0    0  0.00000000000E+00  0.00000000000E+00  0.45593999997E+02  0.45594000000E+02  0.51100000000E-03 0. -1.
         11   -1    0    0    0    0 -0.00000000000E+00 -0.00000000000E+00 -0.45593999997E+02  0.45594000000E+02  0.51100000000E-03 0.  1.
    9900012    2    1    2    0    0  0.38128054416E+02  0.63370594332E+00 -0.14107284300E+02  0.50528860965E+02  0.30000003388E+02 0.  0.
         12    1    1    2    0    0 -0.38128054416E+02 -0.63370594332E+00  0.14107284300E+02  0.40659139035E+02  0.00000000000E+00 0. -1.
         11    1    3    3    0    0  0.11449608070E+02  0.12686303219E+02 -0.37112277600E+01  0.17487396206E+02  0.51100000000E-03 0. -1.
        -11    1    3    3    0    0  0.99899539187E+01 -0.50125053481E+01 -0.98858579478E+01  0.14921614416E+02  0.51100000000E-03 0.  1.
         12    1    3    3    0    0  0.16688492427E+02 -0.70400919272E+01 -0.51019859207E+00  0.18119850343E+02  0.00000000000E+00 0. -1.
</event>
<event>
 7    1  0.5006721E-012  0.5052886E+02  0.7816164E-02  0.1300439E+00
        -11   -1    0    0    0    0  0.00000000000E+00  0.00000000000E+00  0.45593999997E+02  0.45594000000E+02  0.51100000000E-03 0. -1.
         11   -1    0    0    0    0 -0.00000000000E+00 -0.00000000000E+00 -0.45593999997E+02  0.45594000000E+02  0.51100000000E-03 0.  1.
    9900012    2    1    2    0    0  0.28534068718E+02  0.26926280322E+00 -0.28963766268E+02  0.50528864047E+02  0.30000012757E+02 0.  0.
         12    1    1    2    0    0 -0.28534068718E+02 -0.26926280322E+00  0.28963766268E+02  0.40659135953E+02  0.00000000000E+00 0. -1.
         11    1    3    3    0    0  0.48570637148E+01  0.51284849435E+01 -0.41074715469E+01  0.81709086713E+01  0.51100000000E-03 0. -1.
        -11    1    3    3    0    0  0.87254155160E+01 -0.13107288325E+02 -0.18109530901E+02  0.23997687240E+02  0.51100000000E-03 0.  1.
        -12    1    3    3    0    0  0.14951589487E+02  0.82480661843E+01 -0.67467638202E+01  0.18360268136E+02  0.00000000000E+00 0.  1.
</event>
<event>
 7    1  0.5006721E-012  0.5052885E+02  0.7816164E-02  0.1300439E+00
        -11   -1    0    0    0    0  0.00000000000E+00  0.00000000000E+00  0.45593999997E+02  0.45594000000E+02  0.51100000000E-03 0. -1.
         11   -1    0    0    0    0 -0.00000000000E+00 -0.00000000000E+00 -0.45593999997E+02  0.45594000000E+02  0.51100000000E-03 0.  1.
    9900012    2    1    2    0    0  0.30076194952E+01  0.27428807629E+02 -0.29862704400E+02  0.50528851250E+02  0.29999973861E+02 0.  0.
         12    1    1    2    0    0 -0.30076194952E+01 -0.27428807629E+02  0.29862704400E+02  0.40659148750E+02  0.00000000000E+00 0. -1.
         11    1    3    3    0    0 -0.94587973974E+01  0.36014695268E+01 -0.13674433357E+02  0.17012629393E+02  0.51100000000E-03 0. -1.
        -11    1    3    3    0    0  0.29952646620E+01  0.10742255621E+02 -0.75829889570E+00  0.11177776330E+02  0.51100000000E-03 0.  1.
         12    1    3    3    0    0  0.94711522306E+01  0.13085082481E+02 -0.15429972147E+02  0.22338445528E+02  0.00000000000E+00 0. -1.
</event>
<event>
 7    1  0.5006721E-012  0.5052886E+02  0.7816164E-02  0.1300439E+00
        -11   -1    0    0    0    0  0.00000000000E+00  0.00000000000E+00  0.45593999997E+02  0.45594000000E+02  0.51100000000E-03 0. -1.
         11   -1    0    0    0    0 -0.00000000000E+00 -0.00000000000E+00 -0.45593999997E+02  0.45594000000E+02  0.51100000000E-03 0.  1.
    9900012    2    1    2    0    0  0.32794059982E+02  0.89066612722E+01  0.22324577762E+02  0.50528858871E+02  0.29999997023E+02 0.  0.
        -12    1    1    2    0    0 -0.32794059982E+02 -0.89066612722E+01 -0.22324577762E+02  0.40659141129E+02  0.00000000000E+00 0.  1.
         11    1    3    3    0    0  0.14050156429E+02  0.15373786279E+02  0.15670796008E+02  0.26064037447E+02  0.51100000000E-03 0. -1.
        -11    1    3    3    0    0 -0.38042362444E+00 -0.22863821075E+01 -0.19999854355E+01  0.30614060951E+01  0.51100000000E-03 0.  1.
         12    1    3    3    0    0  0.19124327177E+02 -0.41807428989E+01  0.86537671891E+01  0.21403415329E+02  0.00000000000E+00 0. -1.
</event>
<event>
 7    1  0.5006721E-012  0.5052886E+02  0.7816164E-02  0.1300439E+00
        -11   -1    0    0    0    0  0.00000000000E+00  0.00000000000E+00  0.45593999997E+02  0.45594000000E+02  0.51100000000E-03 0. -1.
         11   -1    0    0    0    0 -0.00000000000E+00 -0.00000000000E+00 -0.45593999997E+02  0.45594000000E+02  0.51100000000E-03 0.  1.
    9900012    2    1    2    0    0 -0.13663444582E+02  0.61901792832E+01 -0.37790970854E+02  0.50528861845E+02  0.30000006064E+02 0.  0.
         12    1    1    2    0    0  0.13663444582E+02 -0.61901792832E+01  0.37790970854E+02  0.40659138155E+02  0.00000000000E+00 0. -1.
         11    1    3    3    0    0  0.62745898022E+01 -0.56327370344E+01 -0.37849045854E+01  0.92424946127E+01  0.51100000000E-03 0. -1.
        -11    1    3    3    0    0 -0.14549909637E+02  0.72147881375E+01 -0.25216530819E+02  0.29993773773E+02  0.51100000000E-03 0.  1.
         12    1    3    3    0    0 -0.53881247472E+01  0.46081281802E+01 -0.87895354501E+01  0.11292593460E+02  0.00000000000E+00 0. -1.
</event>
<event>
 7    1  0.5006721E-012  0.5052887E+02  0.7816164E-02  0.1300439E+00
        -11   -1    0    0    0    0  0.00000000000E+00  0.00000000000E+00  0.45593999997E+02  0.45594000000E+02  0.51100000000E-03 0. -1.
         11   -1    0    0    0    0 -0.00000000000E+00 -0.00000000000E+00 -0.45593999997E+02  0.45594000000E+02  0.51100000000E-03 0.  1.
    9900012    2    1    2    0    0  0.12346920139E+02  0.38415917075E+02 -0.49935519274E+01  0.50528872089E+02  0.30000037203E+02 0.  0.
         12    1    1    2    0    0 -0.12346920139E+02 -0.38415917075E+02  0.49935519274E+01  0.40659127911E+02  0.00000000000E+00 0. -1.
         11    1    3    3    0    0  0.41262503247E+01  0.36987095027E+01 -0.88551094337E+01  0.10446021112E+02  0.51100000000E-03 0.  1.
        -11    1    3    3    0    0  0.91936407953E+01  0.15321188917E+02  0.89824184723E+01  0.19998642524E+02  0.51100000000E-03 0. -1.
        -12    1    3    3    0    0 -0.97297098065E+00  0.19396018655E+02 -0.51208609661E+01  0.20084208454E+02  0.00000000000E+00 0.  1.
</event>
<event>
 7    1  0.5006721E-012  0.5052886E+02  0.7816164E-02  0.1300439E+00
        -11   -1    0    0    0    0  0.00000000000E+00  0.00000000000E+00  0.45593999997E+02  0.45594000000E+02  0.51100000000E-03 0. -1.
         11   -1    0    0    0    0 -0.00000000000E+00 -0.00000000000E+00 -0.45593999997E+02  0.45594000000E+02  0.51100000000E-03 0.  1.
    9900012    2    1    2    0    0  0.88829541453E+01 -0.36225107091E+02 -0.16186414934E+02  0.50528864661E+02  0.30000014624E+02 0.  0.
         12    1    1    2    0    0 -0.88829541453E+01  0.36225107091E+02  0.16186414934E+02  0.40659135339E+02  0.00000000000E+00 0. -1.
         11    1    3    3    0    0  0.16673199542E+01 -0.27265573076E+02 -0.86136099427E+01  0.28642376080E+02  0.51100000000E-03 0. -1.
        -11    1    3    3    0    0 -0.74062687133E+00 -0.14340759494E+01  0.49758380861E+01  0.52310674734E+01  0.51100000000E-03 0.  1.
        -12    1    3    3    0    0  0.79562610624E+01 -0.75254580651E+01 -0.12548643078E+02  0.16655421108E+02  0.00000000000E+00 0.  1.
</event>
<event>
 7    1  0.5006721E-012  0.5052886E+02  0.7816164E-02  0.1300439E+00
        -11   -1    0    0    0    0  0.00000000000E+00  0.00000000000E+00  0.45593999997E+02  0.45594000000E+02  0.51100000000E-03 0. -1.
         11   -1    0    0    0    0 -0.00000000000E+00 -0.00000000000E+00 -0.45593999997E+02  0.45594000000E+02  0.51100000000E-03 0.  1.
    9900012    2    1    2    0    0 -0.61077997692E+01 -0.23877929821E+02 -0.32337360830E+02  0.50528860117E+02  0.30000000812E+02 0.  0.
         12    1    1    2    0    0  0.61077997692E+01  0.23877929821E+02  0.32337360830E+02  0.40659139883E+02  0.00000000000E+00 0. -1.
         11    1    3    3    0    0  0.37739252968E+00  0.51615509344E+01  0.58697559712E+00  0.52085097468E+01  0.51100000000E-03 0. -1.
        -11    1    3    3    0    0 -0.36101807878E+01 -0.25692504663E+02 -0.31212502374E+02  0.40587664455E+02  0.51100000000E-03 0.  1.
         12    1    3    3    0    0 -0.28750115111E+01 -0.33469760920E+01 -0.17118340538E+01  0.47326859157E+01  0.00000000000E+00 0. -1.
</event>
<event>
 7    1  0.5006721E-012  0.5052885E+02  0.7816164E-02  0.1300439E+00
        -11   -1    0    0    0    0  0.00000000000E+00  0.00000000000E+00  0.45593999997E+02  0.45594000000E+02  0.51100000000E-03 0. -1.
         11   -1    0    0    0    0 -0.00000000000E+00 -0.00000000000E+00 -0.45593999997E+02  0.45594000000E+02  0.51100000000E-03 0.  1.
    9900012    2    1    2    0    0 -0.16032544948E+02  0.92844500410E+01 -0.36192856068E+02  0.50528851701E+02  0.29999975230E+02 0.  0.
         12    1    1    2    0    0  0.16032544948E+02 -0.92844500410E+01  0.36192856068E+02  0.40659148299E+02  0.00000000000E+00 0. -1.
         11    1    3    3    0    0  0.64941524587E+01 -0.42040240654E+01 -0.79630897683E+01  0.11102190478E+02  0.51100000000E-03 0. -1.
        -11    1    3    3    0    0 -0.68183588454E+01  0.62072884464E+01 -0.15119188318E+02  0.17709045792E+02  0.51100000000E-03 0.  1.
         12    1    3    3    0    0 -0.15708338562E+02  0.72811856599E+01 -0.13110577981E+02  0.21717615431E+02  0.00000000000E+00 0. -1.
</event>
<event>
 7    1  0.5006721E-012  0.5052884E+02  0.7816164E-02  0.1300439E+00
        -11   -1    0    0    0    0  0.00000000000E+00  0.00000000000E+00  0.45593999997E+02  0.45594000000E+02  0.51100000000E-03 0. -1.
         11   -1    0    0    0    0 -0.00000000000E+00 -0.00000000000E+00 -0.45593999997E+02  0.45594000000E+02  0.51100000000E-03 0.  1.
    9900012    2    1    2    0    0  0.69222074973E+01  0.33434023653E+02  0.22077505657E+02  0.50528841742E+02  0.29999944959E+02 0.  0.
        -12    1    1    2    0    0 -0.69222074973E+01 -0.33434023653E+02 -0.22077505657E+02  0.40659158258E+02  0.00000000000E+00 0.  1.
         11    1    3    3    0    0  0.13192529513E+02  0.24286147753E+01  0.77370425180E+01  0.15485568503E+02  0.51100000000E-03 0. -1.
        -11    1    3    3    0    0 -0.67792984108E+01  0.27534009369E+02  0.13636568142E+02  0.31464846254E+02  0.51100000000E-03 0.  1.
         12    1    3    3    0    0  0.50897639540E+00  0.34713995085E+01  0.70389499706E+00  0.35784269848E+01  0.00000000000E+00 0. -1.
</event>
<event>
 7    1  0.5006721E-012  0.5052893E+02  0.7816164E-02  0.1300439E+00
        -11   -1    0    0    0    0  0.00000000000E+00  0.00000000000E+00  0.45593999997E+02  0.45594000000E+02  0.51100000000E-03 0. -1.
         11   -1    0    0    0    0 -0.00000000000E+00 -0.00000000000E+00 -0.45593999997E+02  0.45594000000E+02  0.51100000000E-03 0.  1.
    9900012    2    1    2    0    0 -0.21927037230E+02  0.12155984016E+02 -0.32009333658E+02  0.50528925364E+02  0.30000199135E+02 0.  0.
         12    1    1    2    0    0  0.21927037230E+02 -0.12155984016E+02  0.32009333658E+02  0.40659074636E+02  0.00000000000E+00 0. -1.
         11    1    3    3    0    0 -0.42905826005E+01 -0.58898720296E+01 -0.51194845701E+01  0.89055496237E+01  0.51100000000E-03 0. -1.
        -11    1    3    3    0    0 -0.17478345244E+02  0.16363573250E+02 -0.12265435771E+02  0.26901672753E+02  0.51100000000E-03 0.  1.
        -12    1    3    3    0    0 -0.15810938496E+00  0.16822827956E+01 -0.14624413317E+02  0.14721702987E+02  0.00000000000E+00 0.  1.
</event>
<event>
 7    1  0.5006721E-012  0.5052886E+02  0.7816164E-02  0.1300439E+00
        -11   -1    0    0    0    0  0.00000000000E+00  0.00000000000E+00  0.45593999997E+02  0.45594000000E+02  0.51100000000E-03 0. -1.
         11   -1    0    0    0    0 -0.00000000000E+00 -0.00000000000E+00 -0.45593999997E+02  0.45594000000E+02  0.51100000000E-03 0.  1.
    9900012    2    1    2    0    0  0.11033450451E+02 -0.47961429247E+01 -0.38838458767E+02  0.50528857176E+02  0.29999991871E+02 0.  0.
         12    1    1    2    0    0 -0.11033450451E+02  0.47961429247E+01  0.38838458767E+02  0.40659142824E+02  0.00000000000E+00 0. -1.
         11    1    3    3    0    0  0.12932351823E+02 -0.53869163088E+01 -0.69521364284E+01  0.15639590537E+02  0.51100000000E-03 0. -1.
        -11    1    3    3    0    0 -0.56554452311E+01 -0.37157277065E+01 -0.25204015533E+02  0.26096610745E+02  0.51100000000E-03 0.  1.
         12    1    3    3    0    0  0.37565438584E+01  0.43065010906E+01 -0.66823068061E+01  0.87926558931E+01  0.00000000000E+00 0. -1.
</event>
<event>
 7    1  0.5006721E-012  0.5052887E+02  0.7816164E-02  0.1300439E+00
        -11   -1    0    0    0    0  0.00000000000E+00  0.00000000000E+00  0.45593999997E+02  0.45594000000E+02  0.51100000000E-03 0. -1.
         11   -1    0    0    0    0 -0.00000000000E+00 -0.00000000000E+00 -0.45593999997E+02  0.45594000000E+02  0.51100000000E-03 0.  1.
    9900012    2    1    2    0    0  0.38810422875E+02  0.84029729835E+01 -0.87353278319E+01  0.50528870263E+02  0.30000031651E+02 0.  0.
         12    1    1    2    0    0 -0.38810422875E+02 -0.84029729835E+01  0.87353278319E+01  0.40659129737E+02  0.00000000000E+00 0. -1.
         11    1    3    3    0    0  0.52221904934E+01  0.11771224756E+02 -0.39069604105E+01  0.13457241386E+02  0.51100000000E-03 0. -1.
        -11    1    3    3    0    0  0.20266738864E+02 -0.23487575265E+01  0.43516573300E+01  0.20861310790E+02  0.51100000000E-03 0.  1.
         12    1    3    3    0    0  0.13321493518E+02 -0.10194942461E+01 -0.91800247514E+01  0.16210318087E+02  0.00000000000E+00 0. -1.
</event>
<event>
 7    1  0.5006721E-012  0.5052885E+02  0.7816164E-02  0.1300439E+00
        -11   -1    0    0    0    0  0.00000000000E+00  0.00000000000E+00  0.45593999997E+02  0.45594000000E+02  0.51100000000E-03 0. -1.
         11   -1    0    0    0    0 -0.00000000000E+00 -0.00000000000E+00 -0.45593999997E+02  0.45594000000E+02  0.51100000000E-03 0.  1.
    9900012    2    1    2    0    0 -0.35538702577E+01  0.38561868514E+01  0.40319548573E+02  0.50528853821E+02  0.29999981674E+02 0.  0.
        -12    1    1    2    0    0  0.35538702577E+01 -0.38561868514E+01 -0.40319548573E+02  0.40659146179E+02  0.00000000000E+00 0.  1.
         11    1    3    3    0    0  0.53383424127E+01 -0.19098622423E+01  0.29964741807E+02  0.30496413319E+02  0.51100000000E-03 0. -1.
        -11    1    3    3    0    0 -0.19467417068E+01  0.85929863973E+01  0.24682692758E+01  0.91499492882E+01  0.51100000000E-03 0.  1.
        -12    1    3    3    0    0 -0.69454709636E+01 -0.28269373036E+01  0.78865374902E+01  0.10882491213E+02  0.00000000000E+00 0.  1.
</event>
<event>
 7    1  0.5006721E-012  0.5052886E+02  0.7816164E-02  0.1300439E+00
        -11   -1    0    0    0    0  0.00000000000E+00  0.00000000000E+00  0.45593999997E+02  0.45594000000E+02  0.51100000000E-03 0. -1.
         11   -1    0    0    0    0 -0.00000000000E+00 -0.00000000000E+00 -0.45593999997E+02  0.45594000000E+02  0.51100000000E-03 0.  1.
    9900012    2    1    2    0    0 -0.76644297520E+01 -0.16937971818E+01 -0.39894276258E+02  0.50528859448E+02  0.29999998777E+02 0.  0.
         12    1    1    2    0    0  0.76644297520E+01  0.16937971818E+01  0.39894276258E+02  0.40659140552E+02  0.00000000000E+00 0. -1.
         11    1    3    3    0    0 -0.14009627015E+02  0.50992368877E+01 -0.23930877064E+02  0.28195012737E+02  0.51100000000E-03 0. -1.
        -11    1    3    3    0    0  0.13546593469E+01 -0.73017675646E+01 -0.15632172128E+02  0.17306522389E+02  0.51100000000E-03 0.  1.
        -12    1    3    3    0    0  0.49905379164E+01  0.50873349502E+00 -0.33122706656E+00  0.50273243215E+01  0.00000000000E+00 0.  1.
</event>
<event>
 7    1  0.5006721E-012  0.5052886E+02  0.7816164E-02  0.1300439E+00
        -11   -1    0    0    0    0  0.00000000000E+00  0.00000000000E+00  0.45593999997E+02  0.45594000000E+02  0.51100000000E-03 0. -1.
         11   -1    0    0    0    0 -0.00000000000E+00 -0.00000000000E+00 -0.45593999997E+02  0.45594000000E+02  0.51100000000E-03 0.  1.
    9900012    2    1    2    0    0 -0.14406578473E+02 -0.29753889644E+02 -0.23671129419E+02  0.50528858097E+02  0.29999994673E+02 0.  0.
         12    1    1    2    0    0  0.14406578473E+02  0.29753889644E+02  0.23671129419E+02  0.40659141903E+02  0.00000000000E+00 0. -1.
         11    1    3    3    0    0  0.13548190908E+01 -0.16223212435E+02 -0.14282039400E+01  0.16342212924E+02  0.51100000000E-03 0. -1.
        -11    1    3    3    0    0 -0.83920217597E+01 -0.62715378536E+00 -0.15981337172E+02  0.18061630302E+02  0.51100000000E-03 0.  1.
         12    1    3    3    0    0 -0.73693758046E+01 -0.12903523423E+02 -0.62615883068E+01  0.16125014872E+02  0.00000000000E+00 0. -1.
</event>
<event>
 7    1  0.5006721E-012  0.5052888E+02  0.7816164E-02  0.1300439E+00
        -11   -1    0    0    0    0  0.00000000000E+00  0.00000000000E+00  0.45593999997E+02  0.45594000000E+02  0.51100000000E-03 0. -1.
         11   -1    0    0    0    0 -0.00000000000E+00 -0.00000000000E+00 -0.45593999997E+02  0.45594000000E+02  0.51100000000E-03 0.  1.
    9900012    2    1    2    0    0  0.85225215835E+01 -0.35382866661E+00 -0.39754314108E+02  0.50528879755E+02  0.30000060504E+02 0.  0.
         12    1    1    2    0    0 -0.85225215835E+01  0.35382866661E+00  0.39754314108E+02  0.40659120245E+02  0.00000000000E+00 0. -1.
         11    1    3    3    0    0 -0.71949686370E+00  0.11401500830E+02 -0.26479400559E+02  0.28838698846E+02  0.51100000000E-03 0. -1.
        -11    1    3    3    0    0 -0.10437005552E+01 -0.42589808856E+01 -0.27633181607E+01  0.51830643978E+01  0.51100000000E-03 0.  1.
         12    1    3    3    0    0  0.10285719002E+02 -0.74963486113E+01 -0.10511595388E+02  0.16507116511E+02  0.00000000000E+00 0. -1.
</event>
<event>
 7    1  0.5006721E-012  0.5052887E+02  0.7816164E-02  0.1300439E+00
        -11   -1    0    0    0    0  0.00000000000E+00  0.00000000000E+00  0.45593999997E+02  0.45594000000E+02  0.51100000000E-03 0. -1.
         11   -1    0    0    0    0 -0.00000000000E+00 -0.00000000000E+00 -0.45593999997E+02  0.45594000000E+02  0.51100000000E-03 0.  1.
    9900012    2    1    2    0    0  0.79144439635E+01  0.25489512337E+01 -0.39799861725E+02  0.50528873485E+02  0.30000041444E+02 0.  0.
         12    1    1    2    0    0 -0.79144439635E+01 -0.25489512337E+01  0.39799861725E+02  0.40659126515E+02  0.00000000000E+00 0. -1.
         11    1    3    3    0    0  0.54433566356E+01  0.11828783479E+02 -0.24098358190E+02  0.27391259879E+02  0.51100000000E-03 0. -1.
        -11    1    3    3    0    0  0.57967639975E+01 -0.11579970909E+02 -0.12073113208E+02  0.17704752522E+02  0.51100000000E-03 0.  1.
        -12    1    3    3    0    0 -0.33256766695E+01  0.23001386637E+01 -0.36283903270E+01  0.54328610830E+01  0.00000000000E+00 0.  1.
</event>
<event>
 7    1  0.5006721E-012  0.5052887E+02  0.7816164E-02  0.1300439E+00
        -11   -1    0    0    0    0  0.00000000000E+00  0.00000000000E+00  0.45593999997E+02  0.45594000000E+02  0.51100000000E-03 0. -1.
         11   -1    0    0    0    0 -0.00000000000E+00 -0.00000000000E+00 -0.45593999997E+02  0.45594000000E+02  0.51100000000E-03 0.  1.
    9900012    2    1    2    0    0  0.36484078377E+01  0.24985168928E+02  0.31868411652E+02  0.50528865634E+02  0.30000017582E+02 0.  0.
        -12    1    1    2    0    0 -0.36484078377E+01 -0.24985168928E+02 -0.31868411652E+02  0.40659134366E+02  0.00000000000E+00 0.  1.
         11    1    3    3    0    0  0.22882443893E+01  0.22904243435E+02  0.16006780805E+02  0.28036716315E+02  0.51100000000E-03 0. -1.
        -11    1    3    3    0    0 -0.40705185356E+01  0.92876108843E+00  0.16391958303E+02  0.16915318962E+02  0.51100000000E-03 0.  1.
        -12    1    3    3    0    0  0.54306819840E+01  0.11521644048E+01 -0.53032745610E+00  0.55768303576E+01  0.00000000000E+00 0.  1.
</event>
<event>
 7    1  0.5006721E-012  0.5052887E+02  0.7816164E-02  0.1300439E+00
        -11   -1    0    0    0    0  0.00000000000E+00  0.00000000000E+00  0.45593999997E+02  0.45594000000E+02  0.51100000000E-03 0.  1.
         11   -1    0    0    0    0 -0.00000000000E+00 -0.00000000000E+00 -0.45593999997E+02  0.45594000000E+02  0.51100000000E-03 0. -1.
    9900012    2    1    2    0    0  0.32671310009E+02 -0.20577361378E+02 -0.12740597235E+02  0.50528866747E+02  0.30000020963E+02 0.  0.
        -12    1    1    2    0    0 -0.32671310009E+02  0.20577361378E+02  0.12740597235E+02  0.40659133253E+02  0.00000000000E+00 0.  1.
         11    1    3    3    0    0 -0.52773081514E-01 -0.36890742701E+01 -0.10330524761E+02  0.10969585045E+02  0.51100000000E-03 0. -1.
        -11    1    3    3    0    0  0.30227867517E+02 -0.94997806045E+01 -0.20724854876E+01  0.31753188856E+02  0.51100000000E-03 0.  1.
        -12    1    3    3    0    0  0.24962155736E+01 -0.73885065038E+01 -0.33758698711E+00  0.78060928460E+01  0.00000000000E+00 0.  1.
</event>
<event>
 7    1  0.5006721E-012  0.5052885E+02  0.7816164E-02  0.1300439E+00
        -11   -1    0    0    0    0  0.00000000000E+00  0.00000000000E+00  0.45593999997E+02  0.45594000000E+02  0.51100000000E-03 0.  1.
         11   -1    0    0    0    0 -0.00000000000E+00 -0.00000000000E+00 -0.45593999997E+02  0.45594000000E+02  0.51100000000E-03 0. -1.
    9900012    2    1    2    0    0  0.13818500151E+02 -0.26600056436E+02  0.27470935496E+02  0.50528852864E+02  0.29999978765E+02 0.  0.
        -12    1    1    2    0    0 -0.13818500151E+02  0.26600056436E+02 -0.27470935496E+02  0.40659147136E+02  0.00000000000E+00 0.  1.
         11    1    3    3    0    0  0.10993571638E+02 -0.31970204080E+02  0.18785008488E+02  0.38675950026E+02  0.51100000000E-03 0. -1.
        -11    1    3    3    0    0 -0.69164479768E+00  0.40617331520E+01  0.32496573824E+01  0.52475062733E+01  0.51100000000E-03 0.  1.
         12    1    3    3    0    0  0.35165733106E+01  0.13084144922E+01  0.54362696255E+01  0.66053965645E+01  0.00000000000E+00 0. -1.
</event>
<event>
 7    1  0.5006721E-012  0.5052885E+02  0.7816164E-02  0.1300439E+00
        -11   -1    0    0    0    0  0.00000000000E+00  0.00000000000E+00  0.45593999997E+02  0.45594000000E+02  0.51100000000E-03 0. -1.
         11   -1    0    0    0    0 -0.00000000000E+00 -0.00000000000E+00 -0.45593999997E+02  0.45594000000E+02  0.51100000000E-03 0.  1.
    9900012    2    1    2    0    0 -0.55399436908E-01 -0.36486617155E+02  0.17941306351E+02  0.50528846368E+02  0.29999959020E+02 0.  0.
        -12    1    1    2    0    0  0.55399436908E-01  0.36486617155E+02 -0.17941306351E+02  0.40659153632E+02  0.00000000000E+00 0.  1.
         11    1    3    3    0    0  0.77553655714E+01 -0.66378661523E-01  0.78980703639E+01  0.11069309690E+02  0.51100000000E-03 0. -1.
        -11    1    3    3    0    0 -0.22643428860E+01 -0.26528953509E+02  0.52002970665E+01  0.27128503697E+02  0.51100000000E-03 0.  1.
         12    1    3    3    0    0 -0.55464221223E+01 -0.98912849842E+01  0.48429389205E+01  0.12331032981E+02  0.00000000000E+00 0. -1.
</event>
<event>
 7    1  0.5006721E-012  0.5052886E+02  0.7816164E-02  0.1300439E+00
        -11   -1    0    0    0    0  0.00000000000E+00  0.00000000000E+00  0.45593999997E+02  0.45594000000E+02  0.51100000000E-03 0. -1.
         11   -1    0    0    0    0 -0.00000000000E+00 -0.00000000000E+00 -0.45593999997E+02  0.45594000000E+02  0.51100000000E-03 0.  1.
    9900012    2    1    2    0    0 -0.15637467808E+02  0.30918224907E+02  0.21276711995E+02  0.50528861984E+02  0.30000006488E+02 0.  0.
        -12    1    1    2    0    0  0.15637467808E+02 -0.30918224907E+02 -0.21276711995E+02  0.40659138016E+02  0.00000000000E+00 0.  1.
         11    1    3    3    0    0 -0.10470833049E+01  0.15660916901E+02  0.12990525915E+02  0.20374358038E+02  0.51100000000E-03 0. -1.
        -11    1    3    3    0    0 -0.12469936512E+02  0.17978938842E+02  0.78079772802E+00  0.21894090615E+02  0.51100000000E-03 0.  1.
        -12    1    3    3    0    0 -0.21204479906E+01 -0.27216308366E+01  0.75053883522E+01  0.82604133316E+01  0.00000000000E+00 0.  1.
</event>
<event>
 7    1  0.5006721E-012  0.5052887E+02  0.7816164E-02  0.1300439E+00
        -11   -1    0    0    0    0  0.00000000000E+00  0.00000000000E+00  0.45593999997E+02  0.45594000000E+02  0.51100000000E-03 0. -1.
         11   -1    0    0    0    0 -0.00000000000E+00 -0.00000000000E+00 -0.45593999997E+02  0.45594000000E+02  0.51100000000E-03 0.  1.
    9900012    2    1    2    0    0  0.10540189209E+02  0.18873805145E+02 -0.34436158199E+02  0.50528866946E+02  0.30000021568E+02 0.  0.
         12    1    1    2    0    0 -0.10540189209E+02 -0.18873805145E+02  0.34436158199E+02  0.40659133054E+02  0.00000000000E+00 0. -1.
         11    1    3    3    0    0 -0.27018304231E+01 -0.19667961437E+01 -0.21199598537E+01  0.39575756150E+01  0.51100000000E-03 0. -1.
        -11    1    3    3    0    0  0.16080231737E+02  0.67259274577E+01 -0.24849435948E+02  0.30353029833E+02  0.51100000000E-03 0.  1.
        -12    1    3    3    0    0 -0.28382121050E+01  0.14114673830E+02 -0.74667623980E+01  0.16218261498E+02  0.00000000000E+00 0.  1.
</event>
<event>
 7    1  0.5006721E-012  0.5052885E+02  0.7816164E-02  0.1300439E+00
        -11   -1    0    0    0    0  0.00000000000E+00  0.00000000000E+00  0.45593999997E+02  0.45594000000E+02  0.51100000000E-03 0. -1.
         11   -1    0    0    0    0 -0.00000000000E+00 -0.00000000000E+00 -0.45593999997E+02  0.45594000000E+02  0.51100000000E-03 0.  1.
    9900012    2    1    2    0    0  0.32229431389E+02  0.24786423225E+02  0.25111980657E+00  0.50528854841E+02  0.29999984774E+02 0.  0.
        -12    1    1    2    0    0 -0.32229431389E+02 -0.24786423225E+02 -0.25111980657E+00  0.40659145159E+02  0.00000000000E+00 0.  1.
         11    1    3    3    0    0  0.16286613241E+02  0.12628708546E+02  0.86253016736E+01  0.22341304340E+02  0.51100000000E-03 0. -1.
        -11    1    3    3    0    0 -0.61281816055E-01  0.93336838698E+01 -0.73922103498E+01  0.11906560551E+02  0.51100000000E-03 0.  1.
         12    1    3    3    0    0  0.16004099964E+02  0.28240308090E+01 -0.98197151725E+00  0.16280989949E+02  0.00000000000E+00 0. -1.
</event>
<event>
 7    1  0.5006721E-012  0.5052890E+02  0.7816164E-02  0.1300439E+00
        -11   -1    0    0    0    0  0.00000000000E+00  0.00000000000E+00  0.45593999997E+02  0.45594000000E+02  0.51100000000E-03 0.  1.
         11   -1    0    0    0    0 -0.00000000000E+00 -0.00000000000E+00 -0.45593999997E+02  0.45594000000E+02  0.51100000000E-03 0. -1.
    9900012    2    1    2    0    0 -0.32832310175E+02 -0.20549208219E+02 -0.12366547282E+02  0.50528904566E+02  0.30000135918E+02 0.  0.
         12    1    1    2    0    0  0.32832310175E+02  0.20549208219E+02  0.12366547282E+02  0.40659095434E+02  0.00000000000E+00 0. -1.
         11    1    3    3    0    0 -0.11007746592E+02 -0.15397765692E+02  0.58710504781E+01  0.19817439474E+02  0.51100000000E-03 0. -1.
        -11    1    3    3    0    0 -0.16989544296E+02 -0.70288110252E+01 -0.98728526922E+01  0.20869164343E+02  0.51100000000E-03 0.  1.
         12    1    3    3    0    0 -0.48350192867E+01  0.18773684985E+01 -0.83647450681E+01  0.98423007491E+01  0.00000000000E+00 0. -1.
</event>
<event>
 7    1  0.5006721E-012  0.5052886E+02  0.7816164E-02  0.1300439E+00
        -11   -1    0    0    0    0  0.00000000000E+00  0.00000000000E+00  0.45593999997E+02  0.45594000000E+02  0.51100000000E-03 0. -1.
         11   -1    0    0    0    0 -0.00000000000E+00 -0.00000000000E+00 -0.45593999997E+02  0.45594000000E+02  0.51100000000E-03 0.  1.
    9900012    2    1    2    0    0 -0.30413319833E+02 -0.61296484206E+01  0.26279709802E+02  0.50528858834E+02  0.29999996912E+02 0.  0.
        -12    1    1    2    0    0  0.30413319833E+02  0.61296484206E+01 -0.26279709802E+02  0.40659141166E+02  0.00000000000E+00 0.  1.
         11    1    3    3    0    0 -0.12938567231E+02 -0.11422140046E+02  0.68593266532E+01  0.18572080325E+02  0.51100000000E-03 0. -1.
        -11    1    3    3    0    0 -0.12113102524E+02  0.87470069992E+01  0.43021411662E+01  0.15548176841E+02  0.51100000000E-03 0.  1.
        -12    1    3    3    0    0 -0.53616500785E+01 -0.34545153736E+01  0.15118241983E+02  0.16408601668E+02  0.00000000000E+00 0.  1.
</event>
<event>
 7    1  0.5006721E-012  0.5052886E+02  0.7816164E-02  0.1300439E+00
        -11   -1    0    0    0    0  0.00000000000E+00  0.00000000000E+00  0.45593999997E+02  0.45594000000E+02  0.51100000000E-03 0. -1.
         11   -1    0    0    0    0 -0.00000000000E+00 -0.00000000000E+00 -0.45593999997E+02  0.45594000000E+02  0.51100000000E-03 0.  1.
    9900012    2    1    2    0    0  0.16677371210E+02 -0.29704731522E+00 -0.37080221821E+02  0.50528858372E+02  0.29999995508E+02 0.  0.
         12    1    1    2    0    0 -0.16677371210E+02  0.29704731522E+00  0.37080221821E+02  0.40659141628E+02  0.00000000000E+00 0. -1.
         11    1    3    3    0    0  0.92679855894E+01 -0.47364624775E+01 -0.52145874578E+01  0.11641372612E+02  0.51100000000E-03 0. -1.
        -11    1    3    3    0    0 -0.70365211602E+01 -0.23793225629E+00 -0.11505516518E+02  0.13488741691E+02  0.51100000000E-03 0.  1.
        -12    1    3    3    0    0  0.14445906781E+02  0.46773474186E+01 -0.20360117846E+02  0.25398744069E+02  0.00000000000E+00 0.  1.
</event>
<event>
 7    1  0.5006721E-012  0.5052885E+02  0.7816164E-02  0.1300439E+00
        -11   -1    0    0    0    0  0.00000000000E+00  0.00000000000E+00  0.45593999997E+02  0.45594000000E+02  0.51100000000E-03 0. -1.
         11   -1    0    0    0    0 -0.00000000000E+00 -0.00000000000E+00 -0.45593999997E+02  0.45594000000E+02  0.51100000000E-03 0.  1.
    9900012    2    1    2    0    0 -0.32414147345E+02  0.19352822383E+02 -0.15098266253E+02  0.50528851877E+02  0.29999975765E+02 0.  0.
         12    1    1    2    0    0  0.32414147345E+02 -0.19352822383E+02  0.15098266253E+02  0.40659148123E+02  0.00000000000E+00 0. -1.
         11    1    3    3    0    0 -0.18668433707E+02  0.55656083440E+01 -0.21028181824E+02  0.28664801489E+02  0.51100000000E-03 0.  1.
        -11    1    3    3    0    0 -0.20583025449E+01  0.73063712189E+01  0.31249826599E+01  0.82088480702E+01  0.51100000000E-03 0. -1.
         12    1    3    3    0    0 -0.11687411092E+02  0.64808428196E+01  0.28049329116E+01  0.13655202318E+02  0.00000000000E+00 0. -1.
</event>
<event>
 7    1  0.5006721E-012  0.5052886E+02  0.7816164E-02  0.1300439E+00
        -11   -1    0    0    0    0  0.00000000000E+00  0.00000000000E+00  0.45593999997E+02  0.45594000000E+02  0.51100000000E-03 0. -1.
         11   -1    0    0    0    0 -0.00000000000E+00 -0.00000000000E+00 -0.45593999997E+02  0.45594000000E+02  0.51100000000E-03 0.  1.
    9900012    2    1    2    0    0  0.78351577632E+01  0.12333315342E+02  0.37942920333E+02  0.50528861200E+02  0.30000004104E+02 0.  0.
        -12    1    1    2    0    0 -0.78351577632E+01 -0.12333315342E+02 -0.37942920333E+02  0.40659138800E+02  0.00000000000E+00 0.  1.
         11    1    3    3    0    0  0.26871393054E+01  0.49307382975E+01  0.22610904884E+02  0.23297766368E+02  0.51100000000E-03 0. -1.
        -11    1    3    3    0    0  0.47137408772E+01  0.99436961749E+01 -0.66808315217E+00  0.11024644304E+02  0.51100000000E-03 0.  1.
        -12    1    3    3    0    0  0.43427758062E+00 -0.25411191301E+01  0.16000098602E+02  0.16206450528E+02  0.00000000000E+00 0.  1.
</event>
<event>
 7    1  0.5006721E-012  0.5052885E+02  0.7816164E-02  0.1300439E+00
        -11   -1    0    0    0    0  0.00000000000E+00  0.00000000000E+00  0.45593999997E+02  0.45594000000E+02  0.51100000000E-03 0. -1.
         11   -1    0    0    0    0 -0.00000000000E+00 -0.00000000000E+00 -0.45593999997E+02  0.45594000000E+02  0.51100000000E-03 0.  1.
    9900012    2    1    2    0    0  0.34291093413E+02 -0.13021062554E+02 -0.17542494511E+02  0.50528852552E+02  0.29999977818E+02 0.  0.
         12    1    1    2    0    0 -0.34291093413E+02  0.13021062554E+02  0.17542494511E+02  0.40659147448E+02  0.00000000000E+00 0. -1.
         11    1    3    3    0    0 -0.51967857195E+01 -0.15708953644E+01 -0.24697385818E+01  0.59643862202E+01  0.51100000000E-03 0. -1.
        -11    1    3    3    0    0  0.25048717206E+02 -0.36561481092E+01 -0.11333248363E+02  0.27735323531E+02  0.51100000000E-03 0.  1.
         12    1    3    3    0    0  0.14439161927E+02 -0.77940190803E+01 -0.37395075660E+01  0.16829142801E+02  0.00000000000E+00 0. -1.
</event>
<event>
 7    1  0.5006721E-012  0.5052888E+02  0.7816164E-02  0.1300439E+00
        -11   -1    0    0    0    0  0.00000000000E+00  0.00000000000E+00  0.45593999997E+02  0.45594000000E+02  0.51100000000E-03 0. -1.
         11   -1    0    0    0    0 -0.00000000000E+00 -0.00000000000E+00 -0.45593999997E+02  0.45594000000E+02  0.51100000000E-03 0.  1.
    9900012    2    1    2    0    0 -0.15218923183E+02 -0.28197298591E+02 -0.25029202127E+02  0.50528877656E+02  0.30000054123E+02 0.  0.
         12    1    1    2    0    0  0.15218923183E+02  0.28197298591E+02  0.25029202127E+02  0.40659122344E+02  0.00000000000E+00 0. -1.
         11    1    3    3    0    0 -0.11335664066E+02 -0.30511955036E+02 -0.10866148437E+02  0.34315446406E+02  0.51100000000E-03 0. -1.
        -11    1    3    3    0    0  0.11201817431E+01 -0.12175215503E+01 -0.42540256926E+01  0.45644167993E+01  0.51100000000E-03 0.  1.
         12    1    3    3    0    0 -0.50034408604E+01  0.35321779949E+01 -0.99090279966E+01  0.11649014451E+02  0.00000000000E+00 0. -1.
</event>
<event>
 7    1  0.5006721E-012  0.5052885E+02  0.7816164E-02  0.1300439E+00
        -11   -1    0    0    0    0  0.00000000000E+00  0.00000000000E+00  0.45593999997E+02  0.45594000000E+02  0.51100000000E-03 0. -1.
         11   -1    0    0    0    0 -0.00000000000E+00 -0.00000000000E+00 -0.45593999997E+02  0.45594000000E+02  0.51100000000E-03 0.  1.
    9900012    2    1    2    0    0 -0.31340714261E+02  0.19835980657E+02 -0.16657131226E+02  0.50528849497E+02  0.29999968530E+02 0.  0.
         12    1    1    2    0    0  0.31340714261E+02 -0.19835980657E+02  0.16657131226E+02  0.40659150503E+02  0.00000000000E+00 0. -1.
         11    1    3    3    0    0 -0.65042787529E+01  0.16949382502E+02 -0.12891829973E+01  0.18200252810E+02  0.51100000000E-03 0. -1.
        -11    1    3    3    0    0 -0.13393145167E+02 -0.44668819153E+01 -0.42025059233E+01  0.14730594958E+02  0.51100000000E-03 0.  1.
        -12    1    3    3    0    0 -0.11443290340E+02  0.73534800701E+01 -0.11165442305E+02  0.17598001728E+02  0.00000000000E+00 0.  1.
</event>
<event>
 7    1  0.5006721E-012  0.5052886E+02  0.7816164E-02  0.1300439E+00
        -11   -1    0    0    0    0  0.00000000000E+00  0.00000000000E+00  0.45593999997E+02  0.45594000000E+02  0.51100000000E-03 0. -1.
         11   -1    0    0    0    0 -0.00000000000E+00 -0.00000000000E+00 -0.45593999997E+02  0.45594000000E+02  0.51100000000E-03 0.  1.
    9900012    2    1    2    0    0 -0.14566428202E+02 -0.15289648284E+02 -0.34744953555E+02  0.50528856223E+02  0.29999988974E+02 0.  0.
         12    1    1    2    0    0  0.14566428202E+02  0.15289648284E+02  0.34744953555E+02  0.40659143777E+02  0.00000000000E+00 0. -1.
         11    1    3    3    0    0  0.70629377635E+01 -0.40871136685E+01 -0.32362874311E+01  0.87785616469E+01  0.51100000000E-03 0. -1.
        -11    1    3    3    0    0 -0.10832333962E+02 -0.16178445355E+01 -0.21665649960E+02  0.24276681578E+02  0.51100000000E-03 0.  1.
        -12    1    3    3    0    0 -0.10797032003E+02 -0.95846900795E+01 -0.98430161640E+01  0.17473612998E+02  0.00000000000E+00 0.  1.
</event>
<event>
 7    1  0.5006721E-012  0.5052885E+02  0.7816164E-02  0.1300439E+00
        -11   -1    0    0    0    0  0.00000000000E+00  0.00000000000E+00  0.45593999997E+02  0.45594000000E+02  0.51100000000E-03 0. -1.
         11   -1    0    0    0    0 -0.00000000000E+00 -0.00000000000E+00 -0.45593999997E+02  0.45594000000E+02  0.51100000000E-03 0.  1.
    9900012    2    1    2    0    0 -0.22568647645E+02 -0.11789558452E+02 -0.31699035289E+02  0.50528851174E+02  0.29999973629E+02 0.  0.
         12    1    1    2    0    0  0.22568647645E+02  0.11789558452E+02  0.31699035289E+02  0.40659148826E+02  0.00000000000E+00 0. -1.
         11    1    3    3    0    0 -0.22609377393E+01  0.83721883188E+01 -0.15363044996E+01  0.88071339539E+01  0.51100000000E-03 0. -1.
        -11    1    3    3    0    0 -0.52469785235E+01 -0.32904897000E+01 -0.59134092949E+01  0.85630903208E+01  0.51100000000E-03 0.  1.
         12    1    3    3    0    0 -0.15060731382E+02 -0.16871257071E+02 -0.24249321494E+02  0.33158626899E+02  0.00000000000E+00 0. -1.
</event>
<event>
 7    1  0.5006721E-012  0.5052887E+02  0.7816164E-02  0.1300439E+00
        -11   -1    0    0    0    0  0.00000000000E+00  0.00000000000E+00  0.45593999997E+02  0.45594000000E+02  0.51100000000E-03 0. -1.
         11   -1    0    0    0    0 -0.00000000000E+00 -0.00000000000E+00 -0.45593999997E+02  0.45594000000E+02  0.51100000000E-03 0.  1.
    9900012    2    1    2    0    0 -0.20985157842E+02  0.99212337213E+01  0.33381993075E+02  0.50528865850E+02  0.30000018236E+02 0.  0.
        -12    1    1    2    0    0  0.20985157842E+02 -0.99212337213E+01 -0.33381993075E+02  0.40659134150E+02  0.00000000000E+00 0.  1.
         11    1    3    3    0    0 -0.41696103249E+01  0.43751231237E+01 -0.33128231412E+01  0.68921803542E+01  0.51100000000E-03 0.  1.
        -11    1    3    3    0    0 -0.14581737776E+02  0.63056224514E+01  0.15115155553E+02  0.21928426271E+02  0.51100000000E-03 0. -1.
         12    1    3    3    0    0 -0.22338097410E+01 -0.75951185388E+00  0.21579660663E+02  0.21708259224E+02  0.00000000000E+00 0. -1.
</event>
<event>
 7    1  0.5006721E-012  0.5052886E+02  0.7816164E-02  0.1300439E+00
        -11   -1    0    0    0    0  0.00000000000E+00  0.00000000000E+00  0.45593999997E+02  0.45594000000E+02  0.51100000000E-03 0. -1.
         11   -1    0    0    0    0 -0.00000000000E+00 -0.00000000000E+00 -0.45593999997E+02  0.45594000000E+02  0.51100000000E-03 0.  1.
    9900012    2    1    2    0    0 -0.20515089615E+02 -0.24810413352E+02 -0.24834246069E+02  0.50528864613E+02  0.30000014478E+02 0.  0.
         12    1    1    2    0    0  0.20515089615E+02  0.24810413352E+02  0.24834246069E+02  0.40659135387E+02  0.00000000000E+00 0. -1.
         11    1    3    3    0    0  0.36857448429E+00 -0.22397678465E+01  0.49102900082E+01  0.54095614778E+01  0.51100000000E-03 0. -1.
        -11    1    3    3    0    0 -0.13911415303E+02 -0.23012023517E+02 -0.24578369354E+02  0.36430439778E+02  0.51100000000E-03 0.  1.
        -12    1    3    3    0    0 -0.69722487957E+01  0.44137801146E+00 -0.51661667234E+01  0.86888633567E+01  0.00000000000E+00 0.  1.
</event>
<event>
 7    1  0.5006721E-012  0.5052885E+02  0.7816164E-02  0.1300439E+00
        -11   -1    0    0    0    0  0.00000000000E+00  0.00000000000E+00  0.45593999997E+02  0.45594000000E+02  0.51100000000E-03 0.  1.
         11   -1    0    0    0    0 -0.00000000000E+00 -0.00000000000E+00 -0.45593999997E+02  0.45594000000E+02  0.51100000000E-03 0. -1.
    9900012    2    1    2    0    0 -0.23702870856E+02  0.31456451943E+02 -0.10091193766E+02  0.50528847927E+02  0.29999963760E+02 0.  0.
         12    1    1    2    0    0  0.23702870856E+02 -0.31456451943E+02  0.10091193766E+02  0.40659152073E+02  0.00000000000E+00 0. -1.
         11    1    3    3    0    0  0.25695034086E+01 -0.28319859395E+01  0.12996206484E+00  0.38261446036E+01  0.51100000000E-03 0. -1.
        -11    1    3    3    0    0 -0.83594321544E+01  0.21091889624E+02 -0.90385779605E+01  0.24422199034E+02  0.51100000000E-03 0.  1.
         12    1    3    3    0    0 -0.17912942111E+02  0.13196548258E+02 -0.11825778701E+01  0.22280504290E+02  0.00000000000E+00 0. -1.
</event>
<event>
 7    1  0.5006721E-012  0.5052886E+02  0.7816164E-02  0.1300439E+00
        -11   -1    0    0    0    0  0.00000000000E+00  0.00000000000E+00  0.45593999997E+02  0.45594000000E+02  0.51100000000E-03 0. -1.
         11   -1    0    0    0    0 -0.00000000000E+00 -0.00000000000E+00 -0.45593999997E+02  0.45594000000E+02  0.51100000000E-03 0.  1.
    9900012    2    1    2    0    0 -0.92360635468E+01 -0.80023217916E+01  0.38779160377E+02  0.50528864453E+02  0.30000013990E+02 0.  0.
        -12    1    1    2    0    0  0.92360635468E+01  0.80023217916E+01 -0.38779160377E+02  0.40659135547E+02  0.00000000000E+00 0.  1.
         11    1    3    3    0    0 -0.15568655606E+02 -0.11935916432E+02  0.25345583668E+02  0.32050705923E+02  0.51100000000E-03 0. -1.
        -11    1    3    3    0    0  0.39077523563E+01  0.42488442662E+01  0.14650556145E+02  0.15746809255E+02  0.51100000000E-03 0.  1.
        -12    1    3    3    0    0  0.24248397027E+01 -0.31524962597E+00 -0.12169794364E+01  0.27313492745E+01  0.00000000000E+00 0.  1.
</event>
<event>
 7    1  0.5006721E-012  0.5052892E+02  0.7816164E-02  0.1300439E+00
        -11   -1    0    0    0    0  0.00000000000E+00  0.00000000000E+00  0.45593999997E+02  0.45594000000E+02  0.51100000000E-03 0. -1.
         11   -1    0    0    0    0 -0.00000000000E+00 -0.00000000000E+00 -0.45593999997E+02  0.45594000000E+02  0.51100000000E-03 0.  1.
    9900012    2    1    2    0    0  0.13645731461E+02 -0.20973680870E+02 -0.32047771481E+02  0.50528918194E+02  0.30000177343E+02 0.  0.
         12    1    1    2    0    0 -0.13645731461E+02  0.20973680870E+02  0.32047771481E+02  0.40659081806E+02  0.00000000000E+00 0. -1.
         11    1    3    3    0    0  0.71911161420E+01 -0.30058684992E+01  0.35773728345E+01  0.85758377702E+01  0.51100000000E-03 0. -1.
        -11    1    3    3    0    0  0.74016557481E+01 -0.49889072036E+01 -0.17437514335E+02  0.19589298337E+02  0.51100000000E-03 0.  1.
         12    1    3    3    0    0 -0.94704042931E+00 -0.12978905167E+02 -0.18187629981E+02  0.22363782087E+02  0.00000000000E+00 0. -1.
</event>
<event>
 7    1  0.5006721E-012  0.5052886E+02  0.7816164E-02  0.1300439E+00
        -11   -1    0    0    0    0  0.00000000000E+00  0.00000000000E+00  0.45593999997E+02  0.45594000000E+02  0.51100000000E-03 0. -1.
         11   -1    0    0    0    0 -0.00000000000E+00 -0.00000000000E+00 -0.45593999997E+02  0.45594000000E+02  0.51100000000E-03 0.  1.
    9900012    2    1    2    0    0  0.25724296078E+02 -0.26592289144E+02 -0.16860504816E+02  0.50528857445E+02  0.29999992691E+02 0.  0.
         12    1    1    2    0    0 -0.25724296078E+02  0.26592289144E+02  0.16860504816E+02  0.40659142555E+02  0.00000000000E+00 0. -1.
         11    1    3    3    0    0  0.90498095915E+00  0.92523127595E+00 -0.57250079465E+01  0.58694769528E+01  0.51100000000E-03 0. -1.
        -11    1    3    3    0    0  0.16373181553E+02 -0.26543566794E+02 -0.69494582560E+00  0.31194950910E+02  0.51100000000E-03 0.  1.
        -12    1    3    3    0    0  0.84461335661E+01 -0.97395362561E+00 -0.10440551044E+02  0.13464429583E+02  0.00000000000E+00 0.  1.
</event>
<event>
 7    1  0.5006721E-012  0.5052885E+02  0.7816164E-02  0.1300439E+00
        -11   -1    0    0    0    0  0.00000000000E+00  0.00000000000E+00  0.45593999997E+02  0.45594000000E+02  0.51100000000E-03 0. -1.
         11   -1    0    0    0    0 -0.00000000000E+00 -0.00000000000E+00 -0.45593999997E+02  0.45594000000E+02  0.51100000000E-03 0.  1.
    9900012    2    1    2    0    0  0.19887517868E+02  0.60702453138E+01 -0.34940022764E+02  0.50528850527E+02  0.29999971663E+02 0.  0.
         12    1    1    2    0    0 -0.19887517868E+02 -0.60702453138E+01  0.34940022764E+02  0.40659149473E+02  0.00000000000E+00 0. -1.
         11    1    3    3    0    0 -0.75628399276E+01  0.27594132740E+01 -0.63510466390E+01  0.10254106644E+02  0.51100000000E-03 0. -1.
        -11    1    3    3    0    0  0.91124488585E+01 -0.18181518697E+01 -0.10312403567E+02  0.13881212771E+02  0.51100000000E-03 0.  1.
         12    1    3    3    0    0  0.18337908937E+02  0.51289839096E+01 -0.18276572558E+02  0.26393531113E+02  0.00000000000E+00 0. -1.
</event>
<event>
 7    1  0.5006721E-012  0.5052886E+02  0.7816164E-02  0.1300439E+00
        -11   -1    0    0    0    0  0.00000000000E+00  0.00000000000E+00  0.45593999997E+02  0.45594000000E+02  0.51100000000E-03 0. -1.
         11   -1    0    0    0    0 -0.00000000000E+00 -0.00000000000E+00 -0.45593999997E+02  0.45594000000E+02  0.51100000000E-03 0.  1.
    9900012    2    1    2    0    0  0.26694717468E+02  0.22227487484E+02  0.21130463379E+02  0.50528860521E+02  0.30000002040E+02 0.  0.
        -12    1    1    2    0    0 -0.26694717468E+02 -0.22227487484E+02 -0.21130463379E+02  0.40659139479E+02  0.00000000000E+00 0.  1.
         11    1    3    3    0    0  0.20342476524E+02  0.82663660547E+01  0.18833074092E+02  0.28928080456E+02  0.51100000000E-03 0. -1.
        -11    1    3    3    0    0  0.91080573515E+01  0.14821145799E+02 -0.73808355102E+00  0.17411715571E+02  0.51100000000E-03 0.  1.
        -12    1    3    3    0    0 -0.27558164075E+01 -0.86002436956E+00  0.30354728383E+01  0.41890644946E+01  0.00000000000E+00 0.  1.
</event>
<event>
 7    1  0.5006721E-012  0.5052886E+02  0.7816164E-02  0.1300439E+00
        -11   -1    0    0    0    0  0.00000000000E+00  0.00000000000E+00  0.45593999997E+02  0.45594000000E+02  0.51100000000E-03 0. -1.
         11   -1    0    0    0    0 -0.00000000000E+00 -0.00000000000E+00 -0.45593999997E+02  0.45594000000E+02  0.51100000000E-03 0.  1.
    9900012    2    1    2    0    0  0.29475671585E+02  0.12332349369E+02  0.25144858272E+02  0.50528856454E+02  0.29999989678E+02 0.  0.
        -12    1    1    2    0    0 -0.29475671585E+02 -0.12332349369E+02 -0.25144858272E+02  0.40659143546E+02  0.00000000000E+00 0.  1.
         11    1    3    3    0    0  0.15635966744E+02  0.10001356048E+02  0.22224084455E+02  0.28955491861E+02  0.51100000000E-03 0. -1.
        -11    1    3    3    0    0 -0.17805930775E+01  0.49118440341E+01 -0.86299825185E+00  0.52954215854E+01  0.51100000000E-03 0.  1.
        -12    1    3    3    0    0  0.15620297919E+02 -0.25808507130E+01  0.37837720687E+01  0.16277943007E+02  0.00000000000E+00 0.  1.
</event>
<event>
 7    1  0.5006721E-012  0.5052886E+02  0.7816164E-02  0.1300439E+00
        -11   -1    0    0    0    0  0.00000000000E+00  0.00000000000E+00  0.45593999997E+02  0.45594000000E+02  0.51100000000E-03 0. -1.
         11   -1    0    0    0    0 -0.00000000000E+00 -0.00000000000E+00 -0.45593999997E+02  0.45594000000E+02  0.51100000000E-03 0.  1.
    9900012    2    1    2    0    0 -0.14551350874E+02  0.26602130447E+02  0.27087829547E+02  0.50528859992E+02  0.30000000432E+02 0.  0.
        -12    1    1    2    0    0  0.14551350874E+02 -0.26602130447E+02 -0.27087829547E+02  0.40659140008E+02  0.00000000000E+00 0.  1.
         11    1    3    3    0    0 -0.17721055285E+02  0.25917646572E+02  0.10561875588E+02  0.33125721432E+02  0.51100000000E-03 0. -1.
        -11    1    3    3    0    0 -0.26040952426E+00 -0.10831528652E+01  0.75660302573E+01  0.76476040278E+01  0.51100000000E-03 0.  1.
         12    1    3    3    0    0  0.34301139352E+01  0.17676367407E+01  0.89599237022E+01  0.97555345320E+01  0.00000000000E+00 0. -1.
</event>
<event>
 7    1  0.5006721E-012  0.5052886E+02  0.7816164E-02  0.1300439E+00
        -11   -1    0    0    0    0  0.00000000000E+00  0.00000000000E+00  0.45593999997E+02  0.45594000000E+02  0.51100000000E-03 0. -1.
         11   -1    0    0    0    0 -0.00000000000E+00 -0.00000000000E+00 -0.45593999997E+02  0.45594000000E+02  0.51100000000E-03 0.  1.
    9900012    2    1    2    0    0  0.11103857800E+02 -0.30380693572E+02 -0.24635008825E+02  0.50528857612E+02  0.29999993196E+02 0.  0.
         12    1    1    2    0    0 -0.11103857800E+02  0.30380693572E+02  0.24635008825E+02  0.40659142388E+02  0.00000000000E+00 0. -1.
         11    1    3    3    0    0  0.15754776146E+01 -0.15053251353E+02  0.27804515559E+01  0.15388743195E+02  0.51100000000E-03 0. -1.
        -11    1    3    3    0    0  0.15961346518E+01  0.59185867150E+00 -0.10356869853E+02  0.10495841840E+02  0.51100000000E-03 0.  1.
        -12    1    3    3    0    0  0.79322455332E+01 -0.15919300891E+02 -0.17058590528E+02  0.24644272577E+02  0.00000000000E+00 0.  1.
</event>
<event>
 7    1  0.5006721E-012  0.5052886E+02  0.7816164E-02  0.1300439E+00
        -11   -1    0    0    0    0  0.00000000000E+00  0.00000000000E+00  0.45593999997E+02  0.45594000000E+02  0.51100000000E-03 0. -1.
         11   -1    0    0    0    0 -0.00000000000E+00 -0.00000000000E+00 -0.45593999997E+02  0.45594000000E+02  0.51100000000E-03 0.  1.
    9900012    2    1    2    0    0  0.39983874520E+01  0.89236442203E+01 -0.39465769016E+02  0.50528862621E+02  0.30000008422E+02 0.  0.
         12    1    1    2    0    0 -0.39983874520E+01 -0.89236442203E+01  0.39465769016E+02  0.40659137379E+02  0.00000000000E+00 0. -1.
         11    1    3    3    0    0  0.39572150006E+00 -0.67622537855E-01  0.41009869953E+01  0.41205901167E+01  0.51100000000E-03 0. -1.
        -11    1    3    3    0    0  0.60359803285E+01 -0.23563204877E+00 -0.22207400680E+02  0.23014283091E+02  0.51100000000E-03 0.  1.
         12    1    3    3    0    0 -0.24333143765E+01  0.92268988070E+01 -0.21359355332E+02  0.23393989413E+02  0.00000000000E+00 0. -1.
</event>
<event>
 7    1  0.5006721E-012  0.5052886E+02  0.7816164E-02  0.1300439E+00
        -11   -1    0    0    0    0  0.00000000000E+00  0.00000000000E+00  0.45593999997E+02  0.45594000000E+02  0.51100000000E-03 0. -1.
         11   -1    0    0    0    0 -0.00000000000E+00 -0.00000000000E+00 -0.45593999997E+02  0.45594000000E+02  0.51100000000E-03 0.  1.
    9900012    2    1    2    0    0 -0.82775181884E+01 -0.16394280159E+01 -0.39773865431E+02  0.50528863230E+02  0.30000010272E+02 0.  0.
         12    1    1    2    0    0  0.82775181884E+01  0.16394280159E+01  0.39773865431E+02  0.40659136770E+02  0.00000000000E+00 0. -1.
         11    1    3    3    0    0 -0.88892836830E+01 -0.11354012914E+02 -0.24478218570E+02  0.28409789831E+02  0.51100000000E-03 0. -1.
        -11    1    3    3    0    0  0.23781944117E+01  0.91229096731E+01 -0.33137260735E+01  0.99932012045E+01  0.51100000000E-03 0.  1.
         12    1    3    3    0    0 -0.17664289171E+01  0.59167522468E+00 -0.11981920788E+02  0.12125872194E+02  0.00000000000E+00 0. -1.
</event>
<event>
 7    1  0.5006721E-012  0.5052887E+02  0.7816164E-02  0.1300439E+00
        -11   -1    0    0    0    0  0.00000000000E+00  0.00000000000E+00  0.45593999997E+02  0.45594000000E+02  0.51100000000E-03 0.  1.
         11   -1    0    0    0    0 -0.00000000000E+00 -0.00000000000E+00 -0.45593999997E+02  0.45594000000E+02  0.51100000000E-03 0. -1.
    9900012    2    1    2    0    0 -0.98880845715E+01  0.37707207810E+02 -0.11556698277E+02  0.50528868032E+02  0.30000024870E+02 0.  0.
         12    1    1    2    0    0  0.98880845715E+01 -0.37707207810E+02  0.11556698277E+02  0.40659131968E+02  0.00000000000E+00 0. -1.
         11    1    3    3    0    0 -0.15561142432E+02  0.13143352306E+02 -0.10303528003E+02  0.22826728921E+02  0.51100000000E-03 0. -1.
        -11    1    3    3    0    0 -0.16937044852E+01  0.17065866531E+02 -0.36953810135E+00  0.17153687476E+02  0.51100000000E-03 0.  1.
         12    1    3    3    0    0  0.73667623460E+01  0.74979889723E+01 -0.88363217275E+00  0.10548451636E+02  0.00000000000E+00 0. -1.
</event>
<event>
 7    1  0.5006721E-012  0.5052886E+02  0.7816164E-02  0.1300439E+00
        -11   -1    0    0    0    0  0.00000000000E+00  0.00000000000E+00  0.45593999997E+02  0.45594000000E+02  0.51100000000E-03 0.  1.
         11   -1    0    0    0    0 -0.00000000000E+00 -0.00000000000E+00 -0.45593999997E+02  0.45594000000E+02  0.51100000000E-03 0. -1.
    9900012    2    1    2    0    0  0.30939642473E+02 -0.19864427744E+02 -0.17358241440E+02  0.50528861890E+02  0.30000006201E+02 0.  0.
         12    1    1    2    0    0 -0.30939642473E+02  0.19864427744E+02  0.17358241440E+02  0.40659138110E+02  0.00000000000E+00 0. -1.
         11    1    3    3    0    0  0.25455753800E+02 -0.25345197893E+02 -0.20969510244E+02  0.41594408493E+02  0.51100000000E-03 0. -1.
        -11    1    3    3    0    0  0.33531399877E+01  0.15363171611E+01  0.16836633785E+01  0.40544470437E+01  0.51100000000E-03 0.  1.
         12    1    3    3    0    0  0.21307486849E+01  0.39444529880E+01  0.19276054248E+01  0.48800063532E+01  0.00000000000E+00 0. -1.
</event>
<event>
 7    1  0.5006721E-012  0.5052891E+02  0.7816164E-02  0.1300439E+00
        -11   -1    0    0    0    0  0.00000000000E+00  0.00000000000E+00  0.45593999997E+02  0.45594000000E+02  0.51100000000E-03 0.  1.
         11   -1    0    0    0    0 -0.00000000000E+00 -0.00000000000E+00 -0.45593999997E+02  0.45594000000E+02  0.51100000000E-03 0. -1.
    9900012    2    1    2    0    0  0.37172356489E+02  0.12962848491E+01 -0.16422460355E+02  0.50528909436E+02  0.30000150722E+02 0.  0.
         12    1    1    2    0    0 -0.37172356489E+02 -0.12962848491E+01  0.16422460355E+02  0.40659090564E+02  0.00000000000E+00 0. -1.
         11    1    3    3    0    0  0.15740859249E+01  0.64039119543E+00 -0.40599384425E+01  0.44012438924E+01  0.51100000000E-03 0. -1.
        -11    1    3    3    0    0  0.27982683767E+02 -0.43278385409E+01  0.27893406209E+01  0.28452437481E+02  0.51100000000E-03 0.  1.
        -12    1    3    3    0    0  0.76155867969E+01  0.49837321946E+01 -0.15151862533E+02  0.17675228063E+02  0.00000000000E+00 0.  1.
</event>
<event>
 7    1  0.5006721E-012  0.5052884E+02  0.7816164E-02  0.1300439E+00
        -11   -1    0    0    0    0  0.00000000000E+00  0.00000000000E+00  0.45593999997E+02  0.45594000000E+02  0.51100000000E-03 0. -1.
         11   -1    0    0    0    0 -0.00000000000E+00 -0.00000000000E+00 -0.45593999997E+02  0.45594000000E+02  0.51100000000E-03 0.  1.
    9900012    2    1    2    0    0 -0.46108887462E+01 -0.21612439695E+01 -0.40339015051E+02  0.50528838599E+02  0.29999935405E+02 0.  0.
         12    1    1    2    0    0  0.46108887462E+01  0.21612439695E+01  0.40339015051E+02  0.40659161401E+02  0.00000000000E+00 0. -1.
         11    1    3    3    0    0  0.64361529476E+01 -0.58681635791E+01 -0.19856508970E+01  0.89332087349E+01  0.51100000000E-03 0. -1.
        -11    1    3    3    0    0 -0.11673534604E+02  0.23019805976E+01 -0.20704414127E+02  0.23879767366E+02  0.51100000000E-03 0.  1.
        -12    1    3    3    0    0  0.62649291071E+00  0.14049390120E+01 -0.17648950027E+02  0.17715862498E+02  0.00000000000E+00 0.  1.
</event>
<event>
 7    1  0.5006721E-012  0.5052886E+02  0.7816164E-02  0.1300439E+00
        -11   -1    0    0    0    0  0.00000000000E+00  0.00000000000E+00  0.45593999997E+02  0.45594000000E+02  0.51100000000E-03 0.  1.
         11   -1    0    0    0    0 -0.00000000000E+00 -0.00000000000E+00 -0.45593999997E+02  0.45594000000E+02  0.51100000000E-03 0. -1.
    9900012    2    1    2    0    0  0.36858602516E+02 -0.62254679223E+00 -0.17152895491E+02  0.50528856285E+02  0.29999989163E+02 0.  0.
         12    1    1    2    0    0 -0.36858602516E+02  0.62254679223E+00  0.17152895491E+02  0.40659143715E+02  0.00000000000E+00 0. -1.
         11    1    3    3    0    0 -0.70934808773E+00  0.40704348517E+00  0.39333098326E+01  0.40174352028E+01  0.51100000000E-03 0. -1.
        -11    1    3    3    0    0  0.33993865063E+02  0.45120438706E+01 -0.20351557103E+02  0.39876400020E+02  0.51100000000E-03 0.  1.
        -12    1    3    3    0    0  0.35740855407E+01 -0.55416341480E+01 -0.73464822087E+00  0.66350210619E+01  0.00000000000E+00 0.  1.
</event>
<event>
 7    1  0.5006721E-012  0.5052887E+02  0.7816164E-02  0.1300439E+00
        -11   -1    0    0    0    0  0.00000000000E+00  0.00000000000E+00  0.45593999997E+02  0.45594000000E+02  0.51100000000E-03 0. -1.
         11   -1    0    0    0    0 -0.00000000000E+00 -0.00000000000E+00 -0.45593999997E+02  0.45594000000E+02  0.51100000000E-03 0.  1.
    9900012    2    1    2    0    0  0.16476605554E+02 -0.24780786054E+02  0.27705583530E+02  0.50528865150E+02  0.30000016110E+02 0.  0.
        -12    1    1    2    0    0 -0.16476605554E+02  0.24780786054E+02 -0.27705583530E+02  0.40659134850E+02  0.00000000000E+00 0.  1.
         11    1    3    3    0    0  0.14835917829E+02 -0.98996177986E+01  0.16008872765E+02  0.23966453594E+02  0.51100000000E-03 0. -1.
        -11    1    3    3    0    0  0.21449536470E+01 -0.18379487216E+02  0.52901963953E+01  0.19245585329E+02  0.51100000000E-03 0.  1.
         12    1    3    3    0    0 -0.50426592198E+00  0.34983189614E+01  0.64065143692E+01  0.73168262272E+01  0.00000000000E+00 0. -1.
</event>
<event>
 7    1  0.5006721E-012  0.5052886E+02  0.7816164E-02  0.1300439E+00
        -11   -1    0    0    0    0  0.00000000000E+00  0.00000000000E+00  0.45593999997E+02  0.45594000000E+02  0.51100000000E-03 0.  1.
         11   -1    0    0    0    0 -0.00000000000E+00 -0.00000000000E+00 -0.45593999997E+02  0.45594000000E+02  0.51100000000E-03 0. -1.
    9900012    2    1    2    0    0  0.28947668187E+02  0.22323342605E+02 -0.17800746274E+02  0.50528859743E+02  0.29999999675E+02 0.  0.
         12    1    1    2    0    0 -0.28947668187E+02 -0.22323342605E+02  0.17800746274E+02  0.40659140257E+02  0.00000000000E+00 0. -1.
         11    1    3    3    0    0 -0.28622332878E+01  0.44130775317E+01 -0.10826406446E+02  0.12036557211E+02  0.51100000000E-03 0. -1.
        -11    1    3    3    0    0  0.15114642437E+02  0.32441845714E+01 -0.10528253089E+01  0.15494695573E+02  0.51100000000E-03 0.  1.
         12    1    3    3    0    0  0.16695259038E+02  0.14666080502E+02 -0.59215145190E+01  0.22997606959E+02  0.00000000000E+00 0. -1.
</event>
<event>
 7    1  0.5006721E-012  0.5052886E+02  0.7816164E-02  0.1300439E+00
        -11   -1    0    0    0    0  0.00000000000E+00  0.00000000000E+00  0.45593999997E+02  0.45594000000E+02  0.51100000000E-03 0. -1.
         11   -1    0    0    0    0 -0.00000000000E+00 -0.00000000000E+00 -0.45593999997E+02  0.45594000000E+02  0.51100000000E-03 0.  1.
    9900012    2    1    2    0    0 -0.16825268705E+02 -0.25680179093E+02  0.26657162223E+02  0.50528861261E+02  0.30000004289E+02 0.  0.
        -12    1    1    2    0    0  0.16825268705E+02  0.25680179093E+02 -0.26657162223E+02  0.40659138739E+02  0.00000000000E+00 0.  1.
         11    1    3    3    0    0 -0.60597134018E+01 -0.15868640237E+02 -0.25693799575E+01  0.17179510561E+02  0.51100000000E-03 0. -1.
        -11    1    3    3    0    0 -0.10279177314E+02 -0.74138796940E+01  0.27710306436E+02  0.30471104040E+02  0.51100000000E-03 0.  1.
        -12    1    3    3    0    0 -0.48637798870E+00 -0.23976591619E+01  0.15162357444E+01  0.28782466602E+01  0.00000000000E+00 0.  1.
</event>
<event>
 7    1  0.5006721E-012  0.5052884E+02  0.7816164E-02  0.1300439E+00
        -11   -1    0    0    0    0  0.00000000000E+00  0.00000000000E+00  0.45593999997E+02  0.45594000000E+02  0.51100000000E-03 0. -1.
         11   -1    0    0    0    0 -0.00000000000E+00 -0.00000000000E+00 -0.45593999997E+02  0.45594000000E+02  0.51100000000E-03 0.  1.
    9900012    2    1    2    0    0  0.23298526900E+02 -0.29577853627E+02 -0.15345900592E+02  0.50528838107E+02  0.29999933909E+02 0.  0.
         12    1    1    2    0    0 -0.23298526900E+02  0.29577853627E+02  0.15345900592E+02  0.40659161893E+02  0.00000000000E+00 0. -1.
         11    1    3    3    0    0 -0.19682439025E+01 -0.86441966692E+00 -0.11059349065E+02  0.11266339575E+02  0.51100000000E-03 0. -1.
        -11    1    3    3    0    0  0.52807850132E+01 -0.39621587077E+01 -0.34258941229E+01  0.74378856393E+01  0.51100000000E-03 0.  1.
         12    1    3    3    0    0  0.19985985789E+02 -0.24751275253E+02 -0.86065740479E+00  0.31824612892E+02  0.00000000000E+00 0. -1.
</event>
<event>
 7    1  0.5006721E-012  0.5052886E+02  0.7816164E-02  0.1300439E+00
        -11   -1    0    0    0    0  0.00000000000E+00  0.00000000000E+00  0.45593999997E+02  0.45594000000E+02  0.51100000000E-03 0. -1.
         11   -1    0    0    0    0 -0.00000000000E+00 -0.00000000000E+00 -0.45593999997E+02  0.45594000000E+02  0.51100000000E-03 0.  1.
    9900012    2    1    2    0    0 -0.25540276562E+02  0.11178984188E+02 -0.29595444306E+02  0.50528859109E+02  0.29999997748E+02 0.  0.
         12    1    1    2    0    0  0.25540276562E+02 -0.11178984188E+02  0.29595444306E+02  0.40659140891E+02  0.00000000000E+00 0. -1.
         11    1    3    3    0    0 -0.11966047415E+01 -0.30623757530E+01 -0.11414081158E+01  0.34803478142E+01  0.51100000000E-03 0. -1.
        -11    1    3    3    0    0 -0.22662849630E+02  0.20401806258E+02 -0.26420198205E+02  0.40346813077E+02  0.51100000000E-03 0.  1.
        -12    1    3    3    0    0 -0.16808221898E+01 -0.61604463174E+01 -0.20338379846E+01  0.67016982184E+01  0.00000000000E+00 0.  1.
</event>
<event>
 7    1  0.5006721E-012  0.5052887E+02  0.7816164E-02  0.1300439E+00
        -11   -1    0    0    0    0  0.00000000000E+00  0.00000000000E+00  0.45593999997E+02  0.45594000000E+02  0.51100000000E-03 0. -1.
         11   -1    0    0    0    0 -0.00000000000E+00 -0.00000000000E+00 -0.45593999997E+02  0.45594000000E+02  0.51100000000E-03 0.  1.
    9900012    2    1    2    0    0  0.34749216929E+02  0.16768977770E+02  0.12824136297E+02  0.50528866163E+02  0.30000019189E+02 0.  0.
        -12    1    1    2    0    0 -0.34749216929E+02 -0.16768977770E+02 -0.12824136297E+02  0.40659133837E+02  0.00000000000E+00 0.  1.
         11    1    3    3    0    0  0.10244150370E+02 -0.12769450209E+01  0.59323441479E+01  0.11906549153E+02  0.51100000000E-03 0. -1.
        -11    1    3    3    0    0 -0.35423862882E+01  0.70239229439E+01  0.14973532199E+01  0.80078749405E+01  0.51100000000E-03 0.  1.
        -12    1    3    3    0    0  0.28047452848E+02  0.11021999847E+02  0.53944389287E+01  0.30614442069E+02  0.00000000000E+00 0.  1.
</event>
<event>
 7    1  0.5006721E-012  0.5052888E+02  0.7816164E-02  0.1300439E+00
        -11   -1    0    0    0    0  0.00000000000E+00  0.00000000000E+00  0.45593999997E+02  0.45594000000E+02  0.51100000000E-03 0.  1.
         11   -1    0    0    0    0 -0.00000000000E+00 -0.00000000000E+00 -0.45593999997E+02  0.45594000000E+02  0.51100000000E-03 0. -1.
    9900012    2    1    2    0    0 -0.16926532850E+02 -0.29865348462E+02 -0.21788010989E+02  0.50528880778E+02  0.30000063612E+02 0.  0.
         12    1    1    2    0    0  0.16926532850E+02  0.29865348462E+02  0.21788010989E+02  0.40659119222E+02  0.00000000000E+00 0. -1.
         11    1    3    3    0    0 -0.13119571452E+02 -0.86213588237E+01 -0.19802916587E+02  0.25270664587E+02  0.51100000000E-03 0. -1.
        -11    1    3    3    0    0 -0.45406723198E+01 -0.19227399235E+02  0.28571151808E+01  0.19961805877E+02  0.51100000000E-03 0.  1.
        -12    1    3    3    0    0  0.73371092185E+00 -0.20165904035E+01 -0.48422095828E+01  0.52964103142E+01  0.00000000000E+00 0.  1.
</event>
<event>
 7    1  0.5607935E-012  0.5052887E+02  0.7816164E-02  0.1300439E+00
        -11   -1    0    0    0    0  0.00000000000E+00  0.00000000000E+00  0.45593999997E+02  0.45594000000E+02  0.51100000000E-03 0. -1.
         11   -1    0    0    0    0 -0.00000000000E+00 -0.00000000000E+00 -0.45593999997E+02  0.45594000000E+02  0.51100000000E-03 0.  1.
    9900012    2    1    2    0    0  0.13019949970E+02  0.36948971169E+00  0.38516348810E+02  0.50528871314E+02  0.30000034845E+02 0.  0.
        -12    1    1    2    0    0 -0.13019949970E+02 -0.36948971169E+00 -0.38516348810E+02  0.40659128686E+02  0.00000000000E+00 0.  1.
         11    1    3    3    0    0  0.16794470297E+02 -0.54811835146E+01  0.35093753300E+02  0.39289554925E+02  0.51100000000E-03 0. -1.
        -11    1    3    3    0    0  0.72056838308E+00 -0.72646305836E+00 -0.15434147122E+01  0.18517820079E+01  0.51100000000E-03 0.  1.
         12    1    3    3    0    0 -0.44950887095E+01  0.65771362847E+01  0.49660102220E+01  0.93875343802E+01  0.00000000000E+00 0. -1.
</event>
<event>
 7    1  0.5006721E-012  0.5052895E+02  0.7816164E-02  0.1300438E+00
        -11   -1    0    0    0    0  0.00000000000E+00  0.00000000000E+00  0.45593999997E+02  0.45594000000E+02  0.51100000000E-03 0. -1.
         11   -1    0    0    0    0 -0.00000000000E+00 -0.00000000000E+00 -0.45593999997E+02  0.45594000000E+02  0.51100000000E-03 0.  1.
    9900012    2    1    2    0    0 -0.16855250119E+02  0.45554853510E+01  0.36719296345E+02  0.50528946550E+02  0.30000263533E+02 0.  0.
        -12    1    1    2    0    0  0.16855250119E+02 -0.45554853510E+01 -0.36719296345E+02  0.40659053450E+02  0.00000000000E+00 0.  1.
         11    1    3    3    0    0 -0.78346326471E+01 -0.11907585427E+02  0.19617634385E+02  0.24249198719E+02  0.51100000000E-03 0. -1.
        -11    1    3    3    0    0 -0.51123784581E+01  0.98850462650E+01  0.14325334085E+02  0.18140169516E+02  0.51100000000E-03 0.  1.
         12    1    3    3    0    0 -0.39082390136E+01  0.65780245126E+01  0.27763278758E+01  0.81395783152E+01  0.00000000000E+00 0. -1.
</event>
<event>
 7    1  0.5006721E-012  0.5052887E+02  0.7816164E-02  0.1300439E+00
        -11   -1    0    0    0    0  0.00000000000E+00  0.00000000000E+00  0.45593999997E+02  0.45594000000E+02  0.51100000000E-03 0. -1.
         11   -1    0    0    0    0 -0.00000000000E+00 -0.00000000000E+00 -0.45593999997E+02  0.45594000000E+02  0.51100000000E-03 0.  1.
    9900012    2    1    2    0    0  0.16000534160E+02  0.10846904358E+02 -0.35769998813E+02  0.50528865201E+02  0.30000016265E+02 0.  0.
         12    1    1    2    0    0 -0.16000534160E+02 -0.10846904358E+02  0.35769998813E+02  0.40659134799E+02  0.00000000000E+00 0. -1.
         11    1    3    3    0    0  0.99805397451E+01 -0.44455113075E+01 -0.42165860175E+01  0.11711248537E+02  0.51100000000E-03 0. -1.
        -11    1    3    3    0    0 -0.52246892567E+01  0.64673953658E+01 -0.11796125600E+02  0.14431672117E+02  0.51100000000E-03 0.  1.
        -12    1    3    3    0    0  0.11244683671E+02  0.88250202994E+01 -0.19757287195E+02  0.24385944547E+02  0.00000000000E+00 0.  1.
</event>
<event>
 7    1  0.5006721E-012  0.5052889E+02  0.7816164E-02  0.1300439E+00
        -11   -1    0    0    0    0  0.00000000000E+00  0.00000000000E+00  0.45593999997E+02  0.45594000000E+02  0.51100000000E-03 0. -1.
         11   -1    0    0    0    0 -0.00000000000E+00 -0.00000000000E+00 -0.45593999997E+02  0.45594000000E+02  0.51100000000E-03 0.  1.
    9900012    2    1    2    0    0 -0.54427844975E+01 -0.39969044290E+02  0.51004896111E+01  0.50528887875E+02  0.30000085184E+02 0.  0.
         12    1    1    2    0    0  0.54427844975E+01  0.39969044290E+02 -0.51004896111E+01  0.40659112125E+02  0.00000000000E+00 0. -1.
         11    1    3    3    0    0 -0.11678294927E+02 -0.38319364619E+01  0.14104363778E+01  0.12371565806E+02  0.51100000000E-03 0. -1.
        -11    1    3    3    0    0 -0.98565175867E-01 -0.11707527172E+02 -0.29242223565E+01  0.12067600599E+02  0.51100000000E-03 0.  1.
         12    1    3    3    0    0  0.63340756051E+01 -0.24429580656E+02  0.66142755897E+01  0.26089721470E+02  0.00000000000E+00 0. -1.
</event>
<event>
 7    1  0.5006721E-012  0.5052886E+02  0.7816164E-02  0.1300439E+00
        -11   -1    0    0    0    0  0.00000000000E+00  0.00000000000E+00  0.45593999997E+02  0.45594000000E+02  0.51100000000E-03 0.  1.
         11   -1    0    0    0    0 -0.00000000000E+00 -0.00000000000E+00 -0.45593999997E+02  0.45594000000E+02  0.51100000000E-03 0. -1.
    9900012    2    1    2    0    0 -0.38485378504E+02 -0.76795134197E+01  0.10633257558E+02  0.50528862635E+02  0.30000008465E+02 0.  0.
        -12    1    1    2    0    0  0.38485378504E+02  0.76795134197E+01 -0.10633257558E+02  0.40659137365E+02  0.00000000000E+00 0.  1.
         11    1    3    3    0    0 -0.16828546155E+02 -0.14049499697E+02  0.73754911239E+01  0.23129770362E+02  0.51100000000E-03 0. -1.
        -11    1    3    3    0    0 -0.20721631129E+01  0.52163794321E+01  0.52424435318E+01  0.76803443146E+01  0.51100000000E-03 0.  1.
        -12    1    3    3    0    0 -0.19584669236E+02  0.11536068454E+01 -0.19846770975E+01  0.19718747958E+02  0.00000000000E+00 0.  1.
</event>
<event>
 7    1  0.5006721E-012  0.5052883E+02  0.7816164E-02  0.1300439E+00
        -11   -1    0    0    0    0  0.00000000000E+00  0.00000000000E+00  0.45593999997E+02  0.45594000000E+02  0.51100000000E-03 0. -1.
         11   -1    0    0    0    0 -0.00000000000E+00 -0.00000000000E+00 -0.45593999997E+02  0.45594000000E+02  0.51100000000E-03 0.  1.
    9900012    2    1    2    0    0 -0.24838361331E+01 -0.83116165611E+01 -0.39722982849E+02  0.50528834020E+02  0.29999921487E+02 0.  0.
         12    1    1    2    0    0  0.24838361331E+01  0.83116165611E+01  0.39722982849E+02  0.40659165980E+02  0.00000000000E+00 0. -1.
         11    1    3    3    0    0 -0.57487337354E+01 -0.63669919731E+01 -0.77643252331E+01  0.11570275404E+02  0.51100000000E-03 0. -1.
        -11    1    3    3    0    0  0.10274060552E+02  0.56567578804E+01 -0.14288708596E+02  0.18485735678E+02  0.51100000000E-03 0.  1.
        -12    1    3    3    0    0 -0.70091629499E+01 -0.76013824684E+01 -0.17669949020E+02  0.20472822938E+02  0.00000000000E+00 0.  1.
</event>
<event>
 7    1  0.5006721E-012  0.5052887E+02  0.7816164E-02  0.1300439E+00
        -11   -1    0    0    0    0  0.00000000000E+00  0.00000000000E+00  0.45593999997E+02  0.45594000000E+02  0.51100000000E-03 0.  1.
         11   -1    0    0    0    0 -0.00000000000E+00 -0.00000000000E+00 -0.45593999997E+02  0.45594000000E+02  0.51100000000E-03 0. -1.
    9900012    2    1    2    0    0 -0.21586821093E+02 -0.32409077454E+02  0.11697255804E+02  0.50528868926E+02  0.30000027588E+02 0.  0.
        -12    1    1    2    0    0  0.21586821093E+02  0.32409077454E+02 -0.11697255804E+02  0.40659131074E+02  0.00000000000E+00 0.  1.
         11    1    3    3    0    0 -0.48407858436E+01 -0.15277885446E+02 -0.73819408235E+01  0.17644830458E+02  0.51100000000E-03 0. -1.
        -11    1    3    3    0    0 -0.13425234697E+02 -0.15434226540E+02  0.20436508932E+02  0.28915448693E+02  0.51100000000E-03 0.  1.
        -12    1    3    3    0    0 -0.33208005530E+01 -0.16969654680E+01 -0.13573123044E+01  0.39685897753E+01  0.00000000000E+00 0.  1.
</event>
<event>
 7    1  0.5006721E-012  0.5052887E+02  0.7816164E-02  0.1300439E+00
        -11   -1    0    0    0    0  0.00000000000E+00  0.00000000000E+00  0.45593999997E+02  0.45594000000E+02  0.51100000000E-03 0. -1.
         11   -1    0    0    0    0 -0.00000000000E+00 -0.00000000000E+00 -0.45593999997E+02  0.45594000000E+02  0.51100000000E-03 0.  1.
    9900012    2    1    2    0    0 -0.22696670681E+02 -0.30924094693E+02 -0.13480603471E+02  0.50528866185E+02  0.30000019257E+02 0.  0.
         12    1    1    2    0    0  0.22696670681E+02  0.30924094693E+02  0.13480603471E+02  0.40659133815E+02  0.00000000000E+00 0. -1.
         11    1    3    3    0    0  0.16530142239E+01 -0.14736978598E+02  0.43990610288E+01  0.15468119873E+02  0.51100000000E-03 0. -1.
        -11    1    3    3    0    0 -0.10812731465E+02 -0.45415359192E+01 -0.38234238790E+01  0.12335285999E+02  0.51100000000E-03 0.  1.
         12    1    3    3    0    0 -0.13536953440E+02 -0.11645580176E+02 -0.14056240621E+02  0.22725460313E+02  0.00000000000E+00 0. -1.
</event>
<event>
 7    1  0.5006721E-012  0.5052885E+02  0.7816164E-02  0.1300439E+00
        -11   -1    0    0    0    0  0.00000000000E+00  0.00000000000E+00  0.45593999997E+02  0.45594000000E+02  0.51100000000E-03 0. -1.
         11   -1    0    0    0    0 -0.00000000000E+00 -0.00000000000E+00 -0.45593999997E+02  0.45594000000E+02  0.51100000000E-03 0.  1.
    9900012    2    1    2    0    0  0.58224391250E+01  0.29503342774E+02  0.27364545320E+02  0.50528851303E+02  0.29999974020E+02 0.  0.
        -12    1    1    2    0    0 -0.58224391250E+01 -0.29503342774E+02 -0.27364545320E+02  0.40659148697E+02  0.00000000000E+00 0.  1.
         11    1    3    3    0    0  0.13069391824E+02  0.15454584654E+02  0.26330135350E+01  0.20410437281E+02  0.51100000000E-03 0.  1.
        -11    1    3    3    0    0 -0.40096696117E+01  0.13031714200E+02  0.21317311992E+02  0.25304758766E+02  0.51100000000E-03 0. -1.
        -12    1    3    3    0    0 -0.32372830876E+01  0.10170439199E+01  0.34142197929E+01  0.48136552554E+01  0.00000000000E+00 0.  1.
</event>
<event>
 7    1  0.5006721E-012  0.5052886E+02  0.7816164E-02  0.1300439E+00
        -11   -1    0    0    0    0  0.00000000000E+00  0.00000000000E+00  0.45593999997E+02  0.45594000000E+02  0.51100000000E-03 0. -1.
         11   -1    0    0    0    0 -0.00000000000E+00 -0.00000000000E+00 -0.45593999997E+02  0.45594000000E+02  0.51100000000E-03 0.  1.
    9900012    2    1    2    0    0 -0.15072528067E+02  0.36955323818E+01 -0.37580946510E+02  0.50528860776E+02  0.30000002814E+02 0.  0.
         12    1    1    2    0    0  0.15072528067E+02 -0.36955323818E+01  0.37580946510E+02  0.40659139224E+02  0.00000000000E+00 0. -1.
         11    1    3    3    0    0 -0.39566273134E+01  0.13617440211E+01 -0.31201549988E+02  0.31480882586E+02  0.51100000000E-03 0. -1.
        -11    1    3    3    0    0 -0.86143219833E+01  0.78967868117E+01 -0.29593851836E+01  0.12055029909E+02  0.51100000000E-03 0.  1.
        -12    1    3    3    0    0 -0.25015787701E+01 -0.55629984509E+01 -0.34200113383E+01  0.69929482811E+01  0.00000000000E+00 0.  1.
</event>
<event>
 7    1  0.5006721E-012  0.5052885E+02  0.7816164E-02  0.1300439E+00
        -11   -1    0    0    0    0  0.00000000000E+00  0.00000000000E+00  0.45593999997E+02  0.45594000000E+02  0.51100000000E-03 0. -1.
         11   -1    0    0    0    0 -0.00000000000E+00 -0.00000000000E+00 -0.45593999997E+02  0.45594000000E+02  0.51100000000E-03 0.  1.
    9900012    2    1    2    0    0 -0.19054543805E+01 -0.89384222250E+01  0.39618690280E+02  0.50528846445E+02  0.29999959255E+02 0.  0.
        -12    1    1    2    0    0  0.19054543805E+01  0.89384222250E+01 -0.39618690280E+02  0.40659153555E+02  0.00000000000E+00 0.  1.
         11    1    3    3    0    0 -0.16953256170E+01  0.66071945300E+01  0.68029282799E+01  0.96337418456E+01  0.51100000000E-03 0. -1.
        -11    1    3    3    0    0  0.87230016303E+01 -0.11252818561E+02  0.16386956174E+02  0.21708270680E+02  0.51100000000E-03 0.  1.
        -12    1    3    3    0    0 -0.89331303938E+01 -0.42927981939E+01  0.16428805826E+02  0.19186833919E+02  0.00000000000E+00 0.  1.
</event>
<event>
 7    1  0.5006721E-012  0.5052886E+02  0.7816164E-02  0.1300439E+00
        -11   -1    0    0    0    0  0.00000000000E+00  0.00000000000E+00  0.45593999997E+02  0.45594000000E+02  0.51100000000E-03 0. -1.
         11   -1    0    0    0    0 -0.00000000000E+00 -0.00000000000E+00 -0.45593999997E+02  0.45594000000E+02  0.51100000000E-03 0.  1.
    9900012    2    1    2    0    0 -0.19978046763E+02 -0.26659569245E+01  0.35311981135E+02  0.50528859693E+02  0.29999999523E+02 0.  0.
        -12    1    1    2    0    0  0.19978046763E+02  0.26659569245E+01 -0.35311981135E+02  0.40659140307E+02  0.00000000000E+00 0.  1.
         11    1    3    3    0    0 -0.41349465596E+01 -0.12378151654E+02  0.18952645083E+02  0.23011283695E+02  0.51100000000E-03 0. -1.
        -11    1    3    3    0    0 -0.13588675668E+02  0.11468503797E+02  0.96640821458E+01  0.20237914164E+02  0.51100000000E-03 0.  1.
        -12    1    3    3    0    0 -0.22544245357E+01 -0.17563090672E+01  0.66952539068E+01  0.72796618330E+01  0.00000000000E+00 0.  1.
</event>
<event>
 7    1  0.5006721E-012  0.5052887E+02  0.7816164E-02  0.1300439E+00
        -11   -1    0    0    0    0  0.00000000000E+00  0.00000000000E+00  0.45593999997E+02  0.45594000000E+02  0.51100000000E-03 0. -1.
         11   -1    0    0    0    0 -0.00000000000E+00 -0.00000000000E+00 -0.45593999997E+02  0.45594000000E+02  0.51100000000E-03 0.  1.
    9900012    2    1    2    0    0  0.93169751985E+01 -0.23271445176E+02 -0.32012481804E+02  0.50528865987E+02  0.30000018655E+02 0.  0.
         12    1    1    2    0    0 -0.93169751985E+01  0.23271445176E+02  0.32012481804E+02  0.40659134013E+02  0.00000000000E+00 0. -1.
         11    1    3    3    0    0 -0.24293854028E+01 -0.53731499428E+01  0.33738514665E+01  0.67937859638E+01  0.51100000000E-03 0. -1.
        -11    1    3    3    0    0  0.10823850612E+02 -0.97213270690E+01 -0.31367808224E+02  0.34577439684E+02  0.51100000000E-03 0.  1.
        -12    1    3    3    0    0  0.92250998926E+00 -0.81769681641E+01 -0.40185250463E+01  0.91576403393E+01  0.00000000000E+00 0.  1.
</event>
<event>
 7    1  0.5006721E-012  0.5052883E+02  0.7816164E-02  0.1300439E+00
        -11   -1    0    0    0    0  0.00000000000E+00  0.00000000000E+00  0.45593999997E+02  0.45594000000E+02  0.51100000000E-03 0. -1.
         11   -1    0    0    0    0 -0.00000000000E+00 -0.00000000000E+00 -0.45593999997E+02  0.45594000000E+02  0.51100000000E-03 0.  1.
    9900012    2    1    2    0    0  0.13680776910E+02  0.19298877616E+02 -0.33068982764E+02  0.50528831844E+02  0.29999914872E+02 0.  0.
         12    1    1    2    0    0 -0.13680776910E+02 -0.19298877616E+02  0.33068982764E+02  0.40659168156E+02  0.00000000000E+00 0. -1.
         11    1    3    3    0    0 -0.58789669495E+01  0.21086028367E+01 -0.13234690834E+01  0.63843581503E+01  0.51100000000E-03 0. -1.
        -11    1    3    3    0    0  0.13546840221E+02  0.90125180979E+01 -0.29588862767E+02  0.33767486767E+02  0.51100000000E-03 0.  1.
        -12    1    3    3    0    0  0.60129036381E+01  0.81777566816E+01 -0.21566509134E+01  0.10376986926E+02  0.00000000000E+00 0.  1.
</event>
<event>
 7    1  0.5006721E-012  0.5052888E+02  0.7816164E-02  0.1300439E+00
        -11   -1    0    0    0    0  0.00000000000E+00  0.00000000000E+00  0.45593999997E+02  0.45594000000E+02  0.51100000000E-03 0. -1.
         11   -1    0    0    0    0 -0.00000000000E+00 -0.00000000000E+00 -0.45593999997E+02  0.45594000000E+02  0.51100000000E-03 0.  1.
    9900012    2    1    2    0    0 -0.31228731911E+01 -0.17757402908E+02 -0.36442922665E+02  0.50528876702E+02  0.30000051223E+02 0.  0.
         12    1    1    2    0    0  0.31228731911E+01  0.17757402908E+02  0.36442922665E+02  0.40659123298E+02  0.00000000000E+00 0. -1.
         11    1    3    3    0    0 -0.21900060667E+01  0.56725757215E+01 -0.83213392684E+01  0.10306256807E+02  0.51100000000E-03 0. -1.
        -11    1    3    3    0    0 -0.11143569613E+01 -0.11271758750E+02 -0.21270580032E+01  0.11524700116E+02  0.51100000000E-03 0.  1.
        -12    1    3    3    0    0  0.18148983685E+00 -0.12158219879E+02 -0.25994525394E+02  0.28697919779E+02  0.00000000000E+00 0.  1.
</event>
<event>
 7    1  0.5006721E-012  0.5052886E+02  0.7816164E-02  0.1300439E+00
        -11   -1    0    0    0    0  0.00000000000E+00  0.00000000000E+00  0.45593999997E+02  0.45594000000E+02  0.51100000000E-03 0. -1.
         11   -1    0    0    0    0 -0.00000000000E+00 -0.00000000000E+00 -0.45593999997E+02  0.45594000000E+02  0.51100000000E-03 0.  1.
    9900012    2    1    2    0    0  0.12837226079E+02  0.28506095502E+02 -0.25995648896E+02  0.50528860613E+02  0.30000002319E+02 0.  0.
         12    1    1    2    0    0 -0.12837226079E+02 -0.28506095502E+02  0.25995648896E+02  0.40659139387E+02  0.00000000000E+00 0. -1.
         11    1    3    3    0    0  0.16954144794E+02  0.21532767452E+02 -0.10982521617E+02  0.29524885795E+02  0.51100000000E-03 0. -1.
        -11    1    3    3    0    0 -0.84758869126E+00  0.10062578743E+02 -0.92595136192E+01  0.13700820788E+02  0.51100000000E-03 0.  1.
         12    1    3    3    0    0 -0.32693300241E+01 -0.30892506928E+01 -0.57536136591E+01  0.73031540302E+01  0.00000000000E+00 0. -1.
</event>
<event>
 7    1  0.5006721E-012  0.5052886E+02  0.7816164E-02  0.1300439E+00
        -11   -1    0    0    0    0  0.00000000000E+00  0.00000000000E+00  0.45593999997E+02  0.45594000000E+02  0.51100000000E-03 0. -1.
         11   -1    0    0    0    0 -0.00000000000E+00 -0.00000000000E+00 -0.45593999997E+02  0.45594000000E+02  0.51100000000E-03 0.  1.
    9900012    2    1    2    0    0 -0.26834104480E+02 -0.81697257276E+01 -0.29433862022E+02  0.50528858160E+02  0.29999994862E+02 0.  0.
         12    1    1    2    0    0  0.26834104480E+02  0.81697257276E+01  0.29433862022E+02  0.40659141840E+02  0.00000000000E+00 0. -1.
         11    1    3    3    0    0 -0.12021033840E+02  0.76749182834E+01 -0.17662234069E+02  0.22701632933E+02  0.51100000000E-03 0. -1.
        -11    1    3    3    0    0 -0.71636500359E+01 -0.78181926189E+01  0.13036462057E+01  0.10683703073E+02  0.51100000000E-03 0.  1.
        -12    1    3    3    0    0 -0.76494206044E+01 -0.80264513921E+01 -0.13075274158E+02  0.17143522154E+02  0.00000000000E+00 0.  1.
</event>
<event>
 7    1  0.5049846E-012  0.5052889E+02  0.7816164E-02  0.1300439E+00
        -11   -1    0    0    0    0  0.00000000000E+00  0.00000000000E+00  0.45593999997E+02  0.45594000000E+02  0.51100000000E-03 0. -1.
         11   -1    0    0    0    0 -0.00000000000E+00 -0.00000000000E+00 -0.45593999997E+02  0.45594000000E+02  0.51100000000E-03 0.  1.
    9900012    2    1    2    0    0  0.46018651157E+01  0.21453968005E+02  0.34230293667E+02  0.50528893883E+02  0.30000103446E+02 0.  0.
        -12    1    1    2    0    0 -0.46018651157E+01 -0.21453968005E+02 -0.34230293667E+02  0.40659106117E+02  0.00000000000E+00 0.  1.
         11    1    3    3    0    0 -0.55516879373E+01  0.47074970174E+01  0.26883854548E+02  0.27851811481E+02  0.51100000000E-03 0. -1.
        -11    1    3    3    0    0  0.27513667419E+01  0.16858636591E+01 -0.16630781889E+01  0.36301493839E+01  0.51100000000E-03 0.  1.
         12    1    3    3    0    0  0.74021863111E+01  0.15060607328E+02  0.90095173080E+01  0.19046933018E+02  0.00000000000E+00 0. -1.
</event>
<event>
 7    1  0.5006721E-012  0.5052885E+02  0.7816164E-02  0.1300439E+00
        -11   -1    0    0    0    0  0.00000000000E+00  0.00000000000E+00  0.45593999997E+02  0.45594000000E+02  0.51100000000E-03 0. -1.
         11   -1    0    0    0    0 -0.00000000000E+00 -0.00000000000E+00 -0.45593999997E+02  0.45594000000E+02  0.51100000000E-03 0.  1.
    9900012    2    1    2    0    0 -0.32278610564E+01  0.13593566140E+02  0.38183268088E+02  0.50528854789E+02  0.29999984615E+02 0.  0.
        -12    1    1    2    0    0  0.32278610564E+01 -0.13593566140E+02 -0.38183268088E+02  0.40659145211E+02  0.00000000000E+00 0.  1.
         11    1    3    3    0    0 -0.80682547389E+01  0.19928070448E+02  0.26660746518E+02  0.34249381476E+02  0.51100000000E-03 0. -1.
        -11    1    3    3    0    0  0.52953231945E+01 -0.22963398976E+01  0.23217859364E+01  0.62212791976E+01  0.51100000000E-03 0.  1.
        -12    1    3    3    0    0 -0.45492951200E+00 -0.40381644096E+01  0.92007356339E+01  0.10058194115E+02  0.00000000000E+00 0.  1.
</event>
<event>
 7    1  0.5006721E-012  0.5052886E+02  0.7816164E-02  0.1300439E+00
        -11   -1    0    0    0    0  0.00000000000E+00  0.00000000000E+00  0.45593999997E+02  0.45594000000E+02  0.51100000000E-03 0. -1.
         11   -1    0    0    0    0 -0.00000000000E+00 -0.00000000000E+00 -0.45593999997E+02  0.45594000000E+02  0.51100000000E-03 0.  1.
    9900012    2    1    2    0    0 -0.11410612993E+02  0.15813167876E+02  0.35677822860E+02  0.50528863128E+02  0.30000009962E+02 0.  0.
        -12    1    1    2    0    0  0.11410612993E+02 -0.15813167876E+02 -0.35677822860E+02  0.40659136872E+02  0.00000000000E+00 0.  1.
         11    1    3    3    0    0 -0.13343511570E+01  0.11207481301E+02  0.11008758599E+02  0.15766448436E+02  0.51100000000E-03 0. -1.
        -11    1    3    3    0    0 -0.15444063477E+02 -0.17174117382E+01  0.12060733024E+02  0.19670533321E+02  0.51100000000E-03 0.  1.
        -12    1    3    3    0    0  0.53678016412E+01  0.63230983129E+01  0.12608331237E+02  0.15091881371E+02  0.00000000000E+00 0.  1.
</event>
<event>
 7    1  0.5006721E-012  0.5052887E+02  0.7816164E-02  0.1300439E+00
        -11   -1    0    0    0    0  0.00000000000E+00  0.00000000000E+00  0.45593999997E+02  0.45594000000E+02  0.51100000000E-03 0.  1.
         11   -1    0    0    0    0 -0.00000000000E+00 -0.00000000000E+00 -0.45593999997E+02  0.45594000000E+02  0.51100000000E-03 0. -1.
    9900012    2    1    2    0    0  0.17263487832E+02  0.36525139445E+02  0.45881842799E+01  0.50528865005E+02  0.30000015668E+02 0.  0.
         12    1    1    2    0    0 -0.17263487832E+02 -0.36525139445E+02 -0.45881842799E+01  0.40659134995E+02  0.00000000000E+00 0. -1.
         11    1    3    3    0    0  0.98599719971E+01  0.34131427198E+02  0.62024153189E+01  0.36064432984E+02  0.51100000000E-03 0.  1.
        -11    1    3    3    0    0  0.10524135008E+02  0.22909548812E+01  0.34889033363E+00  0.10776252440E+02  0.51100000000E-03 0. -1.
        -12    1    3    3    0    0 -0.31206191727E+01  0.10275736532E+00 -0.19631213726E+01  0.36881795808E+01  0.00000000000E+00 0.  1.
</event>
<event>
 7    1  0.5006721E-012  0.5052889E+02  0.7816164E-02  0.1300439E+00
        -11   -1    0    0    0    0  0.00000000000E+00  0.00000000000E+00  0.45593999997E+02  0.45594000000E+02  0.51100000000E-03 0. -1.
         11   -1    0    0    0    0 -0.00000000000E+00 -0.00000000000E+00 -0.45593999997E+02  0.45594000000E+02  0.51100000000E-03 0.  1.
    9900012    2    1    2    0    0  0.14820488892E+02 -0.53768812719E+01  0.37478070281E+02  0.50528886690E+02  0.30000081582E+02 0.  0.
        -12    1    1    2    0    0 -0.14820488892E+02  0.53768812719E+01 -0.37478070281E+02  0.40659113310E+02  0.00000000000E+00 0.  1.
         11    1    3    3    0    0  0.10405865111E+02 -0.10741499161E+02  0.33195779541E+01  0.15319315618E+02  0.51100000000E-03 0.  1.
        -11    1    3    3    0    0 -0.82944279936E+00 -0.88680113599E-02  0.64009192104E+01  0.64544419587E+01  0.51100000000E-03 0. -1.
         12    1    3    3    0    0  0.52440665800E+01  0.53734859007E+01  0.27757573116E+02  0.28755129113E+02  0.00000000000E+00 0. -1.
</event>
<event>
 7    1  0.5006721E-012  0.5052885E+02  0.7816164E-02  0.1300439E+00
        -11   -1    0    0    0    0  0.00000000000E+00  0.00000000000E+00  0.45593999997E+02  0.45594000000E+02  0.51100000000E-03 0. -1.
         11   -1    0    0    0    0 -0.00000000000E+00 -0.00000000000E+00 -0.45593999997E+02  0.45594000000E+02  0.51100000000E-03 0.  1.
    9900012    2    1    2    0    0 -0.27901129330E+02  0.15597915048E+02 -0.25127636249E+02  0.50528854963E+02  0.29999985145E+02 0.  0.
         12    1    1    2    0    0  0.27901129330E+02 -0.15597915048E+02  0.25127636249E+02  0.40659145037E+02  0.00000000000E+00 0. -1.
         11    1    3    3    0    0 -0.30553355859E+01 -0.58467926883E+01 -0.18656015091E+01  0.68556932206E+01  0.51100000000E-03 0. -1.
        -11    1    3    3    0    0 -0.20453285980E+02  0.20266947808E+02 -0.11398601258E+02  0.30967954271E+02  0.51100000000E-03 0.  1.
        -12    1    3    3    0    0 -0.43925077641E+01  0.11777599276E+01 -0.11863433482E+02  0.12705207471E+02  0.00000000000E+00 0.  1.
</event>
<event>
 7    1  0.5006721E-012  0.5052886E+02  0.7816164E-02  0.1300439E+00
        -11   -1    0    0    0    0  0.00000000000E+00  0.00000000000E+00  0.45593999997E+02  0.45594000000E+02  0.51100000000E-03 0.  1.
         11   -1    0    0    0    0 -0.00000000000E+00 -0.00000000000E+00 -0.45593999997E+02  0.45594000000E+02  0.51100000000E-03 0. -1.
    9900012    2    1    2    0    0 -0.13915254017E+02 -0.35410234326E+02 -0.14340395934E+02  0.50528856564E+02  0.29999990013E+02 0.  0.
         12    1    1    2    0    0  0.13915254017E+02  0.35410234326E+02  0.14340395934E+02  0.40659143436E+02  0.00000000000E+00 0. -1.
         11    1    3    3    0    0 -0.49076299311E+01 -0.15915979541E+02  0.80207578370E+01  0.18486097285E+02  0.51100000000E-03 0. -1.
        -11    1    3    3    0    0 -0.52637869874E+01 -0.10212385211E+02 -0.62583926617E+01  0.13083109115E+02  0.51100000000E-03 0.  1.
         12    1    3    3    0    0 -0.37438370986E+01 -0.92818695743E+01 -0.16102761109E+02  0.18959650164E+02  0.00000000000E+00 0. -1.
</event>
<event>
 7    1  0.5006721E-012  0.5052886E+02  0.7816164E-02  0.1300439E+00
        -11   -1    0    0    0    0  0.00000000000E+00  0.00000000000E+00  0.45593999997E+02  0.45594000000E+02  0.51100000000E-03 0.  1.
         11   -1    0    0    0    0 -0.00000000000E+00 -0.00000000000E+00 -0.45593999997E+02  0.45594000000E+02  0.51100000000E-03 0. -1.
    9900012    2    1    2    0    0  0.78655014025E+01  0.33955641130E+02 -0.20935951295E+02  0.50528859165E+02  0.29999997916E+02 0.  0.
         12    1    1    2    0    0 -0.78655014025E+01 -0.33955641130E+02  0.20935951295E+02  0.40659140835E+02  0.00000000000E+00 0. -1.
         11    1    3    3    0    0  0.14811018473E+00  0.42381948303E-01 -0.21955989765E+01  0.22009970430E+01  0.51100000000E-03 0. -1.
        -11    1    3    3    0    0  0.55612036637E+01 -0.16557052903E+01  0.30540520602E+01  0.65571015277E+01  0.51100000000E-03 0.  1.
        -12    1    3    3    0    0  0.21561875541E+01  0.35568964472E+02 -0.21794404379E+02  0.41770760594E+02  0.00000000000E+00 0.  1.
</event>
<event>
 7    1  0.5006721E-012  0.5052886E+02  0.7816164E-02  0.1300439E+00
        -11   -1    0    0    0    0  0.00000000000E+00  0.00000000000E+00  0.45593999997E+02  0.45594000000E+02  0.51100000000E-03 0. -1.
         11   -1    0    0    0    0 -0.00000000000E+00 -0.00000000000E+00 -0.45593999997E+02  0.45594000000E+02  0.51100000000E-03 0.  1.
    9900012    2    1    2    0    0  0.34437053973E+02  0.16729411850E+02 -0.13688750985E+02  0.50528858214E+02  0.29999995028E+02 0.  0.
         12    1    1    2    0    0 -0.34437053973E+02 -0.16729411850E+02  0.13688750985E+02  0.40659141786E+02  0.00000000000E+00 0. -1.
         11    1    3    3    0    0  0.79360733297E+01  0.15581165694E+02  0.26374350305E+01  0.17683609589E+02  0.51100000000E-03 0. -1.
        -11    1    3    3    0    0  0.84305651296E+01 -0.88951279661E+00 -0.11017092320E+02  0.13901150488E+02  0.51100000000E-03 0.  1.
         12    1    3    3    0    0  0.18070415514E+02  0.20377589527E+01 -0.53090936948E+01  0.18944098138E+02  0.00000000000E+00 0. -1.
</event>
<event>
 7    1  0.5006721E-012  0.5052885E+02  0.7816164E-02  0.1300439E+00
        -11   -1    0    0    0    0  0.00000000000E+00  0.00000000000E+00  0.45593999997E+02  0.45594000000E+02  0.51100000000E-03 0. -1.
         11   -1    0    0    0    0 -0.00000000000E+00 -0.00000000000E+00 -0.45593999997E+02  0.45594000000E+02  0.51100000000E-03 0.  1.
    9900012    2    1    2    0    0  0.96178172571E+01 -0.82392670577E+00 -0.39496643869E+02  0.50528854154E+02  0.29999982687E+02 0.  0.
         12    1    1    2    0    0 -0.96178172571E+01  0.82392670577E+00  0.39496643869E+02  0.40659145846E+02  0.00000000000E+00 0. -1.
         11    1    3    3    0    0  0.62186811298E-01 -0.64730469233E+01 -0.16826912060E+02  0.18029120151E+02  0.51100000000E-03 0. -1.
        -11    1    3    3    0    0 -0.28639614962E+01  0.94939610929E+01 -0.69974935981E+01  0.12136823703E+02  0.51100000000E-03 0.  1.
        -12    1    3    3    0    0  0.12419591942E+02 -0.38448408755E+01 -0.15672238211E+02  0.20362910300E+02  0.00000000000E+00 0.  1.
</event>
<event>
 7    1  0.5006721E-012  0.5052887E+02  0.7816164E-02  0.1300439E+00
        -11   -1    0    0    0    0  0.00000000000E+00  0.00000000000E+00  0.45593999997E+02  0.45594000000E+02  0.51100000000E-03 0. -1.
         11   -1    0    0    0    0 -0.00000000000E+00 -0.00000000000E+00 -0.45593999997E+02  0.45594000000E+02  0.51100000000E-03 0.  1.
    9900012    2    1    2    0    0  0.73190361091E+01 -0.13783910163E+02 -0.37544645136E+02  0.50528870061E+02  0.30000031039E+02 0.  0.
         12    1    1    2    0    0 -0.73190361091E+01  0.13783910163E+02  0.37544645136E+02  0.40659129939E+02  0.00000000000E+00 0. -1.
         11    1    3    3    0    0 -0.22250454666E+01 -0.15990571915E+02 -0.13049777477E+02  0.20759236739E+02  0.51100000000E-03 0. -1.
        -11    1    3    3    0    0  0.90422432582E+01 -0.27536522894E+00 -0.25490889177E+02  0.27048538232E+02  0.51100000000E-03 0.  1.
         12    1    3    3    0    0  0.50183831748E+00  0.24820269812E+01  0.99602151791E+00  0.27210950914E+01  0.00000000000E+00 0. -1.
</event>
<event>
 7    1  0.5006721E-012  0.5052886E+02  0.7816164E-02  0.1300439E+00
        -11   -1    0    0    0    0  0.00000000000E+00  0.00000000000E+00  0.45593999997E+02  0.45594000000E+02  0.51100000000E-03 0.  1.
         11   -1    0    0    0    0 -0.00000000000E+00 -0.00000000000E+00 -0.45593999997E+02  0.45594000000E+02  0.51100000000E-03 0. -1.
    9900012    2    1    2    0    0 -0.19771497762E+02  0.20894760859E+02 -0.28734345464E+02  0.50528858785E+02  0.29999996762E+02 0.  0.
         12    1    1    2    0    0  0.19771497762E+02 -0.20894760859E+02  0.28734345464E+02  0.40659141215E+02  0.00000000000E+00 0. -1.
         11    1    3    3    0    0 -0.76965932798E+01  0.21191939116E+02 -0.16908257659E+02  0.28181997959E+02  0.51100000000E-03 0.  1.
        -11    1    3    3    0    0 -0.15066120584E+01 -0.58232890605E+01 -0.73333169727E+00  0.60595669000E+01  0.51100000000E-03 0. -1.
         12    1    3    3    0    0 -0.10568292424E+02  0.55261108040E+01 -0.11092756107E+02  0.16287293926E+02  0.00000000000E+00 0. -1.
</event>
<event>
 7    1  0.5006721E-012  0.5052887E+02  0.7816164E-02  0.1300439E+00
        -11   -1    0    0    0    0  0.00000000000E+00  0.00000000000E+00  0.45593999997E+02  0.45594000000E+02  0.51100000000E-03 0.  1.
         11   -1    0    0    0    0 -0.00000000000E+00 -0.00000000000E+00 -0.45593999997E+02  0.45594000000E+02  0.51100000000E-03 0. -1.
    9900012    2    1    2    0    0 -0.15844647362E+02  0.31553600711E+02  0.20161415656E+02  0.50528865121E+02  0.30000016023E+02 0.  0.
        -12    1    1    2    0    0  0.15844647362E+02 -0.31553600711E+02 -0.20161415656E+02  0.40659134879E+02  0.00000000000E+00 0.  1.
         11    1    3    3    0    0 -0.37687549136E+01  0.39746354678E+01 -0.44351577898E+01  0.70478270114E+01  0.51100000000E-03 0. -1.
        -11    1    3    3    0    0 -0.99462932614E+01  0.30131363536E+02  0.24611898188E+02  0.40156859325E+02  0.51100000000E-03 0.  1.
        -12    1    3    3    0    0 -0.21295991868E+01 -0.25523982932E+01 -0.15324742557E-01  0.33241787845E+01  0.00000000000E+00 0.  1.
</event>
<event>
 7    1  0.5006721E-012  0.5052886E+02  0.7816164E-02  0.1300439E+00
        -11   -1    0    0    0    0  0.00000000000E+00  0.00000000000E+00  0.45593999997E+02  0.45594000000E+02  0.51100000000E-03 0. -1.
         11   -1    0    0    0    0 -0.00000000000E+00 -0.00000000000E+00 -0.45593999997E+02  0.45594000000E+02  0.51100000000E-03 0.  1.
    9900012    2    1    2    0    0  0.19360781175E+02 -0.21692464616E+02  0.28421165385E+02  0.50528861905E+02  0.30000006246E+02 0.  0.
        -12    1    1    2    0    0 -0.19360781175E+02  0.21692464616E+02 -0.28421165385E+02  0.40659138095E+02  0.00000000000E+00 0.  1.
         11    1    3    3    0    0  0.15358107742E+02 -0.88102452807E+01  0.16758809615E+02  0.24379286193E+02  0.51100000000E-03 0. -1.
        -11    1    3    3    0    0 -0.35671235351E+01 -0.12837756293E+02  0.14002069703E+01  0.13397497407E+02  0.51100000000E-03 0.  1.
        -12    1    3    3    0    0  0.75697969680E+01 -0.44463042117E-01  0.10262148799E+02  0.12752078304E+02  0.00000000000E+00 0.  1.
</event>
<event>
 7    1  0.5006721E-012  0.5052882E+02  0.7816164E-02  0.1300439E+00
        -11   -1    0    0    0    0  0.00000000000E+00  0.00000000000E+00  0.45593999997E+02  0.45594000000E+02  0.51100000000E-03 0. -1.
         11   -1    0    0    0    0 -0.00000000000E+00 -0.00000000000E+00 -0.45593999997E+02  0.45594000000E+02  0.51100000000E-03 0.  1.
    9900012    2    1    2    0    0 -0.23188593211E+02 -0.84815158218E+00 -0.33387702980E+02  0.50528819899E+02  0.29999878565E+02 0.  0.
         12    1    1    2    0    0  0.23188593211E+02  0.84815158218E+00  0.33387702980E+02  0.40659180101E+02  0.00000000000E+00 0. -1.
         11    1    3    3    0    0 -0.63836249083E+01  0.13621505302E+02 -0.95295725871E+01  0.17807549736E+02  0.51100000000E-03 0. -1.
        -11    1    3    3    0    0 -0.46792951517E+01 -0.42727027539E+01 -0.89547986135E+01  0.10969968569E+02  0.51100000000E-03 0.  1.
         12    1    3    3    0    0 -0.12125673151E+02 -0.10196954130E+02 -0.14903331779E+02  0.21751301594E+02  0.00000000000E+00 0. -1.
</event>
<event>
 7    1  0.5006721E-012  0.5052884E+02  0.7816164E-02  0.1300439E+00
        -11   -1    0    0    0    0  0.00000000000E+00  0.00000000000E+00  0.45593999997E+02  0.45594000000E+02  0.51100000000E-03 0. -1.
         11   -1    0    0    0    0 -0.00000000000E+00 -0.00000000000E+00 -0.45593999997E+02  0.45594000000E+02  0.51100000000E-03 0.  1.
    9900012    2    1    2    0    0 -0.75037287168E+00  0.20082458635E+02 -0.35345423694E+02  0.50528841371E+02  0.29999943832E+02 0.  0.
         12    1    1    2    0    0  0.75037287168E+00 -0.20082458635E+02  0.35345423694E+02  0.40659158629E+02  0.00000000000E+00 0. -1.
         11    1    3    3    0    0 -0.86392058715E+00 -0.24519136834E+01  0.41548697152E+01  0.49011408981E+01  0.51100000000E-03 0. -1.
        -11    1    3    3    0    0  0.15932204540E+01  0.15538390721E+02 -0.25415109327E+02  0.29831321124E+02  0.51100000000E-03 0.  1.
        -12    1    3    3    0    0 -0.14796727385E+01  0.69959815981E+01 -0.14085184082E+02  0.15796379350E+02  0.00000000000E+00 0.  1.
</event>
<event>
 7    1  0.5006721E-012  0.5052885E+02  0.7816164E-02  0.1300439E+00
        -11   -1    0    0    0    0  0.00000000000E+00  0.00000000000E+00  0.45593999997E+02  0.45594000000E+02  0.51100000000E-03 0. -1.
         11   -1    0    0    0    0 -0.00000000000E+00 -0.00000000000E+00 -0.45593999997E+02  0.45594000000E+02  0.51100000000E-03 0.  1.
    9900012    2    1    2    0    0  0.25535146166E+02 -0.84514190015E+01 -0.30490918769E+02  0.50528852195E+02  0.29999976733E+02 0.  0.
         12    1    1    2    0    0 -0.25535146166E+02  0.84514190015E+01  0.30490918769E+02  0.40659147805E+02  0.00000000000E+00 0. -1.
         11    1    3    3    0    0  0.74094334102E+01 -0.10372250559E+02 -0.20244974749E+01  0.12906660118E+02  0.51100000000E-03 0. -1.
        -11    1    3    3    0    0  0.20315003929E+02  0.48842339983E+01 -0.24729029369E+02  0.32374064005E+02  0.51100000000E-03 0.  1.
        -12    1    3    3    0    0 -0.21892911730E+01 -0.29634024412E+01 -0.37373919244E+01  0.52481280726E+01  0.00000000000E+00 0.  1.
</event>
<event>
 7    1  0.5006721E-012  0.5052886E+02  0.7816164E-02  0.1300439E+00
        -11   -1    0    0    0    0  0.00000000000E+00  0.00000000000E+00  0.45593999997E+02  0.45594000000E+02  0.51100000000E-03 0.  1.
         11   -1    0    0    0    0 -0.00000000000E+00 -0.00000000000E+00 -0.45593999997E+02  0.45594000000E+02  0.51100000000E-03 0. -1.
    9900012    2    1    2    0    0  0.12653637537E+02  0.36050928252E+02  0.13906170740E+02  0.50528861354E+02  0.30000004572E+02 0.  0.
        -12    1    1    2    0    0 -0.12653637537E+02 -0.36050928252E+02 -0.13906170740E+02  0.40659138646E+02  0.00000000000E+00 0.  1.
         11    1    3    3    0    0 -0.40786484432E+01  0.27286927672E+02  0.64367162903E+01  0.28330956775E+02  0.51100000000E-03 0. -1.
        -11    1    3    3    0    0  0.30102920308E+01  0.49026710262E+01  0.52166778736E+01  0.77660652586E+01  0.51100000000E-03 0.  1.
         12    1    3    3    0    0  0.13721993950E+02  0.38613295536E+01  0.22527765761E+01  0.14431839321E+02  0.00000000000E+00 0. -1.
</event>
<event>
 7    1  0.5006721E-012  0.5052879E+02  0.7816164E-02  0.1300439E+00
        -11   -1    0    0    0    0  0.00000000000E+00  0.00000000000E+00  0.45593999997E+02  0.45594000000E+02  0.51100000000E-03 0. -1.
         11   -1    0    0    0    0 -0.00000000000E+00 -0.00000000000E+00 -0.45593999997E+02  0.45594000000E+02  0.51100000000E-03 0.  1.
    9900012    2    1    2    0    0  0.99663414071E+01  0.25121076246E+02 -0.30377205950E+02  0.50528793489E+02  0.29999798288E+02 0.  0.
         12    1    1    2    0    0 -0.99663414071E+01 -0.25121076246E+02  0.30377205950E+02  0.40659206511E+02  0.00000000000E+00 0. -1.
         11    1    3    3    0    0 -0.48079255888E+01  0.98108857503E+01  0.88722985062E+00  0.10961605938E+02  0.51100000000E-03 0. -1.
        -11    1    3    3    0    0  0.76140563599E+01  0.51547347212E+00 -0.12259204460E+02  0.14440486882E+02  0.51100000000E-03 0.  1.
         12    1    3    3    0    0  0.71602106360E+01  0.14794717024E+02 -0.19005231341E+02  0.25126700668E+02  0.00000000000E+00 0. -1.
</event>
<event>
 7    1  0.5006721E-012  0.5052886E+02  0.7816164E-02  0.1300439E+00
        -11   -1    0    0    0    0  0.00000000000E+00  0.00000000000E+00  0.45593999997E+02  0.45594000000E+02  0.51100000000E-03 0. -1.
         11   -1    0    0    0    0 -0.00000000000E+00 -0.00000000000E+00 -0.45593999997E+02  0.45594000000E+02  0.51100000000E-03 0.  1.
    9900012    2    1    2    0    0 -0.17349749291E+02  0.84027217203E+01  0.35798684589E+02  0.50528863867E+02  0.30000012210E+02 0.  0.
        -12    1    1    2    0    0  0.17349749291E+02 -0.84027217203E+01 -0.35798684589E+02  0.40659136133E+02  0.00000000000E+00 0.  1.
         11    1    3    3    0    0 -0.20064572715E+02 -0.30726547817E+01  0.13610294520E+02  0.24439075327E+02  0.51100000000E-03 0. -1.
        -11    1    3    3    0    0 -0.21728916444E+01  0.49963131285E+01  0.70154111156E+01  0.88826007655E+01  0.51100000000E-03 0.  1.
         12    1    3    3    0    0  0.48877150689E+01  0.64790633734E+01  0.15172978953E+02  0.17207187775E+02  0.00000000000E+00 0. -1.
</event>
<event>
 7    1  0.5006721E-012  0.5052887E+02  0.7816164E-02  0.1300439E+00
        -11   -1    0    0    0    0  0.00000000000E+00  0.00000000000E+00  0.45593999997E+02  0.45594000000E+02  0.51100000000E-03 0.  1.
         11   -1    0    0    0    0 -0.00000000000E+00 -0.00000000000E+00 -0.45593999997E+02  0.45594000000E+02  0.51100000000E-03 0. -1.
    9900012    2    1    2    0    0  0.16486971297E+02  0.36869700734E+02 -0.46871747990E+01  0.50528872336E+02  0.30000037953E+02 0.  0.
        -12    1    1    2    0    0 -0.16486971297E+02 -0.36869700734E+02  0.46871747990E+01  0.40659127664E+02  0.00000000000E+00 0.  1.
         11    1    3    3    0    0  0.15210747363E+01  0.10176100825E+02 -0.28745459078E+01  0.10683150789E+02  0.51100000000E-03 0. -1.
        -11    1    3    3    0    0  0.16642662213E+02  0.46295943346E+01 -0.36010759382E+01  0.17645937136E+02  0.51100000000E-03 0.  1.
        -12    1    3    3    0    0 -0.16767656516E+01  0.22064005575E+02  0.17884470470E+01  0.22199784411E+02  0.00000000000E+00 0.  1.
</event>
<event>
 7    1  0.5006721E-012  0.5052886E+02  0.7816164E-02  0.1300439E+00
        -11   -1    0    0    0    0  0.00000000000E+00  0.00000000000E+00  0.45593999997E+02  0.45594000000E+02  0.51100000000E-03 0. -1.
         11   -1    0    0    0    0 -0.00000000000E+00 -0.00000000000E+00 -0.45593999997E+02  0.45594000000E+02  0.51100000000E-03 0.  1.
    9900012    2    1    2    0    0  0.26971531958E+01 -0.30268166530E+02  0.27013491654E+02  0.50528864842E+02  0.30000015174E+02 0.  0.
        -12    1    1    2    0    0 -0.26971531958E+01  0.30268166530E+02 -0.27013491654E+02  0.40659135158E+02  0.00000000000E+00 0.  1.
         11    1    3    3    0    0 -0.62799996745E+00  0.27237812692E+01  0.12482584455E+02  0.12791727143E+02  0.51100000000E-03 0. -1.
        -11    1    3    3    0    0  0.66246617848E+01 -0.27298230528E+02  0.13136144424E+02  0.31010285783E+02  0.51100000000E-03 0.  1.
         12    1    3    3    0    0 -0.32995086215E+01 -0.56937172708E+01  0.13947627746E+01  0.67268519161E+01  0.00000000000E+00 0. -1.
</event>
<event>
 7    1  0.5006721E-012  0.5052886E+02  0.7816164E-02  0.1300439E+00
        -11   -1    0    0    0    0  0.00000000000E+00  0.00000000000E+00  0.45593999997E+02  0.45594000000E+02  0.51100000000E-03 0. -1.
         11   -1    0    0    0    0 -0.00000000000E+00 -0.00000000000E+00 -0.45593999997E+02  0.45594000000E+02  0.51100000000E-03 0.  1.
    9900012    2    1    2    0    0  0.82036571964E+01 -0.21939081381E+02 -0.33234661741E+02  0.50528855589E+02  0.29999987048E+02 0.  0.
         12    1    1    2    0    0 -0.82036571964E+01  0.21939081381E+02  0.33234661741E+02  0.40659144411E+02  0.00000000000E+00 0. -1.
         11    1    3    3    0    0  0.41598646486E+01  0.13925545429E+01 -0.10061650473E+02  0.10976360624E+02  0.51100000000E-03 0. -1.
        -11    1    3    3    0    0  0.13951643370E+01 -0.20712989519E+02 -0.54790653372E+01  0.21470784233E+02  0.51100000000E-03 0.  1.
        -12    1    3    3    0    0  0.26486282108E+01 -0.26186464048E+01 -0.17693945930E+02  0.18081710731E+02  0.00000000000E+00 0.  1.
</event>
<event>
 7    1  0.5006721E-012  0.5052886E+02  0.7816164E-02  0.1300439E+00
        -11   -1    0    0    0    0  0.00000000000E+00  0.00000000000E+00  0.45593999997E+02  0.45594000000E+02  0.51100000000E-03 0. -1.
         11   -1    0    0    0    0 -0.00000000000E+00 -0.00000000000E+00 -0.45593999997E+02  0.45594000000E+02  0.51100000000E-03 0.  1.
    9900012    2    1    2    0    0  0.25033089101E+02  0.72088033035E+01 -0.31217672867E+02  0.50528862106E+02  0.30000006858E+02 0.  0.
         12    1    1    2    0    0 -0.25033089101E+02 -0.72088033035E+01  0.31217672867E+02  0.40659137894E+02  0.00000000000E+00 0. -1.
         11    1    3    3    0    0  0.13892878668E+02 -0.98329493849E+01 -0.12318410267E+02  0.21010526006E+02  0.51100000000E-03 0. -1.
        -11    1    3    3    0    0  0.94183505008E+01  0.12471322135E+02 -0.19039719489E+02  0.24632298318E+02  0.51100000000E-03 0.  1.
         12    1    3    3    0    0  0.17218599324E+01  0.45704305534E+01  0.14045688870E+00  0.48860377821E+01  0.00000000000E+00 0. -1.
</event>
<event>
 7    1  0.5006721E-012  0.5052886E+02  0.7816164E-02  0.1300439E+00
        -11   -1    0    0    0    0  0.00000000000E+00  0.00000000000E+00  0.45593999997E+02  0.45594000000E+02  0.51100000000E-03 0. -1.
         11   -1    0    0    0    0 -0.00000000000E+00 -0.00000000000E+00 -0.45593999997E+02  0.45594000000E+02  0.51100000000E-03 0.  1.
    9900012    2    1    2    0    0  0.37550795529E+01  0.13445754492E+01 -0.40463032265E+02  0.50528862212E+02  0.30000007180E+02 0.  0.
         12    1    1    2    0    0 -0.37550795529E+01 -0.13445754492E+01  0.40463032265E+02  0.40659137788E+02  0.00000000000E+00 0. -1.
         11    1    3    3    0    0  0.43391979209E+01 -0.38081421149E+01  0.29606439237E+01  0.64881428520E+01  0.51100000000E-03 0. -1.
        -11    1    3    3    0    0 -0.42830983929E+00  0.13687880027E+01 -0.31443765405E+02  0.31476458076E+02  0.51100000000E-03 0.  1.
         12    1    3    3    0    0 -0.15580852869E+00  0.37839295613E+01 -0.11979910783E+02  0.12564261284E+02  0.00000000000E+00 0. -1.
</event>
<event>
 7    1  0.5006721E-012  0.5052886E+02  0.7816164E-02  0.1300439E+00
        -11   -1    0    0    0    0  0.00000000000E+00  0.00000000000E+00  0.45593999997E+02  0.45594000000E+02  0.51100000000E-03 0. -1.
         11   -1    0    0    0    0 -0.00000000000E+00 -0.00000000000E+00 -0.45593999997E+02  0.45594000000E+02  0.51100000000E-03 0.  1.
    9900012    2    1    2    0    0 -0.22275897119E+02 -0.29475582901E+02  0.16974678359E+02  0.50528864677E+02  0.30000014672E+02 0.  0.
        -12    1    1    2    0    0  0.22275897119E+02  0.29475582901E+02 -0.16974678359E+02  0.40659135323E+02  0.00000000000E+00 0.  1.
         11    1    3    3    0    0 -0.25196327198E+02 -0.25850555174E+02  0.12347469673E+02  0.38151882190E+02  0.51100000000E-03 0. -1.
        -11    1    3    3    0    0  0.34562846279E+01  0.16804349443E+00  0.70436691018E+01  0.78477650782E+01  0.51100000000E-03 0.  1.
         12    1    3    3    0    0 -0.53585454828E+00 -0.37930712220E+01 -0.24164604155E+01  0.45292174083E+01  0.00000000000E+00 0. -1.
</event>
<event>
 7    1  0.5006721E-012  0.5052886E+02  0.7816164E-02  0.1300439E+00
        -11   -1    0    0    0    0  0.00000000000E+00  0.00000000000E+00  0.45593999997E+02  0.45594000000E+02  0.51100000000E-03 0. -1.
         11   -1    0    0    0    0 -0.00000000000E+00 -0.00000000000E+00 -0.45593999997E+02  0.45594000000E+02  0.51100000000E-03 0.  1.
    9900012    2    1    2    0    0  0.68107109588E+01  0.42099941932E+01  0.39862963809E+02  0.50528859349E+02  0.29999998477E+02 0.  0.
        -12    1    1    2    0    0 -0.68107109588E+01 -0.42099941932E+01 -0.39862963809E+02  0.40659140651E+02  0.00000000000E+00 0.  1.
         11    1    3    3    0    0  0.68924224786E+01  0.67987077889E+01  0.23292514241E+02  0.25224375813E+02  0.51100000000E-03 0. -1.
        -11    1    3    3    0    0 -0.65088319942E+01  0.47919076129E+01  0.31055646788E+01  0.86586260304E+01  0.51100000000E-03 0.  1.
        -12    1    3    3    0    0  0.64271204745E+01 -0.73806212086E+01  0.13464884889E+02  0.16645857505E+02  0.00000000000E+00 0.  1.
</event>
<event>
 7    1  0.5006721E-012  0.5052885E+02  0.7816164E-02  0.1300439E+00
        -11   -1    0    0    0    0  0.00000000000E+00  0.00000000000E+00  0.45593999997E+02  0.45594000000E+02  0.51100000000E-03 0. -1.
         11   -1    0    0    0    0 -0.00000000000E+00 -0.00000000000E+00 -0.45593999997E+02  0.45594000000E+02  0.51100000000E-03 0.  1.
    9900012    2    1    2    0    0 -0.35174492540E+02 -0.16245379849E+02  0.12329186755E+02  0.50528854191E+02  0.29999982800E+02 0.  0.
        -12    1    1    2    0    0  0.35174492540E+02  0.16245379849E+02 -0.12329186755E+02  0.40659145809E+02  0.00000000000E+00 0.  1.
         11    1    3    3    0    0 -0.60589384893E+01 -0.76389448879E+01 -0.52783658705E+01  0.11087171016E+02  0.51100000000E-03 0. -1.
        -11    1    3    3    0    0 -0.18334619283E+02  0.38825494887E+01  0.82784065150E+01  0.20488154370E+02  0.51100000000E-03 0.  1.
        -12    1    3    3    0    0 -0.10780934767E+02 -0.12488984450E+02  0.93291461103E+01  0.18953528806E+02  0.00000000000E+00 0.  1.
</event>
<event>
 7    1  0.5006721E-012  0.5052872E+02  0.7816164E-02  0.1300439E+00
        -11   -1    0    0    0    0  0.00000000000E+00  0.00000000000E+00  0.45593999997E+02  0.45594000000E+02  0.51100000000E-03 0. -1.
         11   -1    0    0    0    0 -0.00000000000E+00 -0.00000000000E+00 -0.45593999997E+02  0.45594000000E+02  0.51100000000E-03 0.  1.
    9900012    2    1    2    0    0  0.90015228752E+01  0.31093847148E+01 -0.39528233756E+02  0.50528721216E+02  0.29999578605E+02 0.  0.
         12    1    1    2    0    0 -0.90015228752E+01 -0.31093847148E+01  0.39528233756E+02  0.40659278784E+02  0.00000000000E+00 0. -1.
         11    1    3    3    0    0 -0.46217205443E+00  0.55790124044E+00  0.34661747989E+01  0.35410767853E+01  0.51100000000E-03 0. -1.
        -11    1    3    3    0    0 -0.38871247241E+01 -0.39884310347E+00 -0.18756010945E+02  0.19158725461E+02  0.51100000000E-03 0.  1.
         12    1    3    3    0    0  0.13350819654E+02  0.29503265778E+01 -0.24238397610E+02  0.27828918970E+02  0.00000000000E+00 0. -1.
</event>
<event>
 7    1  0.5006721E-012  0.5052886E+02  0.7816164E-02  0.1300439E+00
        -11   -1    0    0    0    0  0.00000000000E+00  0.00000000000E+00  0.45593999997E+02  0.45594000000E+02  0.51100000000E-03 0. -1.
         11   -1    0    0    0    0 -0.00000000000E+00 -0.00000000000E+00 -0.45593999997E+02  0.45594000000E+02  0.51100000000E-03 0.  1.
    9900012    2    1    2    0    0  0.23847993237E+01 -0.37884013993E+02  0.14569834026E+02  0.50528857761E+02  0.29999993651E+02 0.  0.
        -12    1    1    2    0    0 -0.23847993237E+01  0.37884013993E+02 -0.14569834026E+02  0.40659142239E+02  0.00000000000E+00 0.  1.
         11    1    3    3    0    0  0.49314849846E+01  0.22797856606E-01  0.50905700511E+01  0.70875925110E+01  0.51100000000E-03 0. -1.
        -11    1    3    3    0    0 -0.44747299584E+01 -0.39300048845E+02  0.10387211408E+02  0.40895124508E+02  0.51100000000E-03 0.  1.
        -12    1    3    3    0    0  0.19280442975E+01  0.13932369955E+01 -0.90794743297E+00  0.25461407423E+01  0.00000000000E+00 0.  1.
</event>
<event>
 7    1  0.5006721E-012  0.5052886E+02  0.7816164E-02  0.1300439E+00
        -11   -1    0    0    0    0  0.00000000000E+00  0.00000000000E+00  0.45593999997E+02  0.45594000000E+02  0.51100000000E-03 0. -1.
         11   -1    0    0    0    0 -0.00000000000E+00 -0.00000000000E+00 -0.45593999997E+02  0.45594000000E+02  0.51100000000E-03 0.  1.
    9900012    2    1    2    0    0  0.23226865503E+01 -0.32517792527E+02 -0.24297406504E+02  0.50528859988E+02  0.30000000421E+02 0.  0.
         12    1    1    2    0    0 -0.23226865503E+01  0.32517792527E+02  0.24297406504E+02  0.40659140012E+02  0.00000000000E+00 0. -1.
         11    1    3    3    0    0  0.41088041730E+01 -0.32392958136E+02 -0.13392233355E+02  0.35292179346E+02  0.51100000000E-03 0. -1.
        -11    1    3    3    0    0  0.40086746817E+00  0.42715230955E+01 -0.13568033417E+01  0.44997244195E+01  0.51100000000E-03 0.  1.
        -12    1    3    3    0    0 -0.21869850908E+01 -0.43963574869E+01 -0.95483698077E+01  0.10736956223E+02  0.00000000000E+00 0.  1.
</event>
<event>
 7    1  0.5006721E-012  0.5052888E+02  0.7816164E-02  0.1300439E+00
        -11   -1    0    0    0    0  0.00000000000E+00  0.00000000000E+00  0.45593999997E+02  0.45594000000E+02  0.51100000000E-03 0. -1.
         11   -1    0    0    0    0 -0.00000000000E+00 -0.00000000000E+00 -0.45593999997E+02  0.45594000000E+02  0.51100000000E-03 0.  1.
    9900012    2    1    2    0    0 -0.90627676137E+01 -0.71658082921E+01 -0.38983088990E+02  0.50528883034E+02  0.30000070469E+02 0.  0.
         12    1    1    2    0    0  0.90627676137E+01  0.71658082921E+01  0.38983088990E+02  0.40659116966E+02  0.00000000000E+00 0. -1.
         11    1    3    3    0    0  0.30473435372E+00 -0.29445451008E+01 -0.22335890812E+01  0.37083863501E+01  0.51100000000E-03 0. -1.
        -11    1    3    3    0    0 -0.10524905452E+02  0.66365360816E+01 -0.52909605343E+01  0.13520780657E+02  0.51100000000E-03 0.  1.
        -12    1    3    3    0    0  0.11574034851E+01 -0.10857799273E+02 -0.31458539374E+02  0.33299716026E+02  0.00000000000E+00 0.  1.
</event>
<event>
 7    1  0.5006721E-012  0.5052887E+02  0.7816164E-02  0.1300439E+00
        -11   -1    0    0    0    0  0.00000000000E+00  0.00000000000E+00  0.45593999997E+02  0.45594000000E+02  0.51100000000E-03 0. -1.
         11   -1    0    0    0    0 -0.00000000000E+00 -0.00000000000E+00 -0.45593999997E+02  0.45594000000E+02  0.51100000000E-03 0.  1.
    9900012    2    1    2    0    0  0.17779438113E+02  0.12692877873E+02  0.34292089562E+02  0.50528868494E+02  0.30000026275E+02 0.  0.
        -12    1    1    2    0    0 -0.17779438113E+02 -0.12692877873E+02 -0.34292089562E+02  0.40659131506E+02  0.00000000000E+00 0.  1.
         11    1    3    3    0    0  0.15834764699E+02 -0.47089688287E+01  0.17604715112E+02  0.24142082655E+02  0.51100000000E-03 0. -1.
        -11    1    3    3    0    0  0.25449111510E+01  0.18765358060E+02  0.15215270164E+02  0.24292379099E+02  0.51100000000E-03 0.  1.
         12    1    3    3    0    0 -0.60023773715E+00 -0.13635113576E+01  0.14721042852E+01  0.20944067394E+01  0.00000000000E+00 0. -1.
</event>
<event>
 7    1  0.6985779E-012  0.5052886E+02  0.7816164E-02  0.1300439E+00
        -11   -1    0    0    0    0  0.00000000000E+00  0.00000000000E+00  0.45593999997E+02  0.45594000000E+02  0.51100000000E-03 0. -1.
         11   -1    0    0    0    0 -0.00000000000E+00 -0.00000000000E+00 -0.45593999997E+02  0.45594000000E+02  0.51100000000E-03 0.  1.
    9900012    2    1    2    0    0  0.24247315588E+02 -0.99004560267E+01  0.31100069596E+02  0.50528859926E+02  0.30000000230E+02 0.  0.
        -12    1    1    2    0    0 -0.24247315588E+02  0.99004560267E+01 -0.31100069596E+02  0.40659140074E+02  0.00000000000E+00 0.  1.
         11    1    3    3    0    0  0.16013070038E+02 -0.12738761477E+01  0.30538415162E+02  0.34505593363E+02  0.51100000000E-03 0. -1.
        -11    1    3    3    0    0  0.27516560085E+00  0.71139018064E+00 -0.31210024117E+01  0.32128567369E+01  0.51100000000E-03 0.  1.
         12    1    3    3    0    0  0.79590799486E+01 -0.93379700596E+01  0.36826568456E+01  0.12810409826E+02  0.00000000000E+00 0. -1.
</event>
<event>
 7    1  0.5006721E-012  0.5052888E+02  0.7816164E-02  0.1300439E+00
        -11   -1    0    0    0    0  0.00000000000E+00  0.00000000000E+00  0.45593999997E+02  0.45594000000E+02  0.51100000000E-03 0. -1.
         11   -1    0    0    0    0 -0.00000000000E+00 -0.00000000000E+00 -0.45593999997E+02  0.45594000000E+02  0.51100000000E-03 0.  1.
    9900012    2    1    2    0    0  0.14508974448E+02  0.16306537405E+02 -0.34303802908E+02  0.50528875617E+02  0.30000047925E+02 0.  0.
         12    1    1    2    0    0 -0.14508974448E+02 -0.16306537405E+02  0.34303802908E+02  0.40659124383E+02  0.00000000000E+00 0. -1.
         11    1    3    3    0    0 -0.12759065536E+01 -0.44436351534E+01  0.33891536506E+00  0.46355900160E+01  0.51100000000E-03 0. -1.
        -11    1    3    3    0    0  0.63254268888E+01  0.17505480488E+02 -0.28858721215E+02  0.34340627002E+02  0.51100000000E-03 0.  1.
         12    1    3    3    0    0  0.94594541128E+01  0.32446920701E+01 -0.57839970573E+01  0.11552658599E+02  0.00000000000E+00 0. -1.
</event>
<event>
 7    1  0.5006721E-012  0.5052884E+02  0.7816164E-02  0.1300439E+00
        -11   -1    0    0    0    0  0.00000000000E+00  0.00000000000E+00  0.45593999997E+02  0.45594000000E+02  0.51100000000E-03 0. -1.
         11   -1    0    0    0    0 -0.00000000000E+00 -0.00000000000E+00 -0.45593999997E+02  0.45594000000E+02  0.51100000000E-03 0.  1.
    9900012    2    1    2    0    0  0.78040505541E+01 -0.20430781702E+02 -0.34276041987E+02  0.50528842356E+02  0.29999946826E+02 0.  0.
         12    1    1    2    0    0 -0.78040505541E+01  0.20430781702E+02  0.34276041987E+02  0.40659157644E+02  0.00000000000E+00 0. -1.
         11    1    3    3    0    0 -0.59903056585E+01 -0.10723744164E+02 -0.45576582668E+01  0.13101705993E+02  0.51100000000E-03 0. -1.
        -11    1    3    3    0    0  0.15406995465E+02 -0.11175338218E+02 -0.20580078417E+02  0.28032183673E+02  0.51100000000E-03 0.  1.
        -12    1    3    3    0    0 -0.16126392526E+01  0.14683006803E+01 -0.91383053033E+01  0.93949526909E+01  0.00000000000E+00 0.  1.
</event>
<event>
 7    1  0.5006721E-012  0.5052886E+02  0.7816164E-02  0.1300439E+00
        -11   -1    0    0    0    0  0.00000000000E+00  0.00000000000E+00  0.45593999997E+02  0.45594000000E+02  0.51100000000E-03 0. -1.
         11   -1    0    0    0    0 -0.00000000000E+00 -0.00000000000E+00 -0.45593999997E+02  0.45594000000E+02  0.51100000000E-03 0.  1.
    9900012    2    1    2    0    0 -0.99539834241E+01  0.23762520699E+02 -0.31455148334E+02  0.50528861634E+02  0.30000005422E+02 0.  0.
         12    1    1    2    0    0  0.99539834241E+01 -0.23762520699E+02  0.31455148334E+02  0.40659138366E+02  0.00000000000E+00 0. -1.
         11    1    3    3    0    0 -0.35323377074E+00  0.84518610979E+00  0.13359225602E+01  0.16198157318E+01  0.51100000000E-03 0. -1.
        -11    1    3    3    0    0 -0.18627707641E+02  0.15706774038E+02 -0.18870237778E+02  0.30818502831E+02  0.51100000000E-03 0.  1.
        -12    1    3    3    0    0  0.90269579877E+01  0.72105605512E+01 -0.13920833116E+02  0.18090543071E+02  0.00000000000E+00 0.  1.
</event>
<event>
 7    1  0.5006721E-012  0.5052892E+02  0.7816164E-02  0.1300439E+00
        -11   -1    0    0    0    0  0.00000000000E+00  0.00000000000E+00  0.45593999997E+02  0.45594000000E+02  0.51100000000E-03 0. -1.
         11   -1    0    0    0    0 -0.00000000000E+00 -0.00000000000E+00 -0.45593999997E+02  0.45594000000E+02  0.51100000000E-03 0.  1.
    9900012    2    1    2    0    0  0.39013424071E+01  0.29097912594E+02 -0.28129194825E+02  0.50528922398E+02  0.30000190121E+02 0.  0.
         12    1    1    2    0    0 -0.39013424071E+01 -0.29097912594E+02  0.28129194825E+02  0.40659077602E+02  0.00000000000E+00 0. -1.
         11    1    3    3    0    0  0.11208814400E+01 -0.40512028805E+01  0.34073092667E-01  0.42035438880E+01  0.51100000000E-03 0. -1.
        -11    1    3    3    0    0 -0.11669203936E+01  0.21786111759E+02 -0.87902686156E+01  0.23521589899E+02  0.51100000000E-03 0.  1.
        -12    1    3    3    0    0  0.39473813607E+01  0.11363003715E+02 -0.19372999302E+02  0.22803788611E+02  0.00000000000E+00 0.  1.
</event>
<event>
 7    1  0.5006721E-012  0.5052886E+02  0.7816164E-02  0.1300439E+00
        -11   -1    0    0    0    0  0.00000000000E+00  0.00000000000E+00  0.45593999997E+02  0.45594000000E+02  0.51100000000E-03 0. -1.
         11   -1    0    0    0    0 -0.00000000000E+00 -0.00000000000E+00 -0.45593999997E+02  0.45594000000E+02  0.51100000000E-03 0.  1.
    9900012    2    1    2    0    0  0.32750951545E+01 -0.46549325896E+01 -0.40258797568E+02  0.50528862929E+02  0.30000009360E+02 0.  0.
         12    1    1    2    0    0 -0.32750951545E+01  0.46549325896E+01  0.40258797568E+02  0.40659137071E+02  0.00000000000E+00 0. -1.
         11    1    3    3    0    0 -0.69810871532E+01 -0.61737243022E+01 -0.10767657345E+02  0.14240537018E+02  0.51100000000E-03 0. -1.
        -11    1    3    3    0    0  0.68711300408E+01 -0.36946016521E+01 -0.29024722627E+02  0.30054900320E+02  0.51100000000E-03 0.  1.
        -12    1    3    3    0    0  0.33850522669E+01  0.52133933647E+01 -0.46641759576E+00  0.62334255910E+01  0.00000000000E+00 0.  1.
</event>
<event>
 7    1  0.5006721E-012  0.5052889E+02  0.7816164E-02  0.1300439E+00
        -11   -1    0    0    0    0  0.00000000000E+00  0.00000000000E+00  0.45593999997E+02  0.45594000000E+02  0.51100000000E-03 0. -1.
         11   -1    0    0    0    0 -0.00000000000E+00 -0.00000000000E+00 -0.45593999997E+02  0.45594000000E+02  0.51100000000E-03 0.  1.
    9900012    2    1    2    0    0 -0.14109473708E+00  0.14133838670E+02 -0.38123198689E+02  0.50528885627E+02  0.30000078352E+02 0.  0.
         12    1    1    2    0    0  0.14109473708E+00 -0.14133838670E+02  0.38123198689E+02  0.40659114373E+02  0.00000000000E+00 0. -1.
         11    1    3    3    0    0  0.10307079162E+02 -0.10924173612E+01 -0.21676496092E+02  0.24027062651E+02  0.51100000000E-03 0. -1.
        -11    1    3    3    0    0 -0.57549375992E+00  0.68063671823E+01 -0.20742107183E+01  0.71386397621E+01  0.51100000000E-03 0.  1.
         12    1    3    3    0    0 -0.98726801393E+01  0.84198888490E+01 -0.14372491880E+02  0.19363183214E+02  0.00000000000E+00 0. -1.
</event>
<event>
 7    1  0.5006721E-012  0.5052887E+02  0.7816164E-02  0.1300439E+00
        -11   -1    0    0    0    0  0.00000000000E+00  0.00000000000E+00  0.45593999997E+02  0.45594000000E+02  0.51100000000E-03 0. -1.
         11   -1    0    0    0    0 -0.00000000000E+00 -0.00000000000E+00 -0.45593999997E+02  0.45594000000E+02  0.51100000000E-03 0.  1.
    9900012    2    1    2    0    0 -0.68227302635E+01 -0.53733007828E+01  0.39720811294E+02  0.50528869913E+02  0.30000030588E+02 0.  0.
        -12    1    1    2    0    0  0.68227302635E+01  0.53733007828E+01 -0.39720811294E+02  0.40659130087E+02  0.00000000000E+00 0.  1.
         11    1    3    3    0    0 -0.75914921841E+01 -0.87992435955E+01  0.99680949336E+01  0.15310792217E+02  0.51100000000E-03 0. -1.
        -11    1    3    3    0    0  0.83279122461E+01 -0.73712351942E+00  0.22299907795E+02  0.23815611715E+02  0.51100000000E-03 0.  1.
        -12    1    3    3    0    0 -0.75591503255E+01  0.41630663321E+01  0.74528085661E+01  0.11402465981E+02  0.00000000000E+00 0.  1.
</event>
<event>
 7    1  0.5006721E-012  0.5052887E+02  0.7816164E-02  0.1300439E+00
        -11   -1    0    0    0    0  0.00000000000E+00  0.00000000000E+00  0.45593999997E+02  0.45594000000E+02  0.51100000000E-03 0. -1.
         11   -1    0    0    0    0 -0.00000000000E+00 -0.00000000000E+00 -0.45593999997E+02  0.45594000000E+02  0.51100000000E-03 0.  1.
    9900012    2    1    2    0    0  0.13421209619E+02 -0.12284033100E+02 -0.36361227826E+02  0.50528865407E+02  0.30000016890E+02 0.  0.
         12    1    1    2    0    0 -0.13421209619E+02  0.12284033100E+02  0.36361227826E+02  0.40659134593E+02  0.00000000000E+00 0. -1.
         11    1    3    3    0    0  0.12677820410E+02 -0.61591378578E+01 -0.33379617411E+01  0.14484615920E+02  0.51100000000E-03 0. -1.
        -11    1    3    3    0    0  0.53396996469E+01 -0.16874109813E+01 -0.25800935836E+02  0.26401667342E+02  0.51100000000E-03 0.  1.
         12    1    3    3    0    0 -0.45963104376E+01 -0.44374842609E+01 -0.72223302492E+01  0.96425821455E+01  0.00000000000E+00 0. -1.
</event>
<event>
 7    1  0.5006721E-012  0.5052886E+02  0.7816164E-02  0.1300439E+00
        -11   -1    0    0    0    0  0.00000000000E+00  0.00000000000E+00  0.45593999997E+02  0.45594000000E+02  0.51100000000E-03 0. -1.
         11   -1    0    0    0    0 -0.00000000000E+00 -0.00000000000E+00 -0.45593999997E+02  0.45594000000E+02  0.51100000000E-03 0.  1.
    9900012    2    1    2    0    0 -0.11122837441E+02 -0.14936880156E+02 -0.36143295442E+02  0.50528859490E+02  0.29999998907E+02 0.  0.
         12    1    1    2    0    0  0.11122837441E+02  0.14936880156E+02  0.36143295442E+02  0.40659140510E+02  0.00000000000E+00 0. -1.
         11    1    3    3    0    0  0.95117113242E+00 -0.11456293939E+02 -0.49895144292E+00  0.11506535106E+02  0.51100000000E-03 0. -1.
        -11    1    3    3    0    0 -0.13492350345E+02 -0.43946865900E+01 -0.32122491294E+02  0.35117107444E+02  0.51100000000E-03 0.  1.
         12    1    3    3    0    0  0.14183417708E+01  0.91410037338E+00 -0.35218527054E+01  0.39052169402E+01  0.00000000000E+00 0. -1.
</event>
<event>
 7    1  0.5006721E-012  0.5052885E+02  0.7816164E-02  0.1300439E+00
        -11   -1    0    0    0    0  0.00000000000E+00  0.00000000000E+00  0.45593999997E+02  0.45594000000E+02  0.51100000000E-03 0. -1.
         11   -1    0    0    0    0 -0.00000000000E+00 -0.00000000000E+00 -0.45593999997E+02  0.45594000000E+02  0.51100000000E-03 0.  1.
    9900012    2    1    2    0    0 -0.13420597401E+02 -0.22863220755E+01 -0.38312230705E+02  0.50528846973E+02  0.29999960859E+02 0.  0.
         12    1    1    2    0    0  0.13420597401E+02  0.22863220755E+01  0.38312230705E+02  0.40659153027E+02  0.00000000000E+00 0. -1.
         11    1    3    3    0    0  0.61888121971E+01  0.36065001694E+01 -0.19503791114E+02  0.20777538544E+02  0.51100000000E-03 0. -1.
        -11    1    3    3    0    0 -0.12389775093E+02 -0.24215271529E+01 -0.45923877278E+01  0.13433552989E+02  0.51100000000E-03 0.  1.
         12    1    3    3    0    0 -0.72196345061E+01 -0.34712950920E+01 -0.14216051863E+02  0.16317755440E+02  0.00000000000E+00 0. -1.
</event>
<event>
 7    1  0.5006721E-012  0.5052886E+02  0.7816164E-02  0.1300439E+00
        -11   -1    0    0    0    0  0.00000000000E+00  0.00000000000E+00  0.45593999997E+02  0.45594000000E+02  0.51100000000E-03 0. -1.
         11   -1    0    0    0    0 -0.00000000000E+00 -0.00000000000E+00 -0.45593999997E+02  0.45594000000E+02  0.51100000000E-03 0.  1.
    9900012    2    1    2    0    0  0.17000031034E+01 -0.44570940928E+01  0.40378338738E+02  0.50528856655E+02  0.29999990287E+02 0.  0.
        -12    1    1    2    0    0 -0.17000031034E+01  0.44570940928E+01 -0.40378338738E+02  0.40659143345E+02  0.00000000000E+00 0.  1.
         11    1    3    3    0    0 -0.67105346796E+01 -0.27847245592E+01  0.36923767715E+02  0.37631776321E+02  0.51100000000E-03 0. -1.
        -11    1    3    3    0    0  0.55267591700E+01  0.11049195793E+00 -0.24828461914E+01  0.60598515548E+01  0.51100000000E-03 0.  1.
         12    1    3    3    0    0  0.28837786130E+01 -0.17828614916E+01  0.59374172146E+01  0.68372287783E+01  0.00000000000E+00 0. -1.
</event>
<event>
 7    1  0.5006721E-012  0.5052886E+02  0.7816164E-02  0.1300439E+00
        -11   -1    0    0    0    0  0.00000000000E+00  0.00000000000E+00  0.45593999997E+02  0.45594000000E+02  0.51100000000E-03 0. -1.
         11   -1    0    0    0    0 -0.00000000000E+00 -0.00000000000E+00 -0.45593999997E+02  0.45594000000E+02  0.51100000000E-03 0.  1.
    9900012    2    1    2    0    0 -0.87065080974E+01 -0.81384398781E+00  0.39707680478E+02  0.50528861861E+02  0.30000006113E+02 0.  0.
        -12    1    1    2    0    0  0.87065080974E+01  0.81384398781E+00 -0.39707680478E+02  0.40659138139E+02  0.00000000000E+00 0.  1.
         11    1    3    3    0    0 -0.92497744540E+01 -0.69742220979E+01  0.25268535291E+02  0.27797427530E+02  0.51100000000E-03 0. -1.
        -11    1    3    3    0    0 -0.17112061510E+01  0.11555958857E+02  0.90225276742E+01  0.14760569687E+02  0.51100000000E-03 0.  1.
        -12    1    3    3    0    0  0.22544725076E+01 -0.53955807470E+01  0.54166175128E+01  0.79708646435E+01  0.00000000000E+00 0.  1.
</event>
<event>
 7    1  0.5006721E-012  0.5052886E+02  0.7816164E-02  0.1300439E+00
        -11   -1    0    0    0    0  0.00000000000E+00  0.00000000000E+00  0.45593999997E+02  0.45594000000E+02  0.51100000000E-03 0. -1.
         11   -1    0    0    0    0 -0.00000000000E+00 -0.00000000000E+00 -0.45593999997E+02  0.45594000000E+02  0.51100000000E-03 0.  1.
    9900012    2    1    2    0    0 -0.12376850896E+02  0.37629587274E+02 -0.91647843415E+01  0.50528861439E+02  0.30000004830E+02 0.  0.
         12    1    1    2    0    0  0.12376850896E+02 -0.37629587274E+02  0.91647843415E+01  0.40659138561E+02  0.00000000000E+00 0. -1.
         11    1    3    3    0    0 -0.26840898302E+00  0.30837669143E+02 -0.52496747472E+01  0.31282470599E+02  0.51100000000E-03 0. -1.
        -11    1    3    3    0    0 -0.13862284929E+02  0.85008875425E+01 -0.26030982660E+01  0.16468277181E+02  0.51100000000E-03 0.  1.
         12    1    3    3    0    0  0.17538430157E+01 -0.17089694122E+01 -0.13120113283E+01  0.27781136588E+01  0.00000000000E+00 0. -1.
</event>
<event>
 7    1  0.5006721E-012  0.5052884E+02  0.7816164E-02  0.1300439E+00
        -11   -1    0    0    0    0  0.00000000000E+00  0.00000000000E+00  0.45593999997E+02  0.45594000000E+02  0.51100000000E-03 0. -1.
         11   -1    0    0    0    0 -0.00000000000E+00 -0.00000000000E+00 -0.45593999997E+02  0.45594000000E+02  0.51100000000E-03 0.  1.
    9900012    2    1    2    0    0 -0.71472017921E+01 -0.34354825691E+02 -0.20538523803E+02  0.50528837420E+02  0.29999931821E+02 0.  0.
         12    1    1    2    0    0  0.71472017921E+01  0.34354825691E+02  0.20538523803E+02  0.40659162580E+02  0.00000000000E+00 0. -1.
         11    1    3    3    0    0 -0.86613019938E+01 -0.48252875492E+01  0.31348675524E+01  0.10398506960E+02  0.51100000000E-03 0. -1.
        -11    1    3    3    0    0  0.41161687868E+01 -0.20703428235E+02 -0.22504105880E+02  0.30854652289E+02  0.51100000000E-03 0.  1.
        -12    1    3    3    0    0 -0.26020685851E+01 -0.88261099072E+01 -0.11692854758E+01  0.92756781714E+01  0.00000000000E+00 0.  1.
</event>
<event>
 7    1  0.5006721E-012  0.5052886E+02  0.7816164E-02  0.1300439E+00
        -11   -1    0    0    0    0  0.00000000000E+00  0.00000000000E+00  0.45593999997E+02  0.45594000000E+02  0.51100000000E-03 0. -1.
         11   -1    0    0    0    0 -0.00000000000E+00 -0.00000000000E+00 -0.45593999997E+02  0.45594000000E+02  0.51100000000E-03 0.  1.
    9900012    2    1    2    0    0  0.22523994095E+02  0.16226277426E+02  0.29707632552E+02  0.50528858089E+02  0.29999994648E+02 0.  0.
        -12    1    1    2    0    0 -0.22523994095E+02 -0.16226277426E+02 -0.29707632552E+02  0.40659141911E+02  0.00000000000E+00 0.  1.
         11    1    3    3    0    0  0.12812494551E+02  0.19640670041E+01 -0.17131121575E+01  0.13074873970E+02  0.51100000000E-03 0. -1.
        -11    1    3    3    0    0  0.73893693969E+01  0.15660232618E+02  0.24330721161E+02  0.29863517177E+02  0.51100000000E-03 0.  1.
        -12    1    3    3    0    0  0.23221301470E+01 -0.13980221958E+01  0.70900235486E+01  0.75904669421E+01  0.00000000000E+00 0.  1.
</event>
<event>
 7    1  0.5006721E-012  0.5052886E+02  0.7816164E-02  0.1300439E+00
        -11   -1    0    0    0    0  0.00000000000E+00  0.00000000000E+00  0.45593999997E+02  0.45594000000E+02  0.51100000000E-03 0. -1.
         11   -1    0    0    0    0 -0.00000000000E+00 -0.00000000000E+00 -0.45593999997E+02  0.45594000000E+02  0.51100000000E-03 0.  1.
    9900012    2    1    2    0    0 -0.66451837631E+01  0.32571869833E+02 -0.23411124843E+02  0.50528856649E+02  0.29999990269E+02 0.  0.
         12    1    1    2    0    0  0.66451837631E+01 -0.32571869833E+02  0.23411124843E+02  0.40659143351E+02  0.00000000000E+00 0. -1.
         11    1    3    3    0    0 -0.59492929263E+01  0.77438255326E+01 -0.30009995096E+01  0.10216012848E+02  0.51100000000E-03 0. -1.
        -11    1    3    3    0    0 -0.43184672856E+01  0.13832841529E+01 -0.15417051643E+02  0.16070100074E+02  0.51100000000E-03 0.  1.
        -12    1    3    3    0    0  0.36225764488E+01  0.23444760148E+02 -0.49930736898E+01  0.24242743726E+02  0.00000000000E+00 0.  1.
</event>
<event>
 7    1  0.5006721E-012  0.5052885E+02  0.7816164E-02  0.1300439E+00
        -11   -1    0    0    0    0  0.00000000000E+00  0.00000000000E+00  0.45593999997E+02  0.45594000000E+02  0.51100000000E-03 0. -1.
         11   -1    0    0    0    0 -0.00000000000E+00 -0.00000000000E+00 -0.45593999997E+02  0.45594000000E+02  0.51100000000E-03 0.  1.
    9900012    2    1    2    0    0 -0.16951759635E+02 -0.24173483930E+02  0.27954367350E+02  0.50528854239E+02  0.29999982946E+02 0.  0.
        -12    1    1    2    0    0  0.16951759635E+02  0.24173483930E+02 -0.27954367350E+02  0.40659145761E+02  0.00000000000E+00 0.  1.
         11    1    3    3    0    0 -0.27418614414E+01 -0.33733303082E+01  0.11093572151E+02  0.11914885852E+02  0.51100000000E-03 0. -1.
        -11    1    3    3    0    0 -0.16316947367E+02 -0.25107133303E+02  0.14567883551E+02  0.33299161333E+02  0.51100000000E-03 0.  1.
        -12    1    3    3    0    0  0.21070491731E+01  0.43069796818E+01  0.22929116481E+01  0.53148070542E+01  0.00000000000E+00 0.  1.
</event>
<event>
 7    1  0.5006721E-012  0.5052883E+02  0.7816164E-02  0.1300439E+00
        -11   -1    0    0    0    0  0.00000000000E+00  0.00000000000E+00  0.45593999997E+02  0.45594000000E+02  0.51100000000E-03 0. -1.
         11   -1    0    0    0    0 -0.00000000000E+00 -0.00000000000E+00 -0.45593999997E+02  0.45594000000E+02  0.51100000000E-03 0.  1.
    9900012    2    1    2    0    0 -0.33097370680E+02  0.75007366379E+01 -0.22393542849E+02  0.50528834276E+02  0.29999922264E+02 0.  0.
         12    1    1    2    0    0  0.33097370680E+02 -0.75007366379E+01  0.22393542849E+02  0.40659165724E+02  0.00000000000E+00 0. -1.
         11    1    3    3    0    0 -0.12313181798E+01  0.30743513515E+01  0.29973730970E+01  0.44667691272E+01  0.51100000000E-03 0. -1.
        -11    1    3    3    0    0 -0.27650316594E+02 -0.22172096147E+01 -0.26195046208E+02  0.38152804252E+02  0.51100000000E-03 0.  1.
        -12    1    3    3    0    0 -0.42157359062E+01  0.66435949011E+01  0.80413026130E+00  0.79092608958E+01  0.00000000000E+00 0.  1.
</event>
<event>
 7    1  0.5006721E-012  0.5052886E+02  0.7816164E-02  0.1300439E+00
        -11   -1    0    0    0    0  0.00000000000E+00  0.00000000000E+00  0.45593999997E+02  0.45594000000E+02  0.51100000000E-03 0. -1.
         11   -1    0    0    0    0 -0.00000000000E+00 -0.00000000000E+00 -0.45593999997E+02  0.45594000000E+02  0.51100000000E-03 0.  1.
    9900012    2    1    2    0    0 -0.21190842069E+02  0.34581481571E+02 -0.28696772081E+01  0.50528859545E+02  0.29999999073E+02 0.  0.
         12    1    1    2    0    0  0.21190842069E+02 -0.34581481571E+02  0.28696772081E+01  0.40659140455E+02  0.00000000000E+00 0. -1.
         11    1    3    3    0    0 -0.11675476006E+02 -0.17334860381E+01 -0.25434643750E+01  0.12074391293E+02  0.51100000000E-03 0.  1.
        -11    1    3    3    0    0 -0.45305702789E+01  0.22099761462E+02  0.37024625966E+01  0.22861184424E+02  0.51100000000E-03 0. -1.
        -12    1    3    3    0    0 -0.49847957848E+01  0.14215206147E+02 -0.40286754297E+01  0.15593283828E+02  0.00000000000E+00 0.  1.
</event>
<event>
 7    1  0.5006721E-012  0.5052886E+02  0.7816164E-02  0.1300439E+00
        -11   -1    0    0    0    0  0.00000000000E+00  0.00000000000E+00  0.45593999997E+02  0.45594000000E+02  0.51100000000E-03 0. -1.
         11   -1    0    0    0    0 -0.00000000000E+00 -0.00000000000E+00 -0.45593999997E+02  0.45594000000E+02  0.51100000000E-03 0.  1.
    9900012    2    1    2    0    0 -0.11129066012E+01 -0.16378023925E+02 -0.37197946582E+02  0.50528862543E+02  0.30000008187E+02 0.  0.
         12    1    1    2    0    0  0.11129066012E+01  0.16378023925E+02  0.37197946582E+02  0.40659137457E+02  0.00000000000E+00 0. -1.
         11    1    3    3    0    0  0.49972914917E+01  0.18271005331E+01 -0.22915994397E+01  0.57933277885E+01  0.51100000000E-03 0. -1.
        -11    1    3    3    0    0 -0.12469227363E+02 -0.16695058952E+02 -0.22204190355E+02  0.30450495793E+02  0.51100000000E-03 0.  1.
        -12    1    3    3    0    0  0.63590292702E+01 -0.15100655057E+01 -0.12702156787E+02  0.14285038962E+02  0.00000000000E+00 0.  1.
</event>
<event>
 7    1  0.5006721E-012  0.5052887E+02  0.7816164E-02  0.1300439E+00
        -11   -1    0    0    0    0  0.00000000000E+00  0.00000000000E+00  0.45593999997E+02  0.45594000000E+02  0.51100000000E-03 0. -1.
         11   -1    0    0    0    0 -0.00000000000E+00 -0.00000000000E+00 -0.45593999997E+02  0.45594000000E+02  0.51100000000E-03 0.  1.
    9900012    2    1    2    0    0 -0.21197775690E+02 -0.28418823286E+02  0.19904505193E+02  0.50528873864E+02  0.30000042596E+02 0.  0.
        -12    1    1    2    0    0  0.21197775690E+02  0.28418823286E+02 -0.19904505193E+02  0.40659126136E+02  0.00000000000E+00 0.  1.
         11    1    3    3    0    0 -0.46704390157E+00 -0.23547814545E+02  0.12176865298E+02  0.26514029279E+02  0.51100000000E-03 0. -1.
        -11    1    3    3    0    0 -0.81018877780E+01 -0.77477086766E-01  0.66176127661E+01  0.10461328178E+02  0.51100000000E-03 0.  1.
         12    1    3    3    0    0 -0.12628844010E+02 -0.47935316542E+01  0.11100271288E+01  0.13553516407E+02  0.00000000000E+00 0. -1.
</event>
<event>
 7    1  0.5006721E-012  0.5052882E+02  0.7816164E-02  0.1300439E+00
        -11   -1    0    0    0    0  0.00000000000E+00  0.00000000000E+00  0.45593999997E+02  0.45594000000E+02  0.51100000000E-03 0. -1.
         11   -1    0    0    0    0 -0.00000000000E+00 -0.00000000000E+00 -0.45593999997E+02  0.45594000000E+02  0.51100000000E-03 0.  1.
    9900012    2    1    2    0    0  0.44355217232E+01 -0.37460126211E+02 -0.15173450991E+02  0.50528824852E+02  0.29999893621E+02 0.  0.
         12    1    1    2    0    0 -0.44355217232E+01  0.37460126211E+02  0.15173450991E+02  0.40659175148E+02  0.00000000000E+00 0. -1.
         11    1    3    3    0    0 -0.29443141655E+00 -0.67816089513E+01 -0.14047004035E+02  0.15601129204E+02  0.51100000000E-03 0. -1.
        -11    1    3    3    0    0  0.15950753148E+01 -0.16230606326E+02  0.73472076117E+01  0.17887378425E+02  0.51100000000E-03 0.  1.
        -12    1    3    3    0    0  0.31348778250E+01 -0.14447910934E+02 -0.84736545674E+01  0.17040317223E+02  0.00000000000E+00 0.  1.
</event>
<event>
 7    1  0.5006721E-012  0.5052886E+02  0.7816164E-02  0.1300439E+00
        -11   -1    0    0    0    0  0.00000000000E+00  0.00000000000E+00  0.45593999997E+02  0.45594000000E+02  0.51100000000E-03 0. -1.
         11   -1    0    0    0    0 -0.00000000000E+00 -0.00000000000E+00 -0.45593999997E+02  0.45594000000E+02  0.51100000000E-03 0.  1.
    9900012    2    1    2    0    0 -0.88726123679E+01  0.11140292883E+01 -0.39663599794E+02  0.50528862527E+02  0.30000008136E+02 0.  0.
         12    1    1    2    0    0  0.88726123679E+01 -0.11140292883E+01  0.39663599794E+02  0.40659137473E+02  0.00000000000E+00 0. -1.
         11    1    3    3    0    0 -0.12290811279E+02 -0.40938285806E+01 -0.38825557735E+01  0.13523968128E+02  0.51100000000E-03 0. -1.
        -11    1    3    3    0    0  0.53608781367E+01  0.22600110710E+01 -0.19712313747E+02  0.20552906801E+02  0.51100000000E-03 0.  1.
        -12    1    3    3    0    0 -0.19426792258E+01  0.29478467978E+01 -0.16068730273E+02  0.16451987597E+02  0.00000000000E+00 0.  1.
</event>
<event>
 7    1  0.5006721E-012  0.5052887E+02  0.7816164E-02  0.1300439E+00
        -11   -1    0    0    0    0  0.00000000000E+00  0.00000000000E+00  0.45593999997E+02  0.45594000000E+02  0.51100000000E-03 0.  1.
         11   -1    0    0    0    0 -0.00000000000E+00 -0.00000000000E+00 -0.45593999997E+02  0.45594000000E+02  0.51100000000E-03 0. -1.
    9900012    2    1    2    0    0 -0.22588756566E+02 -0.12315193885E+02 -0.31484111879E+02  0.50528865425E+02  0.30000016945E+02 0.  0.
         12    1    1    2    0    0  0.22588756566E+02  0.12315193885E+02  0.31484111879E+02  0.40659134575E+02  0.00000000000E+00 0. -1.
         11    1    3    3    0    0 -0.80041917262E+01  0.31533722249E+01 -0.11554974123E+02  0.14405841483E+02  0.51100000000E-03 0. -1.
        -11    1    3    3    0    0 -0.55077684538E+01 -0.13584166077E+02 -0.58230410468E+00  0.14669838434E+02  0.51100000000E-03 0.  1.
        -12    1    3    3    0    0 -0.90767963862E+01 -0.18844000325E+01 -0.19346833651E+02  0.21453185508E+02  0.00000000000E+00 0.  1.
</event>
<event>
 7    1  0.5006721E-012  0.5052886E+02  0.7816164E-02  0.1300439E+00
        -11   -1    0    0    0    0  0.00000000000E+00  0.00000000000E+00  0.45593999997E+02  0.45594000000E+02  0.51100000000E-03 0. -1.
         11   -1    0    0    0    0 -0.00000000000E+00 -0.00000000000E+00 -0.45593999997E+02  0.45594000000E+02  0.51100000000E-03 0.  1.
    9900012    2    1    2    0    0 -0.85735035538E+01  0.24417564759E+02 -0.31359902076E+02  0.50528857238E+02  0.29999992061E+02 0.  0.
         12    1    1    2    0    0  0.85735035538E+01 -0.24417564759E+02  0.31359902076E+02  0.40659142762E+02  0.00000000000E+00 0. -1.
         11    1    3    3    0    0 -0.18181791306E+02  0.22981080120E+02 -0.20665607656E+02  0.35857703755E+02  0.51100000000E-03 0.  1.
        -11    1    3    3    0    0  0.49889627310E+01 -0.54224035057E+00 -0.53556530420E+01  0.73394000774E+01  0.51100000000E-03 0. -1.
        -12    1    3    3    0    0  0.46193250208E+01  0.19787249893E+01 -0.53386413779E+01  0.73317534051E+01  0.00000000000E+00 0.  1.
</event>
<event>
 7    1  0.5006721E-012  0.5052885E+02  0.7816164E-02  0.1300439E+00
        -11   -1    0    0    0    0  0.00000000000E+00  0.00000000000E+00  0.45593999997E+02  0.45594000000E+02  0.51100000000E-03 0. -1.
         11   -1    0    0    0    0 -0.00000000000E+00 -0.00000000000E+00 -0.45593999997E+02  0.45594000000E+02  0.51100000000E-03 0.  1.
    9900012    2    1    2    0    0 -0.12870290818E+02  0.23758480547E+00  0.38567674969E+02  0.50528851155E+02  0.29999973571E+02 0.  0.
        -12    1    1    2    0    0  0.12870290818E+02 -0.23758480547E+00 -0.38567674969E+02  0.40659148845E+02  0.00000000000E+00 0.  1.
         11    1    3    3    0    0 -0.54572933158E+01  0.19897603153E+01  0.36766527393E+02  0.37222556780E+02  0.51100000000E-03 0. -1.
        -11    1    3    3    0    0  0.33725334876E+00 -0.95516607095E+00 -0.36562301404E+01  0.37939558702E+01  0.51100000000E-03 0.  1.
         12    1    3    3    0    0 -0.77502508509E+01 -0.79700943887E+00  0.54573777164E+01  0.95123385052E+01  0.00000000000E+00 0. -1.
</event>
<event>
 7    1  0.5006721E-012  0.5052887E+02  0.7816164E-02  0.1300439E+00
        -11   -1    0    0    0    0  0.00000000000E+00  0.00000000000E+00  0.45593999997E+02  0.45594000000E+02  0.51100000000E-03 0. -1.
         11   -1    0    0    0    0 -0.00000000000E+00 -0.00000000000E+00 -0.45593999997E+02  0.45594000000E+02  0.51100000000E-03 0.  1.
    9900012    2    1    2    0    0 -0.52790139149E+01 -0.28990676458E+02 -0.28014950839E+02  0.50528870891E+02  0.30000033559E+02 0.  0.
         12    1    1    2    0    0  0.52790139149E+01  0.28990676458E+02  0.28014950839E+02  0.40659129109E+02  0.00000000000E+00 0. -1.
         11    1    3    3    0    0  0.16803156094E+01 -0.60191983831E+00  0.22864812885E+00  0.17994577702E+01  0.51100000000E-03 0. -1.
        -11    1    3    3    0    0 -0.76171323995E+01 -0.30779199321E+02 -0.31461128981E+02  0.44667465273E+02  0.51100000000E-03 0.  1.
        -12    1    3    3    0    0  0.65780287520E+00  0.23904427017E+01  0.32175300132E+01  0.40619478478E+01  0.00000000000E+00 0.  1.
</event>
<event>
 7    1  0.5006721E-012  0.5052886E+02  0.7816164E-02  0.1300439E+00
        -11   -1    0    0    0    0  0.00000000000E+00  0.00000000000E+00  0.45593999997E+02  0.45594000000E+02  0.51100000000E-03 0. -1.
         11   -1    0    0    0    0 -0.00000000000E+00 -0.00000000000E+00 -0.45593999997E+02  0.45594000000E+02  0.51100000000E-03 0.  1.
    9900012    2    1    2    0    0  0.35088261741E+01  0.34375424139E+02 -0.21428580929E+02  0.50528859251E+02  0.29999998178E+02 0.  0.
         12    1    1    2    0    0 -0.35088261741E+01 -0.34375424139E+02  0.21428580929E+02  0.40659140749E+02  0.00000000000E+00 0. -1.
         11    1    3    3    0    0 -0.52790317171E+01  0.21249534849E+02  0.12129295952E+01  0.21929024274E+02  0.51100000000E-03 0. -1.
        -11    1    3    3    0    0  0.56477524005E+01  0.32292597529E+01 -0.12469318225E+02  0.14064463125E+02  0.51100000000E-03 0.  1.
         12    1    3    3    0    0  0.31401054907E+01  0.98966295375E+01 -0.10172192299E+02  0.14535371851E+02  0.00000000000E+00 0. -1.
</event>
<event>
 7    1  0.5006721E-012  0.5052879E+02  0.7816164E-02  0.1300439E+00
        -11   -1    0    0    0    0  0.00000000000E+00  0.00000000000E+00  0.45593999997E+02  0.45594000000E+02  0.51100000000E-03 0. -1.
         11   -1    0    0    0    0 -0.00000000000E+00 -0.00000000000E+00 -0.45593999997E+02  0.45594000000E+02  0.51100000000E-03 0.  1.
    9900012    2    1    2    0    0  0.12733020299E+02 -0.23374221226E+02  0.30735765169E+02  0.50528790903E+02  0.29999790427E+02 0.  0.
        -12    1    1    2    0    0 -0.12733020299E+02  0.23374221226E+02 -0.30735765169E+02  0.40659209097E+02  0.00000000000E+00 0.  1.
         11    1    3    3    0    0 -0.47785142318E+00 -0.19547708841E+02  0.21936842548E+02  0.29386499011E+02  0.51100000000E-03 0.  1.
        -11    1    3    3    0    0  0.14046871371E+02 -0.70602461853E+01  0.61583107236E+01  0.16884503628E+02  0.51100000000E-03 0. -1.
         12    1    3    3    0    0 -0.83599964879E+00  0.32337338004E+01  0.26406118980E+01  0.42577882639E+01  0.00000000000E+00 0. -1.
</event>
<event>
 7    1  0.5006721E-012  0.5052886E+02  0.7816164E-02  0.1300439E+00
        -11   -1    0    0    0    0  0.00000000000E+00  0.00000000000E+00  0.45593999997E+02  0.45594000000E+02  0.51100000000E-03 0. -1.
         11   -1    0    0    0    0 -0.00000000000E+00 -0.00000000000E+00 -0.45593999997E+02  0.45594000000E+02  0.51100000000E-03 0.  1.
    9900012    2    1    2    0    0 -0.63319106756E+01  0.36703894196E+02 -0.16306350797E+02  0.50528855662E+02  0.29999987270E+02 0.  0.
         12    1    1    2    0    0  0.63319106756E+01 -0.36703894196E+02  0.16306350797E+02  0.40659144338E+02  0.00000000000E+00 0. -1.
         11    1    3    3    0    0 -0.11793730237E+02  0.18522336259E+02 -0.19334878263E+01  0.22043307121E+02  0.51100000000E-03 0. -1.
        -11    1    3    3    0    0  0.95323868000E+01  0.11925148538E+02 -0.41372335551E+01  0.15817467164E+02  0.51100000000E-03 0.  1.
        -12    1    3    3    0    0 -0.40705672388E+01  0.62564093996E+01 -0.10235629416E+02  0.12668081376E+02  0.00000000000E+00 0.  1.
</event>
<event>
 7    1  0.5006721E-012  0.5052886E+02  0.7816164E-02  0.1300439E+00
        -11   -1    0    0    0    0  0.00000000000E+00  0.00000000000E+00  0.45593999997E+02  0.45594000000E+02  0.51100000000E-03 0.  1.
         11   -1    0    0    0    0 -0.00000000000E+00 -0.00000000000E+00 -0.45593999997E+02  0.45594000000E+02  0.51100000000E-03 0. -1.
    9900012    2    1    2    0    0 -0.17439560311E+02  0.35953173071E+02 -0.75097828344E+01  0.50528858888E+02  0.29999997077E+02 0.  0.
         12    1    1    2    0    0  0.17439560311E+02 -0.35953173071E+02  0.75097828344E+01  0.40659141112E+02  0.00000000000E+00 0. -1.
         11    1    3    3    0    0 -0.17293653119E+01 -0.23670786590E+01 -0.80370339131E+01  0.85549798446E+01  0.51100000000E-03 0. -1.
        -11    1    3    3    0    0 -0.12280294316E+02  0.23299650593E+02 -0.17659328711E+01  0.26396929090E+02  0.51100000000E-03 0.  1.
        -12    1    3    3    0    0 -0.34299006832E+01  0.15020601137E+02  0.22931839497E+01  0.15576949954E+02  0.00000000000E+00 0.  1.
</event>
<event>
 7    1  0.7463190E-012  0.5052887E+02  0.7816164E-02  0.1300439E+00
        -11   -1    0    0    0    0  0.00000000000E+00  0.00000000000E+00  0.45593999997E+02  0.45594000000E+02  0.51100000000E-03 0. -1.
         11   -1    0    0    0    0 -0.00000000000E+00 -0.00000000000E+00 -0.45593999997E+02  0.45594000000E+02  0.51100000000E-03 0.  1.
    9900012    2    1    2    0    0  0.96983897505E+01 -0.28581810831E+02  0.27243096144E+02  0.50528868656E+02  0.30000026767E+02 0.  0.
        -12    1    1    2    0    0 -0.96983897505E+01  0.28581810831E+02 -0.27243096144E+02  0.40659131344E+02  0.00000000000E+00 0.  1.
         11    1    3    3    0    0  0.11860085643E+02 -0.30601371384E+01  0.39108657726E+01  0.12857719165E+02  0.51100000000E-03 0. -1.
        -11    1    3    3    0    0 -0.70543592392E+01 -0.64506556514E+01  0.50863625118E+01  0.10828020432E+02  0.51100000000E-03 0.  1.
         12    1    3    3    0    0  0.48926633462E+01 -0.19071018041E+02  0.18245867859E+02  0.26843129059E+02  0.00000000000E+00 0. -1.
</event>
<event>
 7    1  0.5006721E-012  0.5052885E+02  0.7816164E-02  0.1300439E+00
        -11   -1    0    0    0    0  0.00000000000E+00  0.00000000000E+00  0.45593999997E+02  0.45594000000E+02  0.51100000000E-03 0. -1.
         11   -1    0    0    0    0 -0.00000000000E+00 -0.00000000000E+00 -0.45593999997E+02  0.45594000000E+02  0.51100000000E-03 0.  1.
    9900012    2    1    2    0    0  0.58568269666E+01  0.25623674123E+02 -0.31020816479E+02  0.50528854009E+02  0.29999982246E+02 0.  0.
         12    1    1    2    0    0 -0.58568269666E+01 -0.25623674123E+02  0.31020816479E+02  0.40659145991E+02  0.00000000000E+00 0. -1.
         11    1    3    3    0    0 -0.37444183355E+01 -0.19799099422E+01  0.25261166356E+01  0.49317317007E+01  0.51100000000E-03 0. -1.
        -11    1    3    3    0    0  0.69162272297E+01  0.19273018062E+02 -0.15992227671E+02  0.25981431263E+02  0.51100000000E-03 0.  1.
        -12    1    3    3    0    0  0.26850180724E+01  0.83305660030E+01 -0.17554705444E+02  0.19615691045E+02  0.00000000000E+00 0.  1.
</event>
<event>
 7    1  0.5006721E-012  0.5052888E+02  0.7816164E-02  0.1300439E+00
        -11   -1    0    0    0    0  0.00000000000E+00  0.00000000000E+00  0.45593999997E+02  0.45594000000E+02  0.51100000000E-03 0. -1.
         11   -1    0    0    0    0 -0.00000000000E+00 -0.00000000000E+00 -0.45593999997E+02  0.45594000000E+02  0.51100000000E-03 0.  1.
    9900012    2    1    2    0    0 -0.17918670857E+02  0.15354365713E+02  0.33110849062E+02  0.50528884942E+02  0.30000076268E+02 0.  0.
        -12    1    1    2    0    0  0.17918670857E+02 -0.15354365713E+02 -0.33110849062E+02  0.40659115058E+02  0.00000000000E+00 0.  1.
         11    1    3    3    0    0 -0.15280607913E+02  0.50800746092E+01  0.45316341116E+01  0.16728414276E+02  0.51100000000E-03 0. -1.
        -11    1    3    3    0    0 -0.72839138297E+00  0.48089944399E+01  0.27480742785E+02  0.27907852046E+02  0.51100000000E-03 0.  1.
        -12    1    3    3    0    0 -0.19096715607E+01  0.54652966638E+01  0.10984721653E+01  0.58926186192E+01  0.00000000000E+00 0.  1.
</event>
<event>
 7    1  0.5006721E-012  0.5052885E+02  0.7816164E-02  0.1300439E+00
        -11   -1    0    0    0    0  0.00000000000E+00  0.00000000000E+00  0.45593999997E+02  0.45594000000E+02  0.51100000000E-03 0.  1.
         11   -1    0    0    0    0 -0.00000000000E+00 -0.00000000000E+00 -0.45593999997E+02  0.45594000000E+02  0.51100000000E-03 0. -1.
    9900012    2    1    2    0    0 -0.22675701385E+02 -0.20194197913E+01 -0.33688285980E+02  0.50528854634E+02  0.29999984146E+02 0.  0.
         12    1    1    2    0    0  0.22675701385E+02  0.20194197913E+01  0.33688285980E+02  0.40659145366E+02  0.00000000000E+00 0. -1.
         11    1    3    3    0    0  0.24049242406E+00 -0.90039012775E+01 -0.43560410277E+01  0.10005157096E+02  0.51100000000E-03 0. -1.
        -11    1    3    3    0    0 -0.82486313496E+01  0.26209757171E+01 -0.21825143427E+02  0.23478635367E+02  0.51100000000E-03 0.  1.
        -12    1    3    3    0    0 -0.14667562459E+02  0.43635057690E+01 -0.75071015260E+01  0.17045062171E+02  0.00000000000E+00 0.  1.
</event>
<event>
 7    1  0.5006721E-012  0.5052895E+02  0.7816164E-02  0.1300438E+00
        -11   -1    0    0    0    0  0.00000000000E+00  0.00000000000E+00  0.45593999997E+02  0.45594000000E+02  0.51100000000E-03 0.  1.
         11   -1    0    0    0    0 -0.00000000000E+00 -0.00000000000E+00 -0.45593999997E+02  0.45594000000E+02  0.51100000000E-03 0. -1.
    9900012    2    1    2    0    0 -0.48621768934E+01 -0.31321708680E+02  0.25465043229E+02  0.50528946575E+02  0.30000263608E+02 0.  0.
        -12    1    1    2    0    0  0.48621768934E+01  0.31321708680E+02 -0.25465043229E+02  0.40659053425E+02  0.00000000000E+00 0.  1.
         11    1    3    3    0    0  0.78175357276E+01 -0.52308861203E+01  0.30954893607E+01  0.99024284445E+01  0.51100000000E-03 0. -1.
        -11    1    3    3    0    0 -0.95800874003E+01 -0.20925080305E+02  0.25064011337E+02  0.34027073411E+02  0.51100000000E-03 0.  1.
        -12    1    3    3    0    0 -0.30996252206E+01 -0.51657422548E+01 -0.26944574690E+01  0.65994447194E+01  0.00000000000E+00 0.  1.
</event>
<event>
 7    1  0.5006721E-012  0.5052886E+02  0.7816164E-02  0.1300439E+00
        -11   -1    0    0    0    0  0.00000000000E+00  0.00000000000E+00  0.45593999997E+02  0.45594000000E+02  0.51100000000E-03 0. -1.
         11   -1    0    0    0    0 -0.00000000000E+00 -0.00000000000E+00 -0.45593999997E+02  0.45594000000E+02  0.51100000000E-03 0.  1.
    9900012    2    1    2    0    0  0.11613032608E+02  0.61156875856E+01 -0.38482487868E+02  0.50528855475E+02  0.29999986701E+02 0.  0.
         12    1    1    2    0    0 -0.11613032608E+02 -0.61156875856E+01  0.38482487868E+02  0.40659144525E+02  0.00000000000E+00 0. -1.
         11    1    3    3    0    0 -0.45453747299E+01  0.84719431090E+01 -0.28656464123E+02  0.30226266521E+02  0.51100000000E-03 0. -1.
        -11    1    3    3    0    0  0.12083035282E+02 -0.34237735356E+00 -0.10094985978E+02  0.15748831894E+02  0.51100000000E-03 0.  1.
         12    1    3    3    0    0  0.40753720562E+01 -0.20138781699E+01  0.26896223275E+00  0.45537570600E+01  0.00000000000E+00 0. -1.
</event>
<event>
 7    1  0.5006721E-012  0.5052886E+02  0.7816164E-02  0.1300439E+00
        -11   -1    0    0    0    0  0.00000000000E+00  0.00000000000E+00  0.45593999997E+02  0.45594000000E+02  0.51100000000E-03 0. -1.
         11   -1    0    0    0    0 -0.00000000000E+00 -0.00000000000E+00 -0.45593999997E+02  0.45594000000E+02  0.51100000000E-03 0.  1.
    9900012    2    1    2    0    0  0.37762015347E+02  0.14095588368E+02 -0.53394995308E+01  0.50528859948E+02  0.30000000298E+02 0.  0.
         12    1    1    2    0    0 -0.37762015347E+02 -0.14095588368E+02  0.53394995308E+01  0.40659140052E+02  0.00000000000E+00 0. -1.
         11    1    3    3    0    0  0.52954302668E+01 -0.56591977585E+01  0.23798293950E+01  0.81075081986E+01  0.51100000000E-03 0. -1.
        -11    1    3    3    0    0  0.88771942880E+01  0.10526411199E+02 -0.99566217407E+01  0.16992475626E+02  0.51100000000E-03 0.  1.
         12    1    3    3    0    0  0.23589390792E+02  0.92283749279E+01  0.22372928149E+01  0.25428876123E+02  0.00000000000E+00 0. -1.
</event>
<event>
 7    1  0.5006721E-012  0.5052886E+02  0.7816164E-02  0.1300439E+00
        -11   -1    0    0    0    0  0.00000000000E+00  0.00000000000E+00  0.45593999997E+02  0.45594000000E+02  0.51100000000E-03 0. -1.
         11   -1    0    0    0    0 -0.00000000000E+00 -0.00000000000E+00 -0.45593999997E+02  0.45594000000E+02  0.51100000000E-03 0.  1.
    9900012    2    1    2    0    0  0.17642298203E+02 -0.98378680152E+01  0.35286417727E+02  0.50528860696E+02  0.30000002571E+02 0.  0.
        -12    1    1    2    0    0 -0.17642298203E+02  0.98378680152E+01 -0.35286417727E+02  0.40659139304E+02  0.00000000000E+00 0.  1.
         11    1    3    3    0    0  0.16813554789E+02 -0.22542997953E+01  0.63177307220E+01  0.18102243340E+02  0.51100000000E-03 0. -1.
        -11    1    3    3    0    0  0.57971123395E+01 -0.54659805167E+01  0.23173238486E+02  0.24504743146E+02  0.51100000000E-03 0.  1.
        -12    1    3    3    0    0 -0.49683689253E+01 -0.21175877032E+01  0.57954485189E+01  0.79218742097E+01  0.00000000000E+00 0.  1.
</event>
<event>
 7    1  0.5006721E-012  0.5052886E+02  0.7816164E-02  0.1300439E+00
        -11   -1    0    0    0    0  0.00000000000E+00  0.00000000000E+00  0.45593999997E+02  0.45594000000E+02  0.51100000000E-03 0. -1.
         11   -1    0    0    0    0 -0.00000000000E+00 -0.00000000000E+00 -0.45593999997E+02  0.45594000000E+02  0.51100000000E-03 0.  1.
    9900012    2    1    2    0    0  0.41568072438E+01 -0.38778206800E+02  0.11495083319E+02  0.50528864377E+02  0.30000013761E+02 0.  0.
        -12    1    1    2    0    0 -0.41568072438E+01  0.38778206800E+02 -0.11495083319E+02  0.40659135623E+02  0.00000000000E+00 0.  1.
         11    1    3    3    0    0  0.10043890327E+02 -0.34274760145E+02  0.94518884709E+01  0.36945596650E+02  0.51100000000E-03 0. -1.
        -11    1    3    3    0    0 -0.52690920721E+01  0.78638578891E+00  0.51564843299E+01  0.74142474182E+01  0.51100000000E-03 0.  1.
        -12    1    3    3    0    0 -0.61799101093E+00 -0.52898324442E+01 -0.31132894818E+01  0.61690203091E+01  0.00000000000E+00 0.  1.
</event>
<event>
 7    1  0.5006721E-012  0.5052887E+02  0.7816164E-02  0.1300439E+00
        -11   -1    0    0    0    0  0.00000000000E+00  0.00000000000E+00  0.45593999997E+02  0.45594000000E+02  0.51100000000E-03 0. -1.
         11   -1    0    0    0    0 -0.00000000000E+00 -0.00000000000E+00 -0.45593999997E+02  0.45594000000E+02  0.51100000000E-03 0.  1.
    9900012    2    1    2    0    0  0.31208810568E+02 -0.52546474350E+01  0.25525748859E+02  0.50528867797E+02  0.30000024155E+02 0.  0.
        -12    1    1    2    0    0 -0.31208810568E+02  0.52546474350E+01 -0.25525748859E+02  0.40659132203E+02  0.00000000000E+00 0.  1.
         11    1    3    3    0    0  0.24958609814E+02  0.51350702690E+01  0.11807558635E+02  0.28084151966E+02  0.51100000000E-03 0. -1.
        -11    1    3    3    0    0  0.87045805888E+01 -0.74369282702E+01  0.42236120350E+01  0.12203135835E+02  0.51100000000E-03 0.  1.
         12    1    3    3    0    0 -0.24543798350E+01 -0.29527894337E+01  0.94945781891E+01  0.10241579995E+02  0.00000000000E+00 0. -1.
</event>
<event>
 7    1  0.5006721E-012  0.5052884E+02  0.7816164E-02  0.1300439E+00
        -11   -1    0    0    0    0  0.00000000000E+00  0.00000000000E+00  0.45593999997E+02  0.45594000000E+02  0.51100000000E-03 0. -1.
         11   -1    0    0    0    0 -0.00000000000E+00 -0.00000000000E+00 -0.45593999997E+02  0.45594000000E+02  0.51100000000E-03 0.  1.
    9900012    2    1    2    0    0  0.11164620176E+02 -0.12234414217E-01 -0.39096275460E+02  0.50528835619E+02  0.29999926346E+02 0.  0.
         12    1    1    2    0    0 -0.11164620176E+02  0.12234414217E-01  0.39096275460E+02  0.40659164381E+02  0.00000000000E+00 0. -1.
         11    1    3    3    0    0  0.14312741894E+02 -0.60511146333E+01 -0.96233647937E+01  0.18277847769E+02  0.51100000000E-03 0. -1.
        -11    1    3    3    0    0  0.17665292875E+01  0.75923435358E+01 -0.20021926396E+02  0.21485852158E+02  0.51100000000E-03 0.  1.
         12    1    3    3    0    0 -0.49146510059E+01 -0.15534633167E+01 -0.94509842704E+01  0.10765135692E+02  0.00000000000E+00 0. -1.
</event>
<event>
 7    1  0.5006721E-012  0.5052883E+02  0.7816164E-02  0.1300439E+00
        -11   -1    0    0    0    0  0.00000000000E+00  0.00000000000E+00  0.45593999997E+02  0.45594000000E+02  0.51100000000E-03 0. -1.
         11   -1    0    0    0    0 -0.00000000000E+00 -0.00000000000E+00 -0.45593999997E+02  0.45594000000E+02  0.51100000000E-03 0.  1.
    9900012    2    1    2    0    0 -0.36345520124E+01  0.69205916132E+01 -0.39900673026E+02  0.50528828039E+02  0.29999903307E+02 0.  0.
         12    1    1    2    0    0  0.36345520124E+01 -0.69205916132E+01  0.39900673026E+02  0.40659171961E+02  0.00000000000E+00 0. -1.
         11    1    3    3    0    0 -0.80032069195E+01 -0.11396373802E+01 -0.36860052763E+02  0.37736104520E+02  0.51100000000E-03 0.  1.
        -11    1    3    3    0    0  0.59836985660E+01  0.30258128367E+01 -0.23454252411E-01  0.67052771915E+01  0.51100000000E-03 0. -1.
        -12    1    3    3    0    0 -0.16150436589E+01  0.50344161567E+01 -0.30171660106E+01  0.60874463279E+01  0.00000000000E+00 0.  1.
</event>
<event>
 7    1  0.5006721E-012  0.5052886E+02  0.7816164E-02  0.1300439E+00
        -11   -1    0    0    0    0  0.00000000000E+00  0.00000000000E+00  0.45593999997E+02  0.45594000000E+02  0.51100000000E-03 0. -1.
         11   -1    0    0    0    0 -0.00000000000E+00 -0.00000000000E+00 -0.45593999997E+02  0.45594000000E+02  0.51100000000E-03 0.  1.
    9900012    2    1    2    0    0  0.14764164766E+02 -0.86709063358E+01 -0.36878185199E+02  0.50528859312E+02  0.29999998364E+02 0.  0.
         12    1    1    2    0    0 -0.14764164766E+02  0.86709063358E+01  0.36878185199E+02  0.40659140688E+02  0.00000000000E+00 0. -1.
         11    1    3    3    0    0  0.11709615278E+02 -0.72290690473E+01 -0.79152793173E+01  0.15875332317E+02  0.51100000000E-03 0. -1.
        -11    1    3    3    0    0  0.55738664260E+01  0.75015209089E+01 -0.18010626902E+02  0.20290970518E+02  0.51100000000E-03 0.  1.
        -12    1    3    3    0    0 -0.25193169386E+01 -0.89433581973E+01 -0.10952278980E+02  0.14362556476E+02  0.00000000000E+00 0.  1.
</event>
<event>
 7    1  0.5006721E-012  0.5052881E+02  0.7816164E-02  0.1300439E+00
        -11   -1    0    0    0    0  0.00000000000E+00  0.00000000000E+00  0.45593999997E+02  0.45594000000E+02  0.51100000000E-03 0. -1.
         11   -1    0    0    0    0 -0.00000000000E+00 -0.00000000000E+00 -0.45593999997E+02  0.45594000000E+02  0.51100000000E-03 0.  1.
    9900012    2    1    2    0    0  0.15754670880E+02 -0.36016740387E+02  0.10380492768E+02  0.50528808263E+02  0.29999843195E+02 0.  0.
         12    1    1    2    0    0 -0.15754670880E+02  0.36016740387E+02 -0.10380492768E+02  0.40659191737E+02  0.00000000000E+00 0. -1.
         11    1    3    3    0    0 -0.58310889031E+01 -0.86852427304E+01  0.72209240993E+01  0.12711285702E+02  0.51100000000E-03 0. -1.
        -11    1    3    3    0    0  0.23509471632E+02 -0.24002924892E+02  0.15042252468E+01  0.33631805685E+02  0.51100000000E-03 0.  1.
        -12    1    3    3    0    0 -0.19237118487E+01 -0.33285727643E+01  0.16553434219E+01  0.41857168763E+01  0.00000000000E+00 0.  1.
</event>
<event>
 7    1  0.5006721E-012  0.5052886E+02  0.7816164E-02  0.1300439E+00
        -11   -1    0    0    0    0  0.00000000000E+00  0.00000000000E+00  0.45593999997E+02  0.45594000000E+02  0.51100000000E-03 0. -1.
         11   -1    0    0    0    0 -0.00000000000E+00 -0.00000000000E+00 -0.45593999997E+02  0.45594000000E+02  0.51100000000E-03 0.  1.
    9900012    2    1    2    0    0  0.10202599084E+02 -0.24674419703E+02  0.30663422974E+02  0.50528861737E+02  0.30000005737E+02 0.  0.
        -12    1    1    2    0    0 -0.10202599084E+02  0.24674419703E+02 -0.30663422974E+02  0.40659138263E+02  0.00000000000E+00 0.  1.
         11    1    3    3    0    0  0.55543590585E+01 -0.27100465217E+02  0.26710941664E+02  0.38454655432E+02  0.51100000000E-03 0. -1.
        -11    1    3    3    0    0  0.21808079156E+01  0.27819109712E+01 -0.30327020405E+01  0.46574922162E+01  0.51100000000E-03 0.  1.
         12    1    3    3    0    0  0.24674321099E+01 -0.35586545723E+00  0.69851833504E+01  0.74167140891E+01  0.00000000000E+00 0. -1.
</event>
<event>
 7    1  0.5006721E-012  0.5052882E+02  0.7816164E-02  0.1300439E+00
        -11   -1    0    0    0    0  0.00000000000E+00  0.00000000000E+00  0.45593999997E+02  0.45594000000E+02  0.51100000000E-03 0.  1.
         11   -1    0    0    0    0 -0.00000000000E+00 -0.00000000000E+00 -0.45593999997E+02  0.45594000000E+02  0.51100000000E-03 0. -1.
    9900012    2    1    2    0    0  0.17377867751E+01  0.31588055305E+02 -0.25541013619E+02  0.50528824928E+02  0.29999893852E+02 0.  0.
         12    1    1    2    0    0 -0.17377867751E+01 -0.31588055305E+02  0.25541013619E+02  0.40659175072E+02  0.00000000000E+00 0. -1.
         11    1    3    3    0    0  0.40743848053E+01  0.16124687321E+02 -0.28101751526E+02  0.32654472769E+02  0.51100000000E-03 0. -1.
        -11    1    3    3    0    0 -0.48953752621E+01  0.54247866260E+01  0.15119841448E+01  0.74618432850E+01  0.51100000000E-03 0.  1.
         12    1    3    3    0    0  0.25587772320E+01  0.10038581358E+02  0.10487537625E+01  0.10412508874E+02  0.00000000000E+00 0. -1.
</event>
<event>
 7    1  0.7128592E-012  0.5052886E+02  0.7816164E-02  0.1300439E+00
        -11   -1    0    0    0    0  0.00000000000E+00  0.00000000000E+00  0.45593999997E+02  0.45594000000E+02  0.51100000000E-03 0. -1.
         11   -1    0    0    0    0 -0.00000000000E+00 -0.00000000000E+00 -0.45593999997E+02  0.45594000000E+02  0.51100000000E-03 0.  1.
    9900012    2    1    2    0    0 -0.96133323144E+01 -0.26710695810E+02  0.29108210729E+02  0.50528863749E+02  0.30000011852E+02 0.  0.
        -12    1    1    2    0    0  0.96133323144E+01  0.26710695810E+02 -0.29108210729E+02  0.40659136251E+02  0.00000000000E+00 0.  1.
         11    1    3    3    0    0 -0.17244741243E+02 -0.12614609246E+02  0.17922427502E+02  0.27887683209E+02  0.51100000000E-03 0. -1.
        -11    1    3    3    0    0  0.34093242821E+01 -0.31865380302E+01 -0.19446451732E+01  0.50556069655E+01  0.51100000000E-03 0.  1.
         12    1    3    3    0    0  0.42220846461E+01 -0.10909548534E+02  0.13130428400E+02  0.17585573575E+02  0.00000000000E+00 0. -1.
</event>
<event>
 7    1  0.5006721E-012  0.5052886E+02  0.7816164E-02  0.1300439E+00
        -11   -1    0    0    0    0  0.00000000000E+00  0.00000000000E+00  0.45593999997E+02  0.45594000000E+02  0.51100000000E-03 0. -1.
         11   -1    0    0    0    0 -0.00000000000E+00 -0.00000000000E+00 -0.45593999997E+02  0.45594000000E+02  0.51100000000E-03 0.  1.
    9900012    2    1    2    0    0  0.14742147983E+02 -0.14555931829E+02  0.34985129379E+02  0.50528863804E+02  0.30000012017E+02 0.  0.
        -12    1    1    2    0    0 -0.14742147983E+02  0.14555931829E+02 -0.34985129379E+02  0.40659136196E+02  0.00000000000E+00 0.  1.
         11    1    3    3    0    0  0.10819359751E+02 -0.15325438220E+02  0.72711226522E+01  0.20119563289E+02  0.51100000000E-03 0. -1.
        -11    1    3    3    0    0  0.78804458926E+00 -0.40121090747E+00 -0.10945067767E+01  0.14070997876E+01  0.51100000000E-03 0.  1.
         12    1    3    3    0    0  0.31347436428E+01  0.11707172987E+01  0.28808513504E+02  0.29002200727E+02  0.00000000000E+00 0. -1.
</event>
<event>
 7    1  0.5006721E-012  0.5052886E+02  0.7816164E-02  0.1300439E+00
        -11   -1    0    0    0    0  0.00000000000E+00  0.00000000000E+00  0.45593999997E+02  0.45594000000E+02  0.51100000000E-03 0. -1.
         11   -1    0    0    0    0 -0.00000000000E+00 -0.00000000000E+00 -0.45593999997E+02  0.45594000000E+02  0.51100000000E-03 0.  1.
    9900012    2    1    2    0    0 -0.74578312821E+01 -0.22937430792E+02 -0.32732557248E+02  0.50528864707E+02  0.30000014765E+02 0.  0.
         12    1    1    2    0    0  0.74578312821E+01  0.22937430792E+02  0.32732557248E+02  0.40659135293E+02  0.00000000000E+00 0. -1.
         11    1    3    3    0    0 -0.44634122094E+01 -0.20313507843E+02 -0.33565589916E+02  0.39486826615E+02  0.51100000000E-03 0.  1.
        -11    1    3    3    0    0 -0.29627059604E+00 -0.49564630901E+01  0.39190921472E+01  0.63256293085E+01  0.51100000000E-03 0. -1.
        -12    1    3    3    0    0 -0.26981484767E+01  0.23325401410E+01 -0.30860594791E+01  0.47164087842E+01  0.00000000000E+00 0.  1.
</event>
<event>
 7    1  0.5006721E-012  0.5052886E+02  0.7816164E-02  0.1300439E+00
        -11   -1    0    0    0    0  0.00000000000E+00  0.00000000000E+00  0.45593999997E+02  0.45594000000E+02  0.51100000000E-03 0. -1.
         11   -1    0    0    0    0 -0.00000000000E+00 -0.00000000000E+00 -0.45593999997E+02  0.45594000000E+02  0.51100000000E-03 0.  1.
    9900012    2    1    2    0    0  0.37133391174E+02  0.16561221783E+02 -0.53025329260E-01  0.50528860576E+02  0.30000002207E+02 0.  0.
         12    1    1    2    0    0 -0.37133391174E+02 -0.16561221783E+02  0.53025329260E-01  0.40659139424E+02  0.00000000000E+00 0. -1.
         11    1    3    3    0    0  0.15939110845E+02 -0.19782194313E+01 -0.97176331379E+01  0.18772346702E+02  0.51100000000E-03 0. -1.
        -11    1    3    3    0    0  0.77203718195E+01  0.14078763037E+02  0.50468210834E+01  0.16831105519E+02  0.51100000000E-03 0.  1.
        -12    1    3    3    0    0  0.13473908509E+02  0.44606781774E+01  0.46177867252E+01  0.14925408355E+02  0.00000000000E+00 0.  1.
</event>
<event>
 7    1  0.5006721E-012  0.5052886E+02  0.7816164E-02  0.1300439E+00
        -11   -1    0    0    0    0  0.00000000000E+00  0.00000000000E+00  0.45593999997E+02  0.45594000000E+02  0.51100000000E-03 0. -1.
         11   -1    0    0    0    0 -0.00000000000E+00 -0.00000000000E+00 -0.45593999997E+02  0.45594000000E+02  0.51100000000E-03 0.  1.
    9900012    2    1    2    0    0 -0.17458817698E+02  0.19874950313E+02 -0.30876226300E+02  0.50528864300E+02  0.30000013526E+02 0.  0.
         12    1    1    2    0    0  0.17458817698E+02 -0.19874950313E+02  0.30876226300E+02  0.40659135700E+02  0.00000000000E+00 0. -1.
         11    1    3    3    0    0 -0.17158678899E+02  0.14769868428E+01 -0.20322625994E+02  0.26638522467E+02  0.51100000000E-03 0.  1.
        -11    1    3    3    0    0 -0.31244437275E+01  0.17761667035E+02 -0.70946714183E+01  0.19379714324E+02  0.51100000000E-03 0. -1.
        -12    1    3    3    0    0  0.28243049277E+01  0.63629643480E+00 -0.34589288869E+01  0.45106275087E+01  0.00000000000E+00 0.  1.
</event>
<event>
 7    1  0.5006721E-012  0.5052886E+02  0.7816164E-02  0.1300439E+00
        -11   -1    0    0    0    0  0.00000000000E+00  0.00000000000E+00  0.45593999997E+02  0.45594000000E+02  0.51100000000E-03 0. -1.
         11   -1    0    0    0    0 -0.00000000000E+00 -0.00000000000E+00 -0.45593999997E+02  0.45594000000E+02  0.51100000000E-03 0.  1.
    9900012    2    1    2    0    0  0.11427184550E+02 -0.24749177195E+02  0.30167262652E+02  0.50528855217E+02  0.29999985919E+02 0.  0.
        -12    1    1    2    0    0 -0.11427184550E+02  0.24749177195E+02 -0.30167262652E+02  0.40659144783E+02  0.00000000000E+00 0.  1.
         11    1    3    3    0    0 -0.28670283639E+01 -0.43788353884E+01  0.16037666829E+02  0.16870115843E+02  0.51100000000E-03 0. -1.
        -11    1    3    3    0    0  0.97966190150E+01 -0.49584491186E+01 -0.17020356677E+01  0.11111115491E+02  0.51100000000E-03 0.  1.
        -12    1    3    3    0    0  0.44975938985E+01 -0.15411892688E+02  0.15831631491E+02  0.22547623883E+02  0.00000000000E+00 0.  1.
</event>
<event>
 7    1  0.5006721E-012  0.5052888E+02  0.7816164E-02  0.1300439E+00
        -11   -1    0    0    0    0  0.00000000000E+00  0.00000000000E+00  0.45593999997E+02  0.45594000000E+02  0.51100000000E-03 0.  1.
         11   -1    0    0    0    0 -0.00000000000E+00 -0.00000000000E+00 -0.45593999997E+02  0.45594000000E+02  0.51100000000E-03 0. -1.
    9900012    2    1    2    0    0  0.19220066213E+02  0.23831853957E+02 -0.26754360294E+02  0.50528880445E+02  0.30000062600E+02 0.  0.
         12    1    1    2    0    0 -0.19220066213E+02 -0.23831853957E+02  0.26754360294E+02  0.40659119555E+02  0.00000000000E+00 0. -1.
         11    1    3    3    0    0  0.13230335269E+01  0.57748141132E+01 -0.14969607133E+02  0.16099317803E+02  0.51100000000E-03 0. -1.
        -11    1    3    3    0    0  0.39693246948E+01  0.28960055263E+01  0.56242717189E+01  0.74682540912E+01  0.51100000000E-03 0.  1.
        -12    1    3    3    0    0  0.13927707991E+02  0.15161034318E+02 -0.17409024880E+02  0.26961308551E+02  0.00000000000E+00 0.  1.
</event>
<event>
 7    1  0.5006721E-012  0.5052886E+02  0.7816164E-02  0.1300439E+00
        -11   -1    0    0    0    0  0.00000000000E+00  0.00000000000E+00  0.45593999997E+02  0.45594000000E+02  0.51100000000E-03 0. -1.
         11   -1    0    0    0    0 -0.00000000000E+00 -0.00000000000E+00 -0.45593999997E+02  0.45594000000E+02  0.51100000000E-03 0.  1.
    9900012    2    1    2    0    0 -0.23032350188E+01  0.10054105070E+02 -0.39329073409E+02  0.50528856680E+02  0.29999990364E+02 0.  0.
         12    1    1    2    0    0  0.23032350188E+01 -0.10054105070E+02  0.39329073409E+02  0.40659143320E+02  0.00000000000E+00 0. -1.
         11    1    3    3    0    0  0.64856424375E+00 -0.55741942244E+01 -0.70204262602E+01  0.89876950308E+01  0.51100000000E-03 0. -1.
        -11    1    3    3    0    0  0.29816875045E+01  0.12644636850E+02 -0.32391028939E+02  0.34899227175E+02  0.51100000000E-03 0.  1.
        -12    1    3    3    0    0 -0.59334867670E+01  0.29836624447E+01  0.82381790088E-01  0.66419344740E+01  0.00000000000E+00 0.  1.
</event>
<event>
 7    1  0.5006721E-012  0.5052887E+02  0.7816164E-02  0.1300439E+00
        -11   -1    0    0    0    0  0.00000000000E+00  0.00000000000E+00  0.45593999997E+02  0.45594000000E+02  0.51100000000E-03 0. -1.
         11   -1    0    0    0    0 -0.00000000000E+00 -0.00000000000E+00 -0.45593999997E+02  0.45594000000E+02  0.51100000000E-03 0.  1.
    9900012    2    1    2    0    0  0.10345030315E+02 -0.26971512038E+02  0.28612633529E+02  0.50528869275E+02  0.30000028647E+02 0.  0.
        -12    1    1    2    0    0 -0.10345030315E+02  0.26971512038E+02 -0.28612633529E+02  0.40659130725E+02  0.00000000000E+00 0.  1.
         11    1    3    3    0    0  0.47873588861E-01 -0.13842851587E+02  0.81283239327E+01  0.16052927526E+02  0.51100000000E-03 0. -1.
        -11    1    3    3    0    0  0.70778572706E+01  0.27699654401E+01 -0.87989262054E+00  0.76513386651E+01  0.51100000000E-03 0.  1.
        -12    1    3    3    0    0  0.32192994558E+01 -0.15898625892E+02  0.21364202217E+02  0.26824603084E+02  0.00000000000E+00 0.  1.
</event>
<event>
 7    1  0.5431141E-012  0.5052886E+02  0.7816164E-02  0.1300439E+00
        -11   -1    0    0    0    0  0.00000000000E+00  0.00000000000E+00  0.45593999997E+02  0.45594000000E+02  0.51100000000E-03 0. -1.
         11   -1    0    0    0    0 -0.00000000000E+00 -0.00000000000E+00 -0.45593999997E+02  0.45594000000E+02  0.51100000000E-03 0.  1.
    9900012    2    1    2    0    0  0.96449050265E+01 -0.35502065491E+02  0.17313140247E+02  0.50528859917E+02  0.30000000204E+02 0.  0.
        -12    1    1    2    0    0 -0.96449050265E+01  0.35502065491E+02 -0.17313140247E+02  0.40659140083E+02  0.00000000000E+00 0.  1.
         11    1    3    3    0    0  0.15484538033E+00 -0.29657559215E+02  0.13498151668E+02  0.32585194405E+02  0.51100000000E-03 0. -1.
        -11    1    3    3    0    0  0.10669263826E+01 -0.79510043166E+00 -0.47375923100E+01  0.49209041607E+01  0.51100000000E-03 0.  1.
         12    1    3    3    0    0  0.84231332636E+01 -0.50494058443E+01  0.85525808890E+01  0.13022761352E+02  0.00000000000E+00 0. -1.
</event>
<event>
 7    1  0.5006721E-012  0.5052886E+02  0.7816164E-02  0.1300439E+00
        -11   -1    0    0    0    0  0.00000000000E+00  0.00000000000E+00  0.45593999997E+02  0.45594000000E+02  0.51100000000E-03 0. -1.
         11   -1    0    0    0    0 -0.00000000000E+00 -0.00000000000E+00 -0.45593999997E+02  0.45594000000E+02  0.51100000000E-03 0.  1.
    9900012    2    1    2    0    0 -0.80752720532E+01 -0.43281659979E+01  0.39613411559E+02  0.50528863081E+02  0.30000009821E+02 0.  0.
        -12    1    1    2    0    0  0.80752720532E+01  0.43281659979E+01 -0.39613411559E+02  0.40659136919E+02  0.00000000000E+00 0.  1.
         11    1    3    3    0    0 -0.13103114504E+02 -0.14518726900E+00  0.33840127566E+02  0.36288661080E+02  0.51100000000E-03 0. -1.
        -11    1    3    3    0    0  0.84229820344E+01 -0.32042947278E+01  0.23337604550E+01  0.93091658690E+01  0.51100000000E-03 0.  1.
        -12    1    3    3    0    0 -0.33951395834E+01 -0.97868400108E+00  0.34395235385E+01  0.49310361322E+01  0.00000000000E+00 0.  1.
</event>
<event>
 7    1  0.5006721E-012  0.5052890E+02  0.7816164E-02  0.1300439E+00
        -11   -1    0    0    0    0  0.00000000000E+00  0.00000000000E+00  0.45593999997E+02  0.45594000000E+02  0.51100000000E-03 0. -1.
         11   -1    0    0    0    0 -0.00000000000E+00 -0.00000000000E+00 -0.45593999997E+02  0.45594000000E+02  0.51100000000E-03 0.  1.
    9900012    2    1    2    0    0  0.31759382545E+01  0.34741068828E+02  0.20883822564E+02  0.50528899026E+02  0.30000119080E+02 0.  0.
        -12    1    1    2    0    0 -0.31759382545E+01 -0.34741068828E+02 -0.20883822564E+02  0.40659100974E+02  0.00000000000E+00 0.  1.
         11    1    3    3    0    0 -0.19185532006E+01  0.67189231044E+01  0.24720878801E+01  0.74118818673E+01  0.51100000000E-03 0. -1.
        -11    1    3    3    0    0  0.15226226963E+02  0.10635550086E+02  0.62106254058E+01  0.19583788738E+02  0.51100000000E-03 0.  1.
        -12    1    3    3    0    0 -0.10131735508E+02  0.17386595638E+02  0.12201109278E+02  0.23533228421E+02  0.00000000000E+00 0.  1.
</event>
<event>
 7    1  0.5006721E-012  0.5052885E+02  0.7816164E-02  0.1300439E+00
        -11   -1    0    0    0    0  0.00000000000E+00  0.00000000000E+00  0.45593999997E+02  0.45594000000E+02  0.51100000000E-03 0. -1.
         11   -1    0    0    0    0 -0.00000000000E+00 -0.00000000000E+00 -0.45593999997E+02  0.45594000000E+02  0.51100000000E-03 0.  1.
    9900012    2    1    2    0    0  0.25721757787E+02  0.31043786792E+02 -0.52764334974E+01  0.50528852536E+02  0.29999977768E+02 0.  0.
         12    1    1    2    0    0 -0.25721757787E+02 -0.31043786792E+02  0.52764334974E+01  0.40659147464E+02  0.00000000000E+00 0. -1.
         11    1    3    3    0    0  0.36593298047E+01  0.11662241828E+02 -0.56080415949E+01  0.13448000218E+02  0.51100000000E-03 0. -1.
        -11    1    3    3    0    0  0.18698871336E+02  0.19552849734E+01 -0.29537327449E+01  0.19031433628E+02  0.51100000000E-03 0.  1.
        -12    1    3    3    0    0  0.33635566467E+01  0.17426259991E+02  0.32853408424E+01  0.18049418690E+02  0.00000000000E+00 0.  1.
</event>
<event>
 7    1  0.5006721E-012  0.5052886E+02  0.7816164E-02  0.1300439E+00
        -11   -1    0    0    0    0  0.00000000000E+00  0.00000000000E+00  0.45593999997E+02  0.45594000000E+02  0.51100000000E-03 0. -1.
         11   -1    0    0    0    0 -0.00000000000E+00 -0.00000000000E+00 -0.45593999997E+02  0.45594000000E+02  0.51100000000E-03 0.  1.
    9900012    2    1    2    0    0  0.24960846228E+02 -0.33563965164E+01 -0.31919524833E+02  0.50528864402E+02  0.30000013836E+02 0.  0.
         12    1    1    2    0    0 -0.24960846228E+02  0.33563965164E+01  0.31919524833E+02  0.40659135598E+02  0.00000000000E+00 0. -1.
         11    1    3    3    0    0  0.12415876661E+02  0.98012301124E+01 -0.86747143512E+01  0.18040753153E+02  0.51100000000E-03 0. -1.
        -11    1    3    3    0    0  0.10995121885E+02 -0.12028845035E+02 -0.25030357284E+02  0.29868120198E+02  0.51100000000E-03 0.  1.
        -12    1    3    3    0    0  0.15498476825E+01 -0.11287815937E+01  0.17855468022E+01  0.26199910512E+01  0.00000000000E+00 0.  1.
</event>
<event>
 7    1  0.5006721E-012  0.5052886E+02  0.7816164E-02  0.1300439E+00
        -11   -1    0    0    0    0  0.00000000000E+00  0.00000000000E+00  0.45593999997E+02  0.45594000000E+02  0.51100000000E-03 0. -1.
         11   -1    0    0    0    0 -0.00000000000E+00 -0.00000000000E+00 -0.45593999997E+02  0.45594000000E+02  0.51100000000E-03 0.  1.
    9900012    2    1    2    0    0 -0.30222540582E+02 -0.25183989967E+01  0.27081751258E+02  0.50528861496E+02  0.30000005002E+02 0.  0.
        -12    1    1    2    0    0  0.30222540582E+02  0.25183989967E+01 -0.27081751258E+02  0.40659138504E+02  0.00000000000E+00 0.  1.
         11    1    3    3    0    0 -0.21488407338E+02 -0.46595007594E+01  0.27049085708E+02  0.34858508791E+02  0.51100000000E-03 0. -1.
        -11    1    3    3    0    0 -0.26020592505E+01  0.51229947200E+01 -0.46557372562E+01  0.73953821338E+01  0.51100000000E-03 0.  1.
        -12    1    3    3    0    0 -0.61320739939E+01 -0.29818929572E+01  0.46884028057E+01  0.82749705705E+01  0.00000000000E+00 0.  1.
</event>
<event>
 7    1  0.5006721E-012  0.5052886E+02  0.7816164E-02  0.1300439E+00
        -11   -1    0    0    0    0  0.00000000000E+00  0.00000000000E+00  0.45593999997E+02  0.45594000000E+02  0.51100000000E-03 0. -1.
         11   -1    0    0    0    0 -0.00000000000E+00 -0.00000000000E+00 -0.45593999997E+02  0.45594000000E+02  0.51100000000E-03 0.  1.
    9900012    2    1    2    0    0  0.27999627882E+02 -0.48037237449E+00 -0.29478053957E+02  0.50528860999E+02  0.30000003494E+02 0.  0.
         12    1    1    2    0    0 -0.27999627882E+02  0.48037237449E+00  0.29478053957E+02  0.40659139001E+02  0.00000000000E+00 0. -1.
         11    1    3    3    0    0 -0.89905966118E+00 -0.96333931751E+01 -0.52586276892E+01  0.11011981555E+02  0.51100000000E-03 0. -1.
        -11    1    3    3    0    0  0.25281520765E+02  0.93514312591E+01 -0.18312560030E+02  0.32587642042E+02  0.51100000000E-03 0.  1.
        -12    1    3    3    0    0  0.36171667786E+01 -0.19841045846E+00 -0.59068662381E+01  0.69292374017E+01  0.00000000000E+00 0.  1.
</event>
<event>
 7    1  0.6301021E-012  0.5052888E+02  0.7816164E-02  0.1300439E+00
        -11   -1    0    0    0    0  0.00000000000E+00  0.00000000000E+00  0.45593999997E+02  0.45594000000E+02  0.51100000000E-03 0. -1.
         11   -1    0    0    0    0 -0.00000000000E+00 -0.00000000000E+00 -0.45593999997E+02  0.45594000000E+02  0.51100000000E-03 0.  1.
    9900012    2    1    2    0    0  0.14445887140E+01  0.15988468182E+02  0.37355675134E+02  0.50528875365E+02  0.30000047160E+02 0.  0.
        -12    1    1    2    0    0 -0.14445887140E+01 -0.15988468182E+02 -0.37355675134E+02  0.40659124635E+02  0.00000000000E+00 0.  1.
         11    1    3    3    0    0  0.45171833274E+01  0.15281054391E+02  0.34363291582E+02  0.37878112112E+02  0.51100000000E-03 0. -1.
        -11    1    3    3    0    0  0.25887087171E+01  0.30008353346E+00 -0.32814746808E+01  0.41904103965E+01  0.51100000000E-03 0.  1.
         12    1    3    3    0    0 -0.56613033305E+01  0.40733025732E+00  0.62738582326E+01  0.84603528567E+01  0.00000000000E+00 0. -1.
</event>
<event>
 7    1  0.5006721E-012  0.5052887E+02  0.7816164E-02  0.1300439E+00
        -11   -1    0    0    0    0  0.00000000000E+00  0.00000000000E+00  0.45593999997E+02  0.45594000000E+02  0.51100000000E-03 0. -1.
         11   -1    0    0    0    0 -0.00000000000E+00 -0.00000000000E+00 -0.45593999997E+02  0.45594000000E+02  0.51100000000E-03 0.  1.
    9900012    2    1    2    0    0 -0.78981637833E+01 -0.30472755688E+02  0.25733144791E+02  0.50528873458E+02  0.30000041362E+02 0.  0.
        -12    1    1    2    0    0  0.78981637833E+01  0.30472755688E+02 -0.25733144791E+02  0.40659126542E+02  0.00000000000E+00 0.  1.
         11    1    3    3    0    0  0.71759979812E+01 -0.11944748841E+02  0.14341619126E+02  0.19996349950E+02  0.51100000000E-03 0. -1.
        -11    1    3    3    0    0 -0.14844122332E+02 -0.10455083757E+02  0.12957493282E+02  0.22305904523E+02  0.51100000000E-03 0.  1.
         12    1    3    3    0    0 -0.23003943278E+00 -0.80729230897E+01 -0.15659676165E+01  0.82266189852E+01  0.00000000000E+00 0. -1.
</event>
<event>
 7    1  0.5006721E-012  0.5052886E+02  0.7816164E-02  0.1300439E+00
        -11   -1    0    0    0    0  0.00000000000E+00  0.00000000000E+00  0.45593999997E+02  0.45594000000E+02  0.51100000000E-03 0. -1.
         11   -1    0    0    0    0 -0.00000000000E+00 -0.00000000000E+00 -0.45593999997E+02  0.45594000000E+02  0.51100000000E-03 0.  1.
    9900012    2    1    2    0    0 -0.13659081746E+02  0.31524759594E+01  0.38166173336E+02  0.50528863192E+02  0.30000010159E+02 0.  0.
        -12    1    1    2    0    0  0.13659081746E+02 -0.31524759594E+01 -0.38166173336E+02  0.40659136808E+02  0.00000000000E+00 0.  1.
         11    1    3    3    0    0 -0.10606671776E+02 -0.41865857280E+01  0.32969350403E+02  0.34885628165E+02  0.51100000000E-03 0. -1.
        -11    1    3    3    0    0  0.27674069726E+01  0.21677963899E+01 -0.27912757045E+01  0.44887752071E+01  0.51100000000E-03 0.  1.
         12    1    3    3    0    0 -0.58198169430E+01  0.51712652975E+01  0.79880986383E+01  0.11154459820E+02  0.00000000000E+00 0. -1.
</event>
<event>
 7    1  0.5006721E-012  0.5052885E+02  0.7816164E-02  0.1300439E+00
        -11   -1    0    0    0    0  0.00000000000E+00  0.00000000000E+00  0.45593999997E+02  0.45594000000E+02  0.51100000000E-03 0. -1.
         11   -1    0    0    0    0 -0.00000000000E+00 -0.00000000000E+00 -0.45593999997E+02  0.45594000000E+02  0.51100000000E-03 0.  1.
    9900012    2    1    2    0    0 -0.21287963569E+02  0.75905844273E+01 -0.33798999305E+02  0.50528847047E+02  0.29999961084E+02 0.  0.
         12    1    1    2    0    0  0.21287963569E+02 -0.75905844273E+01  0.33798999305E+02  0.40659152953E+02  0.00000000000E+00 0. -1.
         11    1    3    3    0    0 -0.16776900945E+02  0.11290547138E+02 -0.16260958067E+02  0.25949173735E+02  0.51100000000E-03 0. -1.
        -11    1    3    3    0    0  0.53824658231E+01 -0.53761370236E+00 -0.11131357759E+02  0.12376069354E+02  0.51100000000E-03 0.  1.
        -12    1    3    3    0    0 -0.98935284470E+01 -0.31623490081E+01 -0.64066834782E+01  0.12203603958E+02  0.00000000000E+00 0.  1.
</event>
<event>
 7    1  0.5006721E-012  0.5052886E+02  0.7816164E-02  0.1300439E+00
        -11   -1    0    0    0    0  0.00000000000E+00  0.00000000000E+00  0.45593999997E+02  0.45594000000E+02  0.51100000000E-03 0. -1.
         11   -1    0    0    0    0 -0.00000000000E+00 -0.00000000000E+00 -0.45593999997E+02  0.45594000000E+02  0.51100000000E-03 0.  1.
    9900012    2    1    2    0    0  0.43222588060E+01  0.20942528415E+02  0.34581707600E+02  0.50528856894E+02  0.29999991014E+02 0.  0.
        -12    1    1    2    0    0 -0.43222588060E+01 -0.20942528415E+02 -0.34581707600E+02  0.40659143106E+02  0.00000000000E+00 0.  1.
         11    1    3    3    0    0 -0.84035997160E+01  0.19528162299E+02  0.22576417135E+02  0.31010711406E+02  0.51100000000E-03 0. -1.
        -11    1    3    3    0    0  0.40267025417E+00 -0.24663657009E+00 -0.12542939049E+01  0.13402337081E+01  0.51100000000E-03 0.  1.
         12    1    3    3    0    0  0.12323188268E+02  0.16610026858E+01  0.13259584370E+02  0.18177911780E+02  0.00000000000E+00 0. -1.
</event>
<event>
 7    1  0.5006721E-012  0.5052883E+02  0.7816164E-02  0.1300439E+00
        -11   -1    0    0    0    0  0.00000000000E+00  0.00000000000E+00  0.45593999997E+02  0.45594000000E+02  0.51100000000E-03 0. -1.
         11   -1    0    0    0    0 -0.00000000000E+00 -0.00000000000E+00 -0.45593999997E+02  0.45594000000E+02  0.51100000000E-03 0.  1.
    9900012    2    1    2    0    0 -0.24776391425E+02 -0.13466592217E+02 -0.29290777591E+02  0.50528827235E+02  0.29999900865E+02 0.  0.
         12    1    1    2    0    0  0.24776391425E+02  0.13466592217E+02  0.29290777591E+02  0.40659172765E+02  0.00000000000E+00 0. -1.
         11    1    3    3    0    0 -0.78563882324E+01 -0.47258850168E+01 -0.14101508301E+01  0.92760633285E+01  0.51100000000E-03 0. -1.
        -11    1    3    3    0    0 -0.34622486096E+01  0.81184748657E+01 -0.85060032159E+01  0.12257605417E+02  0.51100000000E-03 0.  1.
        -12    1    3    3    0    0 -0.13457754583E+02 -0.16859182066E+02 -0.19374623545E+02  0.28995158490E+02  0.00000000000E+00 0.  1.
</event>
<event>
 7    1  0.5006721E-012  0.5052886E+02  0.7816164E-02  0.1300439E+00
        -11   -1    0    0    0    0  0.00000000000E+00  0.00000000000E+00  0.45593999997E+02  0.45594000000E+02  0.51100000000E-03 0. -1.
         11   -1    0    0    0    0 -0.00000000000E+00 -0.00000000000E+00 -0.45593999997E+02  0.45594000000E+02  0.51100000000E-03 0.  1.
    9900012    2    1    2    0    0 -0.37624127573E+01  0.38873193572E+02 -0.11308616233E+02  0.50528859215E+02  0.29999998070E+02 0.  0.
         12    1    1    2    0    0  0.37624127573E+01 -0.38873193572E+02  0.11308616233E+02  0.40659140785E+02  0.00000000000E+00 0. -1.
         11    1    3    3    0    0 -0.18009716604E+00  0.64398753862E+01  0.42654866590E+01  0.77265002866E+01  0.51100000000E-03 0. -1.
        -11    1    3    3    0    0 -0.11252893069E+02  0.90942354418E+01 -0.10065219937E+02  0.17625021230E+02  0.51100000000E-03 0.  1.
        -12    1    3    3    0    0  0.76705774782E+01  0.23339082744E+02 -0.55088829548E+01  0.25177337699E+02  0.00000000000E+00 0.  1.
</event>
<event>
 7    1  0.9695207E-012  0.5052886E+02  0.7816164E-02  0.1300439E+00
        -11   -1    0    0    0    0  0.00000000000E+00  0.00000000000E+00  0.45593999997E+02  0.45594000000E+02  0.51100000000E-03 0. -1.
         11   -1    0    0    0    0 -0.00000000000E+00 -0.00000000000E+00 -0.45593999997E+02  0.45594000000E+02  0.51100000000E-03 0.  1.
    9900012    2    1    2    0    0  0.81190743426E-01 -0.53891757428E+01  0.40300319354E+02  0.50528861456E+02  0.30000004882E+02 0.  0.
        -12    1    1    2    0    0 -0.81190743426E-01  0.53891757428E+01 -0.40300319354E+02  0.40659138544E+02  0.00000000000E+00 0.  1.
         11    1    3    3    0    0 -0.75765332159E+00  0.73606464942E+01  0.28604518907E+02  0.29546093777E+02  0.51100000000E-03 0. -1.
        -11    1    3    3    0    0  0.54071314084E+01 -0.65372359041E+01  0.22268927547E+01  0.87710646410E+01  0.51100000000E-03 0.  1.
         12    1    3    3    0    0 -0.45682873434E+01 -0.62125863328E+01  0.94689076923E+01  0.12211703038E+02  0.00000000000E+00 0. -1.
</event>
<event>
 7    1  0.5006721E-012  0.5052886E+02  0.7816164E-02  0.1300439E+00
        -11   -1    0    0    0    0  0.00000000000E+00  0.00000000000E+00  0.45593999997E+02  0.45594000000E+02  0.51100000000E-03 0. -1.
         11   -1    0    0    0    0 -0.00000000000E+00 -0.00000000000E+00 -0.45593999997E+02  0.45594000000E+02  0.51100000000E-03 0.  1.
    9900012    2    1    2    0    0  0.18169526195E+02 -0.21928739264E+02  0.29020069032E+02  0.50528859644E+02  0.29999999374E+02 0.  0.
        -12    1    1    2    0    0 -0.18169526195E+02  0.21928739264E+02 -0.29020069032E+02  0.40659140356E+02  0.00000000000E+00 0.  1.
         11    1    3    3    0    0  0.67988031255E+01 -0.18799919538E+02  0.87199456910E+01  0.21810505535E+02  0.51100000000E-03 0.  1.
        -11    1    3    3    0    0  0.11204702692E+02 -0.40859372428E+01  0.22967577218E+02  0.25879525673E+02  0.51100000000E-03 0. -1.
        -12    1    3    3    0    0  0.16602037727E+00  0.95711751630E+00 -0.26674538764E+01  0.28388284359E+01  0.00000000000E+00 0.  1.
</event>
<event>
 7    1  0.5006721E-012  0.5052887E+02  0.7816164E-02  0.1300439E+00
        -11   -1    0    0    0    0  0.00000000000E+00  0.00000000000E+00  0.45593999997E+02  0.45594000000E+02  0.51100000000E-03 0. -1.
         11   -1    0    0    0    0 -0.00000000000E+00 -0.00000000000E+00 -0.45593999997E+02  0.45594000000E+02  0.51100000000E-03 0.  1.
    9900012    2    1    2    0    0 -0.13241008088E+02 -0.20374420401E+02  0.32599445112E+02  0.50528866666E+02  0.30000020718E+02 0.  0.
        -12    1    1    2    0    0  0.13241008088E+02  0.20374420401E+02 -0.32599445112E+02  0.40659133334E+02  0.00000000000E+00 0.  1.
         11    1    3    3    0    0 -0.18397622746E+02 -0.17435438507E+02  0.29905636259E+02  0.39202220842E+02  0.51100000000E-03 0. -1.
        -11    1    3    3    0    0  0.67064848595E+01  0.85407149957E+00  0.78402977821E+00  0.68059591720E+01  0.51100000000E-03 0.  1.
        -12    1    3    3    0    0 -0.15498702016E+01 -0.37930533941E+01  0.19097790747E+01  0.45206866521E+01  0.00000000000E+00 0.  1.
</event>
<event>
 7    1  0.5823783E-012  0.5052886E+02  0.7816164E-02  0.1300439E+00
        -11   -1    0    0    0    0  0.00000000000E+00  0.00000000000E+00  0.45593999997E+02  0.45594000000E+02  0.51100000000E-03 0. -1.
         11   -1    0    0    0    0 -0.00000000000E+00 -0.00000000000E+00 -0.45593999997E+02  0.45594000000E+02  0.51100000000E-03 0.  1.
    9900012    2    1    2    0    0 -0.23358631100E+02  0.74696941325E+01  0.32430602400E+02  0.50528856511E+02  0.29999989850E+02 0.  0.
        -12    1    1    2    0    0  0.23358631100E+02 -0.74696941325E+01 -0.32430602400E+02  0.40659143489E+02  0.00000000000E+00 0.  1.
         11    1    3    3    0    0 -0.17651534931E+02  0.77354678841E+00  0.31122252433E+02  0.35787842305E+02  0.51100000000E-03 0. -1.
        -11    1    3    3    0    0  0.27482129081E+01 -0.11156958534E+01 -0.71971874831E+00  0.30521216822E+01  0.51100000000E-03 0.  1.
         12    1    3    3    0    0 -0.84553090765E+01  0.78118431975E+01  0.20280687152E+01  0.11688892524E+02  0.00000000000E+00 0. -1.
</event>
<event>
 7    1  0.5006721E-012  0.5052887E+02  0.7816164E-02  0.1300439E+00
        -11   -1    0    0    0    0  0.00000000000E+00  0.00000000000E+00  0.45593999997E+02  0.45594000000E+02  0.51100000000E-03 0. -1.
         11   -1    0    0    0    0 -0.00000000000E+00 -0.00000000000E+00 -0.45593999997E+02  0.45594000000E+02  0.51100000000E-03 0.  1.
    9900012    2    1    2    0    0  0.28450215858E+02 -0.17044762730E+01  0.28997322605E+02  0.50528871382E+02  0.30000035052E+02 0.  0.
        -12    1    1    2    0    0 -0.28450215858E+02  0.17044762730E+01 -0.28997322605E+02  0.40659128618E+02  0.00000000000E+00 0.  1.
         11    1    3    3    0    0  0.36032981302E+01  0.39006058586E+01  0.19780494774E+01  0.56666712870E+01  0.51100000000E-03 0. -1.
        -11    1    3    3    0    0  0.10360101148E+01 -0.76918203787E+00  0.19336430292E+02  0.19379434838E+02  0.51100000000E-03 0.  1.
        -12    1    3    3    0    0  0.23810907613E+02 -0.48359000937E+01  0.76828428358E+01  0.25482765257E+02  0.00000000000E+00 0.  1.
</event>
<event>
 7    1  0.5006721E-012  0.5052886E+02  0.7816164E-02  0.1300439E+00
        -11   -1    0    0    0    0  0.00000000000E+00  0.00000000000E+00  0.45593999997E+02  0.45594000000E+02  0.51100000000E-03 0. -1.
         11   -1    0    0    0    0 -0.00000000000E+00 -0.00000000000E+00 -0.45593999997E+02  0.45594000000E+02  0.51100000000E-03 0.  1.
    9900012    2    1    2    0    0  0.24916906478E+02  0.18018546478E+02 -0.26601601263E+02  0.50528862831E+02  0.30000009060E+02 0.  0.
         12    1    1    2    0    0 -0.24916906478E+02 -0.18018546478E+02  0.26601601263E+02  0.40659137169E+02  0.00000000000E+00 0. -1.
         11    1    3    3    0    0  0.14004787907E+02  0.67872842626E+01  0.10210123111E+01  0.15596274504E+02  0.51100000000E-03 0. -1.
        -11    1    3    3    0    0  0.82177468667E+01  0.14587529099E+02 -0.24231281605E+02  0.29453053785E+02  0.51100000000E-03 0.  1.
         12    1    3    3    0    0  0.26943717041E+01 -0.33562668840E+01 -0.33913319694E+01  0.54795345426E+01  0.00000000000E+00 0. -1.
</event>
<event>
 7    1  0.5006721E-012  0.5052885E+02  0.7816164E-02  0.1300439E+00
        -11   -1    0    0    0    0  0.00000000000E+00  0.00000000000E+00  0.45593999997E+02  0.45594000000E+02  0.51100000000E-03 0. -1.
         11   -1    0    0    0    0 -0.00000000000E+00 -0.00000000000E+00 -0.45593999997E+02  0.45594000000E+02  0.51100000000E-03 0.  1.
    9900012    2    1    2    0    0 -0.52032362613E+01  0.19149527981E+02 -0.35487858544E+02  0.50528853507E+02  0.29999980721E+02 0.  0.
         12    1    1    2    0    0  0.52032362613E+01 -0.19149527981E+02  0.35487858544E+02  0.40659146493E+02  0.00000000000E+00 0. -1.
         11    1    3    3    0    0 -0.22700665318E+00  0.23672099266E+02 -0.25547111918E+02  0.34829222548E+02  0.51100000000E-03 0. -1.
        -11    1    3    3    0    0 -0.66027060859E+00 -0.70634055157E+01 -0.65140173685E+01  0.96312033149E+01  0.51100000000E-03 0.  1.
         12    1    3    3    0    0 -0.43159589995E+01  0.25408342312E+01 -0.34267292576E+01  0.60684276449E+01  0.00000000000E+00 0. -1.
</event>
<event>
 7    1  0.5006721E-012  0.5052887E+02  0.7816164E-02  0.1300439E+00
        -11   -1    0    0    0    0  0.00000000000E+00  0.00000000000E+00  0.45593999997E+02  0.45594000000E+02  0.51100000000E-03 0. -1.
         11   -1    0    0    0    0 -0.00000000000E+00 -0.00000000000E+00 -0.45593999997E+02  0.45594000000E+02  0.51100000000E-03 0.  1.
    9900012    2    1    2    0    0  0.26453910670E+02  0.13029712765E+02  0.27992542826E+02  0.50528865008E+02  0.30000015678E+02 0.  0.
        -12    1    1    2    0    0 -0.26453910670E+02 -0.13029712765E+02 -0.27992542826E+02  0.40659134992E+02  0.00000000000E+00 0.  1.
         11    1    3    3    0    0  0.36294254825E+00  0.11373686741E+02  0.12236383502E+02  0.16709923963E+02  0.51100000000E-03 0. -1.
        -11    1    3    3    0    0 -0.67801603268E+00  0.21074121374E+01  0.40147579171E+01  0.45846671691E+01  0.51100000000E-03 0.  1.
         12    1    3    3    0    0  0.26768984154E+02 -0.45138611323E+00  0.11741401406E+02  0.29234273876E+02  0.00000000000E+00 0. -1.
</event>
<event>
 7    1  0.5006721E-012  0.5052886E+02  0.7816164E-02  0.1300439E+00
        -11   -1    0    0    0    0  0.00000000000E+00  0.00000000000E+00  0.45593999997E+02  0.45594000000E+02  0.51100000000E-03 0.  1.
         11   -1    0    0    0    0 -0.00000000000E+00 -0.00000000000E+00 -0.45593999997E+02  0.45594000000E+02  0.51100000000E-03 0. -1.
    9900012    2    1    2    0    0 -0.26134829492E+02 -0.27607217390E+02 -0.14421435735E+02  0.50528861135E+02  0.30000003907E+02 0.  0.
         12    1    1    2    0    0  0.26134829492E+02  0.27607217390E+02  0.14421435735E+02  0.40659138865E+02  0.00000000000E+00 0. -1.
         11    1    3    3    0    0 -0.12172483380E+02 -0.96715431549E+00 -0.15271673048E+02  0.19553228302E+02  0.51100000000E-03 0. -1.
        -11    1    3    3    0    0 -0.11879289359E+02 -0.21411461130E+02 -0.21809550688E+01  0.24583017485E+02  0.51100000000E-03 0.  1.
         12    1    3    3    0    0 -0.20830567538E+01 -0.52286019442E+01  0.30311923823E+01  0.63926153481E+01  0.00000000000E+00 0. -1.
</event>
<event>
 7    1  0.5006721E-012  0.5052887E+02  0.7816164E-02  0.1300439E+00
        -11   -1    0    0    0    0  0.00000000000E+00  0.00000000000E+00  0.45593999997E+02  0.45594000000E+02  0.51100000000E-03 0. -1.
         11   -1    0    0    0    0 -0.00000000000E+00 -0.00000000000E+00 -0.45593999997E+02  0.45594000000E+02  0.51100000000E-03 0.  1.
    9900012    2    1    2    0    0 -0.19334902995E+02 -0.17022973376E+02 -0.31457031779E+02  0.50528868864E+02  0.30000027400E+02 0.  0.
         12    1    1    2    0    0  0.19334902995E+02  0.17022973376E+02  0.31457031779E+02  0.40659131136E+02  0.00000000000E+00 0. -1.
         11    1    3    3    0    0 -0.52777323256E+01 -0.30554596179E+01 -0.16856300651E+02  0.17925545009E+02  0.51100000000E-03 0. -1.
        -11    1    3    3    0    0 -0.78171036624E+00 -0.15495644261E+02 -0.56155046744E+01  0.16500301669E+02  0.51100000000E-03 0.  1.
         12    1    3    3    0    0 -0.13275460303E+02  0.15281305037E+01 -0.89852264543E+01  0.16103022186E+02  0.00000000000E+00 0. -1.
</event>
<event>
 7    1  0.5006721E-012  0.5052886E+02  0.7816164E-02  0.1300439E+00
        -11   -1    0    0    0    0  0.00000000000E+00  0.00000000000E+00  0.45593999997E+02  0.45594000000E+02  0.51100000000E-03 0. -1.
         11   -1    0    0    0    0 -0.00000000000E+00 -0.00000000000E+00 -0.45593999997E+02  0.45594000000E+02  0.51100000000E-03 0.  1.
    9900012    2    1    2    0    0  0.38610837823E+00 -0.36017350497E+02 -0.18861787996E+02  0.50528860033E+02  0.30000000555E+02 0.  0.
         12    1    1    2    0    0 -0.38610837823E+00  0.36017350497E+02  0.18861787996E+02  0.40659139967E+02  0.00000000000E+00 0. -1.
         11    1    3    3    0    0 -0.82018397598E+00  0.14093744353E+00 -0.52013616436E+01  0.52675163338E+01  0.51100000000E-03 0. -1.
        -11    1    3    3    0    0 -0.13919937094E+01 -0.32998844511E+02 -0.19330909693E+02  0.38269380128E+02  0.51100000000E-03 0.  1.
        -12    1    3    3    0    0  0.25982860636E+01 -0.31594434292E+01  0.56704833411E+01  0.69919635706E+01  0.00000000000E+00 0.  1.
</event>
<event>
 7    1  0.5006721E-012  0.5052885E+02  0.7816164E-02  0.1300439E+00
        -11   -1    0    0    0    0  0.00000000000E+00  0.00000000000E+00  0.45593999997E+02  0.45594000000E+02  0.51100000000E-03 0. -1.
         11   -1    0    0    0    0 -0.00000000000E+00 -0.00000000000E+00 -0.45593999997E+02  0.45594000000E+02  0.51100000000E-03 0.  1.
    9900012    2    1    2    0    0  0.31158278483E+02  0.42950331980E+01  0.25765886062E+02  0.50528849582E+02  0.29999968788E+02 0.  0.
        -12    1    1    2    0    0 -0.31158278483E+02 -0.42950331980E+01 -0.25765886062E+02  0.40659150418E+02  0.00000000000E+00 0.  1.
         11    1    3    3    0    0  0.17217822145E+02  0.14410635275E+02  0.13160035411E+02  0.26025109812E+02  0.51100000000E-03 0. -1.
        -11    1    3    3    0    0  0.14697038416E+02 -0.77013512023E+01  0.13915026462E+02  0.21655062000E+02  0.51100000000E-03 0.  1.
         12    1    3    3    0    0 -0.75658207838E+00 -0.24142508750E+01 -0.13091758108E+01  0.28486777691E+01  0.00000000000E+00 0. -1.
</event>
<event>
 7    1  0.5006721E-012  0.5052886E+02  0.7816164E-02  0.1300439E+00
        -11   -1    0    0    0    0  0.00000000000E+00  0.00000000000E+00  0.45593999997E+02  0.45594000000E+02  0.51100000000E-03 0.  1.
         11   -1    0    0    0    0 -0.00000000000E+00 -0.00000000000E+00 -0.45593999997E+02  0.45594000000E+02  0.51100000000E-03 0. -1.
    9900012    2    1    2    0    0 -0.10447674708E+02 -0.30681798695E+02 -0.24548699248E+02  0.50528864339E+02  0.30000013644E+02 0.  0.
         12    1    1    2    0    0  0.10447674708E+02  0.30681798695E+02  0.24548699248E+02  0.40659135661E+02  0.00000000000E+00 0. -1.
         11    1    3    3    0    0  0.37646627156E+01 -0.16422181233E+02 -0.22936393230E+01  0.17003573255E+02  0.51100000000E-03 0. -1.
        -11    1    3    3    0    0 -0.66954389048E+01 -0.15824735167E+02 -0.17323255337E+02  0.24399719690E+02  0.51100000000E-03 0.  1.
         12    1    3    3    0    0 -0.75168985184E+01  0.15651177055E+01 -0.49318045880E+01  0.91255713937E+01  0.00000000000E+00 0. -1.
</event>
<event>
 7    1  0.5006721E-012  0.5052886E+02  0.7816164E-02  0.1300439E+00
        -11   -1    0    0    0    0  0.00000000000E+00  0.00000000000E+00  0.45593999997E+02  0.45594000000E+02  0.51100000000E-03 0. -1.
         11   -1    0    0    0    0 -0.00000000000E+00 -0.00000000000E+00 -0.45593999997E+02  0.45594000000E+02  0.51100000000E-03 0.  1.
    9900012    2    1    2    0    0  0.23259356157E+02  0.31598409356E+02  0.10663421366E+02  0.50528859848E+02  0.29999999994E+02 0.  0.
        -12    1    1    2    0    0 -0.23259356157E+02 -0.31598409356E+02 -0.10663421366E+02  0.40659140152E+02  0.00000000000E+00 0.  1.
         11    1    3    3    0    0  0.19320549867E+02  0.26783896588E+02  0.17896030296E+02  0.37562330388E+02  0.51100000000E-03 0. -1.
        -11    1    3    3    0    0  0.12515270024E+01  0.67730483398E+01 -0.66813638433E+01  0.95958911373E+01  0.51100000000E-03 0.  1.
        -12    1    3    3    0    0  0.26872792879E+01 -0.19585355713E+01 -0.55124508662E+00  0.33706383224E+01  0.00000000000E+00 0.  1.
</event>
<event>
 7    1  0.5006721E-012  0.5052884E+02  0.7816164E-02  0.1300439E+00
        -11   -1    0    0    0    0  0.00000000000E+00  0.00000000000E+00  0.45593999997E+02  0.45594000000E+02  0.51100000000E-03 0. -1.
         11   -1    0    0    0    0 -0.00000000000E+00 -0.00000000000E+00 -0.45593999997E+02  0.45594000000E+02  0.51100000000E-03 0.  1.
    9900012    2    1    2    0    0  0.27486342120E+02  0.81774634015E+01  0.28823557566E+02  0.50528838897E+02  0.29999936311E+02 0.  0.
        -12    1    1    2    0    0 -0.27486342120E+02 -0.81774634015E+01 -0.28823557566E+02  0.40659161103E+02  0.00000000000E+00 0.  1.
         11    1    3    3    0    0  0.24555592498E+02  0.30755414290E+01  0.13748623857E+02  0.28310081883E+02  0.51100000000E-03 0. -1.
        -11    1    3    3    0    0  0.37902600451E+01  0.21139072392E+01  0.17653699861E+02  0.18179323257E+02  0.51100000000E-03 0.  1.
        -12    1    3    3    0    0 -0.85951042329E+00  0.29880147333E+01 -0.25787661516E+01  0.40394337572E+01  0.00000000000E+00 0.  1.
</event>
<event>
 7    1  0.5006721E-012  0.5052886E+02  0.7816164E-02  0.1300439E+00
        -11   -1    0    0    0    0  0.00000000000E+00  0.00000000000E+00  0.45593999997E+02  0.45594000000E+02  0.51100000000E-03 0. -1.
         11   -1    0    0    0    0 -0.00000000000E+00 -0.00000000000E+00 -0.45593999997E+02  0.45594000000E+02  0.51100000000E-03 0.  1.
    9900012    2    1    2    0    0 -0.10840198222E+02  0.20166871523E+02 -0.33599893391E+02  0.50528862768E+02  0.30000008871E+02 0.  0.
         12    1    1    2    0    0  0.10840198222E+02 -0.20166871523E+02  0.33599893391E+02  0.40659137232E+02  0.00000000000E+00 0. -1.
         11    1    3    3    0    0 -0.98232706287E+01  0.30144456126E+01  0.22158405142E+00  0.10277773492E+02  0.51100000000E-03 0. -1.
        -11    1    3    3    0    0  0.18038396928E+01  0.62628332920E+00 -0.14688630112E+02  0.14812222091E+02  0.51100000000E-03 0.  1.
         12    1    3    3    0    0 -0.28207672862E+01  0.16526142582E+02 -0.19132847330E+02  0.25438867185E+02  0.00000000000E+00 0. -1.
</event>
<event>
 7    1  0.5006721E-012  0.5052885E+02  0.7816164E-02  0.1300439E+00
        -11   -1    0    0    0    0  0.00000000000E+00  0.00000000000E+00  0.45593999997E+02  0.45594000000E+02  0.51100000000E-03 0. -1.
         11   -1    0    0    0    0 -0.00000000000E+00 -0.00000000000E+00 -0.45593999997E+02  0.45594000000E+02  0.51100000000E-03 0.  1.
    9900012    2    1    2    0    0  0.20906385517E+01 -0.14871675843E+02  0.37783979336E+02  0.50528848430E+02  0.29999965288E+02 0.  0.
        -12    1    1    2    0    0 -0.20906385517E+01  0.14871675843E+02 -0.37783979336E+02  0.40659151570E+02  0.00000000000E+00 0.  1.
         11    1    3    3    0    0 -0.39600689633E+01 -0.37815503781E+00 -0.29394810020E+01  0.49462810523E+01  0.51100000000E-03 0. -1.
        -11    1    3    3    0    0  0.38632781477E+01 -0.61550624007E+01  0.49687481378E+01  0.88033044660E+01  0.51100000000E-03 0.  1.
         12    1    3    3    0    0  0.21874293672E+01 -0.83384584041E+01  0.35754712200E+02  0.36779262912E+02  0.00000000000E+00 0. -1.
</event>
<event>
 7    1  0.5006721E-012  0.5052886E+02  0.7816164E-02  0.1300439E+00
        -11   -1    0    0    0    0  0.00000000000E+00  0.00000000000E+00  0.45593999997E+02  0.45594000000E+02  0.51100000000E-03 0. -1.
         11   -1    0    0    0    0 -0.00000000000E+00 -0.00000000000E+00 -0.45593999997E+02  0.45594000000E+02  0.51100000000E-03 0.  1.
    9900012    2    1    2    0    0  0.55791031703E+00  0.30005563061E+02  0.27432108727E+02  0.50528859973E+02  0.30000000373E+02 0.  0.
        -12    1    1    2    0    0 -0.55791031703E+00 -0.30005563061E+02 -0.27432108727E+02  0.40659140027E+02  0.00000000000E+00 0.  1.
         11    1    3    3    0    0  0.20415078926E+01  0.59031034060E+00 -0.43484642430E+01  0.48399754450E+01  0.51100000000E-03 0. -1.
        -11    1    3    3    0    0  0.63849388150E+01  0.15634141012E+02  0.14914366872E+02  0.22530693471E+02  0.51100000000E-03 0.  1.
         12    1    3    3    0    0 -0.78685363906E+01  0.13781111709E+02  0.16866206098E+02  0.23158191057E+02  0.00000000000E+00 0. -1.
</event>
<event>
 7    1  0.5006721E-012  0.5052886E+02  0.7816164E-02  0.1300439E+00
        -11   -1    0    0    0    0  0.00000000000E+00  0.00000000000E+00  0.45593999997E+02  0.45594000000E+02  0.51100000000E-03 0. -1.
         11   -1    0    0    0    0 -0.00000000000E+00 -0.00000000000E+00 -0.45593999997E+02  0.45594000000E+02  0.51100000000E-03 0.  1.
    9900012    2    1    2    0    0 -0.97639982725E+01  0.31009744636E+02 -0.24417735565E+02  0.50528859148E+02  0.29999997867E+02 0.  0.
         12    1    1    2    0    0  0.97639982725E+01 -0.31009744636E+02  0.24417735565E+02  0.40659140852E+02  0.00000000000E+00 0. -1.
         11    1    3    3    0    0 -0.38193560028E+00  0.97361611595E+00 -0.10925615126E+02  0.10975557812E+02  0.51100000000E-03 0. -1.
        -11    1    3    3    0    0 -0.61075767391E+01  0.32453574014E+02 -0.11135958290E+02  0.34850344722E+02  0.51100000000E-03 0.  1.
        -12    1    3    3    0    0 -0.32744859331E+01 -0.24174454942E+01 -0.23561621489E+01  0.47029566142E+01  0.00000000000E+00 0.  1.
</event>
<event>
 7    1  0.5006721E-012  0.5052895E+02  0.7816164E-02  0.1300438E+00
        -11   -1    0    0    0    0  0.00000000000E+00  0.00000000000E+00  0.45593999997E+02  0.45594000000E+02  0.51100000000E-03 0. -1.
         11   -1    0    0    0    0 -0.00000000000E+00 -0.00000000000E+00 -0.45593999997E+02  0.45594000000E+02  0.51100000000E-03 0.  1.
    9900012    2    1    2    0    0 -0.17170026109E+02 -0.12330899460E+02  0.34731796970E+02  0.50528946902E+02  0.30000264601E+02 0.  0.
        -12    1    1    2    0    0  0.17170026109E+02  0.12330899460E+02 -0.34731796970E+02  0.40659053098E+02  0.00000000000E+00 0.  1.
         11    1    3    3    0    0 -0.36609917527E+00  0.20948766226E+01  0.17188542801E+02  0.17319599896E+02  0.51100000000E-03 0. -1.
        -11    1    3    3    0    0 -0.14247884143E+02 -0.11002313052E+02  0.32516439323E+01  0.18292793214E+02  0.51100000000E-03 0.  1.
        -12    1    3    3    0    0 -0.25560427913E+01 -0.34234630305E+01  0.14291610237E+02  0.14916553792E+02  0.00000000000E+00 0.  1.
</event>
<event>
 7    1  0.5006721E-012  0.5052888E+02  0.7816164E-02  0.1300439E+00
        -11   -1    0    0    0    0  0.00000000000E+00  0.00000000000E+00  0.45593999997E+02  0.45594000000E+02  0.51100000000E-03 0. -1.
         11   -1    0    0    0    0 -0.00000000000E+00 -0.00000000000E+00 -0.45593999997E+02  0.45594000000E+02  0.51100000000E-03 0.  1.
    9900012    2    1    2    0    0 -0.14752845516E+02  0.15715718502E+02 -0.34475112533E+02  0.50528884872E+02  0.30000076056E+02 0.  0.
         12    1    1    2    0    0  0.14752845516E+02 -0.15715718502E+02  0.34475112533E+02  0.40659115128E+02  0.00000000000E+00 0. -1.
         11    1    3    3    0    0 -0.77888917412E+01  0.11393954216E+02 -0.51309180077E+01  0.14724651001E+02  0.51100000000E-03 0. -1.
        -11    1    3    3    0    0 -0.26544745474E+01 -0.68164153194E+01 -0.17576414747E+02  0.19037859873E+02  0.51100000000E-03 0.  1.
        -12    1    3    3    0    0 -0.43094792275E+01  0.11138179605E+02 -0.11767779779E+02  0.16766373998E+02  0.00000000000E+00 0.  1.
</event>
<event>
 7    1  0.5006721E-012  0.5052886E+02  0.7816164E-02  0.1300439E+00
        -11   -1    0    0    0    0  0.00000000000E+00  0.00000000000E+00  0.45593999997E+02  0.45594000000E+02  0.51100000000E-03 0. -1.
         11   -1    0    0    0    0 -0.00000000000E+00 -0.00000000000E+00 -0.45593999997E+02  0.45594000000E+02  0.51100000000E-03 0.  1.
    9900012    2    1    2    0    0  0.11752398375E+02  0.60922609258E+01 -0.38443868094E+02  0.50528861977E+02  0.30000006464E+02 0.  0.
         12    1    1    2    0    0 -0.11752398375E+02 -0.60922609258E+01  0.38443868094E+02  0.40659138023E+02  0.00000000000E+00 0. -1.
         11    1    3    3    0    0  0.45241609101E+00  0.14410466951E+02 -0.13577110444E+02  0.19804145181E+02  0.51100000000E-03 0. -1.
        -11    1    3    3    0    0  0.27653095811E+01 -0.78060261441E+01 -0.17800534276E+02  0.19632625958E+02  0.51100000000E-03 0.  1.
         12    1    3    3    0    0  0.85346727030E+01 -0.51217988148E+00 -0.70662233744E+01  0.11092090838E+02  0.00000000000E+00 0. -1.
</event>
<event>
 7    1  0.5006721E-012  0.5052884E+02  0.7816164E-02  0.1300439E+00
        -11   -1    0    0    0    0  0.00000000000E+00  0.00000000000E+00  0.45593999997E+02  0.45594000000E+02  0.51100000000E-03 0. -1.
         11   -1    0    0    0    0 -0.00000000000E+00 -0.00000000000E+00 -0.45593999997E+02  0.45594000000E+02  0.51100000000E-03 0.  1.
    9900012    2    1    2    0    0  0.33254583453E+02 -0.13910458272E+02 -0.18809555179E+02  0.50528836998E+02  0.29999930540E+02 0.  0.
         12    1    1    2    0    0 -0.33254583453E+02  0.13910458272E+02  0.18809555179E+02  0.40659163002E+02  0.00000000000E+00 0. -1.
         11    1    3    3    0    0  0.36535514811E+01  0.28615837010E+01 -0.40210046011E+00  0.46581954386E+01  0.51100000000E-03 0. -1.
        -11    1    3    3    0    0  0.26010822211E+02 -0.14951420220E+02 -0.24386512598E+02  0.38662770667E+02  0.51100000000E-03 0.  1.
        -12    1    3    3    0    0  0.35902097607E+01 -0.18206217527E+01  0.59790578788E+01  0.72078708930E+01  0.00000000000E+00 0.  1.
</event>
<event>
 7    1  0.5006721E-012  0.5052887E+02  0.7816164E-02  0.1300439E+00
        -11   -1    0    0    0    0  0.00000000000E+00  0.00000000000E+00  0.45593999997E+02  0.45594000000E+02  0.51100000000E-03 0. -1.
         11   -1    0    0    0    0 -0.00000000000E+00 -0.00000000000E+00 -0.45593999997E+02  0.45594000000E+02  0.51100000000E-03 0.  1.
    9900012    2    1    2    0    0 -0.30876710876E+02 -0.54169880024E+01  0.25893041530E+02  0.50528872694E+02  0.30000039042E+02 0.  0.
        -12    1    1    2    0    0  0.30876710876E+02  0.54169880024E+01 -0.25893041530E+02  0.40659127306E+02  0.00000000000E+00 0.  1.
         11    1    3    3    0    0 -0.10965901095E+02  0.48826639450E+01  0.22429239018E+02  0.25439382013E+02  0.51100000000E-03 0. -1.
        -11    1    3    3    0    0 -0.19230960486E+02 -0.96908345742E+01  0.60323647993E+01  0.22363620934E+02  0.51100000000E-03 0.  1.
         12    1    3    3    0    0 -0.67984929581E+00 -0.60881737328E+00 -0.25685622869E+01  0.27258697475E+01  0.00000000000E+00 0. -1.
</event>
<event>
 7    1  0.5006721E-012  0.5052894E+02  0.7816164E-02  0.1300439E+00
        -11   -1    0    0    0    0  0.00000000000E+00  0.00000000000E+00  0.45593999997E+02  0.45594000000E+02  0.51100000000E-03 0. -1.
         11   -1    0    0    0    0 -0.00000000000E+00 -0.00000000000E+00 -0.45593999997E+02  0.45594000000E+02  0.51100000000E-03 0.  1.
    9900012    2    1    2    0    0  0.13414118591E+02 -0.25052127604E+02 -0.29079405516E+02  0.50528935817E+02  0.30000230910E+02 0.  0.
         12    1    1    2    0    0 -0.13414118591E+02  0.25052127604E+02  0.29079405516E+02  0.40659064183E+02  0.00000000000E+00 0. -1.
         11    1    3    3    0    0  0.84009723301E+01 -0.17006040766E+02 -0.95139232656E+00  0.18991758904E+02  0.51100000000E-03 0. -1.
        -11    1    3    3    0    0  0.79661195448E+01 -0.53032070790E+01 -0.23648400070E+02  0.25511367899E+02  0.51100000000E-03 0.  1.
        -12    1    3    3    0    0 -0.29529732842E+01 -0.27428797584E+01 -0.44796131190E+01  0.60258090147E+01  0.00000000000E+00 0.  1.
</event>
<event>
 7    1  0.5006721E-012  0.5052886E+02  0.7816164E-02  0.1300439E+00
        -11   -1    0    0    0    0  0.00000000000E+00  0.00000000000E+00  0.45593999997E+02  0.45594000000E+02  0.51100000000E-03 0. -1.
         11   -1    0    0    0    0 -0.00000000000E+00 -0.00000000000E+00 -0.45593999997E+02  0.45594000000E+02  0.51100000000E-03 0.  1.
    9900012    2    1    2    0    0 -0.51975644202E+01 -0.16914337191E+02 -0.36606778667E+02  0.50528859295E+02  0.29999998314E+02 0.  0.
         12    1    1    2    0    0  0.51975644202E+01  0.16914337191E+02  0.36606778667E+02  0.40659140705E+02  0.00000000000E+00 0. -1.
         11    1    3    3    0    0 -0.10337907188E+02 -0.12499222132E+02 -0.96786710843E+01  0.18888609085E+02  0.51100000000E-03 0. -1.
        -11    1    3    3    0    0  0.65045170809E+01  0.41367723030E+01 -0.15402208565E+02  0.17223520444E+02  0.51100000000E-03 0.  1.
        -12    1    3    3    0    0 -0.13641743129E+01 -0.85518873614E+01 -0.11525899017E+02  0.14416729766E+02  0.00000000000E+00 0.  1.
</event>
<event>
 7    1  0.5006721E-012  0.5052890E+02  0.7816164E-02  0.1300439E+00
        -11   -1    0    0    0    0  0.00000000000E+00  0.00000000000E+00  0.45593999997E+02  0.45594000000E+02  0.51100000000E-03 0. -1.
         11   -1    0    0    0    0 -0.00000000000E+00 -0.00000000000E+00 -0.45593999997E+02  0.45594000000E+02  0.51100000000E-03 0.  1.
    9900012    2    1    2    0    0  0.17613799139E+02  0.15880042085E+02  0.33026359174E+02  0.50528904375E+02  0.30000135339E+02 0.  0.
        -12    1    1    2    0    0 -0.17613799139E+02 -0.15880042085E+02 -0.33026359174E+02  0.40659095625E+02  0.00000000000E+00 0.  1.
         11    1    3    3    0    0  0.94881510045E+01  0.18518321993E+01  0.12893506637E+02  0.16115111096E+02  0.51100000000E-03 0. -1.
        -11    1    3    3    0    0  0.72068426545E+00  0.15597612734E+02  0.33026160139E+01  0.15959704935E+02  0.51100000000E-03 0.  1.
        -12    1    3    3    0    0  0.74049638689E+01 -0.15694028486E+01  0.16830236523E+02  0.18454088344E+02  0.00000000000E+00 0.  1.
</event>
<event>
 7    1  0.5006721E-012  0.5052887E+02  0.7816164E-02  0.1300439E+00
        -11   -1    0    0    0    0  0.00000000000E+00  0.00000000000E+00  0.45593999997E+02  0.45594000000E+02  0.51100000000E-03 0. -1.
         11   -1    0    0    0    0 -0.00000000000E+00 -0.00000000000E+00 -0.45593999997E+02  0.45594000000E+02  0.51100000000E-03 0.  1.
    9900012    2    1    2    0    0 -0.11098648477E+02  0.20134836124E+02 -0.33534658251E+02  0.50528869072E+02  0.30000028032E+02 0.  0.
         12    1    1    2    0    0  0.11098648477E+02 -0.20134836124E+02  0.33534658251E+02  0.40659130928E+02  0.00000000000E+00 0. -1.
         11    1    3    3    0    0 -0.43513534213E+01  0.22198256282E+02 -0.28501827275E+02  0.36387511826E+02  0.51100000000E-03 0. -1.
        -11    1    3    3    0    0 -0.86900734264E+01 -0.34976248389E+01 -0.64200981197E+01  0.11356426190E+02  0.51100000000E-03 0.  1.
        -12    1    3    3    0    0  0.19427783705E+01  0.14342046814E+01  0.13872671437E+01  0.27849310571E+01  0.00000000000E+00 0.  1.
</event>
<event>
 7    1  0.5006721E-012  0.5052887E+02  0.7816164E-02  0.1300439E+00
        -11   -1    0    0    0    0  0.00000000000E+00  0.00000000000E+00  0.45593999997E+02  0.45594000000E+02  0.51100000000E-03 0. -1.
         11   -1    0    0    0    0 -0.00000000000E+00 -0.00000000000E+00 -0.45593999997E+02  0.45594000000E+02  0.51100000000E-03 0.  1.
    9900012    2    1    2    0    0  0.15689995086E+02  0.24577890972E+02  0.28335774633E+02  0.50528870712E+02  0.30000033015E+02 0.  0.
        -12    1    1    2    0    0 -0.15689995086E+02 -0.24577890972E+02 -0.28335774633E+02  0.40659129288E+02  0.00000000000E+00 0.  1.
         11    1    3    3    0    0  0.80884676576E+01  0.13404375860E+02  0.18399772307E+02  0.24158895307E+02  0.51100000000E-03 0. -1.
        -11    1    3    3    0    0  0.30015533706E+01 -0.27137490407E+01 -0.43369081287E+01  0.59314862278E+01  0.51100000000E-03 0.  1.
        -12    1    3    3    0    0  0.45999740575E+01  0.13887264153E+02  0.14272910455E+02  0.20438489177E+02  0.00000000000E+00 0.  1.
</event>
<event>
 7    1  0.5006721E-012  0.5052886E+02  0.7816164E-02  0.1300439E+00
        -11   -1    0    0    0    0  0.00000000000E+00  0.00000000000E+00  0.45593999997E+02  0.45594000000E+02  0.51100000000E-03 0. -1.
         11   -1    0    0    0    0 -0.00000000000E+00 -0.00000000000E+00 -0.45593999997E+02  0.45594000000E+02  0.51100000000E-03 0.  1.
    9900012    2    1    2    0    0 -0.11110271600E+02  0.24376942427E+02  0.30585820774E+02  0.50528857245E+02  0.29999992083E+02 0.  0.
        -12    1    1    2    0    0  0.11110271600E+02 -0.24376942427E+02 -0.30585820774E+02  0.40659142755E+02  0.00000000000E+00 0.  1.
         11    1    3    3    0    0 -0.58036646441E+01  0.11735992331E+02  0.33363145396E+02  0.35840138257E+02  0.51100000000E-03 0. -1.
        -11    1    3    3    0    0 -0.41636139928E+01  0.42345012334E+01 -0.12439936978E+01  0.60674708700E+01  0.51100000000E-03 0.  1.
         12    1    3    3    0    0 -0.11429929634E+01  0.84064488626E+01 -0.15333309242E+01  0.86212481183E+01  0.00000000000E+00 0. -1.
</event>
<event>
 7    1  0.5006721E-012  0.5052886E+02  0.7816164E-02  0.1300439E+00
        -11   -1    0    0    0    0  0.00000000000E+00  0.00000000000E+00  0.45593999997E+02  0.45594000000E+02  0.51100000000E-03 0. -1.
         11   -1    0    0    0    0 -0.00000000000E+00 -0.00000000000E+00 -0.45593999997E+02  0.45594000000E+02  0.51100000000E-03 0.  1.
    9900012    2    1    2    0    0  0.22372048548E+02  0.17729356543E+02  0.28953881636E+02  0.50528857099E+02  0.29999991638E+02 0.  0.
        -12    1    1    2    0    0 -0.22372048548E+02 -0.17729356543E+02 -0.28953881636E+02  0.40659142901E+02  0.00000000000E+00 0.  1.
         11    1    3    3    0    0  0.90777027387E+00  0.97551680853E+01  0.16336485915E+02  0.19049097710E+02  0.51100000000E-03 0. -1.
        -11    1    3    3    0    0  0.23515421626E+02  0.36089232616E+01  0.11908714356E+02  0.26604827742E+02  0.51100000000E-03 0.  1.
        -12    1    3    3    0    0 -0.20511433513E+01  0.43652651963E+01  0.70868136463E+00  0.48749316466E+01  0.00000000000E+00 0.  1.
</event>
<event>
 7    1  0.5006721E-012  0.5052885E+02  0.7816164E-02  0.1300439E+00
        -11   -1    0    0    0    0  0.00000000000E+00  0.00000000000E+00  0.45593999997E+02  0.45594000000E+02  0.51100000000E-03 0. -1.
         11   -1    0    0    0    0 -0.00000000000E+00 -0.00000000000E+00 -0.45593999997E+02  0.45594000000E+02  0.51100000000E-03 0.  1.
    9900012    2    1    2    0    0  0.37267591903E+02  0.72490686014E+00 -0.16240928223E+02  0.50528847946E+02  0.29999963816E+02 0.  0.
         12    1    1    2    0    0 -0.37267591903E+02 -0.72490686014E+00  0.16240928223E+02  0.40659152054E+02  0.00000000000E+00 0. -1.
         11    1    3    3    0    0  0.86853678096E+01 -0.24785360822E+00 -0.58924052210E+01  0.10498451550E+02  0.51100000000E-03 0.  1.
        -11    1    3    3    0    0  0.19452784667E+02  0.71181299797E+01  0.48417598564E+01  0.21272546733E+02  0.51100000000E-03 0. -1.
        -12    1    3    3    0    0  0.91294394261E+01 -0.61453695113E+01 -0.15190282859E+02  0.18757849663E+02  0.00000000000E+00 0.  1.
</event>
<event>
 7    1  0.5006721E-012  0.5052887E+02  0.7816164E-02  0.1300439E+00
        -11   -1    0    0    0    0  0.00000000000E+00  0.00000000000E+00  0.45593999997E+02  0.45594000000E+02  0.51100000000E-03 0. -1.
         11   -1    0    0    0    0 -0.00000000000E+00 -0.00000000000E+00 -0.45593999997E+02  0.45594000000E+02  0.51100000000E-03 0.  1.
    9900012    2    1    2    0    0  0.21579062219E+02 -0.13854827822E+02 -0.31552385434E+02  0.50528865641E+02  0.30000017603E+02 0.  0.
         12    1    1    2    0    0 -0.21579062219E+02  0.13854827822E+02  0.31552385434E+02  0.40659134359E+02  0.00000000000E+00 0. -1.
         11    1    3    3    0    0 -0.45819396282E+01 -0.34554687491E+01  0.53449234493E+00  0.57636895614E+01  0.51100000000E-03 0. -1.
        -11    1    3    3    0    0  0.24396967611E+02 -0.42385065898E+01 -0.24504920398E+02  0.34837739461E+02  0.51100000000E-03 0.  1.
         12    1    3    3    0    0  0.17640342357E+01 -0.61608524833E+01 -0.75819573806E+01  0.99274366192E+01  0.00000000000E+00 0. -1.
</event>
<event>
 7    1  0.5006721E-012  0.5052887E+02  0.7816164E-02  0.1300439E+00
        -11   -1    0    0    0    0  0.00000000000E+00  0.00000000000E+00  0.45593999997E+02  0.45594000000E+02  0.51100000000E-03 0. -1.
         11   -1    0    0    0    0 -0.00000000000E+00 -0.00000000000E+00 -0.45593999997E+02  0.45594000000E+02  0.51100000000E-03 0.  1.
    9900012    2    1    2    0    0  0.76342197889E+01  0.21749197824E+02 -0.33494120245E+02  0.50528868076E+02  0.30000025005E+02 0.  0.
         12    1    1    2    0    0 -0.76342197889E+01 -0.21749197824E+02  0.33494120245E+02  0.40659131924E+02  0.00000000000E+00 0. -1.
         11    1    3    3    0    0 -0.13298089224E+01  0.12358679722E+02 -0.32441970501E+02  0.34741715652E+02  0.51100000000E-03 0. -1.
        -11    1    3    3    0    0  0.10429996922E+02  0.88353864670E+01 -0.21987908262E+01  0.13844983611E+02  0.51100000000E-03 0.  1.
         12    1    3    3    0    0 -0.14659682111E+01  0.55513163533E+00  0.11466410819E+01  0.19421688133E+01  0.00000000000E+00 0. -1.
</event>
<event>
 7    1  0.5006721E-012  0.5052886E+02  0.7816164E-02  0.1300439E+00
        -11   -1    0    0    0    0  0.00000000000E+00  0.00000000000E+00  0.45593999997E+02  0.45594000000E+02  0.51100000000E-03 0. -1.
         11   -1    0    0    0    0 -0.00000000000E+00 -0.00000000000E+00 -0.45593999997E+02  0.45594000000E+02  0.51100000000E-03 0.  1.
    9900012    2    1    2    0    0 -0.38314998857E+02  0.12996776202E+02  0.40262234047E+01  0.50528858298E+02  0.29999995282E+02 0.  0.
        -12    1    1    2    0    0  0.38314998857E+02 -0.12996776202E+02 -0.40262234047E+01  0.40659141702E+02  0.00000000000E+00 0.  1.
         11    1    3    3    0    0 -0.24964002686E+02  0.99228435700E+01  0.46871567146E+01  0.27269647833E+02  0.51100000000E-03 0. -1.
        -11    1    3    3    0    0 -0.13317069452E+01 -0.28180291776E+01  0.71227762061E+01  0.77748744669E+01  0.51100000000E-03 0.  1.
        -12    1    3    3    0    0 -0.12019289226E+02  0.58919618095E+01 -0.77837095159E+01  0.15484335998E+02  0.00000000000E+00 0.  1.
</event>
<event>
 7    1  0.5006721E-012  0.5052885E+02  0.7816164E-02  0.1300439E+00
        -11   -1    0    0    0    0  0.00000000000E+00  0.00000000000E+00  0.45593999997E+02  0.45594000000E+02  0.51100000000E-03 0.  1.
         11   -1    0    0    0    0 -0.00000000000E+00 -0.00000000000E+00 -0.45593999997E+02  0.45594000000E+02  0.51100000000E-03 0. -1.
    9900012    2    1    2    0    0  0.31066309306E+02 -0.33508572550E+01 -0.26015807857E+02  0.50528854944E+02  0.29999985089E+02 0.  0.
         12    1    1    2    0    0 -0.31066309306E+02  0.33508572550E+01  0.26015807857E+02  0.40659145056E+02  0.00000000000E+00 0. -1.
         11    1    3    3    0    0  0.31294074648E+01  0.94463104734E+01 -0.10847811716E+02  0.14720767369E+02  0.51100000000E-03 0. -1.
        -11    1    3    3    0    0  0.19639312670E+01  0.68532139981E+00 -0.39567296049E+01  0.44701678793E+01  0.51100000000E-03 0.  1.
         12    1    3    3    0    0  0.25972970574E+02 -0.13482489128E+02 -0.11211266536E+02  0.31337919696E+02  0.00000000000E+00 0. -1.
</event>
<event>
 7    1  0.5006721E-012  0.5052886E+02  0.7816164E-02  0.1300439E+00
        -11   -1    0    0    0    0  0.00000000000E+00  0.00000000000E+00  0.45593999997E+02  0.45594000000E+02  0.51100000000E-03 0.  1.
         11   -1    0    0    0    0 -0.00000000000E+00 -0.00000000000E+00 -0.45593999997E+02  0.45594000000E+02  0.51100000000E-03 0. -1.
    9900012    2    1    2    0    0 -0.29310261940E+02  0.19522440074E+01 -0.28111612343E+02  0.50528862526E+02  0.30000008133E+02 0.  0.
         12    1    1    2    0    0  0.29310261940E+02 -0.19522440074E+01  0.28111612343E+02  0.40659137474E+02  0.00000000000E+00 0. -1.
         11    1    3    3    0    0  0.74494979890E+00 -0.23977681028E+01 -0.92882830512E+01  0.96216653640E+01  0.51100000000E-03 0. -1.
        -11    1    3    3    0    0 -0.29598180557E+02  0.94852483961E+01 -0.15148362145E+02  0.34575932458E+02  0.51100000000E-03 0.  1.
        -12    1    3    3    0    0 -0.45703118142E+00 -0.51352362859E+01 -0.36749671467E+01  0.63312647033E+01  0.00000000000E+00 0.  1.
</event>
<event>
 7    1  0.5006721E-012  0.5052886E+02  0.7816164E-02  0.1300439E+00
        -11   -1    0    0    0    0  0.00000000000E+00  0.00000000000E+00  0.45593999997E+02  0.45594000000E+02  0.51100000000E-03 0. -1.
         11   -1    0    0    0    0 -0.00000000000E+00 -0.00000000000E+00 -0.45593999997E+02  0.45594000000E+02  0.51100000000E-03 0.  1.
    9900012    2    1    2    0    0  0.29020016452E+01 -0.42566242773E+01 -0.40331439696E+02  0.50528862137E+02  0.30000006952E+02 0.  0.
         12    1    1    2    0    0 -0.29020016452E+01  0.42566242773E+01  0.40331439696E+02  0.40659137863E+02  0.00000000000E+00 0. -1.
         11    1    3    3    0    0  0.16248750961E+01  0.21174382466E+01  0.40681031901E+01  0.48655141180E+01  0.51100000000E-03 0. -1.
        -11    1    3    3    0    0 -0.30812085470E+01 -0.41892710311E+00 -0.96414574365E+01  0.10130500866E+02  0.51100000000E-03 0.  1.
         12    1    3    3    0    0  0.43583350961E+01 -0.59551354207E+01 -0.34758085450E+02  0.35532847153E+02  0.00000000000E+00 0. -1.
</event>
<event>
 7    1  0.5006721E-012  0.5052886E+02  0.7816164E-02  0.1300439E+00
        -11   -1    0    0    0    0  0.00000000000E+00  0.00000000000E+00  0.45593999997E+02  0.45594000000E+02  0.51100000000E-03 0.  1.
         11   -1    0    0    0    0 -0.00000000000E+00 -0.00000000000E+00 -0.45593999997E+02  0.45594000000E+02  0.51100000000E-03 0. -1.
    9900012    2    1    2    0    0 -0.32968555384E+02  0.19915841115E+02  0.13023021932E+02  0.50528862384E+02  0.30000007702E+02 0.  0.
        -12    1    1    2    0    0  0.32968555384E+02 -0.19915841115E+02 -0.13023021932E+02  0.40659137616E+02  0.00000000000E+00 0.  1.
         11    1    3    3    0    0 -0.22691797490E+02  0.44551814824E+01  0.70549699421E+01  0.24177239638E+02  0.51100000000E-03 0. -1.
        -11    1    3    3    0    0 -0.10707471138E+02  0.19118844264E+02  0.44108433869E+01  0.22352531933E+02  0.51100000000E-03 0.  1.
         12    1    3    3    0    0  0.43071324400E+00 -0.36581846312E+01  0.15572086029E+01  0.39990908127E+01  0.00000000000E+00 0. -1.
</event>
<event>
 7    1  0.5006721E-012  0.5052886E+02  0.7816164E-02  0.1300439E+00
        -11   -1    0    0    0    0  0.00000000000E+00  0.00000000000E+00  0.45593999997E+02  0.45594000000E+02  0.51100000000E-03 0. -1.
         11   -1    0    0    0    0 -0.00000000000E+00 -0.00000000000E+00 -0.45593999997E+02  0.45594000000E+02  0.51100000000E-03 0.  1.
    9900012    2    1    2    0    0  0.27484580961E+02 -0.19995356045E+02  0.22314769582E+02  0.50528863321E+02  0.30000010551E+02 0.  0.
        -12    1    1    2    0    0 -0.27484580961E+02  0.19995356045E+02 -0.22314769582E+02  0.40659136679E+02  0.00000000000E+00 0.  1.
         11    1    3    3    0    0  0.14891670190E+02 -0.38678087098E+01  0.19537976653E+02  0.24868741770E+02  0.51100000000E-03 0.  1.
        -11    1    3    3    0    0  0.46601717745E+01 -0.15740852018E+02  0.54229739614E+01  0.17288732460E+02  0.51100000000E-03 0. -1.
        -12    1    3    3    0    0  0.79327389964E+01 -0.38669531698E+00 -0.26461810325E+01  0.83713890908E+01  0.00000000000E+00 0.  1.
</event>
<event>
 7    1  0.5006721E-012  0.5052880E+02  0.7816164E-02  0.1300439E+00
        -11   -1    0    0    0    0  0.00000000000E+00  0.00000000000E+00  0.45593999997E+02  0.45594000000E+02  0.51100000000E-03 0. -1.
         11   -1    0    0    0    0 -0.00000000000E+00 -0.00000000000E+00 -0.45593999997E+02  0.45594000000E+02  0.51100000000E-03 0.  1.
    9900012    2    1    2    0    0  0.51676610661E+01  0.26450872629E+02  0.30443669217E+02  0.50528802035E+02  0.29999824266E+02 0.  0.
        -12    1    1    2    0    0 -0.51676610661E+01 -0.26450872629E+02 -0.30443669217E+02  0.40659197965E+02  0.00000000000E+00 0.  1.
         11    1    3    3    0    0  0.85617905213E+01 -0.77195420979E+00  0.11090634173E+02  0.14032189311E+02  0.51100000000E-03 0. -1.
        -11    1    3    3    0    0 -0.34849520015E+01  0.12333041283E+02  0.17203058587E+02  0.21452133291E+02  0.51100000000E-03 0.  1.
         12    1    3    3    0    0  0.90822546361E-01  0.14889785556E+02  0.21499764569E+01  0.15044479433E+02  0.00000000000E+00 0. -1.
</event>
<event>
 7    1  0.5006721E-012  0.5052885E+02  0.7816164E-02  0.1300439E+00
        -11   -1    0    0    0    0  0.00000000000E+00  0.00000000000E+00  0.45593999997E+02  0.45594000000E+02  0.51100000000E-03 0. -1.
         11   -1    0    0    0    0 -0.00000000000E+00 -0.00000000000E+00 -0.45593999997E+02  0.45594000000E+02  0.51100000000E-03 0.  1.
    9900012    2    1    2    0    0  0.16360164099E+02  0.30144894627E+02  0.21835675645E+02  0.50528851309E+02  0.29999974039E+02 0.  0.
        -12    1    1    2    0    0 -0.16360164099E+02 -0.30144894627E+02 -0.21835675645E+02  0.40659148691E+02  0.00000000000E+00 0.  1.
         11    1    3    3    0    0  0.79245729335E+01  0.61104703460E+01  0.52929503572E+01  0.11320425247E+02  0.51100000000E-03 0. -1.
        -11    1    3    3    0    0 -0.58485456315E+01  0.18530602517E+02  0.13337758965E+02  0.23568719314E+02  0.51100000000E-03 0.  1.
        -12    1    3    3    0    0  0.14284136797E+02  0.55038217638E+01  0.32049663232E+01  0.15639706748E+02  0.00000000000E+00 0.  1.
</event>
<event>
 7    1  0.5006721E-012  0.5052886E+02  0.7816164E-02  0.1300439E+00
        -11   -1    0    0    0    0  0.00000000000E+00  0.00000000000E+00  0.45593999997E+02  0.45594000000E+02  0.51100000000E-03 0. -1.
         11   -1    0    0    0    0 -0.00000000000E+00 -0.00000000000E+00 -0.45593999997E+02  0.45594000000E+02  0.51100000000E-03 0.  1.
    9900012    2    1    2    0    0  0.46331659504E+01  0.61757014506E+01 -0.39919415889E+02  0.50528864740E+02  0.30000014864E+02 0.  0.
         12    1    1    2    0    0 -0.46331659504E+01 -0.61757014506E+01  0.39919415889E+02  0.40659135260E+02  0.00000000000E+00 0. -1.
         11    1    3    3    0    0 -0.62627319729E+01  0.13626213815E+02 -0.13438633812E+02  0.20136841701E+02  0.51100000000E-03 0. -1.
        -11    1    3    3    0    0  0.64947184554E+01 -0.77397459148E+01 -0.21390416371E+02  0.23656604732E+02  0.51100000000E-03 0.  1.
         12    1    3    3    0    0  0.44011794679E+01  0.28923355028E+00 -0.50903657059E+01  0.67354183073E+01  0.00000000000E+00 0. -1.
</event>
<event>
 7    1  0.6039946E-012  0.5052886E+02  0.7816164E-02  0.1300439E+00
        -11   -1    0    0    0    0  0.00000000000E+00  0.00000000000E+00  0.45593999997E+02  0.45594000000E+02  0.51100000000E-03 0. -1.
         11   -1    0    0    0    0 -0.00000000000E+00 -0.00000000000E+00 -0.45593999997E+02  0.45594000000E+02  0.51100000000E-03 0.  1.
    9900012    2    1    2    0    0  0.28984017380E+02 -0.11131955170E+02  0.26252077952E+02  0.50528864665E+02  0.30000014636E+02 0.  0.
        -12    1    1    2    0    0 -0.28984017380E+02  0.11131955170E+02 -0.26252077952E+02  0.40659135335E+02  0.00000000000E+00 0.  1.
         11    1    3    3    0    0  0.11669616784E+02 -0.16087856093E+02  0.13597860647E+02  0.24081131286E+02  0.51100000000E-03 0. -1.
        -11    1    3    3    0    0  0.97002330912E+00  0.64372505873E+01  0.55896820007E+01  0.85804245509E+01  0.51100000000E-03 0.  1.
         12    1    3    3    0    0  0.16344377286E+02 -0.14813496641E+01  0.70645353045E+01  0.17867308829E+02  0.00000000000E+00 0. -1.
</event>
<event>
 7    1  0.5006721E-012  0.5052885E+02  0.7816164E-02  0.1300439E+00
        -11   -1    0    0    0    0  0.00000000000E+00  0.00000000000E+00  0.45593999997E+02  0.45594000000E+02  0.51100000000E-03 0. -1.
         11   -1    0    0    0    0 -0.00000000000E+00 -0.00000000000E+00 -0.45593999997E+02  0.45594000000E+02  0.51100000000E-03 0.  1.
    9900012    2    1    2    0    0 -0.90789013573E+01  0.17035885984E+02 -0.35784335099E+02  0.50528849743E+02  0.29999969279E+02 0.  0.
         12    1    1    2    0    0  0.90789013573E+01 -0.17035885984E+02  0.35784335099E+02  0.40659150257E+02  0.00000000000E+00 0. -1.
         11    1    3    3    0    0  0.28814302202E+01  0.17587654057E+02 -0.23393323030E+02  0.29408770427E+02  0.51100000000E-03 0. -1.
        -11    1    3    3    0    0 -0.61066415129E+01  0.72952773307E+00  0.12005904831E+01  0.62661550452E+01  0.51100000000E-03 0.  1.
        -12    1    3    3    0    0 -0.58536900646E+01 -0.12812958062E+01 -0.13591602552E+02  0.14853924271E+02  0.00000000000E+00 0.  1.
</event>
<event>
 7    1  0.5006721E-012  0.5052885E+02  0.7816164E-02  0.1300439E+00
        -11   -1    0    0    0    0  0.00000000000E+00  0.00000000000E+00  0.45593999997E+02  0.45594000000E+02  0.51100000000E-03 0. -1.
         11   -1    0    0    0    0 -0.00000000000E+00 -0.00000000000E+00 -0.45593999997E+02  0.45594000000E+02  0.51100000000E-03 0.  1.
    9900012    2    1    2    0    0 -0.42561534255E+01  0.21774613405E+02 -0.34072240510E+02  0.50528853375E+02  0.29999980318E+02 0.  0.
         12    1    1    2    0    0  0.42561534255E+01 -0.21774613405E+02  0.34072240510E+02  0.40659146625E+02  0.00000000000E+00 0. -1.
         11    1    3    3    0    0  0.14105110004E+01  0.18820751767E+02 -0.33121754650E+02  0.38121658801E+02  0.51100000000E-03 0. -1.
        -11    1    3    3    0    0 -0.77645742620E+01  0.27841966810E+01  0.22741813751E+01  0.85564166458E+01  0.51100000000E-03 0.  1.
         12    1    3    3    0    0  0.20979098362E+01  0.16966495777E+00 -0.32246672348E+01  0.38507779284E+01  0.00000000000E+00 0. -1.
</event>
<event>
 7    1  0.5006721E-012  0.5052887E+02  0.7816164E-02  0.1300439E+00
        -11   -1    0    0    0    0  0.00000000000E+00  0.00000000000E+00  0.45593999997E+02  0.45594000000E+02  0.51100000000E-03 0. -1.
         11   -1    0    0    0    0 -0.00000000000E+00 -0.00000000000E+00 -0.45593999997E+02  0.45594000000E+02  0.51100000000E-03 0.  1.
    9900012    2    1    2    0    0 -0.14472208376E+02  0.15588830271E+02  0.34651238440E+02  0.50528871014E+02  0.30000033934E+02 0.  0.
        -12    1    1    2    0    0  0.14472208376E+02 -0.15588830271E+02 -0.34651238440E+02  0.40659128986E+02  0.00000000000E+00 0.  1.
         11    1    3    3    0    0 -0.17738655150E+02  0.43005821873E+01  0.72906348758E+01  0.19654725916E+02  0.51100000000E-03 0. -1.
        -11    1    3    3    0    0 -0.88795736277E+00  0.15384765112E+01  0.28599366923E+00  0.17992139655E+01  0.51100000000E-03 0.  1.
         12    1    3    3    0    0  0.41544041362E+01  0.97497715726E+01  0.27074609895E+02  0.29074931133E+02  0.00000000000E+00 0. -1.
</event>
<event>
 7    1  0.5006721E-012  0.5052887E+02  0.7816164E-02  0.1300439E+00
        -11   -1    0    0    0    0  0.00000000000E+00  0.00000000000E+00  0.45593999997E+02  0.45594000000E+02  0.51100000000E-03 0.  1.
         11   -1    0    0    0    0 -0.00000000000E+00 -0.00000000000E+00 -0.45593999997E+02  0.45594000000E+02  0.51100000000E-03 0. -1.
    9900012    2    1    2    0    0 -0.39060458070E+02  0.11077739766E+02 -0.21746022676E+01  0.50528873128E+02  0.30000040360E+02 0.  0.
        -12    1    1    2    0    0  0.39060458070E+02 -0.11077739766E+02  0.21746022676E+01  0.40659126872E+02  0.00000000000E+00 0.  1.
         11    1    3    3    0    0 -0.33280689818E+02  0.11149809854E+02  0.38650351406E+01  0.35310920003E+02  0.51100000000E-03 0. -1.
        -11    1    3    3    0    0  0.27750191843E+01  0.23114600197E+01  0.11516723932E+01  0.37907688479E+01  0.51100000000E-03 0.  1.
         12    1    3    3    0    0 -0.85547874362E+01 -0.23835301076E+01 -0.71913098014E+01  0.11427184277E+02  0.00000000000E+00 0. -1.
</event>
<event>
 7    1  0.5006721E-012  0.5052888E+02  0.7816164E-02  0.1300439E+00
        -11   -1    0    0    0    0  0.00000000000E+00  0.00000000000E+00  0.45593999997E+02  0.45594000000E+02  0.51100000000E-03 0.  1.
         11   -1    0    0    0    0 -0.00000000000E+00 -0.00000000000E+00 -0.45593999997E+02  0.45594000000E+02  0.51100000000E-03 0. -1.
    9900012    2    1    2    0    0 -0.17182865185E+01  0.38795439026E+02  0.12046793774E+02  0.50528882473E+02  0.30000068766E+02 0.  0.
         12    1    1    2    0    0  0.17182865185E+01 -0.38795439026E+02 -0.12046793774E+02  0.40659117527E+02  0.00000000000E+00 0. -1.
         11    1    3    3    0    0 -0.54210143010E+01  0.79405447420E+01 -0.46834418866E+01  0.10694590923E+02  0.51100000000E-03 0. -1.
        -11    1    3    3    0    0  0.65911669250E+01  0.22888819607E+02  0.19643320491E+02  0.30873962891E+02  0.51100000000E-03 0.  1.
        -12    1    3    3    0    0 -0.28884391425E+01  0.79660746777E+01 -0.29130848305E+01  0.89603286592E+01  0.00000000000E+00 0.  1.
</event>
<event>
 7    1  0.5006721E-012  0.5052884E+02  0.7816164E-02  0.1300439E+00
        -11   -1    0    0    0    0  0.00000000000E+00  0.00000000000E+00  0.45593999997E+02  0.45594000000E+02  0.51100000000E-03 0. -1.
         11   -1    0    0    0    0 -0.00000000000E+00 -0.00000000000E+00 -0.45593999997E+02  0.45594000000E+02  0.51100000000E-03 0.  1.
    9900012    2    1    2    0    0 -0.28257130636E+02 -0.78628809009E+01  0.28158067542E+02  0.50528842415E+02  0.29999947004E+02 0.  0.
        -12    1    1    2    0    0  0.28257130636E+02  0.78628809009E+01 -0.28158067542E+02  0.40659157585E+02  0.00000000000E+00 0.  1.
         11    1    3    3    0    0 -0.22649873832E+02 -0.11816235830E+02  0.96364092910E+01  0.27303856835E+02  0.51100000000E-03 0. -1.
        -11    1    3    3    0    0 -0.40127356797E+01  0.81995634537E+01  0.97914943681E+01  0.13386868592E+02  0.51100000000E-03 0.  1.
        -12    1    3    3    0    0 -0.15945211242E+01 -0.42462085248E+01  0.87301638831E+01  0.98381169884E+01  0.00000000000E+00 0.  1.
</event>
<event>
 7    1  0.5006721E-012  0.5052886E+02  0.7816164E-02  0.1300439E+00
        -11   -1    0    0    0    0  0.00000000000E+00  0.00000000000E+00  0.45593999997E+02  0.45594000000E+02  0.51100000000E-03 0. -1.
         11   -1    0    0    0    0 -0.00000000000E+00 -0.00000000000E+00 -0.45593999997E+02  0.45594000000E+02  0.51100000000E-03 0.  1.
    9900012    2    1    2    0    0  0.62596981105E+01  0.20282769695E+02 -0.34678398310E+02  0.50528857409E+02  0.29999992579E+02 0.  0.
         12    1    1    2    0    0 -0.62596981105E+01 -0.20282769695E+02  0.34678398310E+02  0.40659142591E+02  0.00000000000E+00 0. -1.
         11    1    3    3    0    0 -0.65283150603E+01 -0.14699988041E+01 -0.24997217887E+01  0.71434167800E+01  0.51100000000E-03 0. -1.
        -11    1    3    3    0    0  0.11676442785E+02  0.12180113701E+02 -0.11067798072E+02  0.20178965293E+02  0.51100000000E-03 0.  1.
        -12    1    3    3    0    0  0.11115703861E+01  0.95726547982E+01 -0.21110878449E+02  0.23206475335E+02  0.00000000000E+00 0.  1.
</event>
<event>
 7    1  0.5006721E-012  0.5052883E+02  0.7816164E-02  0.1300439E+00
        -11   -1    0    0    0    0  0.00000000000E+00  0.00000000000E+00  0.45593999997E+02  0.45594000000E+02  0.51100000000E-03 0. -1.
         11   -1    0    0    0    0 -0.00000000000E+00 -0.00000000000E+00 -0.45593999997E+02  0.45594000000E+02  0.51100000000E-03 0.  1.
    9900012    2    1    2    0    0 -0.60182002809E+01 -0.19141322673E+02  0.35363240899E+02  0.50528834057E+02  0.29999921601E+02 0.  0.
        -12    1    1    2    0    0  0.60182002809E+01  0.19141322673E+02 -0.35363240899E+02  0.40659165943E+02  0.00000000000E+00 0.  1.
         11    1    3    3    0    0 -0.43892802134E+01 -0.15601093962E+02  0.33874039202E+02  0.37551437333E+02  0.51100000000E-03 0. -1.
        -11    1    3    3    0    0 -0.11562963941E+01  0.41866467358E+01 -0.16191117061E+01  0.46353592331E+01  0.51100000000E-03 0.  1.
        -12    1    3    3    0    0 -0.47262367341E+00 -0.77268754466E+01  0.31083134024E+01  0.83420374916E+01  0.00000000000E+00 0.  1.
</event>
<event>
 7    1  0.5006721E-012  0.5052881E+02  0.7816164E-02  0.1300439E+00
        -11   -1    0    0    0    0  0.00000000000E+00  0.00000000000E+00  0.45593999997E+02  0.45594000000E+02  0.51100000000E-03 0.  1.
         11   -1    0    0    0    0 -0.00000000000E+00 -0.00000000000E+00 -0.45593999997E+02  0.45594000000E+02  0.51100000000E-03 0. -1.
    9900012    2    1    2    0    0 -0.23712738774E+02  0.32982333287E+02 -0.17440322726E+01  0.50528807463E+02  0.29999840764E+02 0.  0.
         12    1    1    2    0    0  0.23712738774E+02 -0.32982333287E+02  0.17440322726E+01  0.40659192537E+02  0.00000000000E+00 0. -1.
         11    1    3    3    0    0 -0.24042454461E+02  0.23988443245E+02  0.57158257906E+01  0.34440611066E+02  0.51100000000E-03 0. -1.
        -11    1    3    3    0    0  0.16753842973E+01  0.75113612363E+01  0.66089680208E+00  0.77242633960E+01  0.51100000000E-03 0.  1.
         12    1    3    3    0    0 -0.13456686099E+01  0.14825288052E+01 -0.81207548653E+01  0.83639330012E+01  0.00000000000E+00 0. -1.
</event>
<event>
 7    1  0.5006721E-012  0.5052886E+02  0.7816164E-02  0.1300439E+00
        -11   -1    0    0    0    0  0.00000000000E+00  0.00000000000E+00  0.45593999997E+02  0.45594000000E+02  0.51100000000E-03 0. -1.
         11   -1    0    0    0    0 -0.00000000000E+00 -0.00000000000E+00 -0.45593999997E+02  0.45594000000E+02  0.51100000000E-03 0.  1.
    9900012    2    1    2    0    0  0.95271338626E+01  0.55992367208E+00  0.39523232498E+02  0.50528859561E+02  0.29999999122E+02 0.  0.
        -12    1    1    2    0    0 -0.95271338626E+01 -0.55992367208E+00 -0.39523232498E+02  0.40659140439E+02  0.00000000000E+00 0.  1.
         11    1    3    3    0    0  0.93741188601E+00  0.12302483762E+02  0.20676773795E+02  0.24078181463E+02  0.51100000000E-03 0.  1.
        -11    1    3    3    0    0  0.53439048717E+01 -0.10262276719E+02  0.19641196379E+02  0.22795794309E+02  0.51100000000E-03 0. -1.
        -12    1    3    3    0    0  0.32458171049E+01 -0.14802833704E+01 -0.79473767570E+00  0.36548837886E+01  0.00000000000E+00 0.  1.
</event>
<event>
 7    1  0.5006721E-012  0.5052887E+02  0.7816164E-02  0.1300439E+00
        -11   -1    0    0    0    0  0.00000000000E+00  0.00000000000E+00  0.45593999997E+02  0.45594000000E+02  0.51100000000E-03 0. -1.
         11   -1    0    0    0    0 -0.00000000000E+00 -0.00000000000E+00 -0.45593999997E+02  0.45594000000E+02  0.51100000000E-03 0.  1.
    9900012    2    1    2    0    0 -0.29507348561E+01  0.29908705915E+02 -0.27384806953E+02  0.50528866001E+02  0.30000018697E+02 0.  0.
         12    1    1    2    0    0  0.29507348561E+01 -0.29908705915E+02  0.27384806953E+02  0.40659133999E+02  0.00000000000E+00 0. -1.
         11    1    3    3    0    0 -0.62317095739E+01 -0.39775502584E+01 -0.29436813186E+01  0.79574097694E+01  0.51100000000E-03 0. -1.
        -11    1    3    3    0    0  0.40841931496E+01  0.15875281962E+02 -0.15003233239E+02  0.22221661030E+02  0.51100000000E-03 0.  1.
         12    1    3    3    0    0 -0.80321843187E+00  0.18010974212E+02 -0.94378923950E+01  0.20349795202E+02  0.00000000000E+00 0. -1.
</event>
<event>
 7    1  0.5006721E-012  0.5052889E+02  0.7816164E-02  0.1300439E+00
        -11   -1    0    0    0    0  0.00000000000E+00  0.00000000000E+00  0.45593999997E+02  0.45594000000E+02  0.51100000000E-03 0. -1.
         11   -1    0    0    0    0 -0.00000000000E+00 -0.00000000000E+00 -0.45593999997E+02  0.45594000000E+02  0.51100000000E-03 0.  1.
    9900012    2    1    2    0    0  0.13270928009E+02  0.34294636848E+02  0.17347137740E+02  0.50528894814E+02  0.30000106277E+02 0.  0.
        -12    1    1    2    0    0 -0.13270928009E+02 -0.34294636848E+02 -0.17347137740E+02  0.40659105186E+02  0.00000000000E+00 0.  1.
         11    1    3    3    0    0 -0.87105829687E+01  0.11283107684E+02  0.47898985739E+01  0.15037483276E+02  0.51100000000E-03 0. -1.
        -11    1    3    3    0    0  0.98249891389E+01  0.12866768417E+02  0.16675133357E+01  0.16274665651E+02  0.51100000000E-03 0.  1.
        -12    1    3    3    0    0  0.12156521839E+02  0.10144760747E+02  0.10889725830E+02  0.19216745887E+02  0.00000000000E+00 0.  1.
</event>
<event>
 7    1  0.5006721E-012  0.5052886E+02  0.7816164E-02  0.1300439E+00
        -11   -1    0    0    0    0  0.00000000000E+00  0.00000000000E+00  0.45593999997E+02  0.45594000000E+02  0.51100000000E-03 0. -1.
         11   -1    0    0    0    0 -0.00000000000E+00 -0.00000000000E+00 -0.45593999997E+02  0.45594000000E+02  0.51100000000E-03 0.  1.
    9900012    2    1    2    0    0  0.11894662163E+02  0.18785333414E+02  0.34041059112E+02  0.50528862712E+02  0.30000008701E+02 0.  0.
        -12    1    1    2    0    0 -0.11894662163E+02 -0.18785333414E+02 -0.34041059112E+02  0.40659137288E+02  0.00000000000E+00 0.  1.
         11    1    3    3    0    0  0.11801790430E+02  0.43909900169E+01  0.38588362839E+01  0.13170181031E+02  0.51100000000E-03 0. -1.
        -11    1    3    3    0    0  0.23817867251E+01  0.25384349155E+01  0.23098621410E+02  0.23359427886E+02  0.51100000000E-03 0.  1.
         12    1    3    3    0    0 -0.22889149913E+01  0.11855908482E+02  0.70836014181E+01  0.13999253795E+02  0.00000000000E+00 0. -1.
</event>
<event>
 7    1  0.5006721E-012  0.5052886E+02  0.7816164E-02  0.1300439E+00
        -11   -1    0    0    0    0  0.00000000000E+00  0.00000000000E+00  0.45593999997E+02  0.45594000000E+02  0.51100000000E-03 0.  1.
         11   -1    0    0    0    0 -0.00000000000E+00 -0.00000000000E+00 -0.45593999997E+02  0.45594000000E+02  0.51100000000E-03 0. -1.
    9900012    2    1    2    0    0 -0.35110031686E+02  0.63062091072E+01  0.19511104656E+02  0.50528858307E+02  0.29999995311E+02 0.  0.
        -12    1    1    2    0    0  0.35110031686E+02 -0.63062091072E+01 -0.19511104656E+02  0.40659141693E+02  0.00000000000E+00 0.  1.
         11    1    3    3    0    0 -0.35378775844E+02  0.15666466833E+01  0.11112082569E+02  0.37115906850E+02  0.51100000000E-03 0. -1.
        -11    1    3    3    0    0  0.33535489504E+01 -0.12445064528E+01  0.40233335280E+01  0.53835211352E+01  0.51100000000E-03 0.  1.
         12    1    3    3    0    0 -0.30848047922E+01  0.59840688767E+01  0.43756885596E+01  0.80294303221E+01  0.00000000000E+00 0. -1.
</event>
<event>
 7    1  0.5006721E-012  0.5052886E+02  0.7816164E-02  0.1300439E+00
        -11   -1    0    0    0    0  0.00000000000E+00  0.00000000000E+00  0.45593999997E+02  0.45594000000E+02  0.51100000000E-03 0. -1.
         11   -1    0    0    0    0 -0.00000000000E+00 -0.00000000000E+00 -0.45593999997E+02  0.45594000000E+02  0.51100000000E-03 0.  1.
    9900012    2    1    2    0    0 -0.19192508555E+02 -0.20895570230E+02  0.29123677516E+02  0.50528857954E+02  0.29999994237E+02 0.  0.
        -12    1    1    2    0    0  0.19192508555E+02  0.20895570230E+02 -0.29123677516E+02  0.40659142046E+02  0.00000000000E+00 0.  1.
         11    1    3    3    0    0 -0.67274963481E+01 -0.16632159213E+02  0.10206208939E+02  0.20641090775E+02  0.51100000000E-03 0. -1.
        -11    1    3    3    0    0 -0.20426143681E+01 -0.85224014314E+00  0.18790713307E+02  0.18920610285E+02  0.51100000000E-03 0.  1.
        -12    1    3    3    0    0 -0.10422397839E+02 -0.34111708734E+01  0.12675527040E+00  0.10967156894E+02  0.00000000000E+00 0.  1.
</event>
<event>
 7    1  0.5006721E-012  0.5052889E+02  0.7816164E-02  0.1300439E+00
        -11   -1    0    0    0    0  0.00000000000E+00  0.00000000000E+00  0.45593999997E+02  0.45594000000E+02  0.51100000000E-03 0. -1.
         11   -1    0    0    0    0 -0.00000000000E+00 -0.00000000000E+00 -0.45593999997E+02  0.45594000000E+02  0.51100000000E-03 0.  1.
    9900012    2    1    2    0    0 -0.16755010024E+02 -0.28207258864E+02  0.24016319604E+02  0.50528887603E+02  0.30000084359E+02 0.  0.
        -12    1    1    2    0    0  0.16755010024E+02  0.28207258864E+02 -0.24016319604E+02  0.40659112397E+02  0.00000000000E+00 0.  1.
         11    1    3    3    0    0 -0.69499825070E+01 -0.18023725239E+02  0.18823345332E+02  0.26971749258E+02  0.51100000000E-03 0. -1.
        -11    1    3    3    0    0 -0.19861392116E+01  0.50019269339E+01  0.34398096343E+01  0.63871991202E+01  0.51100000000E-03 0.  1.
        -12    1    3    3    0    0 -0.78188883057E+01 -0.15185460559E+02  0.17531646384E+01  0.17169939225E+02  0.00000000000E+00 0.  1.
</event>
<event>
 7    1  0.5006721E-012  0.5052886E+02  0.7816164E-02  0.1300439E+00
        -11   -1    0    0    0    0  0.00000000000E+00  0.00000000000E+00  0.45593999997E+02  0.45594000000E+02  0.51100000000E-03 0. -1.
         11   -1    0    0    0    0 -0.00000000000E+00 -0.00000000000E+00 -0.45593999997E+02  0.45594000000E+02  0.51100000000E-03 0.  1.
    9900012    2    1    2    0    0  0.23630881805E+02  0.10828257421E+02 -0.31264935654E+02  0.50528856685E+02  0.29999990379E+02 0.  0.
         12    1    1    2    0    0 -0.23630881805E+02 -0.10828257421E+02  0.31264935654E+02  0.40659143315E+02  0.00000000000E+00 0. -1.
         11    1    3    3    0    0 -0.36695248625E+01  0.77351595260E+01 -0.21868389728E+01  0.88363097820E+01  0.51100000000E-03 0. -1.
        -11    1    3    3    0    0  0.24298216799E+02  0.62380328310E+01 -0.21900952512E+02  0.33301172869E+02  0.51100000000E-03 0.  1.
        -12    1    3    3    0    0  0.30021898676E+01 -0.31449349356E+01 -0.71771441697E+01  0.83913740343E+01  0.00000000000E+00 0.  1.
</event>
<event>
 7    1  0.5006721E-012  0.5052887E+02  0.7816164E-02  0.1300439E+00
        -11   -1    0    0    0    0  0.00000000000E+00  0.00000000000E+00  0.45593999997E+02  0.45594000000E+02  0.51100000000E-03 0. -1.
         11   -1    0    0    0    0 -0.00000000000E+00 -0.00000000000E+00 -0.45593999997E+02  0.45594000000E+02  0.51100000000E-03 0.  1.
    9900012    2    1    2    0    0  0.18955401645E+02  0.34491302980E+02  0.10208221093E+02  0.50528868053E+02  0.30000024934E+02 0.  0.
        -12    1    1    2    0    0 -0.18955401645E+02 -0.34491302980E+02 -0.10208221093E+02  0.40659131947E+02  0.00000000000E+00 0.  1.
         11    1    3    3    0    0  0.19440542662E+02  0.19787634992E+02  0.38161314844E+01  0.28000858154E+02  0.51100000000E-03 0. -1.
        -11    1    3    3    0    0 -0.71901692255E+01  0.25012367368E+01  0.14232082097E+01  0.77446911219E+01  0.51100000000E-03 0.  1.
        -12    1    3    3    0    0  0.67050282084E+01  0.12202431251E+02  0.49688813985E+01  0.14783318777E+02  0.00000000000E+00 0.  1.
</event>
<event>
 7    1  0.5006721E-012  0.5052885E+02  0.7816164E-02  0.1300439E+00
        -11   -1    0    0    0    0  0.00000000000E+00  0.00000000000E+00  0.45593999997E+02  0.45594000000E+02  0.51100000000E-03 0. -1.
         11   -1    0    0    0    0 -0.00000000000E+00 -0.00000000000E+00 -0.45593999997E+02  0.45594000000E+02  0.51100000000E-03 0.  1.
    9900012    2    1    2    0    0 -0.13519773205E+02 -0.16749497280E+02 -0.34494012610E+02  0.50528845649E+02  0.29999956834E+02 0.  0.
         12    1    1    2    0    0  0.13519773205E+02  0.16749497280E+02  0.34494012610E+02  0.40659154351E+02  0.00000000000E+00 0. -1.
         11    1    3    3    0    0 -0.13723395311E+02 -0.15500711759E+02 -0.36800573871E+02  0.42224233343E+02  0.51100000000E-03 0. -1.
        -11    1    3    3    0    0  0.35832490339E+01 -0.11133700479E+01 -0.65495886244E+00  0.38089680853E+01  0.51100000000E-03 0.  1.
         12    1    3    3    0    0 -0.33796269277E+01 -0.13541547278E+00  0.29615201235E+01  0.44956442211E+01  0.00000000000E+00 0. -1.
</event>
<event>
 7    1  0.5006721E-012  0.5052886E+02  0.7816164E-02  0.1300439E+00
        -11   -1    0    0    0    0  0.00000000000E+00  0.00000000000E+00  0.45593999997E+02  0.45594000000E+02  0.51100000000E-03 0.  1.
         11   -1    0    0    0    0 -0.00000000000E+00 -0.00000000000E+00 -0.45593999997E+02  0.45594000000E+02  0.51100000000E-03 0. -1.
    9900012    2    1    2    0    0 -0.22814614296E+02  0.25754120333E+02 -0.21665270802E+02  0.50528864513E+02  0.30000014174E+02 0.  0.
        -12    1    1    2    0    0  0.22814614296E+02 -0.25754120333E+02  0.21665270802E+02  0.40659135487E+02  0.00000000000E+00 0.  1.
         11    1    3    3    0    0 -0.18787572132E+02  0.25842039232E+02 -0.13887328317E+02  0.34837361357E+02  0.51100000000E-03 0. -1.
        -11    1    3    3    0    0 -0.27012376123E+01 -0.12065673007E+01  0.33268651009E+01  0.44520243654E+01  0.51100000000E-03 0.  1.
         12    1    3    3    0    0 -0.13258045517E+01  0.11186484014E+01 -0.11104807586E+02  0.11239478790E+02  0.00000000000E+00 0. -1.
</event>
<event>
 7    1  0.5006721E-012  0.5052886E+02  0.7816164E-02  0.1300439E+00
        -11   -1    0    0    0    0  0.00000000000E+00  0.00000000000E+00  0.45593999997E+02  0.45594000000E+02  0.51100000000E-03 0. -1.
         11   -1    0    0    0    0 -0.00000000000E+00 -0.00000000000E+00 -0.45593999997E+02  0.45594000000E+02  0.51100000000E-03 0.  1.
    9900012    2    1    2    0    0 -0.31209578134E+02 -0.15134107509E+02 -0.21215249050E+02  0.50528858720E+02  0.29999996565E+02 0.  0.
         12    1    1    2    0    0  0.31209578134E+02  0.15134107509E+02  0.21215249050E+02  0.40659141280E+02  0.00000000000E+00 0. -1.
         11    1    3    3    0    0 -0.11079639849E+02 -0.17273128471E+01  0.60422637631E+01  0.12737777691E+02  0.51100000000E-03 0. -1.
        -11    1    3    3    0    0 -0.68181410152E+01 -0.81874848314E+01 -0.61673669071E+01  0.12310904499E+02  0.51100000000E-03 0.  1.
         12    1    3    3    0    0 -0.13311797270E+02 -0.52193098309E+01 -0.21090145906E+02  0.25480176530E+02  0.00000000000E+00 0. -1.
</event>
<event>
 7    1  0.5006721E-012  0.5052885E+02  0.7816164E-02  0.1300439E+00
        -11   -1    0    0    0    0  0.00000000000E+00  0.00000000000E+00  0.45593999997E+02  0.45594000000E+02  0.51100000000E-03 0. -1.
         11   -1    0    0    0    0 -0.00000000000E+00 -0.00000000000E+00 -0.45593999997E+02  0.45594000000E+02  0.51100000000E-03 0.  1.
    9900012    2    1    2    0    0 -0.26804302538E+02  0.27580516104E+02  0.13191322411E+02  0.50528849861E+02  0.29999969638E+02 0.  0.
        -12    1    1    2    0    0  0.26804302538E+02 -0.27580516104E+02 -0.13191322411E+02  0.40659150139E+02  0.00000000000E+00 0.  1.
         11    1    3    3    0    0 -0.18517448969E+02  0.65319935023E+00  0.83474226788E+01  0.20322451903E+02  0.51100000000E-03 0. -1.
        -11    1    3    3    0    0 -0.39876256567E+01  0.19012840833E+01  0.51877250997E+00  0.44480517895E+01  0.51100000000E-03 0.  1.
         12    1    3    3    0    0 -0.42992279120E+01  0.25026032670E+02  0.43251272218E+01  0.25758346169E+02  0.00000000000E+00 0. -1.
</event>
<event>
 7    1  0.5006721E-012  0.5052886E+02  0.7816164E-02  0.1300439E+00
        -11   -1    0    0    0    0  0.00000000000E+00  0.00000000000E+00  0.45593999997E+02  0.45594000000E+02  0.51100000000E-03 0.  1.
         11   -1    0    0    0    0 -0.00000000000E+00 -0.00000000000E+00 -0.45593999997E+02  0.45594000000E+02  0.51100000000E-03 0. -1.
    9900012    2    1    2    0    0  0.11300303142E+02 -0.38710239654E+02 -0.51947970802E+01  0.50528862997E+02  0.30000009565E+02 0.  0.
        -12    1    1    2    0    0 -0.11300303142E+02  0.38710239654E+02  0.51947970802E+01  0.40659137003E+02  0.00000000000E+00 0.  1.
         11    1    3    3    0    0 -0.62737364420E+01 -0.20364970798E+01  0.24356749516E+00  0.66004859432E+01  0.51100000000E-03 0. -1.
        -11    1    3    3    0    0  0.10608081397E+02 -0.28199532285E+02 -0.10420829188E+02  0.31880067334E+02  0.51100000000E-03 0.  1.
        -12    1    3    3    0    0  0.69659581862E+01 -0.84742102893E+01  0.49824646122E+01  0.12048309719E+02  0.00000000000E+00 0.  1.
</event>
<event>
 7    1  0.5006721E-012  0.5052887E+02  0.7816164E-02  0.1300439E+00
        -11   -1    0    0    0    0  0.00000000000E+00  0.00000000000E+00  0.45593999997E+02  0.45594000000E+02  0.51100000000E-03 0. -1.
         11   -1    0    0    0    0 -0.00000000000E+00 -0.00000000000E+00 -0.45593999997E+02  0.45594000000E+02  0.51100000000E-03 0.  1.
    9900012    2    1    2    0    0 -0.20581935040E+00 -0.77507230983E+01 -0.39913014905E+02  0.50528870288E+02  0.30000031727E+02 0.  0.
         12    1    1    2    0    0  0.20581935040E+00  0.77507230983E+01  0.39913014905E+02  0.40659129712E+02  0.00000000000E+00 0. -1.
         11    1    3    3    0    0  0.10221194500E+01  0.13884905027E+01 -0.23053363170E+02  0.23117746165E+02  0.51100000000E-03 0. -1.
        -11    1    3    3    0    0 -0.58220345086E+01 -0.10841398916E+02 -0.29367141689E+01  0.12651336161E+02  0.51100000000E-03 0.  1.
        -12    1    3    3    0    0  0.45940957082E+01  0.17021853152E+01 -0.13922937566E+02  0.14759787962E+02  0.00000000000E+00 0.  1.
</event>
<event>
 7    1  0.5006721E-012  0.5052886E+02  0.7816164E-02  0.1300439E+00
        -11   -1    0    0    0    0  0.00000000000E+00  0.00000000000E+00  0.45593999997E+02  0.45594000000E+02  0.51100000000E-03 0. -1.
         11   -1    0    0    0    0 -0.00000000000E+00 -0.00000000000E+00 -0.45593999997E+02  0.45594000000E+02  0.51100000000E-03 0.  1.
    9900012    2    1    2    0    0 -0.27427438326E+01 -0.25137348226E+02  0.31839552815E+02  0.50528855358E+02  0.29999986346E+02 0.  0.
        -12    1    1    2    0    0  0.27427438326E+01  0.25137348226E+02 -0.31839552815E+02  0.40659144642E+02  0.00000000000E+00 0.  1.
         11    1    3    3    0    0 -0.50403531639E+01 -0.18559867353E+02  0.21187660940E+02  0.28614521009E+02  0.51100000000E-03 0. -1.
        -11    1    3    3    0    0  0.24640555071E+01  0.59404024699E+01  0.21487260875E+01  0.67806323530E+01  0.51100000000E-03 0.  1.
        -12    1    3    3    0    0 -0.16644617577E+00 -0.12517883342E+02  0.85031657871E+01  0.15133701996E+02  0.00000000000E+00 0.  1.
</event>
<event>
 7    1  0.5006721E-012  0.5052887E+02  0.7816164E-02  0.1300439E+00
        -11   -1    0    0    0    0  0.00000000000E+00  0.00000000000E+00  0.45593999997E+02  0.45594000000E+02  0.51100000000E-03 0. -1.
         11   -1    0    0    0    0 -0.00000000000E+00 -0.00000000000E+00 -0.45593999997E+02  0.45594000000E+02  0.51100000000E-03 0.  1.
    9900012    2    1    2    0    0 -0.42205535710E+01  0.39641515247E+02 -0.79938947480E+01  0.50528866256E+02  0.30000019472E+02 0.  0.
         12    1    1    2    0    0  0.42205535710E+01 -0.39641515247E+02  0.79938947480E+01  0.40659133744E+02  0.00000000000E+00 0. -1.
         11    1    3    3    0    0  0.61983978416E+01  0.15340651519E+01 -0.28235948292E+01  0.69818464402E+01  0.51100000000E-03 0. -1.
        -11    1    3    3    0    0 -0.82589528517E+01  0.24347383275E+02 -0.11600310739E+02  0.28205896264E+02  0.51100000000E-03 0.  1.
        -12    1    3    3    0    0 -0.21599985609E+01  0.13760066821E+02  0.64300108204E+01  0.15341123552E+02  0.00000000000E+00 0.  1.
</event>
<event>
 7    1  0.5006721E-012  0.5052885E+02  0.7816164E-02  0.1300439E+00
        -11   -1    0    0    0    0  0.00000000000E+00  0.00000000000E+00  0.45593999997E+02  0.45594000000E+02  0.51100000000E-03 0. -1.
         11   -1    0    0    0    0 -0.00000000000E+00 -0.00000000000E+00 -0.45593999997E+02  0.45594000000E+02  0.51100000000E-03 0.  1.
    9900012    2    1    2    0    0  0.16159002988E+02 -0.17915943103E+02  0.32727234668E+02  0.50528852397E+02  0.29999977345E+02 0.  0.
        -12    1    1    2    0    0 -0.16159002988E+02  0.17915943103E+02 -0.32727234668E+02  0.40659147603E+02  0.00000000000E+00 0.  1.
         11    1    3    3    0    0  0.84033746244E+01 -0.70573254098E+01  0.78559105970E+01  0.13495846716E+02  0.51100000000E-03 0. -1.
        -11    1    3    3    0    0 -0.58214712120E+01 -0.77195137911E+01  0.20098349527E+02  0.22303005946E+02  0.51100000000E-03 0.  1.
        -12    1    3    3    0    0  0.13577099575E+02 -0.31391039024E+01  0.47729745435E+01  0.14729999735E+02  0.00000000000E+00 0.  1.
</event>
<event>
 7    1  0.5006721E-012  0.5052886E+02  0.7816164E-02  0.1300439E+00
        -11   -1    0    0    0    0  0.00000000000E+00  0.00000000000E+00  0.45593999997E+02  0.45594000000E+02  0.51100000000E-03 0. -1.
         11   -1    0    0    0    0 -0.00000000000E+00 -0.00000000000E+00 -0.45593999997E+02  0.45594000000E+02  0.51100000000E-03 0.  1.
    9900012    2    1    2    0    0 -0.69815330411E+00  0.54738781935E+01 -0.40282937953E+02  0.50528857724E+02  0.29999993537E+02 0.  0.
         12    1    1    2    0    0  0.69815330411E+00 -0.54738781935E+01  0.40282937953E+02  0.40659142276E+02  0.00000000000E+00 0. -1.
         11    1    3    3    0    0  0.85477903860E+01 -0.10725767119E+01 -0.13741781197E+02  0.16218868395E+02  0.51100000000E-03 0. -1.
        -11    1    3    3    0    0 -0.10040636932E+02 -0.28847507726E+01 -0.20703396214E+02  0.23189799311E+02  0.51100000000E-03 0.  1.
         12    1    3    3    0    0  0.79469324193E+00  0.94312056780E+01 -0.58377605424E+01  0.11120190018E+02  0.00000000000E+00 0. -1.
</event>
<event>
 7    1  0.5006721E-012  0.5052886E+02  0.7816164E-02  0.1300439E+00
        -11   -1    0    0    0    0  0.00000000000E+00  0.00000000000E+00  0.45593999997E+02  0.45594000000E+02  0.51100000000E-03 0. -1.
         11   -1    0    0    0    0 -0.00000000000E+00 -0.00000000000E+00 -0.45593999997E+02  0.45594000000E+02  0.51100000000E-03 0.  1.
    9900012    2    1    2    0    0  0.69146344544E+01  0.26762978562E+02 -0.29817723662E+02  0.50528857909E+02  0.29999994101E+02 0.  0.
         12    1    1    2    0    0 -0.69146344544E+01 -0.26762978562E+02  0.29817723662E+02  0.40659142091E+02  0.00000000000E+00 0. -1.
         11    1    3    3    0    0  0.15872780420E+02  0.99360938487E+01 -0.79071213485E+01  0.20327166244E+02  0.51100000000E-03 0. -1.
        -11    1    3    3    0    0 -0.45679166273E+01  0.15428889034E+02 -0.18138462474E+02  0.24247067871E+02  0.51100000000E-03 0.  1.
         12    1    3    3    0    0 -0.43902293383E+01  0.13979956792E+01 -0.37721398398E+01  0.59546237944E+01  0.00000000000E+00 0. -1.
</event>
<event>
 7    1  0.5006721E-012  0.5052886E+02  0.7816164E-02  0.1300439E+00
        -11   -1    0    0    0    0  0.00000000000E+00  0.00000000000E+00  0.45593999997E+02  0.45594000000E+02  0.51100000000E-03 0. -1.
         11   -1    0    0    0    0 -0.00000000000E+00 -0.00000000000E+00 -0.45593999997E+02  0.45594000000E+02  0.51100000000E-03 0.  1.
    9900012    2    1    2    0    0 -0.38519822726E+01 -0.17692655733E+02 -0.36404638902E+02  0.50528861201E+02  0.30000004107E+02 0.  0.
         12    1    1    2    0    0  0.38519822726E+01  0.17692655733E+02  0.36404638902E+02  0.40659138799E+02  0.00000000000E+00 0. -1.
         11    1    3    3    0    0 -0.16501519789E+01  0.63231253435E+01 -0.12925883034E+01  0.66615088716E+01  0.51100000000E-03 0. -1.
        -11    1    3    3    0    0 -0.10572173906E+01 -0.62747152483E+01 -0.18393824876E+02  0.19463364403E+02  0.51100000000E-03 0.  1.
         12    1    3    3    0    0 -0.11446129031E+01 -0.17741065828E+02 -0.16718225722E+02  0.24403987926E+02  0.00000000000E+00 0. -1.
</event>
<event>
 7    1  0.5006721E-012  0.5052886E+02  0.7816164E-02  0.1300439E+00
        -11   -1    0    0    0    0  0.00000000000E+00  0.00000000000E+00  0.45593999997E+02  0.45594000000E+02  0.51100000000E-03 0. -1.
         11   -1    0    0    0    0 -0.00000000000E+00 -0.00000000000E+00 -0.45593999997E+02  0.45594000000E+02  0.51100000000E-03 0.  1.
    9900012    2    1    2    0    0  0.24773545424E+02 -0.11957378932E+02  0.29940911032E+02  0.50528860594E+02  0.30000002262E+02 0.  0.
        -12    1    1    2    0    0 -0.24773545424E+02  0.11957378932E+02 -0.29940911032E+02  0.40659139406E+02  0.00000000000E+00 0.  1.
         11    1    3    3    0    0  0.99661473173E+01  0.38779707657E+01 -0.14263996470E+01  0.10788761088E+02  0.51100000000E-03 0. -1.
        -11    1    3    3    0    0 -0.92519368890E+00 -0.54824012300E+01  0.75479240404E+01  0.93746394165E+01  0.51100000000E-03 0.  1.
         12    1    3    3    0    0  0.15732591795E+02 -0.10352948468E+02  0.23819386639E+02  0.30365460089E+02  0.00000000000E+00 0. -1.
</event>
<event>
 7    1  0.5006721E-012  0.5052886E+02  0.7816164E-02  0.1300439E+00
        -11   -1    0    0    0    0  0.00000000000E+00  0.00000000000E+00  0.45593999997E+02  0.45594000000E+02  0.51100000000E-03 0. -1.
         11   -1    0    0    0    0 -0.00000000000E+00 -0.00000000000E+00 -0.45593999997E+02  0.45594000000E+02  0.51100000000E-03 0.  1.
    9900012    2    1    2    0    0 -0.31224844884E+01  0.23331062058E+02  0.33152334829E+02  0.50528859936E+02  0.30000000260E+02 0.  0.
        -12    1    1    2    0    0  0.31224844884E+01 -0.23331062058E+02 -0.33152334829E+02  0.40659140064E+02  0.00000000000E+00 0.  1.
         11    1    3    3    0    0 -0.22880119215E+01 -0.36032677477E+01  0.30596732666E+01  0.52516795194E+01  0.51100000000E-03 0. -1.
        -11    1    3    3    0    0  0.46847621952E+01  0.23395630329E+02  0.30481415434E+02  0.38709420073E+02  0.51100000000E-03 0.  1.
        -12    1    3    3    0    0 -0.55192347621E+01  0.35386994775E+01 -0.38875387119E+00  0.65677603430E+01  0.00000000000E+00 0.  1.
</event>
<event>
 7    1  0.5006721E-012  0.5052886E+02  0.7816164E-02  0.1300439E+00
        -11   -1    0    0    0    0  0.00000000000E+00  0.00000000000E+00  0.45593999997E+02  0.45594000000E+02  0.51100000000E-03 0. -1.
         11   -1    0    0    0    0 -0.00000000000E+00 -0.00000000000E+00 -0.45593999997E+02  0.45594000000E+02  0.51100000000E-03 0.  1.
    9900012    2    1    2    0    0  0.17095047949E+02  0.20414451312E+02  0.30727428604E+02  0.50528863814E+02  0.30000012050E+02 0.  0.
        -12    1    1    2    0    0 -0.17095047949E+02 -0.20414451312E+02 -0.30727428604E+02  0.40659136186E+02  0.00000000000E+00 0.  1.
         11    1    3    3    0    0  0.12018361824E+02  0.15610449089E+02  0.24719119106E+02  0.31609523744E+02  0.51100000000E-03 0. -1.
        -11    1    3    3    0    0 -0.43627402477E+00  0.50455239641E+01 -0.46767632475E+01  0.68934579009E+01  0.51100000000E-03 0.  1.
        -12    1    3    3    0    0  0.55129601493E+01 -0.24152174158E+00  0.10685072746E+02  0.12025882169E+02  0.00000000000E+00 0.  1.
</event>
<event>
 7    1  0.5006721E-012  0.5052885E+02  0.7816164E-02  0.1300439E+00
        -11   -1    0    0    0    0  0.00000000000E+00  0.00000000000E+00  0.45593999997E+02  0.45594000000E+02  0.51100000000E-03 0. -1.
         11   -1    0    0    0    0 -0.00000000000E+00 -0.00000000000E+00 -0.45593999997E+02  0.45594000000E+02  0.51100000000E-03 0.  1.
    9900012    2    1    2    0    0 -0.10587740152E+02 -0.65417816043E+01 -0.38707509163E+02  0.50528850800E+02  0.29999972492E+02 0.  0.
         12    1    1    2    0    0  0.10587740152E+02  0.65417816043E+01  0.38707509163E+02  0.40659149200E+02  0.00000000000E+00 0. -1.
         11    1    3    3    0    0 -0.41140903427E+01  0.92472876885E+01 -0.10651593068E+02  0.14693348975E+02  0.51100000000E-03 0. -1.
        -11    1    3    3    0    0  0.12556987597E+01 -0.12035956499E+02 -0.94930989135E+01  0.15380505696E+02  0.51100000000E-03 0.  1.
        -12    1    3    3    0    0 -0.77293485691E+01 -0.37531127934E+01 -0.18562817181E+02  0.20454996129E+02  0.00000000000E+00 0.  1.
</event>
<event>
 7    1  0.5006721E-012  0.5052886E+02  0.7816164E-02  0.1300439E+00
        -11   -1    0    0    0    0  0.00000000000E+00  0.00000000000E+00  0.45593999997E+02  0.45594000000E+02  0.51100000000E-03 0. -1.
         11   -1    0    0    0    0 -0.00000000000E+00 -0.00000000000E+00 -0.45593999997E+02  0.45594000000E+02  0.51100000000E-03 0.  1.
    9900012    2    1    2    0    0  0.18004626610E+02  0.15682439052E+02 -0.32909877417E+02  0.50528861967E+02  0.30000006435E+02 0.  0.
         12    1    1    2    0    0 -0.18004626610E+02 -0.15682439052E+02  0.32909877417E+02  0.40659138033E+02  0.00000000000E+00 0. -1.
         11    1    3    3    0    0 -0.63259003783E+01 -0.10526913890E+01 -0.12583098405E+02  0.14123014568E+02  0.51100000000E-03 0. -1.
        -11    1    3    3    0    0  0.64337247385E+01  0.38779406133E+01 -0.86858250824E+01  0.11483675154E+02  0.51100000000E-03 0.  1.
         12    1    3    3    0    0  0.17896802250E+02  0.12857189828E+02 -0.11640953929E+02  0.24922172245E+02  0.00000000000E+00 0. -1.
</event>
<event>
 7    1  0.5006721E-012  0.5052886E+02  0.7816164E-02  0.1300439E+00
        -11   -1    0    0    0    0  0.00000000000E+00  0.00000000000E+00  0.45593999997E+02  0.45594000000E+02  0.51100000000E-03 0. -1.
         11   -1    0    0    0    0 -0.00000000000E+00 -0.00000000000E+00 -0.45593999997E+02  0.45594000000E+02  0.51100000000E-03 0.  1.
    9900012    2    1    2    0    0  0.37235932161E+02  0.99864228472E+01 -0.12919849838E+02  0.50528858285E+02  0.29999995243E+02 0.  0.
         12    1    1    2    0    0 -0.37235932161E+02 -0.99864228472E+01  0.12919849838E+02  0.40659141715E+02  0.00000000000E+00 0. -1.
         11    1    3    3    0    0 -0.67221258697E+00  0.39456412920E+01  0.61596385804E+01  0.73458221235E+01  0.51100000000E-03 0. -1.
        -11    1    3    3    0    0  0.24419131489E+02  0.13437530415E+01 -0.12058212103E+02  0.27267198871E+02  0.51100000000E-03 0.  1.
         12    1    3    3    0    0  0.13489013259E+02  0.46970285137E+01 -0.70212763153E+01  0.15915837291E+02  0.00000000000E+00 0. -1.
</event>
<event>
 7    1  0.5006721E-012  0.5052885E+02  0.7816164E-02  0.1300439E+00
        -11   -1    0    0    0    0  0.00000000000E+00  0.00000000000E+00  0.45593999997E+02  0.45594000000E+02  0.51100000000E-03 0. -1.
         11   -1    0    0    0    0 -0.00000000000E+00 -0.00000000000E+00 -0.45593999997E+02  0.45594000000E+02  0.51100000000E-03 0.  1.
    9900012    2    1    2    0    0 -0.25181609214E+02  0.12890542583E+02  0.29204223020E+02  0.50528853761E+02  0.29999981492E+02 0.  0.
        -12    1    1    2    0    0  0.25181609214E+02 -0.12890542583E+02 -0.29204223020E+02  0.40659146239E+02  0.00000000000E+00 0.  1.
         11    1    3    3    0    0 -0.18785326784E+01  0.49293049288E+01 -0.42608211394E+01  0.67809681571E+01  0.51100000000E-03 0.  1.
        -11    1    3    3    0    0 -0.14867021627E+02  0.11577939123E+02  0.24594459641E+02  0.30983293106E+02  0.51100000000E-03 0. -1.
         12    1    3    3    0    0 -0.84360549089E+01 -0.36167014690E+01  0.88705845176E+01  0.12764592497E+02  0.00000000000E+00 0. -1.
</event>
<event>
 7    1  0.5006721E-012  0.5052886E+02  0.7816164E-02  0.1300439E+00
        -11   -1    0    0    0    0  0.00000000000E+00  0.00000000000E+00  0.45593999997E+02  0.45594000000E+02  0.51100000000E-03 0. -1.
         11   -1    0    0    0    0 -0.00000000000E+00 -0.00000000000E+00 -0.45593999997E+02  0.45594000000E+02  0.51100000000E-03 0.  1.
    9900012    2    1    2    0    0  0.27199620955E+02  0.15458098244E+02  0.25969081149E+02  0.50528863793E+02  0.30000011984E+02 0.  0.
        -12    1    1    2    0    0 -0.27199620955E+02 -0.15458098244E+02 -0.25969081149E+02  0.40659136207E+02  0.00000000000E+00 0.  1.
         11    1    3    3    0    0  0.20236453170E+02  0.77024370149E+01  0.23457955776E+02  0.31923616060E+02  0.51100000000E-03 0. -1.
        -11    1    3    3    0    0 -0.30679976308E+01 -0.18038192599E+01  0.31231818967E+01  0.47350436963E+01  0.51100000000E-03 0.  1.
        -12    1    3    3    0    0  0.10031165415E+02  0.95594804891E+01 -0.61205652439E+00  0.13870204036E+02  0.00000000000E+00 0.  1.
</event>
<event>
 7    1  0.5006721E-012  0.5052885E+02  0.7816164E-02  0.1300439E+00
        -11   -1    0    0    0    0  0.00000000000E+00  0.00000000000E+00  0.45593999997E+02  0.45594000000E+02  0.51100000000E-03 0. -1.
         11   -1    0    0    0    0 -0.00000000000E+00 -0.00000000000E+00 -0.45593999997E+02  0.45594000000E+02  0.51100000000E-03 0.  1.
    9900012    2    1    2    0    0  0.59027729497E+01  0.21123327642E+02 -0.34236362502E+02  0.50528853224E+02  0.29999979860E+02 0.  0.
         12    1    1    2    0    0 -0.59027729497E+01 -0.21123327642E+02  0.34236362502E+02  0.40659146776E+02  0.00000000000E+00 0. -1.
         11    1    3    3    0    0 -0.45186712044E+01 -0.25006213294E+01 -0.39872755407E+01  0.65245584513E+01  0.51100000000E-03 0. -1.
        -11    1    3    3    0    0  0.14720355109E+02  0.19991908801E+02 -0.29115813391E+02  0.38263505612E+02  0.51100000000E-03 0.  1.
        -12    1    3    3    0    0 -0.42989109552E+01  0.36320401707E+01 -0.11332735705E+01  0.57407891607E+01  0.00000000000E+00 0.  1.
</event>
<event>
 7    1  0.5006721E-012  0.5052886E+02  0.7816164E-02  0.1300439E+00
        -11   -1    0    0    0    0  0.00000000000E+00  0.00000000000E+00  0.45593999997E+02  0.45594000000E+02  0.51100000000E-03 0. -1.
         11   -1    0    0    0    0 -0.00000000000E+00 -0.00000000000E+00 -0.45593999997E+02  0.45594000000E+02  0.51100000000E-03 0.  1.
    9900012    2    1    2    0    0  0.13589709668E+02 -0.13790994291E+02  0.35753235168E+02  0.50528861330E+02  0.30000004498E+02 0.  0.
        -12    1    1    2    0    0 -0.13589709668E+02  0.13790994291E+02 -0.35753235168E+02  0.40659138670E+02  0.00000000000E+00 0.  1.
         11    1    3    3    0    0  0.67074014653E+01 -0.10211061023E+02  0.97992399506E+00  0.12256233228E+02  0.51100000000E-03 0. -1.
        -11    1    3    3    0    0 -0.24626204459E+01 -0.52341842812E+01  0.19033844345E+02  0.19893426436E+02  0.51100000000E-03 0.  1.
         12    1    3    3    0    0  0.93449286481E+01  0.16542510130E+01  0.15739466828E+02  0.18379201666E+02  0.00000000000E+00 0. -1.
</event>
<event>
 7    1  0.5006721E-012  0.5052885E+02  0.7816164E-02  0.1300439E+00
        -11   -1    0    0    0    0  0.00000000000E+00  0.00000000000E+00  0.45593999997E+02  0.45594000000E+02  0.51100000000E-03 0. -1.
         11   -1    0    0    0    0 -0.00000000000E+00 -0.00000000000E+00 -0.45593999997E+02  0.45594000000E+02  0.51100000000E-03 0.  1.
    9900012    2    1    2    0    0  0.19141406137E+02  0.78636867769E+01 -0.34999076097E+02  0.50528851874E+02  0.29999975757E+02 0.  0.
         12    1    1    2    0    0 -0.19141406137E+02 -0.78636867769E+01  0.34999076097E+02  0.40659148126E+02  0.00000000000E+00 0. -1.
         11    1    3    3    0    0  0.14996966122E+02 -0.17341346309E+01 -0.48434612229E+01  0.15854820486E+02  0.51100000000E-03 0. -1.
        -11    1    3    3    0    0  0.86268311676E+01  0.59174655990E+01 -0.24183448757E+02  0.26349151962E+02  0.51100000000E-03 0.  1.
         12    1    3    3    0    0 -0.44823911517E+01  0.36803558088E+01 -0.59721661176E+01  0.83248794258E+01  0.00000000000E+00 0. -1.
</event>
<event>
 7    1  0.5006721E-012  0.5052886E+02  0.7816164E-02  0.1300439E+00
        -11   -1    0    0    0    0  0.00000000000E+00  0.00000000000E+00  0.45593999997E+02  0.45594000000E+02  0.51100000000E-03 0. -1.
         11   -1    0    0    0    0 -0.00000000000E+00 -0.00000000000E+00 -0.45593999997E+02  0.45594000000E+02  0.51100000000E-03 0.  1.
    9900012    2    1    2    0    0  0.15566088139E+01  0.28353051810E+02  0.29100630724E+02  0.50528864662E+02  0.30000014625E+02 0.  0.
        -12    1    1    2    0    0 -0.15566088139E+01 -0.28353051810E+02 -0.29100630724E+02  0.40659135338E+02  0.00000000000E+00 0.  1.
         11    1    3    3    0    0 -0.53341613857E+01  0.38171853581E+00  0.15727074180E+02  0.16611437302E+02  0.51100000000E-03 0. -1.
        -11    1    3    3    0    0  0.55689383095E+00  0.20982392787E+02  0.12535811437E+02  0.24448261829E+02  0.51100000000E-03 0.  1.
         12    1    3    3    0    0  0.63338763686E+01  0.69889404868E+01  0.83774510758E+00  0.94691655306E+01  0.00000000000E+00 0. -1.
</event>
<event>
 7    1  0.5006721E-012  0.5052895E+02  0.7816164E-02  0.1300438E+00
        -11   -1    0    0    0    0  0.00000000000E+00  0.00000000000E+00  0.45593999997E+02  0.45594000000E+02  0.51100000000E-03 0. -1.
         11   -1    0    0    0    0 -0.00000000000E+00 -0.00000000000E+00 -0.45593999997E+02  0.45594000000E+02  0.51100000000E-03 0.  1.
    9900012    2    1    2    0    0 -0.10005899825E+02 -0.14912498272E+02 -0.36478183127E+02  0.50528948360E+02  0.30000269034E+02 0.  0.
         12    1    1    2    0    0  0.10005899825E+02  0.14912498272E+02  0.36478183127E+02  0.40659051640E+02  0.00000000000E+00 0. -1.
         11    1    3    3    0    0  0.78584862654E+01 -0.10494921516E+02 -0.13505970705E+02  0.18823135470E+02  0.51100000000E-03 0. -1.
        -11    1    3    3    0    0 -0.12388252787E+02 -0.77021647518E+01 -0.11496727988E+02  0.18573284676E+02  0.51100000000E-03 0.  1.
         12    1    3    3    0    0 -0.54761333035E+01  0.32845879959E+01 -0.11475484435E+02  0.13132528214E+02  0.00000000000E+00 0. -1.
</event>
<event>
 7    1  0.5006721E-012  0.5052886E+02  0.7816164E-02  0.1300439E+00
        -11   -1    0    0    0    0  0.00000000000E+00  0.00000000000E+00  0.45593999997E+02  0.45594000000E+02  0.51100000000E-03 0. -1.
         11   -1    0    0    0    0 -0.00000000000E+00 -0.00000000000E+00 -0.45593999997E+02  0.45594000000E+02  0.51100000000E-03 0.  1.
    9900012    2    1    2    0    0 -0.13745839023E+02  0.24379474968E+02  0.29493371577E+02  0.50528857644E+02  0.29999993294E+02 0.  0.
        -12    1    1    2    0    0  0.13745839023E+02 -0.24379474968E+02 -0.29493371577E+02  0.40659142356E+02  0.00000000000E+00 0.  1.
         11    1    3    3    0    0 -0.90518552621E+01  0.14586622923E+02  0.16312307280E+02  0.23681153287E+02  0.51100000000E-03 0. -1.
        -11    1    3    3    0    0 -0.28623386328E+01 -0.25975632665E+01 -0.40153482532E+01  0.55734494910E+01  0.51100000000E-03 0.  1.
        -12    1    3    3    0    0 -0.18316451276E+01  0.12390415312E+02  0.17196412550E+02  0.21274254866E+02  0.00000000000E+00 0.  1.
</event>
<event>
 7    1  0.5006721E-012  0.5052886E+02  0.7816164E-02  0.1300439E+00
        -11   -1    0    0    0    0  0.00000000000E+00  0.00000000000E+00  0.45593999997E+02  0.45594000000E+02  0.51100000000E-03 0. -1.
         11   -1    0    0    0    0 -0.00000000000E+00 -0.00000000000E+00 -0.45593999997E+02  0.45594000000E+02  0.51100000000E-03 0.  1.
    9900012    2    1    2    0    0  0.21025389340E+02 -0.19747985880E+02  0.28655116765E+02  0.50528860068E+02  0.30000000662E+02 0.  0.
        -12    1    1    2    0    0 -0.21025389340E+02  0.19747985880E+02 -0.28655116765E+02  0.40659139932E+02  0.00000000000E+00 0.  1.
         11    1    3    3    0    0  0.10167206700E+02 -0.26142772503E+02  0.21149145199E+02  0.35129802008E+02  0.51100000000E-03 0. -1.
        -11    1    3    3    0    0  0.73428709412E+01  0.51863041221E+01  0.28281347579E+01  0.94241100681E+01  0.51100000000E-03 0.  1.
         12    1    3    3    0    0  0.35153116984E+01  0.12084825011E+01  0.46778368084E+01  0.59749479912E+01  0.00000000000E+00 0. -1.
</event>
<event>
 7    1  0.5006721E-012  0.5052885E+02  0.7816164E-02  0.1300439E+00
        -11   -1    0    0    0    0  0.00000000000E+00  0.00000000000E+00  0.45593999997E+02  0.45594000000E+02  0.51100000000E-03 0. -1.
         11   -1    0    0    0    0 -0.00000000000E+00 -0.00000000000E+00 -0.45593999997E+02  0.45594000000E+02  0.51100000000E-03 0.  1.
    9900012    2    1    2    0    0  0.19445162876E+02  0.27850645763E+02  0.22347124252E+02  0.50528846160E+02  0.29999958386E+02 0.  0.
        -12    1    1    2    0    0 -0.19445162876E+02 -0.27850645763E+02 -0.22347124252E+02  0.40659153840E+02  0.00000000000E+00 0.  1.
         11    1    3    3    0    0  0.91384786438E+01  0.82085864189E+01  0.18685568084E+02  0.22361644345E+02  0.51100000000E-03 0. -1.
        -11    1    3    3    0    0 -0.44436873403E+01  0.72259539599E+01 -0.28197632518E+00  0.84876544886E+01  0.51100000000E-03 0.  1.
        -12    1    3    3    0    0  0.14750371572E+02  0.12416105385E+02  0.39435324929E+01  0.19679547326E+02  0.00000000000E+00 0.  1.
</event>
<event>
 7    1  0.5006721E-012  0.5052886E+02  0.7816164E-02  0.1300439E+00
        -11   -1    0    0    0    0  0.00000000000E+00  0.00000000000E+00  0.45593999997E+02  0.45594000000E+02  0.51100000000E-03 0.  1.
         11   -1    0    0    0    0 -0.00000000000E+00 -0.00000000000E+00 -0.45593999997E+02  0.45594000000E+02  0.51100000000E-03 0. -1.
    9900012    2    1    2    0    0  0.12061567445E+01 -0.39891431655E+02 -0.77707570880E+01  0.50528858355E+02  0.29999995456E+02 0.  0.
        -12    1    1    2    0    0 -0.12061567445E+01  0.39891431655E+02  0.77707570880E+01  0.40659141645E+02  0.00000000000E+00 0.  1.
         11    1    3    3    0    0  0.75671359672E+01 -0.13867249048E+02 -0.93887080265E+01  0.18376887157E+02  0.51100000000E-03 0. -1.
        -11    1    3    3    0    0 -0.20549788590E+01 -0.14747219889E+02  0.95672793180E+01  0.17698482036E+02  0.51100000000E-03 0.  1.
        -12    1    3    3    0    0 -0.43060003637E+01 -0.11276962718E+02 -0.79493283795E+01  0.14453489162E+02  0.00000000000E+00 0.  1.
</event>
<event>
 7    1  0.5006721E-012  0.5052886E+02  0.7816164E-02  0.1300439E+00
        -11   -1    0    0    0    0  0.00000000000E+00  0.00000000000E+00  0.45593999997E+02  0.45594000000E+02  0.51100000000E-03 0. -1.
         11   -1    0    0    0    0 -0.00000000000E+00 -0.00000000000E+00 -0.45593999997E+02  0.45594000000E+02  0.51100000000E-03 0.  1.
    9900012    2    1    2    0    0  0.10141131490E+02 -0.21447160483E+02 -0.33020334090E+02  0.50528859525E+02  0.29999999013E+02 0.  0.
         12    1    1    2    0    0 -0.10141131490E+02  0.21447160483E+02  0.33020334090E+02  0.40659140475E+02  0.00000000000E+00 0. -1.
         11    1    3    3    0    0  0.12004161261E+02 -0.74307752171E+01 -0.23992980422E+02  0.27838452142E+02  0.51100000000E-03 0.  1.
        -11    1    3    3    0    0  0.66842794962E-01 -0.58807316516E+01  0.40696674019E+01  0.71518994498E+01  0.51100000000E-03 0. -1.
        -12    1    3    3    0    0 -0.19298725657E+01 -0.81356536146E+01 -0.13097021071E+02  0.15538507933E+02  0.00000000000E+00 0.  1.
</event>
<event>
 7    1  0.5006721E-012  0.5052884E+02  0.7816164E-02  0.1300439E+00
        -11   -1    0    0    0    0  0.00000000000E+00  0.00000000000E+00  0.45593999997E+02  0.45594000000E+02  0.51100000000E-03 0. -1.
         11   -1    0    0    0    0 -0.00000000000E+00 -0.00000000000E+00 -0.45593999997E+02  0.45594000000E+02  0.51100000000E-03 0.  1.
    9900012    2    1    2    0    0 -0.56366333895E+01 -0.39101226289E+02 -0.96171659893E+01  0.50528838487E+02  0.29999935066E+02 0.  0.
         12    1    1    2    0    0  0.56366333895E+01  0.39101226289E+02  0.96171659893E+01  0.40659161513E+02  0.00000000000E+00 0. -1.
         11    1    3    3    0    0  0.97963189696E+01 -0.22049094227E+02 -0.38888536468E+00  0.24130512918E+02  0.51100000000E-03 0. -1.
        -11    1    3    3    0    0 -0.71783677618E+01 -0.19875205036E+01 -0.39313880121E+01  0.84222926474E+01  0.51100000000E-03 0.  1.
         12    1    3    3    0    0 -0.82545845974E+01 -0.15064611558E+02 -0.52968926125E+01  0.17976032922E+02  0.00000000000E+00 0. -1.
</event>
<event>
 7    1  0.5006721E-012  0.5052886E+02  0.7816164E-02  0.1300439E+00
        -11   -1    0    0    0    0  0.00000000000E+00  0.00000000000E+00  0.45593999997E+02  0.45594000000E+02  0.51100000000E-03 0. -1.
         11   -1    0    0    0    0 -0.00000000000E+00 -0.00000000000E+00 -0.45593999997E+02  0.45594000000E+02  0.51100000000E-03 0.  1.
    9900012    2    1    2    0    0 -0.17923960142E+02  0.17317662683E+02 -0.32124691719E+02  0.50528860731E+02  0.30000002679E+02 0.  0.
         12    1    1    2    0    0  0.17923960142E+02 -0.17317662683E+02  0.32124691719E+02  0.40659139269E+02  0.00000000000E+00 0. -1.
         11    1    3    3    0    0 -0.45725568515E+01 -0.64935913605E+00 -0.17458873448E+02  0.18059407681E+02  0.51100000000E-03 0. -1.
        -11    1    3    3    0    0 -0.11809132078E+02  0.21263782474E+02 -0.15356234329E+02  0.28764874041E+02  0.51100000000E-03 0.  1.
        -12    1    3    3    0    0 -0.15422712126E+01 -0.32967606546E+01  0.69041605808E+00  0.37045790099E+01  0.00000000000E+00 0.  1.
</event>
<event>
 7    1  0.5006721E-012  0.5052886E+02  0.7816164E-02  0.1300439E+00
        -11   -1    0    0    0    0  0.00000000000E+00  0.00000000000E+00  0.45593999997E+02  0.45594000000E+02  0.51100000000E-03 0. -1.
         11   -1    0    0    0    0 -0.00000000000E+00 -0.00000000000E+00 -0.45593999997E+02  0.45594000000E+02  0.51100000000E-03 0.  1.
    9900012    2    1    2    0    0  0.40547049690E+02 -0.14870023705E+01 -0.26251405596E+01  0.50528858622E+02  0.29999996268E+02 0.  0.
         12    1    1    2    0    0 -0.40547049690E+02  0.14870023705E+01  0.26251405596E+01  0.40659141378E+02  0.00000000000E+00 0. -1.
         11    1    3    3    0    0  0.39900732092E+02 -0.15860213844E+01 -0.31874957463E+01  0.40059256293E+02  0.51100000000E-03 0. -1.
        -11    1    3    3    0    0 -0.26960474351E+01  0.17361183785E+01 -0.36433966208E+01  0.48535675532E+01  0.51100000000E-03 0.  1.
        -12    1    3    3    0    0  0.33423650329E+01 -0.16370993646E+01  0.42057518075E+01  0.56160347764E+01  0.00000000000E+00 0.  1.
</event>
<event>
 7    1  0.5006721E-012  0.5052886E+02  0.7816164E-02  0.1300439E+00
        -11   -1    0    0    0    0  0.00000000000E+00  0.00000000000E+00  0.45593999997E+02  0.45594000000E+02  0.51100000000E-03 0. -1.
         11   -1    0    0    0    0 -0.00000000000E+00 -0.00000000000E+00 -0.45593999997E+02  0.45594000000E+02  0.51100000000E-03 0.  1.
    9900012    2    1    2    0    0 -0.14065967797E+02  0.90844476268E+01 -0.37051139343E+02  0.50528861232E+02  0.30000004200E+02 0.  0.
         12    1    1    2    0    0  0.14065967797E+02 -0.90844476268E+01  0.37051139343E+02  0.40659138768E+02  0.00000000000E+00 0. -1.
         11    1    3    3    0    0 -0.65827877732E+01 -0.96849603759E+01 -0.77830698135E+01  0.14060858023E+02  0.51100000000E-03 0. -1.
        -11    1    3    3    0    0 -0.52985405039E+01  0.93891788752E+01 -0.21658257754E+02  0.24193208564E+02  0.51100000000E-03 0.  1.
         12    1    3    3    0    0 -0.21846395197E+01  0.93802291275E+01 -0.76098117764E+01  0.12274794645E+02  0.00000000000E+00 0. -1.
</event>
<event>
 7    1  0.5006721E-012  0.5052885E+02  0.7816164E-02  0.1300439E+00
        -11   -1    0    0    0    0  0.00000000000E+00  0.00000000000E+00  0.45593999997E+02  0.45594000000E+02  0.51100000000E-03 0. -1.
         11   -1    0    0    0    0 -0.00000000000E+00 -0.00000000000E+00 -0.45593999997E+02  0.45594000000E+02  0.51100000000E-03 0.  1.
    9900012    2    1    2    0    0  0.39277602200E+02 -0.10507660696E+02 -0.16026640646E+00  0.50528847854E+02  0.29999963538E+02 0.  0.
        -12    1    1    2    0    0 -0.39277602200E+02  0.10507660696E+02  0.16026640646E+00  0.40659152146E+02  0.00000000000E+00 0.  1.
         11    1    3    3    0    0  0.67542453069E+01 -0.17898691842E+01  0.10272618563E+02  0.12423773733E+02  0.51100000000E-03 0. -1.
        -11    1    3    3    0    0  0.29100448495E+02 -0.12260524286E+02 -0.10157336013E+02  0.33171192826E+02  0.51100000000E-03 0.  1.
        -12    1    3    3    0    0  0.34229083978E+01  0.35427327733E+01 -0.27554895633E+00  0.49338812947E+01  0.00000000000E+00 0.  1.
</event>
<event>
 7    1  0.5006721E-012  0.5052885E+02  0.7816164E-02  0.1300439E+00
        -11   -1    0    0    0    0  0.00000000000E+00  0.00000000000E+00  0.45593999997E+02  0.45594000000E+02  0.51100000000E-03 0. -1.
         11   -1    0    0    0    0 -0.00000000000E+00 -0.00000000000E+00 -0.45593999997E+02  0.45594000000E+02  0.51100000000E-03 0.  1.
    9900012    2    1    2    0    0 -0.28761863981E+02 -0.11090330585E+02 -0.26512755635E+02  0.50528850187E+02  0.29999970628E+02 0.  0.
         12    1    1    2    0    0  0.28761863981E+02  0.11090330585E+02  0.26512755635E+02  0.40659149813E+02  0.00000000000E+00 0. -1.
         11    1    3    3    0    0 -0.22789246306E+02 -0.65632678469E+01 -0.30595477624E+01  0.23912069438E+02  0.51100000000E-03 0. -1.
        -11    1    3    3    0    0 -0.79654788426E+01 -0.12953370786E+01 -0.19650676078E+02  0.21243253562E+02  0.51100000000E-03 0.  1.
         12    1    3    3    0    0  0.19928611680E+01 -0.32317256592E+01 -0.38025317949E+01  0.53735271863E+01  0.00000000000E+00 0. -1.
</event>
<event>
 7    1  0.5006721E-012  0.5052885E+02  0.7816164E-02  0.1300439E+00
        -11   -1    0    0    0    0  0.00000000000E+00  0.00000000000E+00  0.45593999997E+02  0.45594000000E+02  0.51100000000E-03 0. -1.
         11   -1    0    0    0    0 -0.00000000000E+00 -0.00000000000E+00 -0.45593999997E+02  0.45594000000E+02  0.51100000000E-03 0.  1.
    9900012    2    1    2    0    0 -0.14045108888E+02 -0.22220257835E+02  0.31018722323E+02  0.50528854947E+02  0.29999985096E+02 0.  0.
        -12    1    1    2    0    0  0.14045108888E+02  0.22220257835E+02 -0.31018722323E+02  0.40659145053E+02  0.00000000000E+00 0.  1.
         11    1    3    3    0    0 -0.12122108127E+01 -0.90555549181E+00  0.86092816548E+01  0.87412365645E+01  0.51100000000E-03 0. -1.
        -11    1    3    3    0    0 -0.19261444549E+02 -0.18573766912E+02  0.12181871250E+02  0.29400443038E+02  0.51100000000E-03 0.  1.
        -12    1    3    3    0    0  0.64285464741E+01 -0.27409354314E+01  0.10227569418E+02  0.12387175344E+02  0.00000000000E+00 0.  1.
</event>
<event>
 7    1  0.5006721E-012  0.5052884E+02  0.7816164E-02  0.1300439E+00
        -11   -1    0    0    0    0  0.00000000000E+00  0.00000000000E+00  0.45593999997E+02  0.45594000000E+02  0.51100000000E-03 0. -1.
         11   -1    0    0    0    0 -0.00000000000E+00 -0.00000000000E+00 -0.45593999997E+02  0.45594000000E+02  0.51100000000E-03 0.  1.
    9900012    2    1    2    0    0  0.52297609950E+01 -0.30173112619E+02  0.26746965370E+02  0.50528840125E+02  0.29999940044E+02 0.  0.
        -12    1    1    2    0    0 -0.52297609950E+01  0.30173112619E+02 -0.26746965370E+02  0.40659159875E+02  0.00000000000E+00 0.  1.
         11    1    3    3    0    0  0.12437267931E+01 -0.75712559001E+01  0.96587728595E+01  0.12335423205E+02  0.51100000000E-03 0. -1.
        -11    1    3    3    0    0 -0.58942328621E+01 -0.14825775627E+01 -0.35643102244E+01  0.70458728983E+01  0.51100000000E-03 0.  1.
        -12    1    3    3    0    0  0.98802670640E+01 -0.21119279157E+02  0.20652502735E+02  0.31147544022E+02  0.00000000000E+00 0.  1.
</event>
<event>
 7    1  0.5006721E-012  0.5052886E+02  0.7816164E-02  0.1300439E+00
        -11   -1    0    0    0    0  0.00000000000E+00  0.00000000000E+00  0.45593999997E+02  0.45594000000E+02  0.51100000000E-03 0. -1.
         11   -1    0    0    0    0 -0.00000000000E+00 -0.00000000000E+00 -0.45593999997E+02  0.45594000000E+02  0.51100000000E-03 0.  1.
    9900012    2    1    2    0    0  0.12808399861E+02 -0.22976857340E+02 -0.31002816464E+02  0.50528859466E+02  0.29999998833E+02 0.  0.
         12    1    1    2    0    0 -0.12808399861E+02  0.22976857340E+02  0.31002816464E+02  0.40659140534E+02  0.00000000000E+00 0. -1.
         11    1    3    3    0    0  0.39754159174E+01  0.32542116556E+01  0.34951250590E+01  0.62136723969E+01  0.51100000000E-03 0. -1.
        -11    1    3    3    0    0  0.45197092019E+01 -0.12054504687E+02 -0.13965665332E+02  0.18994174448E+02  0.51100000000E-03 0.  1.
         12    1    3    3    0    0  0.43132747419E+01 -0.14176564309E+02 -0.20532276191E+02  0.25321012622E+02  0.00000000000E+00 0. -1.
</event>
<event>
 7    1  0.5006721E-012  0.5052886E+02  0.7816164E-02  0.1300439E+00
        -11   -1    0    0    0    0  0.00000000000E+00  0.00000000000E+00  0.45593999997E+02  0.45594000000E+02  0.51100000000E-03 0. -1.
         11   -1    0    0    0    0 -0.00000000000E+00 -0.00000000000E+00 -0.45593999997E+02  0.45594000000E+02  0.51100000000E-03 0.  1.
    9900012    2    1    2    0    0 -0.19021951373E+02 -0.29569139232E+01 -0.35813237320E+02  0.50528856608E+02  0.29999990146E+02 0.  0.
         12    1    1    2    0    0  0.19021951373E+02  0.29569139232E+01  0.35813237320E+02  0.40659143392E+02  0.00000000000E+00 0. -1.
         11    1    3    3    0    0 -0.19659577089E+02 -0.77287247714E+01 -0.11618471516E+02  0.24108526262E+02  0.51100000000E-03 0.  1.
        -11    1    3    3    0    0  0.42180881402E+01 -0.40965726766E+00 -0.11328404765E+02  0.12095157768E+02  0.51100000000E-03 0. -1.
        -12    1    3    3    0    0 -0.35804624244E+01  0.51814681158E+01 -0.12866361039E+02  0.14325172578E+02  0.00000000000E+00 0.  1.
</event>
<event>
 7    1  0.5006721E-012  0.5052885E+02  0.7816164E-02  0.1300439E+00
        -11   -1    0    0    0    0  0.00000000000E+00  0.00000000000E+00  0.45593999997E+02  0.45594000000E+02  0.51100000000E-03 0. -1.
         11   -1    0    0    0    0 -0.00000000000E+00 -0.00000000000E+00 -0.45593999997E+02  0.45594000000E+02  0.51100000000E-03 0.  1.
    9900012    2    1    2    0    0  0.20484929255E+01  0.89437178291E+01  0.39610355887E+02  0.50528847213E+02  0.29999961589E+02 0.  0.
        -12    1    1    2    0    0 -0.20484929255E+01 -0.89437178291E+01 -0.39610355887E+02  0.40659152787E+02  0.00000000000E+00 0.  1.
         11    1    3    3    0    0 -0.64514964603E+01 -0.18515306436E+01  0.30136162662E+01  0.73574353930E+01  0.51100000000E-03 0. -1.
        -11    1    3    3    0    0  0.78957781170E+01  0.11813015788E+02  0.12147806273E+02  0.18693845286E+02  0.51100000000E-03 0.  1.
        -12    1    3    3    0    0  0.60421126879E+00 -0.10177673153E+01  0.24448933348E+02  0.24477566534E+02  0.00000000000E+00 0.  1.
</event>
<event>
 7    1  0.5006721E-012  0.5052887E+02  0.7816164E-02  0.1300439E+00
        -11   -1    0    0    0    0  0.00000000000E+00  0.00000000000E+00  0.45593999997E+02  0.45594000000E+02  0.51100000000E-03 0. -1.
         11   -1    0    0    0    0 -0.00000000000E+00 -0.00000000000E+00 -0.45593999997E+02  0.45594000000E+02  0.51100000000E-03 0.  1.
    9900012    2    1    2    0    0  0.20471516885E+02 -0.14555994067E+02 -0.31971942617E+02  0.50528867182E+02  0.30000022285E+02 0.  0.
         12    1    1    2    0    0 -0.20471516885E+02  0.14555994067E+02  0.31971942617E+02  0.40659132818E+02  0.00000000000E+00 0. -1.
         11    1    3    3    0    0 -0.20185758108E+01 -0.12691887172E+02 -0.41387234893E+01  0.13501395508E+02  0.51100000000E-03 0. -1.
        -11    1    3    3    0    0  0.16889879212E+02 -0.36307218373E+01 -0.25291885276E+02  0.30628901742E+02  0.51100000000E-03 0.  1.
         12    1    3    3    0    0  0.56002134843E+01  0.17666149423E+01 -0.25413338512E+01  0.63985699314E+01  0.00000000000E+00 0. -1.
</event>
<event>
 7    1  0.5006721E-012  0.5052890E+02  0.7816164E-02  0.1300439E+00
        -11   -1    0    0    0    0  0.00000000000E+00  0.00000000000E+00  0.45593999997E+02  0.45594000000E+02  0.51100000000E-03 0. -1.
         11   -1    0    0    0    0 -0.00000000000E+00 -0.00000000000E+00 -0.45593999997E+02  0.45594000000E+02  0.51100000000E-03 0.  1.
    9900012    2    1    2    0    0  0.73182913967E+01  0.39586211113E+02  0.57041349346E+01  0.50528897027E+02  0.30000113002E+02 0.  0.
        -12    1    1    2    0    0 -0.73182913967E+01 -0.39586211113E+02 -0.57041349346E+01  0.40659102973E+02  0.00000000000E+00 0.  1.
         11    1    3    3    0    0  0.17194808155E+02  0.13407899859E+02  0.44301755404E+01  0.22249936218E+02  0.51100000000E-03 0. -1.
        -11    1    3    3    0    0 -0.41169237165E+01  0.12227974137E+02 -0.13028261880E+01  0.12968028714E+02  0.51100000000E-03 0.  1.
         12    1    3    3    0    0 -0.57595930418E+01  0.13950337117E+02  0.25767855822E+01  0.15310932095E+02  0.00000000000E+00 0. -1.
</event>
<event>
 7    1  0.5006721E-012  0.5052886E+02  0.7816164E-02  0.1300439E+00
        -11   -1    0    0    0    0  0.00000000000E+00  0.00000000000E+00  0.45593999997E+02  0.45594000000E+02  0.51100000000E-03 0. -1.
         11   -1    0    0    0    0 -0.00000000000E+00 -0.00000000000E+00 -0.45593999997E+02  0.45594000000E+02  0.51100000000E-03 0.  1.
    9900012    2    1    2    0    0  0.16459323928E+02 -0.24447851995E+02  0.28009979342E+02  0.50528858912E+02  0.29999997147E+02 0.  0.
        -12    1    1    2    0    0 -0.16459323928E+02  0.24447851995E+02 -0.28009979342E+02  0.40659141088E+02  0.00000000000E+00 0.  1.
         11    1    3    3    0    0  0.99124637893E+01 -0.14187356294E+02 -0.17368804648E+01  0.17394101615E+02  0.51100000000E-03 0. -1.
        -11    1    3    3    0    0  0.53547055939E+01 -0.18963252638E+01  0.80631267693E+01  0.98632111943E+01  0.51100000000E-03 0.  1.
         12    1    3    3    0    0  0.11921545448E+01 -0.83641704372E+01  0.21683733037E+02  0.23271546102E+02  0.00000000000E+00 0. -1.
</event>
<event>
 7    1  0.5006721E-012  0.5052886E+02  0.7816164E-02  0.1300439E+00
        -11   -1    0    0    0    0  0.00000000000E+00  0.00000000000E+00  0.45593999997E+02  0.45594000000E+02  0.51100000000E-03 0. -1.
         11   -1    0    0    0    0 -0.00000000000E+00 -0.00000000000E+00 -0.45593999997E+02  0.45594000000E+02  0.51100000000E-03 0.  1.
    9900012    2    1    2    0    0 -0.33180666247E+02  0.10771203447E+02 -0.20885171465E+02  0.50528858059E+02  0.29999994555E+02 0.  0.
         12    1    1    2    0    0  0.33180666247E+02 -0.10771203447E+02  0.20885171465E+02  0.40659141941E+02  0.00000000000E+00 0. -1.
         11    1    3    3    0    0  0.95719109800E+00  0.30953462419E+00  0.32299886487E+01  0.33830242999E+01  0.51100000000E-03 0. -1.
        -11    1    3    3    0    0 -0.27938791186E+02  0.12532448777E+02 -0.26185017666E+02  0.40290116353E+02  0.51100000000E-03 0.  1.
         12    1    3    3    0    0 -0.61990661586E+01 -0.20707799543E+01  0.20698575528E+01  0.68557174056E+01  0.00000000000E+00 0. -1.
</event>
<event>
 7    1  0.5006721E-012  0.5052886E+02  0.7816164E-02  0.1300439E+00
        -11   -1    0    0    0    0  0.00000000000E+00  0.00000000000E+00  0.45593999997E+02  0.45594000000E+02  0.51100000000E-03 0. -1.
         11   -1    0    0    0    0 -0.00000000000E+00 -0.00000000000E+00 -0.45593999997E+02  0.45594000000E+02  0.51100000000E-03 0.  1.
    9900012    2    1    2    0    0  0.17474247666E+02  0.11244157260E+02 -0.34948322356E+02  0.50528860321E+02  0.30000001432E+02 0.  0.
         12    1    1    2    0    0 -0.17474247666E+02 -0.11244157260E+02  0.34948322356E+02  0.40659139679E+02  0.00000000000E+00 0. -1.
         11    1    3    3    0    0 -0.14039536625E+01 -0.19719206074E+01 -0.12210212423E+02  0.12447844972E+02  0.51100000000E-03 0. -1.
        -11    1    3    3    0    0  0.17034161051E+02  0.10205650698E+02 -0.56692131761E+01  0.20650857783E+02  0.51100000000E-03 0.  1.
        -12    1    3    3    0    0  0.18440402772E+01  0.30104271692E+01 -0.17068896756E+02  0.17430157566E+02  0.00000000000E+00 0.  1.
</event>
<event>
 7    1  0.5006721E-012  0.5052886E+02  0.7816164E-02  0.1300439E+00
        -11   -1    0    0    0    0  0.00000000000E+00  0.00000000000E+00  0.45593999997E+02  0.45594000000E+02  0.51100000000E-03 0. -1.
         11   -1    0    0    0    0 -0.00000000000E+00 -0.00000000000E+00 -0.45593999997E+02  0.45594000000E+02  0.51100000000E-03 0.  1.
    9900012    2    1    2    0    0  0.28190512237E+02 -0.15043215657E+02  0.25142844502E+02  0.50528856537E+02  0.29999989930E+02 0.  0.
        -12    1    1    2    0    0 -0.28190512237E+02  0.15043215657E+02 -0.25142844502E+02  0.40659143463E+02  0.00000000000E+00 0.  1.
         11    1    3    3    0    0  0.20757993104E+02 -0.81682733969E+01  0.22022395229E+02  0.31346464870E+02  0.51100000000E-03 0. -1.
        -11    1    3    3    0    0 -0.38005926934E+01  0.15731793298E+01 -0.15133461982E+01  0.43828774797E+01  0.51100000000E-03 0.  1.
        -12    1    3    3    0    0  0.11233111826E+02 -0.84481215904E+01  0.46337954712E+01  0.14799514187E+02  0.00000000000E+00 0.  1.
</event>
<event>
 7    1  0.5006721E-012  0.5052885E+02  0.7816164E-02  0.1300439E+00
        -11   -1    0    0    0    0  0.00000000000E+00  0.00000000000E+00  0.45593999997E+02  0.45594000000E+02  0.51100000000E-03 0. -1.
         11   -1    0    0    0    0 -0.00000000000E+00 -0.00000000000E+00 -0.45593999997E+02  0.45594000000E+02  0.51100000000E-03 0.  1.
    9900012    2    1    2    0    0 -0.15222921717E+02 -0.17247019050E+02 -0.33525656438E+02  0.50528847878E+02  0.29999963609E+02 0.  0.
         12    1    1    2    0    0  0.15222921717E+02  0.17247019050E+02  0.33525656438E+02  0.40659152122E+02  0.00000000000E+00 0. -1.
         11    1    3    3    0    0  0.51586359262E+01 -0.65558240676E+01  0.16073769470E+00  0.83436317447E+01  0.51100000000E-03 0. -1.
        -11    1    3    3    0    0 -0.19040890684E+02 -0.54666033202E+01 -0.28450610308E+02  0.34668090473E+02  0.51100000000E-03 0.  1.
        -12    1    3    3    0    0 -0.13406669596E+01 -0.52245916619E+01 -0.52357838245E+01  0.75171256599E+01  0.00000000000E+00 0.  1.
</event>
<event>
 7    1  0.5006721E-012  0.5052886E+02  0.7816164E-02  0.1300439E+00
        -11   -1    0    0    0    0  0.00000000000E+00  0.00000000000E+00  0.45593999997E+02  0.45594000000E+02  0.51100000000E-03 0. -1.
         11   -1    0    0    0    0 -0.00000000000E+00 -0.00000000000E+00 -0.45593999997E+02  0.45594000000E+02  0.51100000000E-03 0.  1.
    9900012    2    1    2    0    0 -0.29502120879E+02 -0.15027384297E+01  0.27938004778E+02  0.50528862403E+02  0.30000007760E+02 0.  0.
        -12    1    1    2    0    0  0.29502120879E+02  0.15027384297E+01 -0.27938004778E+02  0.40659137597E+02  0.00000000000E+00 0.  1.
         11    1    3    3    0    0 -0.23847906673E+02 -0.13342909025E+02  0.14603854089E+02  0.30984325528E+02  0.51100000000E-03 0. -1.
        -11    1    3    3    0    0 -0.62979170526E+01  0.87465029964E+01  0.11956673175E+02  0.16097425494E+02  0.51100000000E-03 0.  1.
         12    1    3    3    0    0  0.64370284698E+00  0.30936675986E+01  0.13774775140E+01  0.34471113802E+01  0.00000000000E+00 0. -1.
</event>
<event>
 7    1  0.5006721E-012  0.5052886E+02  0.7816164E-02  0.1300439E+00
        -11   -1    0    0    0    0  0.00000000000E+00  0.00000000000E+00  0.45593999997E+02  0.45594000000E+02  0.51100000000E-03 0. -1.
         11   -1    0    0    0    0 -0.00000000000E+00 -0.00000000000E+00 -0.45593999997E+02  0.45594000000E+02  0.51100000000E-03 0.  1.
    9900012    2    1    2    0    0 -0.37834692010E+02 -0.63505647847E+01  0.13467445449E+02  0.50528859829E+02  0.29999999936E+02 0.  0.
        -12    1    1    2    0    0  0.37834692010E+02  0.63505647847E+01 -0.13467445449E+02  0.40659140171E+02  0.00000000000E+00 0.  1.
         11    1    3    3    0    0 -0.18381161544E+02 -0.31620647809E+01  0.20832453473E+02  0.27961703656E+02  0.51100000000E-03 0. -1.
        -11    1    3    3    0    0 -0.18843812597E+02 -0.17781252925E+01 -0.84070467144E+01  0.20710611711E+02  0.51100000000E-03 0.  1.
        -12    1    3    3    0    0 -0.60971786888E+00 -0.14103747113E+01  0.10420386899E+01  0.18565444614E+01  0.00000000000E+00 0.  1.
</event>
<event>
 7    1  0.5006721E-012  0.5052886E+02  0.7816164E-02  0.1300439E+00
        -11   -1    0    0    0    0  0.00000000000E+00  0.00000000000E+00  0.45593999997E+02  0.45594000000E+02  0.51100000000E-03 0. -1.
         11   -1    0    0    0    0 -0.00000000000E+00 -0.00000000000E+00 -0.45593999997E+02  0.45594000000E+02  0.51100000000E-03 0.  1.
    9900012    2    1    2    0    0 -0.20273750505E+02  0.21915687831E+02  0.27601512542E+02  0.50528858011E+02  0.29999994410E+02 0.  0.
        -12    1    1    2    0    0  0.20273750505E+02 -0.21915687831E+02 -0.27601512542E+02  0.40659141989E+02  0.00000000000E+00 0.  1.
         11    1    3    3    0    0 -0.27060000559E+02  0.16268876544E+02  0.26921370998E+02  0.41493134263E+02  0.51100000000E-03 0. -1.
        -11    1    3    3    0    0  0.59924987328E+01  0.45263189425E+01  0.11220986041E+01  0.75932015494E+01  0.51100000000E-03 0.  1.
         12    1    3    3    0    0  0.79375132079E+00  0.11204923439E+01 -0.44195705948E+00  0.14425221989E+01  0.00000000000E+00 0. -1.
</event>
<event>
 7    1  0.5006721E-012  0.5052886E+02  0.7816164E-02  0.1300439E+00
        -11   -1    0    0    0    0  0.00000000000E+00  0.00000000000E+00  0.45593999997E+02  0.45594000000E+02  0.51100000000E-03 0. -1.
         11   -1    0    0    0    0 -0.00000000000E+00 -0.00000000000E+00 -0.45593999997E+02  0.45594000000E+02  0.51100000000E-03 0.  1.
    9900012    2    1    2    0    0 -0.18465333609E+02  0.18838069842E+02  0.30940656776E+02  0.50528860039E+02  0.30000000573E+02 0.  0.
        -12    1    1    2    0    0  0.18465333609E+02 -0.18838069842E+02 -0.30940656776E+02  0.40659139961E+02  0.00000000000E+00 0.  1.
         11    1    3    3    0    0  0.40038922569E+01 -0.18247192407E+01  0.10696800772E+02  0.11566429895E+02  0.51100000000E-03 0. -1.
        -11    1    3    3    0    0 -0.18888993129E+02  0.88553928448E+01  0.11318783682E+02  0.23734508804E+02  0.51100000000E-03 0.  1.
        -12    1    3    3    0    0 -0.35802327377E+01  0.11807396238E+02  0.89250723220E+01  0.15227921340E+02  0.00000000000E+00 0.  1.
</event>
<event>
 7    1  0.5006721E-012  0.5052887E+02  0.7816164E-02  0.1300439E+00
        -11   -1    0    0    0    0  0.00000000000E+00  0.00000000000E+00  0.45593999997E+02  0.45594000000E+02  0.51100000000E-03 0. -1.
         11   -1    0    0    0    0 -0.00000000000E+00 -0.00000000000E+00 -0.45593999997E+02  0.45594000000E+02  0.51100000000E-03 0.  1.
    9900012    2    1    2    0    0  0.26491744601E+02  0.16038762026E+02 -0.26345979831E+02  0.50528867292E+02  0.30000022620E+02 0.  0.
         12    1    1    2    0    0 -0.26491744601E+02 -0.16038762026E+02  0.26345979831E+02  0.40659132708E+02  0.00000000000E+00 0. -1.
         11    1    3    3    0    0 -0.45077011373E+01  0.74640951360E+01 -0.61498949625E+01  0.10670205905E+02  0.51100000000E-03 0. -1.
        -11    1    3    3    0    0  0.23426290791E+02  0.33864314872E+01 -0.19472594411E+02  0.30650301006E+02  0.51100000000E-03 0.  1.
         12    1    3    3    0    0  0.75731549475E+01  0.51882354027E+01 -0.72349045747E+00  0.92083603804E+01  0.00000000000E+00 0. -1.
</event>
<event>
 7    1  0.5006721E-012  0.5052886E+02  0.7816164E-02  0.1300439E+00
        -11   -1    0    0    0    0  0.00000000000E+00  0.00000000000E+00  0.45593999997E+02  0.45594000000E+02  0.51100000000E-03 0.  1.
         11   -1    0    0    0    0 -0.00000000000E+00 -0.00000000000E+00 -0.45593999997E+02  0.45594000000E+02  0.51100000000E-03 0. -1.
    9900012    2    1    2    0    0 -0.33036847069E+02  0.23575409974E+02 -0.24356638951E+01  0.50528859843E+02  0.29999999978E+02 0.  0.
         12    1    1    2    0    0  0.33036847069E+02 -0.23575409974E+02  0.24356638951E+01  0.40659140157E+02  0.00000000000E+00 0. -1.
         11    1    3    3    0    0 -0.17172583234E+02  0.11219907892E+02 -0.15600241723E+02  0.25771136763E+02  0.51100000000E-03 0. -1.
        -11    1    3    3    0    0 -0.12555164754E+02  0.81122132502E+01  0.12191971181E+02  0.19289487483E+02  0.51100000000E-03 0.  1.
         12    1    3    3    0    0 -0.33090990814E+01  0.42432888327E+01  0.97260664603E+00  0.54682355963E+01  0.00000000000E+00 0. -1.
</event>
<event>
 7    1  0.5006721E-012  0.5052887E+02  0.7816164E-02  0.1300439E+00
        -11   -1    0    0    0    0  0.00000000000E+00  0.00000000000E+00  0.45593999997E+02  0.45594000000E+02  0.51100000000E-03 0. -1.
         11   -1    0    0    0    0 -0.00000000000E+00 -0.00000000000E+00 -0.45593999997E+02  0.45594000000E+02  0.51100000000E-03 0.  1.
    9900012    2    1    2    0    0 -0.26707988278E+02  0.15449699326E+02 -0.26479334629E+02  0.50528868068E+02  0.30000024978E+02 0.  0.
         12    1    1    2    0    0  0.26707988278E+02 -0.15449699326E+02  0.26479334629E+02  0.40659131932E+02  0.00000000000E+00 0. -1.
         11    1    3    3    0    0  0.19009005814E+01 -0.41503655259E+01 -0.85057804127E+01  0.96533547386E+01  0.51100000000E-03 0. -1.
        -11    1    3    3    0    0 -0.22683620416E+02  0.15894115958E+02 -0.19304137551E+02  0.33761209756E+02  0.51100000000E-03 0.  1.
         12    1    3    3    0    0 -0.59252684430E+01  0.37059488934E+01  0.13305833352E+01  0.71143035734E+01  0.00000000000E+00 0. -1.
</event>
<event>
 7    1  0.5006721E-012  0.5052886E+02  0.7816164E-02  0.1300439E+00
        -11   -1    0    0    0    0  0.00000000000E+00  0.00000000000E+00  0.45593999997E+02  0.45594000000E+02  0.51100000000E-03 0. -1.
         11   -1    0    0    0    0 -0.00000000000E+00 -0.00000000000E+00 -0.45593999997E+02  0.45594000000E+02  0.51100000000E-03 0.  1.
    9900012    2    1    2    0    0  0.20911825291E+02 -0.21634671268E+02  0.27345977062E+02  0.50528857125E+02  0.29999991717E+02 0.  0.
        -12    1    1    2    0    0 -0.20911825291E+02  0.21634671268E+02 -0.27345977062E+02  0.40659142875E+02  0.00000000000E+00 0.  1.
         11    1    3    3    0    0 -0.62707508562E+01  0.83567467007E-03  0.44925309144E+01  0.77139582107E+01  0.51100000000E-03 0. -1.
        -11    1    3    3    0    0  0.23257692866E+01  0.71411430029E+00  0.32630684267E+01  0.40702306847E+01  0.51100000000E-03 0.  1.
         12    1    3    3    0    0  0.24856806860E+02 -0.22349621242E+02  0.19590377721E+02  0.38744668230E+02  0.00000000000E+00 0. -1.
</event>
<event>
 7    1  0.5006721E-012  0.5052886E+02  0.7816164E-02  0.1300439E+00
        -11   -1    0    0    0    0  0.00000000000E+00  0.00000000000E+00  0.45593999997E+02  0.45594000000E+02  0.51100000000E-03 0. -1.
         11   -1    0    0    0    0 -0.00000000000E+00 -0.00000000000E+00 -0.45593999997E+02  0.45594000000E+02  0.51100000000E-03 0.  1.
    9900012    2    1    2    0    0  0.21335924842E+02  0.22685864891E+02 -0.26139918259E+02  0.50528862266E+02  0.30000007343E+02 0.  0.
         12    1    1    2    0    0 -0.21335924842E+02 -0.22685864891E+02  0.26139918259E+02  0.40659137734E+02  0.00000000000E+00 0. -1.
         11    1    3    3    0    0  0.10612584299E+01  0.26825307874E+01 -0.36833980864E+01  0.46786389693E+01  0.51100000000E-03 0. -1.
        -11    1    3    3    0    0 -0.15877090674E+01  0.17931193511E+02 -0.10690079784E+02  0.20936244335E+02  0.51100000000E-03 0.  1.
        -12    1    3    3    0    0  0.21862375479E+02  0.20721405918E+01 -0.11766440389E+02  0.24913978961E+02  0.00000000000E+00 0.  1.
</event>
<event>
 7    1  0.5006721E-012  0.5052886E+02  0.7816164E-02  0.1300439E+00
        -11   -1    0    0    0    0  0.00000000000E+00  0.00000000000E+00  0.45593999997E+02  0.45594000000E+02  0.51100000000E-03 0. -1.
         11   -1    0    0    0    0 -0.00000000000E+00 -0.00000000000E+00 -0.45593999997E+02  0.45594000000E+02  0.51100000000E-03 0.  1.
    9900012    2    1    2    0    0 -0.27585732898E+01 -0.24865501873E+02 -0.32050939211E+02  0.50528860630E+02  0.30000002372E+02 0.  0.
         12    1    1    2    0    0  0.27585732898E+01  0.24865501873E+02  0.32050939211E+02  0.40659139370E+02  0.00000000000E+00 0. -1.
         11    1    3    3    0    0  0.46352016303E+01  0.34716506743E+01 -0.11578317203E+02  0.12945844201E+02  0.51100000000E-03 0. -1.
        -11    1    3    3    0    0 -0.53303372637E+01 -0.28695706330E+02 -0.20143656575E+02  0.35462980101E+02  0.51100000000E-03 0.  1.
         12    1    3    3    0    0 -0.20634376564E+01  0.35855378314E+00 -0.32896543205E+00  0.21200363282E+01  0.00000000000E+00 0. -1.
</event>
<event>
 7    1  0.5006721E-012  0.5052899E+02  0.7816164E-02  0.1300438E+00
        -11   -1    0    0    0    0  0.00000000000E+00  0.00000000000E+00  0.45593999997E+02  0.45594000000E+02  0.51100000000E-03 0. -1.
         11   -1    0    0    0    0 -0.00000000000E+00 -0.00000000000E+00 -0.45593999997E+02  0.45594000000E+02  0.51100000000E-03 0.  1.
    9900012    2    1    2    0    0  0.34321818044E+01  0.14341174760E+02 -0.37890706259E+02  0.50528993787E+02  0.30000407112E+02 0.  0.
         12    1    1    2    0    0 -0.34321818044E+01 -0.14341174760E+02  0.37890706259E+02  0.40659006213E+02  0.00000000000E+00 0. -1.
         11    1    3    3    0    0  0.17225400495E+01  0.23499757955E+01  0.57013755562E+00  0.29689371087E+01  0.51100000000E-03 0. -1.
        -11    1    3    3    0    0 -0.11508385459E+02  0.39659475297E+01 -0.20672049376E+02  0.23989691564E+02  0.51100000000E-03 0.  1.
        -12    1    3    3    0    0  0.13218027214E+02  0.80252514344E+01 -0.17788794439E+02  0.23570365114E+02  0.00000000000E+00 0.  1.
</event>
<event>
 7    1  0.5006721E-012  0.5052886E+02  0.7816164E-02  0.1300439E+00
        -11   -1    0    0    0    0  0.00000000000E+00  0.00000000000E+00  0.45593999997E+02  0.45594000000E+02  0.51100000000E-03 0. -1.
         11   -1    0    0    0    0 -0.00000000000E+00 -0.00000000000E+00 -0.45593999997E+02  0.45594000000E+02  0.51100000000E-03 0.  1.
    9900012    2    1    2    0    0  0.39085774160E+02 -0.35027582657E+01 -0.10639473536E+02  0.50528862598E+02  0.30000008354E+02 0.  0.
         12    1    1    2    0    0 -0.39085774160E+02  0.35027582657E+01  0.10639473536E+02  0.40659137402E+02  0.00000000000E+00 0. -1.
         11    1    3    3    0    0  0.11121618712E+02  0.11034112741E+02  0.39102084171E+00  0.15671469118E+02  0.51100000000E-03 0. -1.
        -11    1    3    3    0    0  0.10831015084E+02 -0.78134696631E+01  0.86338522876E-01  0.13355472681E+02  0.51100000000E-03 0.  1.
         12    1    3    3    0    0  0.17133140363E+02 -0.67234013434E+01 -0.11116832901E+02  0.21501920799E+02  0.00000000000E+00 0. -1.
</event>
<event>
 7    1  0.5006721E-012  0.5052886E+02  0.7816164E-02  0.1300439E+00
        -11   -1    0    0    0    0  0.00000000000E+00  0.00000000000E+00  0.45593999997E+02  0.45594000000E+02  0.51100000000E-03 0. -1.
         11   -1    0    0    0    0 -0.00000000000E+00 -0.00000000000E+00 -0.45593999997E+02  0.45594000000E+02  0.51100000000E-03 0.  1.
    9900012    2    1    2    0    0 -0.89681540865E+00  0.13989617119E-01 -0.40649248084E+02  0.50528857813E+02  0.29999993808E+02 0.  0.
         12    1    1    2    0    0  0.89681540865E+00 -0.13989617119E-01  0.40649248084E+02  0.40659142187E+02  0.00000000000E+00 0. -1.
         11    1    3    3    0    0 -0.40817563920E+01  0.25687854474E+01  0.25963387680E+01  0.54772592761E+01  0.51100000000E-03 0. -1.
        -11    1    3    3    0    0  0.73113191569E+01 -0.38960774622E+01 -0.27807686549E+02  0.29015551673E+02  0.51100000000E-03 0.  1.
         12    1    3    3    0    0 -0.41263781735E+01  0.13412816319E+01 -0.15437900303E+02  0.16036046864E+02  0.00000000000E+00 0. -1.
</event>
<event>
 7    1  0.5006721E-012  0.5052886E+02  0.7816164E-02  0.1300439E+00
        -11   -1    0    0    0    0  0.00000000000E+00  0.00000000000E+00  0.45593999997E+02  0.45594000000E+02  0.51100000000E-03 0. -1.
         11   -1    0    0    0    0 -0.00000000000E+00 -0.00000000000E+00 -0.45593999997E+02  0.45594000000E+02  0.51100000000E-03 0.  1.
    9900012    2    1    2    0    0  0.35414115217E+02  0.34546933274E+01 -0.19674131218E+02  0.50528857095E+02  0.29999991627E+02 0.  0.
         12    1    1    2    0    0 -0.35414115217E+02 -0.34546933274E+01  0.19674131218E+02  0.40659142905E+02  0.00000000000E+00 0. -1.
         11    1    3    3    0    0  0.92537284468E+00  0.14504807911E+01  0.42075610843E+01  0.45457430598E+01  0.51100000000E-03 0. -1.
        -11    1    3    3    0    0  0.27170911350E+02  0.94756643141E+01 -0.16363483236E+02  0.33103024358E+02  0.51100000000E-03 0.  1.
        -12    1    3    3    0    0  0.73178310225E+01 -0.74714517778E+01 -0.75182090662E+01  0.12880089678E+02  0.00000000000E+00 0.  1.
</event>
<event>
 7    1  0.5006721E-012  0.5052885E+02  0.7816164E-02  0.1300439E+00
        -11   -1    0    0    0    0  0.00000000000E+00  0.00000000000E+00  0.45593999997E+02  0.45594000000E+02  0.51100000000E-03 0. -1.
         11   -1    0    0    0    0 -0.00000000000E+00 -0.00000000000E+00 -0.45593999997E+02  0.45594000000E+02  0.51100000000E-03 0.  1.
    9900012    2    1    2    0    0  0.13436900116E+02  0.36798632129E+02 -0.10884697844E+02  0.50528852709E+02  0.29999978294E+02 0.  0.
         12    1    1    2    0    0 -0.13436900116E+02 -0.36798632129E+02  0.10884697844E+02  0.40659147291E+02  0.00000000000E+00 0. -1.
         11    1    3    3    0    0 -0.19875175857E+01  0.71344335831E+01 -0.46535631387E+01  0.87467719104E+01  0.51100000000E-03 0. -1.
        -11    1    3    3    0    0  0.14298434721E+02  0.24963620028E+02  0.53237479480E+01  0.29256962468E+02  0.51100000000E-03 0.  1.
        -12    1    3    3    0    0  0.11259829804E+01  0.47005785179E+01 -0.11554882653E+02  0.12525118331E+02  0.00000000000E+00 0.  1.
</event>
<event>
 7    1  0.5006721E-012  0.5052887E+02  0.7816164E-02  0.1300439E+00
        -11   -1    0    0    0    0  0.00000000000E+00  0.00000000000E+00  0.45593999997E+02  0.45594000000E+02  0.51100000000E-03 0. -1.
         11   -1    0    0    0    0 -0.00000000000E+00 -0.00000000000E+00 -0.45593999997E+02  0.45594000000E+02  0.51100000000E-03 0.  1.
    9900012    2    1    2    0    0  0.74797584857E+01  0.38412953445E+02  0.11030108627E+02  0.50528867253E+02  0.30000022503E+02 0.  0.
        -12    1    1    2    0    0 -0.74797584857E+01 -0.38412953445E+02 -0.11030108627E+02  0.40659132747E+02  0.00000000000E+00 0.  1.
         11    1    3    3    0    0  0.36517026517E+01  0.14850191760E+02  0.16874320775E+01  0.15385400705E+02  0.51100000000E-03 0. -1.
        -11    1    3    3    0    0 -0.70091206463E-01 -0.34878557771E+01  0.68660011057E+01  0.77014298765E+01  0.51100000000E-03 0.  1.
        -12    1    3    3    0    0  0.38981470405E+01  0.27050617462E+02  0.24766754440E+01  0.27442036672E+02  0.00000000000E+00 0.  1.
</event>
<event>
 7    1  0.5006721E-012  0.5052886E+02  0.7816164E-02  0.1300439E+00
        -11   -1    0    0    0    0  0.00000000000E+00  0.00000000000E+00  0.45593999997E+02  0.45594000000E+02  0.51100000000E-03 0. -1.
         11   -1    0    0    0    0 -0.00000000000E+00 -0.00000000000E+00 -0.45593999997E+02  0.45594000000E+02  0.51100000000E-03 0.  1.
    9900012    2    1    2    0    0 -0.18565317454E+02 -0.33856087933E+02 -0.12738133833E+02  0.50528858890E+02  0.29999997081E+02 0.  0.
         12    1    1    2    0    0  0.18565317454E+02  0.33856087933E+02  0.12738133833E+02  0.40659141110E+02  0.00000000000E+00 0. -1.
         11    1    3    3    0    0 -0.17593214712E+02 -0.14982013897E+02  0.33335063187E+01  0.23347252707E+02  0.51100000000E-03 0. -1.
        -11    1    3    3    0    0  0.44014897477E+01 -0.12839095484E+02 -0.79731509526E+01  0.15741239507E+02  0.51100000000E-03 0.  1.
        -12    1    3    3    0    0 -0.53735924896E+01 -0.60349785519E+01 -0.80984891991E+01  0.11440366676E+02  0.00000000000E+00 0.  1.
</event>
<event>
 7    1  0.5006721E-012  0.5052886E+02  0.7816164E-02  0.1300439E+00
        -11   -1    0    0    0    0  0.00000000000E+00  0.00000000000E+00  0.45593999997E+02  0.45594000000E+02  0.51100000000E-03 0. -1.
         11   -1    0    0    0    0 -0.00000000000E+00 -0.00000000000E+00 -0.45593999997E+02  0.45594000000E+02  0.51100000000E-03 0.  1.
    9900012    2    1    2    0    0 -0.15903796519E+02 -0.10582215124E+02  0.35892224411E+02  0.50528858422E+02  0.29999995661E+02 0.  0.
        -12    1    1    2    0    0  0.15903796519E+02  0.10582215124E+02 -0.35892224411E+02  0.40659141578E+02  0.00000000000E+00 0.  1.
         11    1    3    3    0    0  0.15564966351E+01  0.62015222448E+01  0.16629984397E+02  0.17816788186E+02  0.51100000000E-03 0. -1.
        -11    1    3    3    0    0 -0.16354581180E+02 -0.10680191076E+02  0.17594525356E+02  0.26288897462E+02  0.51100000000E-03 0.  1.
        -12    1    3    3    0    0 -0.11057119743E+01 -0.61035462928E+01  0.16677146576E+01  0.64231727751E+01  0.00000000000E+00 0.  1.
</event>
<event>
 7    1  0.5006721E-012  0.5052886E+02  0.7816164E-02  0.1300439E+00
        -11   -1    0    0    0    0  0.00000000000E+00  0.00000000000E+00  0.45593999997E+02  0.45594000000E+02  0.51100000000E-03 0. -1.
         11   -1    0    0    0    0 -0.00000000000E+00 -0.00000000000E+00 -0.45593999997E+02  0.45594000000E+02  0.51100000000E-03 0.  1.
    9900012    2    1    2    0    0  0.22437390741E+02 -0.99274836422E+00  0.33893125775E+02  0.50528855550E+02  0.29999986930E+02 0.  0.
        -12    1    1    2    0    0 -0.22437390741E+02  0.99274836422E+00 -0.33893125775E+02  0.40659144450E+02  0.00000000000E+00 0.  1.
         11    1    3    3    0    0 -0.32909812511E+01 -0.36817825679E+01  0.99732139654E+01  0.11128839901E+02  0.51100000000E-03 0. -1.
        -11    1    3    3    0    0  0.19306443457E+02 -0.24868732129E+01  0.71972685192E+01  0.20753890520E+02  0.51100000000E-03 0.  1.
        -12    1    3    3    0    0  0.64219285355E+01  0.51759074166E+01  0.16722643291E+02  0.18646125129E+02  0.00000000000E+00 0.  1.
</event>
<event>
 7    1  0.5006721E-012  0.5052885E+02  0.7816164E-02  0.1300439E+00
        -11   -1    0    0    0    0  0.00000000000E+00  0.00000000000E+00  0.45593999997E+02  0.45594000000E+02  0.51100000000E-03 0. -1.
         11   -1    0    0    0    0 -0.00000000000E+00 -0.00000000000E+00 -0.45593999997E+02  0.45594000000E+02  0.51100000000E-03 0.  1.
    9900012    2    1    2    0    0  0.13202921373E+02 -0.17235078654E+02  0.34377337056E+02  0.50528851312E+02  0.29999974047E+02 0.  0.
        -12    1    1    2    0    0 -0.13202921373E+02  0.17235078654E+02 -0.34377337056E+02  0.40659148688E+02  0.00000000000E+00 0.  1.
         11    1    3    3    0    0 -0.30894819985E+01 -0.18080657719E+01  0.15588575013E+01  0.39043613851E+01  0.51100000000E-03 0.  1.
        -11    1    3    3    0    0  0.82786921248E+01 -0.84438610100E+01  0.33935275816E+02  0.35936589669E+02  0.51100000000E-03 0. -1.
        -12    1    3    3    0    0  0.80137112469E+01 -0.69831518724E+01 -0.11167962619E+01  0.10687900257E+02  0.00000000000E+00 0.  1.
</event>
<event>
 7    1  0.5006721E-012  0.5052886E+02  0.7816164E-02  0.1300439E+00
        -11   -1    0    0    0    0  0.00000000000E+00  0.00000000000E+00  0.45593999997E+02  0.45594000000E+02  0.51100000000E-03 0. -1.
         11   -1    0    0    0    0 -0.00000000000E+00 -0.00000000000E+00 -0.45593999997E+02  0.45594000000E+02  0.51100000000E-03 0.  1.
    9900012    2    1    2    0    0  0.21065609256E+02  0.20224309594E+02 -0.28291044083E+02  0.50528858750E+02  0.29999996657E+02 0.  0.
         12    1    1    2    0    0 -0.21065609256E+02 -0.20224309594E+02  0.28291044083E+02  0.40659141250E+02  0.00000000000E+00 0. -1.
         11    1    3    3    0    0  0.21995190156E+02  0.13647591481E+02 -0.56254626414E+01  0.26489450229E+02  0.51100000000E-03 0. -1.
        -11    1    3    3    0    0  0.13013647691E+01  0.48058896339E+01 -0.11815878484E+02  0.12822055609E+02  0.51100000000E-03 0.  1.
         12    1    3    3    0    0 -0.22309456698E+01  0.17708284794E+01 -0.10849702958E+02  0.11217352912E+02  0.00000000000E+00 0. -1.
</event>
<event>
 7    1  0.5006721E-012  0.5052890E+02  0.7816164E-02  0.1300439E+00
        -11   -1    0    0    0    0  0.00000000000E+00  0.00000000000E+00  0.45593999997E+02  0.45594000000E+02  0.51100000000E-03 0. -1.
         11   -1    0    0    0    0 -0.00000000000E+00 -0.00000000000E+00 -0.45593999997E+02  0.45594000000E+02  0.51100000000E-03 0.  1.
    9900012    2    1    2    0    0  0.23082792714E+02  0.54804422820E+00  0.33467104285E+02  0.50528895962E+02  0.30000109765E+02 0.  0.
        -12    1    1    2    0    0 -0.23082792714E+02 -0.54804422820E+00 -0.33467104285E+02  0.40659104038E+02  0.00000000000E+00 0.  1.
         11    1    3    3    0    0  0.81537777256E+01 -0.92883048597E+01  0.75751479979E+01  0.14496191425E+02  0.51100000000E-03 0.  1.
        -11    1    3    3    0    0 -0.22082549149E+01  0.22150425112E+01  0.12757828479E+02  0.13135638197E+02  0.51100000000E-03 0. -1.
         12    1    3    3    0    0  0.17137269904E+02  0.76213065768E+01  0.13134127808E+02  0.22897066340E+02  0.00000000000E+00 0. -1.
</event>
<event>
 7    1  0.5006721E-012  0.5052886E+02  0.7816164E-02  0.1300439E+00
        -11   -1    0    0    0    0  0.00000000000E+00  0.00000000000E+00  0.45593999997E+02  0.45594000000E+02  0.51100000000E-03 0. -1.
         11   -1    0    0    0    0 -0.00000000000E+00 -0.00000000000E+00 -0.45593999997E+02  0.45594000000E+02  0.51100000000E-03 0.  1.
    9900012    2    1    2    0    0  0.63553994013E+01 -0.27316182236E+02  0.29438085309E+02  0.50528858591E+02  0.29999996172E+02 0.  0.
        -12    1    1    2    0    0 -0.63553994013E+01  0.27316182236E+02 -0.29438085309E+02  0.40659141409E+02  0.00000000000E+00 0.  1.
         11    1    3    3    0    0  0.72520542905E+01 -0.23293367136E+02  0.10227716486E+02  0.26453344377E+02  0.51100000000E-03 0. -1.
        -11    1    3    3    0    0 -0.30446408461E+01  0.44658868071E+01  0.99993949731E+01  0.11366700618E+02  0.51100000000E-03 0.  1.
        -12    1    3    3    0    0  0.21479859569E+01 -0.84887019074E+01  0.92109738495E+01  0.12708813595E+02  0.00000000000E+00 0.  1.
</event>
<event>
 7    1  0.5006721E-012  0.5052887E+02  0.7816164E-02  0.1300439E+00
        -11   -1    0    0    0    0  0.00000000000E+00  0.00000000000E+00  0.45593999997E+02  0.45594000000E+02  0.51100000000E-03 0.  1.
         11   -1    0    0    0    0 -0.00000000000E+00 -0.00000000000E+00 -0.45593999997E+02  0.45594000000E+02  0.51100000000E-03 0. -1.
    9900012    2    1    2    0    0 -0.12486697475E+01  0.33599603780E+02  0.22862028324E+02  0.50528869544E+02  0.30000029467E+02 0.  0.
        -12    1    1    2    0    0  0.12486697475E+01 -0.33599603780E+02 -0.22862028324E+02  0.40659130456E+02  0.00000000000E+00 0.  1.
         11    1    3    3    0    0  0.67360122216E+01  0.17339576122E+01  0.90203155714E+01  0.11390634878E+02  0.51100000000E-03 0. -1.
        -11    1    3    3    0    0 -0.11609320966E+02  0.25136563631E+02  0.14866433977E+02  0.31426645127E+02  0.51100000000E-03 0.  1.
        -12    1    3    3    0    0  0.36246389970E+01  0.67290825367E+01 -0.10247212242E+01  0.77115895399E+01  0.00000000000E+00 0.  1.
</event>
<event>
 7    1  0.5006721E-012  0.5052887E+02  0.7816164E-02  0.1300439E+00
        -11   -1    0    0    0    0  0.00000000000E+00  0.00000000000E+00  0.45593999997E+02  0.45594000000E+02  0.51100000000E-03 0. -1.
         11   -1    0    0    0    0 -0.00000000000E+00 -0.00000000000E+00 -0.45593999997E+02  0.45594000000E+02  0.51100000000E-03 0.  1.
    9900012    2    1    2    0    0 -0.14489279206E+02 -0.12105985586E+02 -0.36009310103E+02  0.50528874173E+02  0.30000043536E+02 0.  0.
         12    1    1    2    0    0  0.14489279206E+02  0.12105985586E+02  0.36009310103E+02  0.40659125827E+02  0.00000000000E+00 0. -1.
         11    1    3    3    0    0 -0.61324066420E+01  0.29627281865E+01 -0.21985111083E+02  0.23015848434E+02  0.51100000000E-03 0. -1.
        -11    1    3    3    0    0 -0.13291877583E+02 -0.11547979602E+02 -0.10347939720E+02  0.20423263678E+02  0.51100000000E-03 0.  1.
         12    1    3    3    0    0  0.49350050192E+01 -0.35207341706E+01 -0.36762593009E+01  0.70897620614E+01  0.00000000000E+00 0. -1.
</event>
<event>
 7    1  0.5006721E-012  0.5052886E+02  0.7816164E-02  0.1300439E+00
        -11   -1    0    0    0    0  0.00000000000E+00  0.00000000000E+00  0.45593999997E+02  0.45594000000E+02  0.51100000000E-03 0. -1.
         11   -1    0    0    0    0 -0.00000000000E+00 -0.00000000000E+00 -0.45593999997E+02  0.45594000000E+02  0.51100000000E-03 0.  1.
    9900012    2    1    2    0    0  0.10757107826E+02 -0.83547326089E+01 -0.38309905792E+02  0.50528858253E+02  0.29999995147E+02 0.  0.
         12    1    1    2    0    0 -0.10757107826E+02  0.83547326089E+01  0.38309905792E+02  0.40659141747E+02  0.00000000000E+00 0. -1.
         11    1    3    3    0    0  0.18436910270E+02  0.18541987120E+01 -0.15320097572E+02  0.24042942895E+02  0.51100000000E-03 0. -1.
        -11    1    3    3    0    0 -0.71925865034E+01 -0.76977144169E+01 -0.17441566714E+02  0.20376367624E+02  0.51100000000E-03 0.  1.
         12    1    3    3    0    0 -0.48721594005E+00 -0.25112169040E+01 -0.55482415058E+01  0.61095477344E+01  0.00000000000E+00 0. -1.
</event>
<event>
 7    1  0.5006721E-012  0.5052886E+02  0.7816164E-02  0.1300439E+00
        -11   -1    0    0    0    0  0.00000000000E+00  0.00000000000E+00  0.45593999997E+02  0.45594000000E+02  0.51100000000E-03 0. -1.
         11   -1    0    0    0    0 -0.00000000000E+00 -0.00000000000E+00 -0.45593999997E+02  0.45594000000E+02  0.51100000000E-03 0.  1.
    9900012    2    1    2    0    0  0.30789108157E+02  0.24861765535E+02  0.93321531955E+01  0.50528860193E+02  0.30000001043E+02 0.  0.
        -12    1    1    2    0    0 -0.30789108157E+02 -0.24861765535E+02 -0.93321531955E+01  0.40659139807E+02  0.00000000000E+00 0.  1.
         11    1    3    3    0    0  0.15622006470E+01 -0.82531493006E+00  0.10613519736E+02  0.10759573274E+02  0.51100000000E-03 0. -1.
        -11    1    3    3    0    0  0.28539666830E+02  0.22853434614E+02  0.54115639027E-01  0.36562207062E+02  0.51100000000E-03 0.  1.
         12    1    3    3    0    0  0.68724067899E+00  0.28336458510E+01 -0.13354821794E+01  0.32070798573E+01  0.00000000000E+00 0. -1.
</event>
<event>
 7    1  0.5006721E-012  0.5052886E+02  0.7816164E-02  0.1300439E+00
        -11   -1    0    0    0    0  0.00000000000E+00  0.00000000000E+00  0.45593999997E+02  0.45594000000E+02  0.51100000000E-03 0. -1.
         11   -1    0    0    0    0 -0.00000000000E+00 -0.00000000000E+00 -0.45593999997E+02  0.45594000000E+02  0.51100000000E-03 0.  1.
    9900012    2    1    2    0    0 -0.13076244913E+02 -0.18656949240E+01 -0.38453827703E+02  0.50528857565E+02  0.29999993055E+02 0.  0.
         12    1    1    2    0    0  0.13076244913E+02  0.18656949240E+01  0.38453827703E+02  0.40659142435E+02  0.00000000000E+00 0. -1.
         11    1    3    3    0    0  0.58326264217E+01  0.44089363000E+01 -0.24174619407E+01  0.77008033846E+01  0.51100000000E-03 0. -1.
        -11    1    3    3    0    0 -0.14258583899E+02 -0.70247409177E+01 -0.17235259374E+02  0.23445860311E+02  0.51100000000E-03 0.  1.
        -12    1    3    3    0    0 -0.46502874350E+01  0.75010969370E+00 -0.18801106388E+02  0.19382193869E+02  0.00000000000E+00 0.  1.
</event>
<event>
 7    1  0.5006721E-012  0.5052885E+02  0.7816164E-02  0.1300439E+00
        -11   -1    0    0    0    0  0.00000000000E+00  0.00000000000E+00  0.45593999997E+02  0.45594000000E+02  0.51100000000E-03 0. -1.
         11   -1    0    0    0    0 -0.00000000000E+00 -0.00000000000E+00 -0.45593999997E+02  0.45594000000E+02  0.51100000000E-03 0.  1.
    9900012    2    1    2    0    0 -0.32523538468E+02  0.18660493111E+02  0.15721697861E+02  0.50528851691E+02  0.29999975199E+02 0.  0.
        -12    1    1    2    0    0  0.32523538468E+02 -0.18660493111E+02 -0.15721697861E+02  0.40659148309E+02  0.00000000000E+00 0.  1.
         11    1    3    3    0    0 -0.74795639997E+01  0.15227456068E+02  0.83385021285E+01  0.18903701065E+02  0.51100000000E-03 0. -1.
        -11    1    3    3    0    0 -0.12697270450E+02 -0.63773929264E+01 -0.87801334353E-02  0.14208866766E+02  0.51100000000E-03 0.  1.
        -12    1    3    3    0    0 -0.12346704018E+02  0.98104299690E+01  0.73919758663E+01  0.17416283860E+02  0.00000000000E+00 0.  1.
</event>
<event>
 7    1  0.5006721E-012  0.5052886E+02  0.7816164E-02  0.1300439E+00
        -11   -1    0    0    0    0  0.00000000000E+00  0.00000000000E+00  0.45593999997E+02  0.45594000000E+02  0.51100000000E-03 0. -1.
         11   -1    0    0    0    0 -0.00000000000E+00 -0.00000000000E+00 -0.45593999997E+02  0.45594000000E+02  0.51100000000E-03 0.  1.
    9900012    2    1    2    0    0 -0.21737248770E+02  0.63331219781E+01 -0.33772023578E+02  0.50528855953E+02  0.29999988153E+02 0.  0.
         12    1    1    2    0    0  0.21737248770E+02 -0.63331219781E+01  0.33772023578E+02  0.40659144047E+02  0.00000000000E+00 0. -1.
         11    1    3    3    0    0 -0.19571789511E+02  0.35370175625E+01 -0.90587553384E+01  0.21854667384E+02  0.51100000000E-03 0. -1.
        -11    1    3    3    0    0 -0.37706607587E+01  0.81351086349E+01 -0.15312632497E+02  0.17744705951E+02  0.51100000000E-03 0.  1.
         12    1    3    3    0    0  0.16052014996E+01 -0.53390042193E+01 -0.94006357433E+01  0.10929482617E+02  0.00000000000E+00 0. -1.
</event>
<event>
 7    1  0.5006721E-012  0.5052885E+02  0.7816164E-02  0.1300439E+00
        -11   -1    0    0    0    0  0.00000000000E+00  0.00000000000E+00  0.45593999997E+02  0.45594000000E+02  0.51100000000E-03 0. -1.
         11   -1    0    0    0    0 -0.00000000000E+00 -0.00000000000E+00 -0.45593999997E+02  0.45594000000E+02  0.51100000000E-03 0.  1.
    9900012    2    1    2    0    0  0.32152362823E+02 -0.21414276913E+02 -0.12681517820E+02  0.50528848692E+02  0.29999966085E+02 0.  0.
         12    1    1    2    0    0 -0.32152362823E+02  0.21414276913E+02  0.12681517820E+02  0.40659151308E+02  0.00000000000E+00 0. -1.
         11    1    3    3    0    0  0.19829525858E+02 -0.24376337278E+02 -0.10389390314E+02  0.33096153042E+02  0.51100000000E-03 0. -1.
        -11    1    3    3    0    0  0.96009708961E+01 -0.93291291113E+00  0.32066734602E+01  0.10165221276E+02  0.51100000000E-03 0.  1.
         12    1    3    3    0    0  0.27218660695E+01  0.38949732754E+01 -0.54988009665E+01  0.72674743747E+01  0.00000000000E+00 0. -1.
</event>
<event>
 7    1  0.5006721E-012  0.5052884E+02  0.7816164E-02  0.1300439E+00
        -11   -1    0    0    0    0  0.00000000000E+00  0.00000000000E+00  0.45593999997E+02  0.45594000000E+02  0.51100000000E-03 0.  1.
         11   -1    0    0    0    0 -0.00000000000E+00 -0.00000000000E+00 -0.45593999997E+02  0.45594000000E+02  0.51100000000E-03 0. -1.
    9900012    2    1    2    0    0  0.20273425926E+02 -0.26246210959E+02 -0.23522151254E+02  0.50528843736E+02  0.29999951020E+02 0.  0.
         12    1    1    2    0    0 -0.20273425926E+02  0.26246210959E+02  0.23522151254E+02  0.40659156264E+02  0.00000000000E+00 0. -1.
         11    1    3    3    0    0 -0.50713613999E+00 -0.44281758456E+00 -0.88191857439E+00  0.11095292293E+01  0.51100000000E-03 0. -1.
        -11    1    3    3    0    0  0.11152688173E+01 -0.20052098144E+02 -0.17513113942E+01  0.20159304461E+02  0.51100000000E-03 0.  1.
        -12    1    3    3    0    0  0.19665293249E+02 -0.57512952301E+01 -0.20888921286E+02  0.29260010045E+02  0.00000000000E+00 0.  1.
</event>
<event>
 7    1  0.5006721E-012  0.5052886E+02  0.7816164E-02  0.1300439E+00
        -11   -1    0    0    0    0  0.00000000000E+00  0.00000000000E+00  0.45593999997E+02  0.45594000000E+02  0.51100000000E-03 0. -1.
         11   -1    0    0    0    0 -0.00000000000E+00 -0.00000000000E+00 -0.45593999997E+02  0.45594000000E+02  0.51100000000E-03 0.  1.
    9900012    2    1    2    0    0  0.57386278752E+01 -0.29274174773E+02 -0.27627093242E+02  0.50528862779E+02  0.30000008904E+02 0.  0.
         12    1    1    2    0    0 -0.57386278752E+01  0.29274174773E+02  0.27627093242E+02  0.40659137221E+02  0.00000000000E+00 0. -1.
         11    1    3    3    0    0  0.45190029592E+01 -0.18207375564E+01 -0.26259205714E+01  0.55346121908E+01  0.51100000000E-03 0. -1.
        -11    1    3    3    0    0 -0.57247771966E+01 -0.48977911991E+01 -0.19295046256E+02  0.20713769403E+02  0.51100000000E-03 0.  1.
        -12    1    3    3    0    0  0.69444021126E+01 -0.22555646017E+02 -0.57061264145E+01  0.24280481186E+02  0.00000000000E+00 0.  1.
</event>
<event>
 7    1  0.5006721E-012  0.5052886E+02  0.7816164E-02  0.1300439E+00
        -11   -1    0    0    0    0  0.00000000000E+00  0.00000000000E+00  0.45593999997E+02  0.45594000000E+02  0.51100000000E-03 0. -1.
         11   -1    0    0    0    0 -0.00000000000E+00 -0.00000000000E+00 -0.45593999997E+02  0.45594000000E+02  0.51100000000E-03 0.  1.
    9900012    2    1    2    0    0 -0.20703980726E+02 -0.10262709367E+02 -0.33454264876E+02  0.50528857611E+02  0.29999993193E+02 0.  0.
         12    1    1    2    0    0  0.20703980726E+02  0.10262709367E+02  0.33454264876E+02  0.40659142389E+02  0.00000000000E+00 0. -1.
         11    1    3    3    0    0  0.50389177362E+01 -0.43359910192E+01 -0.95248829187E-01  0.66483518763E+01  0.51100000000E-03 0. -1.
        -11    1    3    3    0    0 -0.16501856997E+02  0.16116721589E+01 -0.19609568224E+02  0.25679640529E+02  0.51100000000E-03 0.  1.
         12    1    3    3    0    0 -0.92410414647E+01 -0.75383905063E+01 -0.13749447823E+02  0.18200865205E+02  0.00000000000E+00 0. -1.
</event>
<event>
 7    1  0.5006721E-012  0.5052881E+02  0.7816164E-02  0.1300439E+00
        -11   -1    0    0    0    0  0.00000000000E+00  0.00000000000E+00  0.45593999997E+02  0.45594000000E+02  0.51100000000E-03 0. -1.
         11   -1    0    0    0    0 -0.00000000000E+00 -0.00000000000E+00 -0.45593999997E+02  0.45594000000E+02  0.51100000000E-03 0.  1.
    9900012    2    1    2    0    0 -0.41828417973E+01 -0.27263913833E+02 -0.29872264346E+02  0.50528814812E+02  0.29999863101E+02 0.  0.
         12    1    1    2    0    0  0.41828417973E+01  0.27263913833E+02  0.29872264346E+02  0.40659185188E+02  0.00000000000E+00 0. -1.
         11    1    3    3    0    0  0.39223349289E+01 -0.94581568535E+01 -0.23061545746E+01  0.10495703480E+02  0.51100000000E-03 0. -1.
        -11    1    3    3    0    0 -0.14595732083E+02 -0.71730995501E+01 -0.18463239488E+02  0.24604470424E+02  0.51100000000E-03 0.  1.
        -12    1    3    3    0    0  0.64905553565E+01 -0.10632657430E+02 -0.91028702833E+01  0.15428640907E+02  0.00000000000E+00 0.  1.
</event>
<event>
 7    1  0.5006721E-012  0.5052886E+02  0.7816164E-02  0.1300439E+00
        -11   -1    0    0    0    0  0.00000000000E+00  0.00000000000E+00  0.45593999997E+02  0.45594000000E+02  0.51100000000E-03 0. -1.
         11   -1    0    0    0    0 -0.00000000000E+00 -0.00000000000E+00 -0.45593999997E+02  0.45594000000E+02  0.51100000000E-03 0.  1.
    9900012    2    1    2    0    0 -0.71465225572E+01 -0.19275523358E+02  0.35079152672E+02  0.50528861573E+02  0.30000005238E+02 0.  0.
        -12    1    1    2    0    0  0.71465225572E+01  0.19275523358E+02 -0.35079152672E+02  0.40659138427E+02  0.00000000000E+00 0.  1.
         11    1    3    3    0    0 -0.14455590435E+02 -0.21692930829E+02  0.27958214848E+02  0.38225765140E+02  0.51100000000E-03 0. -1.
        -11    1    3    3    0    0  0.74363163896E+01  0.27222134638E+00  0.38206239967E+01  0.83648116472E+01  0.51100000000E-03 0.  1.
         12    1    3    3    0    0 -0.12724851198E+00  0.21451861252E+01  0.33003138281E+01  0.39382847864E+01  0.00000000000E+00 0. -1.
</event>
<event>
 7    1  0.5006721E-012  0.5052885E+02  0.7816164E-02  0.1300439E+00
        -11   -1    0    0    0    0  0.00000000000E+00  0.00000000000E+00  0.45593999997E+02  0.45594000000E+02  0.51100000000E-03 0. -1.
         11   -1    0    0    0    0 -0.00000000000E+00 -0.00000000000E+00 -0.45593999997E+02  0.45594000000E+02  0.51100000000E-03 0.  1.
    9900012    2    1    2    0    0 -0.18711357040E+02 -0.19408405045E+02 -0.30436256348E+02  0.50528846428E+02  0.29999959203E+02 0.  0.
         12    1    1    2    0    0  0.18711357040E+02  0.19408405045E+02  0.30436256348E+02  0.40659153572E+02  0.00000000000E+00 0. -1.
         11    1    3    3    0    0  0.42781394318E+01 -0.54646830305E+01 -0.93562652562E+01  0.11649246217E+02  0.51100000000E-03 0. -1.
        -11    1    3    3    0    0 -0.24670666561E+02 -0.82793722585E+01 -0.13646613275E+02  0.29384006665E+02  0.51100000000E-03 0.  1.
        -12    1    3    3    0    0  0.16811700889E+01 -0.56643497561E+01 -0.74333778166E+01  0.94955935460E+01  0.00000000000E+00 0.  1.
</event>
<event>
 7    1  0.5006721E-012  0.5052886E+02  0.7816164E-02  0.1300439E+00
        -11   -1    0    0    0    0  0.00000000000E+00  0.00000000000E+00  0.45593999997E+02  0.45594000000E+02  0.51100000000E-03 0. -1.
         11   -1    0    0    0    0 -0.00000000000E+00 -0.00000000000E+00 -0.45593999997E+02  0.45594000000E+02  0.51100000000E-03 0.  1.
    9900012    2    1    2    0    0  0.25728352356E+02 -0.19048197380E+02  0.25067581895E+02  0.50528860800E+02  0.30000002889E+02 0.  0.
        -12    1    1    2    0    0 -0.25728352356E+02  0.19048197380E+02 -0.25067581895E+02  0.40659139200E+02  0.00000000000E+00 0.  1.
         11    1    3    3    0    0  0.17063734126E+02 -0.99065095728E+01  0.12838555609E+01  0.19772663948E+02  0.51100000000E-03 0. -1.
        -11    1    3    3    0    0  0.31788458688E+01 -0.98183259066E+00  0.19913436352E+02  0.20189452789E+02  0.51100000000E-03 0.  1.
        -12    1    3    3    0    0  0.54857723620E+01 -0.81598552170E+01  0.38702899812E+01  0.10566744064E+02  0.00000000000E+00 0.  1.
</event>
<event>
 7    1  0.5006721E-012  0.5052886E+02  0.7816164E-02  0.1300439E+00
        -11   -1    0    0    0    0  0.00000000000E+00  0.00000000000E+00  0.45593999997E+02  0.45594000000E+02  0.51100000000E-03 0. -1.
         11   -1    0    0    0    0 -0.00000000000E+00 -0.00000000000E+00 -0.45593999997E+02  0.45594000000E+02  0.51100000000E-03 0.  1.
    9900012    2    1    2    0    0 -0.26217070784E+02  0.23009243737E+02 -0.20890329261E+02  0.50528856446E+02  0.29999989655E+02 0.  0.
         12    1    1    2    0    0  0.26217070784E+02 -0.23009243737E+02  0.20890329261E+02  0.40659143554E+02  0.00000000000E+00 0. -1.
         11    1    3    3    0    0 -0.18686574311E+02  0.28858858272E+02 -0.21774518983E+02  0.40695840542E+02  0.51100000000E-03 0.  1.
        -11    1    3    3    0    0 -0.44789506033E+01 -0.35058441381E+01 -0.57720160318E+00  0.57170887329E+01  0.51100000000E-03 0. -1.
        -12    1    3    3    0    0 -0.30515458705E+01 -0.23437703972E+01  0.14613913250E+01  0.41159271713E+01  0.00000000000E+00 0.  1.
</event>
<event>
 7    1  0.5006721E-012  0.5052885E+02  0.7816164E-02  0.1300439E+00
        -11   -1    0    0    0    0  0.00000000000E+00  0.00000000000E+00  0.45593999997E+02  0.45594000000E+02  0.51100000000E-03 0. -1.
         11   -1    0    0    0    0 -0.00000000000E+00 -0.00000000000E+00 -0.45593999997E+02  0.45594000000E+02  0.51100000000E-03 0.  1.
    9900012    2    1    2    0    0  0.29621247297E+02 -0.27799864770E+02 -0.17074747460E+01  0.50528852903E+02  0.29999978884E+02 0.  0.
        -12    1    1    2    0    0 -0.29621247297E+02  0.27799864770E+02  0.17074747460E+01  0.40659147097E+02  0.00000000000E+00 0.  1.
         11    1    3    3    0    0  0.14676317845E+02 -0.26436365259E+02 -0.63840078511E+01  0.30903580215E+02  0.51100000000E-03 0. -1.
        -11    1    3    3    0    0  0.38807681075E+01  0.46952717378E+01  0.33217020163E+01  0.69382737293E+01  0.51100000000E-03 0.  1.
         12    1    3    3    0    0  0.11064161344E+02 -0.60587712487E+01  0.13548310887E+01  0.12686998959E+02  0.00000000000E+00 0. -1.
</event>
<event>
 7    1  0.5006721E-012  0.5052886E+02  0.7816164E-02  0.1300439E+00
        -11   -1    0    0    0    0  0.00000000000E+00  0.00000000000E+00  0.45593999997E+02  0.45594000000E+02  0.51100000000E-03 0. -1.
         11   -1    0    0    0    0 -0.00000000000E+00 -0.00000000000E+00 -0.45593999997E+02  0.45594000000E+02  0.51100000000E-03 0.  1.
    9900012    2    1    2    0    0 -0.31038744688E+02 -0.18369780734E+02 -0.18770004322E+02  0.50528861073E+02  0.30000003718E+02 0.  0.
         12    1    1    2    0    0  0.31038744688E+02  0.18369780734E+02  0.18770004322E+02  0.40659138927E+02  0.00000000000E+00 0. -1.
         11    1    3    3    0    0 -0.21507518104E+01  0.35211342398E+01 -0.11879118885E+02  0.12575276754E+02  0.51100000000E-03 0. -1.
        -11    1    3    3    0    0 -0.14325809750E+02 -0.81603250715E+01 -0.70680580793E+01  0.17938148609E+02  0.51100000000E-03 0.  1.
         12    1    3    3    0    0 -0.14562183128E+02 -0.13730589902E+02  0.17717264280E+00  0.20015435710E+02  0.00000000000E+00 0. -1.
</event>
<event>
 7    1  0.5006721E-012  0.5052886E+02  0.7816164E-02  0.1300439E+00
        -11   -1    0    0    0    0  0.00000000000E+00  0.00000000000E+00  0.45593999997E+02  0.45594000000E+02  0.51100000000E-03 0. -1.
         11   -1    0    0    0    0 -0.00000000000E+00 -0.00000000000E+00 -0.45593999997E+02  0.45594000000E+02  0.51100000000E-03 0.  1.
    9900012    2    1    2    0    0 -0.13868995635E+02 -0.28659642624E+02  0.25287178752E+02  0.50528861242E+02  0.30000004233E+02 0.  0.
        -12    1    1    2    0    0  0.13868995635E+02  0.28659642624E+02 -0.25287178752E+02  0.40659138758E+02  0.00000000000E+00 0.  1.
         11    1    3    3    0    0 -0.84246766411E+01 -0.21221449128E+02  0.17219197059E+02  0.28597654226E+02  0.51100000000E-03 0. -1.
        -11    1    3    3    0    0  0.53801892612E+01 -0.17232484556E+01  0.78716378437E+01  0.96891023490E+01  0.51100000000E-03 0.  1.
        -12    1    3    3    0    0 -0.10824508255E+02 -0.57149450403E+01  0.19634384924E+00  0.12242104667E+02  0.00000000000E+00 0.  1.
</event>
<event>
 7    1  0.5006721E-012  0.5052886E+02  0.7816164E-02  0.1300439E+00
        -11   -1    0    0    0    0  0.00000000000E+00  0.00000000000E+00  0.45593999997E+02  0.45594000000E+02  0.51100000000E-03 0. -1.
         11   -1    0    0    0    0 -0.00000000000E+00 -0.00000000000E+00 -0.45593999997E+02  0.45594000000E+02  0.51100000000E-03 0.  1.
    9900012    2    1    2    0    0 -0.10119443858E+02 -0.27356339288E+02 -0.28326548891E+02  0.50528858158E+02  0.29999994857E+02 0.  0.
         12    1    1    2    0    0  0.10119443858E+02  0.27356339288E+02  0.28326548891E+02  0.40659141842E+02  0.00000000000E+00 0. -1.
         11    1    3    3    0    0  0.58611295912E+01  0.33859529964E+01 -0.69995525420E+01  0.97371070564E+01  0.51100000000E-03 0. -1.
        -11    1    3    3    0    0 -0.30909087466E+01 -0.80371683613E+01 -0.43354318141E+01  0.96408382117E+01  0.51100000000E-03 0.  1.
         12    1    3    3    0    0 -0.12889664702E+02 -0.22705123923E+02 -0.16991564535E+02  0.31150912890E+02  0.00000000000E+00 0. -1.
</event>
<event>
 7    1  0.5006721E-012  0.5052885E+02  0.7816164E-02  0.1300439E+00
        -11   -1    0    0    0    0  0.00000000000E+00  0.00000000000E+00  0.45593999997E+02  0.45594000000E+02  0.51100000000E-03 0. -1.
         11   -1    0    0    0    0 -0.00000000000E+00 -0.00000000000E+00 -0.45593999997E+02  0.45594000000E+02  0.51100000000E-03 0.  1.
    9900012    2    1    2    0    0  0.18045498150E+02 -0.18045314402E+02  0.31652690016E+02  0.50528853912E+02  0.29999981951E+02 0.  0.
        -12    1    1    2    0    0 -0.18045498150E+02  0.18045314402E+02 -0.31652690016E+02  0.40659146088E+02  0.00000000000E+00 0.  1.
         11    1    3    3    0    0  0.53147143950E+01 -0.19303193903E+01 -0.15319491334E+01  0.58582583126E+01  0.51100000000E-03 0.  1.
        -11    1    3    3    0    0  0.26258611003E+01 -0.36054220940E+01  0.27119488856E+02  0.27483829629E+02  0.51100000000E-03 0. -1.
        -12    1    3    3    0    0  0.10104922655E+02 -0.12509572918E+02  0.60651502935E+01  0.17186765971E+02  0.00000000000E+00 0.  1.
</event>
<event>
 7    1  0.5006721E-012  0.5052887E+02  0.7816164E-02  0.1300439E+00
        -11   -1    0    0    0    0  0.00000000000E+00  0.00000000000E+00  0.45593999997E+02  0.45594000000E+02  0.51100000000E-03 0. -1.
         11   -1    0    0    0    0 -0.00000000000E+00 -0.00000000000E+00 -0.45593999997E+02  0.45594000000E+02  0.51100000000E-03 0.  1.
    9900012    2    1    2    0    0 -0.36913429817E+02 -0.12279918005E+02  0.11822331933E+02  0.50528865487E+02  0.30000017133E+02 0.  0.
        -12    1    1    2    0    0  0.36913429817E+02  0.12279918005E+02 -0.11822331933E+02  0.40659134513E+02  0.00000000000E+00 0.  1.
         11    1    3    3    0    0  0.16968428001E+01  0.45503671126E+01  0.38774942278E+01  0.62145054586E+01  0.51100000000E-03 0. -1.
        -11    1    3    3    0    0 -0.33535559410E+02 -0.16735606818E+02  0.10074742906E+02  0.38809982290E+02  0.51100000000E-03 0.  1.
         12    1    3    3    0    0 -0.50747132072E+01 -0.94678298801E-01 -0.21299052001E+01  0.55043777375E+01  0.00000000000E+00 0. -1.
</event>
<event>
 7    1  0.5006721E-012  0.5052886E+02  0.7816164E-02  0.1300439E+00
        -11   -1    0    0    0    0  0.00000000000E+00  0.00000000000E+00  0.45593999997E+02  0.45594000000E+02  0.51100000000E-03 0. -1.
         11   -1    0    0    0    0 -0.00000000000E+00 -0.00000000000E+00 -0.45593999997E+02  0.45594000000E+02  0.51100000000E-03 0.  1.
    9900012    2    1    2    0    0 -0.17478728529E+02  0.26341237849E+02 -0.25569494920E+02  0.50528857942E+02  0.29999994201E+02 0.  0.
         12    1    1    2    0    0  0.17478728529E+02 -0.26341237849E+02  0.25569494920E+02  0.40659142058E+02  0.00000000000E+00 0. -1.
         11    1    3    3    0    0 -0.67696371604E+00 -0.44209321440E+01  0.24294434624E+01  0.50897069359E+01  0.51100000000E-03 0. -1.
        -11    1    3    3    0    0 -0.77930982579E+01  0.16280563729E+02 -0.99643763421E+01  0.20617418169E+02  0.51100000000E-03 0.  1.
         12    1    3    3    0    0 -0.90086665555E+01  0.14481606263E+02 -0.18034562040E+02  0.24821732838E+02  0.00000000000E+00 0. -1.
</event>
<event>
 7    1  0.5006721E-012  0.5052888E+02  0.7816164E-02  0.1300439E+00
        -11   -1    0    0    0    0  0.00000000000E+00  0.00000000000E+00  0.45593999997E+02  0.45594000000E+02  0.51100000000E-03 0. -1.
         11   -1    0    0    0    0 -0.00000000000E+00 -0.00000000000E+00 -0.45593999997E+02  0.45594000000E+02  0.51100000000E-03 0.  1.
    9900012    2    1    2    0    0  0.35286112118E+02  0.10630512870E+02 -0.17176926565E+02  0.50528876565E+02  0.30000050808E+02 0.  0.
         12    1    1    2    0    0 -0.35286112118E+02 -0.10630512870E+02  0.17176926565E+02  0.40659123435E+02  0.00000000000E+00 0. -1.
         11    1    3    3    0    0  0.19192501004E+02  0.19969162261E+01  0.10863572256E+01  0.19326664003E+02  0.51100000000E-03 0. -1.
        -11    1    3    3    0    0  0.16958304118E+02  0.77025932528E+01 -0.21069440168E+02  0.28121794584E+02  0.51100000000E-03 0.  1.
        -12    1    3    3    0    0 -0.86469300428E+00  0.93100339106E+00  0.28061563772E+01  0.30804179780E+01  0.00000000000E+00 0.  1.
</event>
<event>
 7    1  0.5006721E-012  0.5052886E+02  0.7816164E-02  0.1300439E+00
        -11   -1    0    0    0    0  0.00000000000E+00  0.00000000000E+00  0.45593999997E+02  0.45594000000E+02  0.51100000000E-03 0. -1.
         11   -1    0    0    0    0 -0.00000000000E+00 -0.00000000000E+00 -0.45593999997E+02  0.45594000000E+02  0.51100000000E-03 0.  1.
    9900012    2    1    2    0    0 -0.13965503744E+02 -0.26985137336E+02  0.27017268619E+02  0.50528859139E+02  0.29999997840E+02 0.  0.
        -12    1    1    2    0    0  0.13965503744E+02  0.26985137336E+02 -0.27017268619E+02  0.40659140861E+02  0.00000000000E+00 0.  1.
         11    1    3    3    0    0 -0.57599276672E-01 -0.11698920444E+02  0.21446399375E+02  0.24429819968E+02  0.51100000000E-03 0. -1.
        -11    1    3    3    0    0 -0.15606787867E+02 -0.81327076145E+01  0.63413687370E+01  0.18706301569E+02  0.51100000000E-03 0.  1.
        -12    1    3    3    0    0  0.16988833998E+01 -0.71535092781E+01 -0.77049949265E+00  0.73927376030E+01  0.00000000000E+00 0.  1.
</event>
<event>
 7    1  0.5006721E-012  0.5052885E+02  0.7816164E-02  0.1300439E+00
        -11   -1    0    0    0    0  0.00000000000E+00  0.00000000000E+00  0.45593999997E+02  0.45594000000E+02  0.51100000000E-03 0. -1.
         11   -1    0    0    0    0 -0.00000000000E+00 -0.00000000000E+00 -0.45593999997E+02  0.45594000000E+02  0.51100000000E-03 0.  1.
    9900012    2    1    2    0    0  0.60234633296E+01  0.26555869448E+02 -0.30193870855E+02  0.50528854045E+02  0.29999982355E+02 0.  0.
         12    1    1    2    0    0 -0.60234633296E+01 -0.26555869448E+02  0.30193870855E+02  0.40659145955E+02  0.00000000000E+00 0. -1.
         11    1    3    3    0    0 -0.17593785731E+01  0.36799293762E+00  0.32474466528E+01  0.37117033542E+01  0.51100000000E-03 0. -1.
        -11    1    3    3    0    0  0.31549313759E+01  0.26080278932E+02 -0.21290801495E+02  0.33814682754E+02  0.51100000000E-03 0.  1.
         12    1    3    3    0    0  0.46279105268E+01  0.10759757747E+00 -0.12150516012E+02  0.13002467937E+02  0.00000000000E+00 0. -1.
</event>
<event>
 7    1  0.5006721E-012  0.5052886E+02  0.7816164E-02  0.1300439E+00
        -11   -1    0    0    0    0  0.00000000000E+00  0.00000000000E+00  0.45593999997E+02  0.45594000000E+02  0.51100000000E-03 0. -1.
         11   -1    0    0    0    0 -0.00000000000E+00 -0.00000000000E+00 -0.45593999997E+02  0.45594000000E+02  0.51100000000E-03 0.  1.
    9900012    2    1    2    0    0 -0.13122622537E+01 -0.34486287279E+01 -0.40491366740E+02  0.50528857697E+02  0.29999993455E+02 0.  0.
         12    1    1    2    0    0  0.13122622537E+01  0.34486287279E+01  0.40491366740E+02  0.40659142303E+02  0.00000000000E+00 0. -1.
         11    1    3    3    0    0  0.73689841291E+01 -0.40755609640E+01 -0.32315469551E+02  0.33394635749E+02  0.51100000000E-03 0.  1.
        -11    1    3    3    0    0 -0.20136506183E+01 -0.48297639324E+01  0.34496329426E-01  0.52328384949E+01  0.51100000000E-03 0. -1.
         12    1    3    3    0    0 -0.66675957645E+01  0.54566961685E+01 -0.82103935189E+01  0.11901383453E+02  0.00000000000E+00 0. -1.
</event>
<event>
 7    1  0.5468367E-012  0.5052899E+02  0.7816164E-02  0.1300438E+00
        -11   -1    0    0    0    0  0.00000000000E+00  0.00000000000E+00  0.45593999997E+02  0.45594000000E+02  0.51100000000E-03 0. -1.
         11   -1    0    0    0    0 -0.00000000000E+00 -0.00000000000E+00 -0.45593999997E+02  0.45594000000E+02  0.51100000000E-03 0.  1.
    9900012    2    1    2    0    0  0.16546457436E+02 -0.26675835072E+02  0.25841245182E+02  0.50528986448E+02  0.30000384804E+02 0.  0.
        -12    1    1    2    0    0 -0.16546457436E+02  0.26675835072E+02 -0.25841245182E+02  0.40659013552E+02  0.00000000000E+00 0.  1.
         11    1    3    3    0    0  0.15537038142E+02 -0.11236154382E+02  0.10194721746E+02  0.21715963512E+02  0.51100000000E-03 0. -1.
        -11    1    3    3    0    0 -0.53529993163E+01 -0.98370878525E+00 -0.13534520965E+01  0.56083970520E+01  0.51100000000E-03 0.  1.
         12    1    3    3    0    0  0.63624186109E+01 -0.14455971905E+02  0.16999975532E+02  0.23204625883E+02  0.00000000000E+00 0. -1.
</event>
<event>
 7    1  0.5006721E-012  0.5052886E+02  0.7816164E-02  0.1300439E+00
        -11   -1    0    0    0    0  0.00000000000E+00  0.00000000000E+00  0.45593999997E+02  0.45594000000E+02  0.51100000000E-03 0. -1.
         11   -1    0    0    0    0 -0.00000000000E+00 -0.00000000000E+00 -0.45593999997E+02  0.45594000000E+02  0.51100000000E-03 0.  1.
    9900012    2    1    2    0    0 -0.23321085758E+02 -0.18940034664E+02 -0.27396491958E+02  0.50528859261E+02  0.29999998211E+02 0.  0.
         12    1    1    2    0    0  0.23321085758E+02  0.18940034664E+02  0.27396491958E+02  0.40659140739E+02  0.00000000000E+00 0. -1.
         11    1    3    3    0    0  0.53107344514E+01 -0.82428175999E+00  0.17819346576E+01  0.56620342827E+01  0.51100000000E-03 0. -1.
        -11    1    3    3    0    0 -0.12849344320E+02 -0.95820279839E+01 -0.11955664126E+02  0.19996470056E+02  0.51100000000E-03 0.  1.
         12    1    3    3    0    0 -0.15782475890E+02 -0.85337249200E+01 -0.17222762489E+02  0.24870354923E+02  0.00000000000E+00 0. -1.
</event>
<event>
 7    1  0.5006721E-012  0.5052886E+02  0.7816164E-02  0.1300439E+00
        -11   -1    0    0    0    0  0.00000000000E+00  0.00000000000E+00  0.45593999997E+02  0.45594000000E+02  0.51100000000E-03 0. -1.
         11   -1    0    0    0    0 -0.00000000000E+00 -0.00000000000E+00 -0.45593999997E+02  0.45594000000E+02  0.51100000000E-03 0.  1.
    9900012    2    1    2    0    0  0.24756554273E+02 -0.25246387337E+01 -0.32154386661E+02  0.50528863736E+02  0.30000011811E+02 0.  0.
         12    1    1    2    0    0 -0.24756554273E+02  0.25246387337E+01  0.32154386661E+02  0.40659136264E+02  0.00000000000E+00 0. -1.
         11    1    3    3    0    0  0.13090811697E+02 -0.68085284298E+00 -0.30608388327E+01  0.13461116079E+02  0.51100000000E-03 0. -1.
        -11    1    3    3    0    0  0.54331857364E+01 -0.95216901265E+01 -0.22927896249E+02  0.25413982702E+02  0.51100000000E-03 0.  1.
        -12    1    3    3    0    0  0.62325568395E+01  0.76779042358E+01 -0.61656515793E+01  0.11653764954E+02  0.00000000000E+00 0.  1.
</event>
<event>
 7    1  0.5006721E-012  0.5052888E+02  0.7816164E-02  0.1300439E+00
        -11   -1    0    0    0    0  0.00000000000E+00  0.00000000000E+00  0.45593999997E+02  0.45594000000E+02  0.51100000000E-03 0. -1.
         11   -1    0    0    0    0 -0.00000000000E+00 -0.00000000000E+00 -0.45593999997E+02  0.45594000000E+02  0.51100000000E-03 0.  1.
    9900012    2    1    2    0    0 -0.68520703296E+01 -0.14537684673E+02 -0.37347947981E+02  0.50528876032E+02  0.30000049186E+02 0.  0.
         12    1    1    2    0    0  0.68520703296E+01  0.14537684673E+02  0.37347947981E+02  0.40659123968E+02  0.00000000000E+00 0. -1.
         11    1    3    3    0    0  0.23071563495E+01  0.18112138595E+01 -0.11930966421E+02  0.12286229124E+02  0.51100000000E-03 0. -1.
        -11    1    3    3    0    0 -0.39216435464E+01 -0.20190603535E+02 -0.13297009869E+02  0.24491840089E+02  0.51100000000E-03 0.  1.
        -12    1    3    3    0    0 -0.52375831327E+01  0.38417050029E+01 -0.12119971691E+02  0.13750806819E+02  0.00000000000E+00 0.  1.
</event>
<event>
 7    1  0.5006721E-012  0.5052885E+02  0.7816164E-02  0.1300439E+00
        -11   -1    0    0    0    0  0.00000000000E+00  0.00000000000E+00  0.45593999997E+02  0.45594000000E+02  0.51100000000E-03 0.  1.
         11   -1    0    0    0    0 -0.00000000000E+00 -0.00000000000E+00 -0.45593999997E+02  0.45594000000E+02  0.51100000000E-03 0. -1.
    9900012    2    1    2    0    0  0.40564637913E+02 -0.26060591176E+01 -0.94090441560E+00  0.50528847349E+02  0.29999962003E+02 0.  0.
        -12    1    1    2    0    0 -0.40564637913E+02  0.26060591176E+01  0.94090441560E+00  0.40659152651E+02  0.00000000000E+00 0.  1.
         11    1    3    3    0    0  0.36768028028E+02 -0.37093282743E+01 -0.73141194161E+01  0.37671519008E+02  0.51100000000E-03 0. -1.
        -11    1    3    3    0    0  0.13829840090E-02 -0.39110084305E+01  0.51236645903E+01  0.64457682204E+01  0.51100000000E-03 0.  1.
        -12    1    3    3    0    0  0.37952269011E+01  0.50142775872E+01  0.12495504101E+01  0.64115601206E+01  0.00000000000E+00 0.  1.
</event>
<event>
 7    1  0.5006721E-012  0.5052886E+02  0.7816164E-02  0.1300439E+00
        -11   -1    0    0    0    0  0.00000000000E+00  0.00000000000E+00  0.45593999997E+02  0.45594000000E+02  0.51100000000E-03 0. -1.
         11   -1    0    0    0    0 -0.00000000000E+00 -0.00000000000E+00 -0.45593999997E+02  0.45594000000E+02  0.51100000000E-03 0.  1.
    9900012    2    1    2    0    0  0.41435079912E+01  0.13819050833E+02 -0.38013563148E+02  0.50528858253E+02  0.29999995145E+02 0.  0.
         12    1    1    2    0    0 -0.41435079912E+01 -0.13819050833E+02  0.38013563148E+02  0.40659141747E+02  0.00000000000E+00 0. -1.
         11    1    3    3    0    0 -0.80913396786E+01 -0.26309332634E+01 -0.82977373478E+01  0.11884613287E+02  0.51100000000E-03 0. -1.
        -11    1    3    3    0    0  0.47629999600E-02  0.10008495353E+02 -0.17678006074E+02  0.20314573610E+02  0.51100000000E-03 0.  1.
         12    1    3    3    0    0  0.12230084670E+02  0.64414887425E+01 -0.12037819727E+02  0.18329671356E+02  0.00000000000E+00 0. -1.
</event>
<event>
 7    1  0.5006721E-012  0.5052887E+02  0.7816164E-02  0.1300439E+00
        -11   -1    0    0    0    0  0.00000000000E+00  0.00000000000E+00  0.45593999997E+02  0.45594000000E+02  0.51100000000E-03 0. -1.
         11   -1    0    0    0    0 -0.00000000000E+00 -0.00000000000E+00 -0.45593999997E+02  0.45594000000E+02  0.51100000000E-03 0.  1.
    9900012    2    1    2    0    0  0.18544750518E+02  0.45524767436E+01  0.35896128777E+02  0.50528869691E+02  0.30000029914E+02 0.  0.
        -12    1    1    2    0    0 -0.18544750518E+02 -0.45524767436E+01 -0.35896128777E+02  0.40659130309E+02  0.00000000000E+00 0.  1.
         11    1    3    3    0    0  0.20801298695E+02  0.63572535353E+01  0.33712190622E+02  0.40120075981E+02  0.51100000000E-03 0. -1.
        -11    1    3    3    0    0 -0.30366850678E+01 -0.32362736845E+00 -0.34053915226E+01  0.45741537532E+01  0.51100000000E-03 0.  1.
         12    1    3    3    0    0  0.78013689024E+00 -0.14811494233E+01  0.55893296777E+01  0.58346399570E+01  0.00000000000E+00 0. -1.
</event>
<event>
 7    1  0.7575813E-012  0.5052886E+02  0.7816164E-02  0.1300439E+00
        -11   -1    0    0    0    0  0.00000000000E+00  0.00000000000E+00  0.45593999997E+02  0.45594000000E+02  0.51100000000E-03 0. -1.
         11   -1    0    0    0    0 -0.00000000000E+00 -0.00000000000E+00 -0.45593999997E+02  0.45594000000E+02  0.51100000000E-03 0.  1.
    9900012    2    1    2    0    0  0.46126411122E+00  0.14851928520E+02  0.37846708234E+02  0.50528857492E+02  0.29999992832E+02 0.  0.
        -12    1    1    2    0    0 -0.46126411122E+00 -0.14851928520E+02 -0.37846708234E+02  0.40659142508E+02  0.00000000000E+00 0.  1.
         11    1    3    3    0    0 -0.23933008071E+01  0.15562841028E+02  0.31577925126E+02  0.35285907458E+02  0.51100000000E-03 0. -1.
        -11    1    3    3    0    0 -0.46172736422E+01 -0.11913805096E+01 -0.92773222858E+00  0.48579101222E+01  0.51100000000E-03 0.  1.
         12    1    3    3    0    0  0.74718385605E+01  0.48046800176E+00  0.71965153362E+01  0.10385039911E+02  0.00000000000E+00 0. -1.
</event>
<event>
 7    1  0.5006721E-012  0.5052885E+02  0.7816164E-02  0.1300439E+00
        -11   -1    0    0    0    0  0.00000000000E+00  0.00000000000E+00  0.45593999997E+02  0.45594000000E+02  0.51100000000E-03 0. -1.
         11   -1    0    0    0    0 -0.00000000000E+00 -0.00000000000E+00 -0.45593999997E+02  0.45594000000E+02  0.51100000000E-03 0.  1.
    9900012    2    1    2    0    0  0.35730867986E+02  0.31824189425E+01 -0.19140105882E+02  0.50528851331E+02  0.29999974105E+02 0.  0.
         12    1    1    2    0    0 -0.35730867986E+02 -0.31824189425E+01  0.19140105882E+02  0.40659148669E+02  0.00000000000E+00 0. -1.
         11    1    3    3    0    0  0.10084452087E+02  0.16784024003E+00 -0.50414109102E-01  0.10085974721E+02  0.51100000000E-03 0. -1.
        -11    1    3    3    0    0  0.47427303541E+01  0.23619254241E+01 -0.18794372107E+02  0.19526920036E+02  0.51100000000E-03 0.  1.
        -12    1    3    3    0    0  0.20903685545E+02  0.65265327838E+00 -0.29531966503E+00  0.20915956573E+02  0.00000000000E+00 0.  1.
</event>
<event>
 7    1  0.5006721E-012  0.5052886E+02  0.7816164E-02  0.1300439E+00
        -11   -1    0    0    0    0  0.00000000000E+00  0.00000000000E+00  0.45593999997E+02  0.45594000000E+02  0.51100000000E-03 0. -1.
         11   -1    0    0    0    0 -0.00000000000E+00 -0.00000000000E+00 -0.45593999997E+02  0.45594000000E+02  0.51100000000E-03 0.  1.
    9900012    2    1    2    0    0 -0.48397307063E+01 -0.23359148148E+01 -0.40302434407E+02  0.50528859447E+02  0.29999998776E+02 0.  0.
         12    1    1    2    0    0  0.48397307063E+01  0.23359148148E+01  0.40302434407E+02  0.40659140553E+02  0.00000000000E+00 0. -1.
         11    1    3    3    0    0  0.28086648353E+01 -0.77968999957E+00 -0.25489256721E+02  0.25655383901E+02  0.51100000000E-03 0.  1.
        -11    1    3    3    0    0 -0.30267110838E+01  0.70570653776E+01 -0.70660754503E+00  0.77111896755E+01  0.51100000000E-03 0. -1.
        -12    1    3    3    0    0 -0.46216844579E+01 -0.86132901928E+01 -0.14106570141E+02  0.17162285871E+02  0.00000000000E+00 0.  1.
</event>
<event>
 7    1  0.5006721E-012  0.5052886E+02  0.7816164E-02  0.1300439E+00
        -11   -1    0    0    0    0  0.00000000000E+00  0.00000000000E+00  0.45593999997E+02  0.45594000000E+02  0.51100000000E-03 0. -1.
         11   -1    0    0    0    0 -0.00000000000E+00 -0.00000000000E+00 -0.45593999997E+02  0.45594000000E+02  0.51100000000E-03 0.  1.
    9900012    2    1    2    0    0 -0.10409834080E+02  0.10431248612E+02 -0.37894454424E+02  0.50528864873E+02  0.30000015269E+02 0.  0.
         12    1    1    2    0    0  0.10409834080E+02 -0.10431248612E+02  0.37894454424E+02  0.40659135127E+02  0.00000000000E+00 0. -1.
         11    1    3    3    0    0  0.12666752187E+01 -0.49769665638E+01  0.12507259423E+00  0.51371495698E+01  0.51100000000E-03 0. -1.
        -11    1    3    3    0    0 -0.91195432324E+01  0.17749279916E+02 -0.25380202327E+02  0.32285564526E+02  0.51100000000E-03 0.  1.
        -12    1    3    3    0    0 -0.25569660659E+01 -0.23410647401E+01 -0.12639324691E+02  0.13106150778E+02  0.00000000000E+00 0.  1.
</event>
<event>
 7    1  0.5006721E-012  0.5052884E+02  0.7816164E-02  0.1300439E+00
        -11   -1    0    0    0    0  0.00000000000E+00  0.00000000000E+00  0.45593999997E+02  0.45594000000E+02  0.51100000000E-03 0. -1.
         11   -1    0    0    0    0 -0.00000000000E+00 -0.00000000000E+00 -0.45593999997E+02  0.45594000000E+02  0.51100000000E-03 0.  1.
    9900012    2    1    2    0    0 -0.38333449337E+02 -0.13532950116E+02 -0.75725748108E+00  0.50528837246E+02  0.29999931294E+02 0.  0.
         12    1    1    2    0    0  0.38333449337E+02  0.13532950116E+02  0.75725748108E+00  0.40659162754E+02  0.00000000000E+00 0. -1.
         11    1    3    3    0    0 -0.20710817663E+02  0.62413979467E+01  0.34889396853E+01  0.21910402027E+02  0.51100000000E-03 0. -1.
        -11    1    3    3    0    0 -0.17531166703E+02 -0.19869431718E+02 -0.57452899311E+01  0.27113547895E+02  0.51100000000E-03 0.  1.
         12    1    3    3    0    0 -0.91464970586E-01  0.95083655264E-01  0.14990927647E+01  0.15048873246E+01  0.00000000000E+00 0. -1.
</event>
<event>
 7    1  0.5006721E-012  0.5052886E+02  0.7816164E-02  0.1300439E+00
        -11   -1    0    0    0    0  0.00000000000E+00  0.00000000000E+00  0.45593999997E+02  0.45594000000E+02  0.51100000000E-03 0. -1.
         11   -1    0    0    0    0 -0.00000000000E+00 -0.00000000000E+00 -0.45593999997E+02  0.45594000000E+02  0.51100000000E-03 0.  1.
    9900012    2    1    2    0    0 -0.80357543544E+01 -0.22679976528E+01 -0.39792570869E+02  0.50528857636E+02  0.29999993271E+02 0.  0.
         12    1    1    2    0    0  0.80357543544E+01  0.22679976528E+01  0.39792570869E+02  0.40659142364E+02  0.00000000000E+00 0. -1.
         11    1    3    3    0    0 -0.12413233121E+02 -0.88857684823E+01 -0.19246215287E+02  0.24565464400E+02  0.51100000000E-03 0. -1.
        -11    1    3    3    0    0  0.25122939132E+01  0.60987610684E+01 -0.22358766184E+02  0.23311390623E+02  0.51100000000E-03 0.  1.
         12    1    3    3    0    0  0.18651848538E+01  0.51900976110E+00  0.18124106014E+01  0.26520026129E+01  0.00000000000E+00 0. -1.
</event>
<event>
 7    1  0.5006721E-012  0.5052886E+02  0.7816164E-02  0.1300439E+00
        -11   -1    0    0    0    0  0.00000000000E+00  0.00000000000E+00  0.45593999997E+02  0.45594000000E+02  0.51100000000E-03 0.  1.
         11   -1    0    0    0    0 -0.00000000000E+00 -0.00000000000E+00 -0.45593999997E+02  0.45594000000E+02  0.51100000000E-03 0. -1.
    9900012    2    1    2    0    0  0.27377338877E+02  0.28398614105E+02  0.98572515636E+01  0.50528863567E+02  0.30000011300E+02 0.  0.
        -12    1    1    2    0    0 -0.27377338877E+02 -0.28398614105E+02 -0.98572515636E+01  0.40659136433E+02  0.00000000000E+00 0.  1.
         11    1    3    3    0    0 -0.28438172917E+01  0.10278432960E+01 -0.50621562639E+01  0.58965400814E+01  0.51100000000E-03 0. -1.
        -11    1    3    3    0    0  0.11678049287E+02  0.57528020861E+01  0.81459118502E+01  0.15356674351E+02  0.51100000000E-03 0.  1.
         12    1    3    3    0    0  0.18543106881E+02  0.21617968723E+02  0.67734959773E+01  0.29275649135E+02  0.00000000000E+00 0. -1.
</event>
<event>
 7    1  0.5006721E-012  0.5052887E+02  0.7816164E-02  0.1300439E+00
        -11   -1    0    0    0    0  0.00000000000E+00  0.00000000000E+00  0.45593999997E+02  0.45594000000E+02  0.51100000000E-03 0.  1.
         11   -1    0    0    0    0 -0.00000000000E+00 -0.00000000000E+00 -0.45593999997E+02  0.45594000000E+02  0.51100000000E-03 0. -1.
    9900012    2    1    2    0    0  0.34681554838E+02 -0.10882032331E+01  0.21193650597E+02  0.50528865013E+02  0.30000015694E+02 0.  0.
        -12    1    1    2    0    0 -0.34681554838E+02  0.10882032331E+01 -0.21193650597E+02  0.40659134987E+02  0.00000000000E+00 0.  1.
         11    1    3    3    0    0  0.18879835309E+02  0.13046828542E+00 -0.29036638727E+01  0.19102263411E+02  0.51100000000E-03 0. -1.
        -11    1    3    3    0    0 -0.11513255159E+01 -0.27619875383E+01  0.23258074584E+01  0.37899216615E+01  0.51100000000E-03 0.  1.
         12    1    3    3    0    0  0.16953045045E+02  0.15433160198E+01  0.21771507011E+02  0.27636679941E+02  0.00000000000E+00 0. -1.
</event>
<event>
 7    1  0.5006721E-012  0.5052885E+02  0.7816164E-02  0.1300439E+00
        -11   -1    0    0    0    0  0.00000000000E+00  0.00000000000E+00  0.45593999997E+02  0.45594000000E+02  0.51100000000E-03 0. -1.
         11   -1    0    0    0    0 -0.00000000000E+00 -0.00000000000E+00 -0.45593999997E+02  0.45594000000E+02  0.51100000000E-03 0.  1.
    9900012    2    1    2    0    0  0.23141355053E+02 -0.33111144510E+00  0.33429544401E+02  0.50528851123E+02  0.29999973474E+02 0.  0.
        -12    1    1    2    0    0 -0.23141355053E+02  0.33111144510E+00 -0.33429544401E+02  0.40659148877E+02  0.00000000000E+00 0.  1.
         11    1    3    3    0    0  0.39828294659E+01  0.93463680141E+01  0.13587341548E+02  0.16965652838E+02  0.51100000000E-03 0. -1.
        -11    1    3    3    0    0 -0.28668379334E+01 -0.24174979852E+01  0.16924282523E+01  0.41142885041E+01  0.51100000000E-03 0.  1.
         12    1    3    3    0    0  0.22025363521E+02 -0.72599814739E+01  0.18149774601E+02  0.29448909781E+02  0.00000000000E+00 0. -1.
</event>
<event>
 7    1  0.5006721E-012  0.5052886E+02  0.7816164E-02  0.1300439E+00
        -11   -1    0    0    0    0  0.00000000000E+00  0.00000000000E+00  0.45593999997E+02  0.45594000000E+02  0.51100000000E-03 0. -1.
         11   -1    0    0    0    0 -0.00000000000E+00 -0.00000000000E+00 -0.45593999997E+02  0.45594000000E+02  0.51100000000E-03 0.  1.
    9900012    2    1    2    0    0 -0.19934021504E+01  0.71833444311E+01  0.39969882198E+02  0.50528861147E+02  0.30000003941E+02 0.  0.
        -12    1    1    2    0    0  0.19934021504E+01 -0.71833444311E+01 -0.39969882198E+02  0.40659138853E+02  0.00000000000E+00 0.  1.
         11    1    3    3    0    0 -0.48103984259E+01 -0.58287460029E+01  0.12932869394E+02  0.14979096235E+02  0.51100000000E-03 0. -1.
        -11    1    3    3    0    0 -0.39682552756E+01  0.15290721226E+02  0.16822129314E+02  0.23076768415E+02  0.51100000000E-03 0.  1.
        -12    1    3    3    0    0  0.67852515511E+01 -0.22786307924E+01  0.10214883490E+02  0.12472996497E+02  0.00000000000E+00 0.  1.
</event>
<event>
 7    1  0.5006721E-012  0.5052886E+02  0.7816164E-02  0.1300439E+00
        -11   -1    0    0    0    0  0.00000000000E+00  0.00000000000E+00  0.45593999997E+02  0.45594000000E+02  0.51100000000E-03 0. -1.
         11   -1    0    0    0    0 -0.00000000000E+00 -0.00000000000E+00 -0.45593999997E+02  0.45594000000E+02  0.51100000000E-03 0.  1.
    9900012    2    1    2    0    0 -0.20323415251E+02  0.37128033534E+01  0.35019132732E+02  0.50528858673E+02  0.29999996422E+02 0.  0.
        -12    1    1    2    0    0  0.20323415251E+02 -0.37128033534E+01 -0.35019132732E+02  0.40659141327E+02  0.00000000000E+00 0.  1.
         11    1    3    3    0    0 -0.14027874203E+02  0.61179086962E+01  0.11157521530E+02  0.18939386168E+02  0.51100000000E-03 0. -1.
        -11    1    3    3    0    0 -0.38164485772E+01 -0.71131136810E+01  0.24893416954E+02  0.26169521850E+02  0.51100000000E-03 0.  1.
        -12    1    3    3    0    0 -0.24790924706E+01  0.47080083381E+01 -0.10318057522E+01  0.54199506547E+01  0.00000000000E+00 0.  1.
</event>
<event>
 7    1  0.5006721E-012  0.5052886E+02  0.7816164E-02  0.1300439E+00
        -11   -1    0    0    0    0  0.00000000000E+00  0.00000000000E+00  0.45593999997E+02  0.45594000000E+02  0.51100000000E-03 0. -1.
         11   -1    0    0    0    0 -0.00000000000E+00 -0.00000000000E+00 -0.45593999997E+02  0.45594000000E+02  0.51100000000E-03 0.  1.
    9900012    2    1    2    0    0  0.41468775714E+01 -0.21927001456E+02 -0.33987875642E+02  0.50528859858E+02  0.30000000024E+02 0.  0.
         12    1    1    2    0    0 -0.41468775714E+01  0.21927001456E+02  0.33987875642E+02  0.40659140142E+02  0.00000000000E+00 0. -1.
         11    1    3    3    0    0 -0.14076012292E+01  0.45639685203E+01 -0.14248039836E+02  0.15027234919E+02  0.51100000000E-03 0. -1.
        -11    1    3    3    0    0  0.75153432540E+01 -0.88918888772E+01 -0.96431613076E+01  0.15117428098E+02  0.51100000000E-03 0.  1.
         12    1    3    3    0    0 -0.19608644534E+01 -0.17599081099E+02 -0.10096674499E+02  0.20384196841E+02  0.00000000000E+00 0. -1.
</event>
<event>
 7    1  0.5006721E-012  0.5052888E+02  0.7816164E-02  0.1300439E+00
        -11   -1    0    0    0    0  0.00000000000E+00  0.00000000000E+00  0.45593999997E+02  0.45594000000E+02  0.51100000000E-03 0. -1.
         11   -1    0    0    0    0 -0.00000000000E+00 -0.00000000000E+00 -0.45593999997E+02  0.45594000000E+02  0.51100000000E-03 0.  1.
    9900012    2    1    2    0    0 -0.77328411479E+01 -0.19859483425E+02 -0.34626119135E+02  0.50528879983E+02  0.30000061197E+02 0.  0.
         12    1    1    2    0    0  0.77328411479E+01  0.19859483425E+02  0.34626119135E+02  0.40659120017E+02  0.00000000000E+00 0. -1.
         11    1    3    3    0    0 -0.14324914794E+02 -0.92979599824E+01 -0.44434662870E+01  0.17646519107E+02  0.51100000000E-03 0. -1.
        -11    1    3    3    0    0  0.51323689195E+01 -0.45612194336E+01 -0.15365317395E+02  0.16829703276E+02  0.51100000000E-03 0.  1.
         12    1    3    3    0    0  0.14597047267E+01 -0.60003040094E+01 -0.14817335453E+02  0.16052657600E+02  0.00000000000E+00 0. -1.
</event>
<event>
 7    1  0.5006721E-012  0.5052892E+02  0.7816164E-02  0.1300439E+00
        -11   -1    0    0    0    0  0.00000000000E+00  0.00000000000E+00  0.45593999997E+02  0.45594000000E+02  0.51100000000E-03 0. -1.
         11   -1    0    0    0    0 -0.00000000000E+00 -0.00000000000E+00 -0.45593999997E+02  0.45594000000E+02  0.51100000000E-03 0.  1.
    9900012    2    1    2    0    0 -0.17077858546E+02  0.30061314983E+01 -0.36775951108E+02  0.50528921567E+02  0.30000187594E+02 0.  0.
         12    1    1    2    0    0  0.17077858546E+02 -0.30061314983E+01  0.36775951108E+02  0.40659078433E+02  0.00000000000E+00 0. -1.
         11    1    3    3    0    0 -0.15673585282E+02  0.93992770262E+01 -0.34685038236E+02  0.39205351189E+02  0.51100000000E-03 0.  1.
        -11    1    3    3    0    0  0.10029198859E+01  0.20433186622E+01  0.10898880191E+00  0.22787887733E+01  0.51100000000E-03 0. -1.
         12    1    3    3    0    0 -0.24071931502E+01 -0.84364641902E+01 -0.21999016745E+01  0.90447816044E+01  0.00000000000E+00 0. -1.
</event>
<event>
 7    1  0.5006721E-012  0.5052886E+02  0.7816164E-02  0.1300439E+00
        -11   -1    0    0    0    0  0.00000000000E+00  0.00000000000E+00  0.45593999997E+02  0.45594000000E+02  0.51100000000E-03 0. -1.
         11   -1    0    0    0    0 -0.00000000000E+00 -0.00000000000E+00 -0.45593999997E+02  0.45594000000E+02  0.51100000000E-03 0.  1.
    9900012    2    1    2    0    0  0.27825994519E+02  0.76645247487E+01  0.28637993457E+02  0.50528861054E+02  0.30000003659E+02 0.  0.
        -12    1    1    2    0    0 -0.27825994519E+02 -0.76645247487E+01 -0.28637993457E+02  0.40659138946E+02  0.00000000000E+00 0.  1.
         11    1    3    3    0    0  0.66817141301E+01 -0.22806640763E+00  0.14291689160E+02  0.15778139855E+02  0.51100000000E-03 0. -1.
        -11    1    3    3    0    0  0.18636451417E+02  0.14417801772E+02  0.69330100144E+01  0.24561289818E+02  0.51100000000E-03 0.  1.
        -12    1    3    3    0    0  0.25078289716E+01 -0.65252106161E+01  0.74132942830E+01  0.10189431381E+02  0.00000000000E+00 0.  1.
</event>
<event>
 7    1  0.5006721E-012  0.5052886E+02  0.7816164E-02  0.1300439E+00
        -11   -1    0    0    0    0  0.00000000000E+00  0.00000000000E+00  0.45593999997E+02  0.45594000000E+02  0.51100000000E-03 0. -1.
         11   -1    0    0    0    0 -0.00000000000E+00 -0.00000000000E+00 -0.45593999997E+02  0.45594000000E+02  0.51100000000E-03 0.  1.
    9900012    2    1    2    0    0 -0.21887364811E+02  0.12768147364E+01  0.34241471348E+02  0.50528863828E+02  0.30000012090E+02 0.  0.
        -12    1    1    2    0    0  0.21887364811E+02 -0.12768147364E+01 -0.34241471348E+02  0.40659136172E+02  0.00000000000E+00 0.  1.
         11    1    3    3    0    0 -0.10003640919E+02 -0.84449990849E+00  0.22773533659E+01  0.10294287268E+02  0.51100000000E-03 0. -1.
        -11    1    3    3    0    0 -0.14962715776E+02  0.43300918528E+01  0.32838617109E+02  0.36345664566E+02  0.51100000000E-03 0.  1.
        -12    1    3    3    0    0  0.30789918842E+01 -0.22087772079E+01 -0.87449912693E+00  0.38889119944E+01  0.00000000000E+00 0.  1.
</event>
<event>
 7    1  0.5006721E-012  0.5052885E+02  0.7816164E-02  0.1300439E+00
        -11   -1    0    0    0    0  0.00000000000E+00  0.00000000000E+00  0.45593999997E+02  0.45594000000E+02  0.51100000000E-03 0. -1.
         11   -1    0    0    0    0 -0.00000000000E+00 -0.00000000000E+00 -0.45593999997E+02  0.45594000000E+02  0.51100000000E-03 0.  1.
    9900012    2    1    2    0    0 -0.13509738932E+02  0.72035508125E+01  0.37666462172E+02  0.50528848966E+02  0.29999966916E+02 0.  0.
        -12    1    1    2    0    0  0.13509738932E+02 -0.72035508125E+01 -0.37666462172E+02  0.40659151034E+02  0.00000000000E+00 0.  1.
         11    1    3    3    0    0 -0.14281532087E+02 -0.76769905043E+01  0.14544659518E+02  0.21781769044E+02  0.51100000000E-03 0. -1.
        -11    1    3    3    0    0 -0.20011072168E+01  0.56485939650E+00  0.54668947101E+01  0.58489686496E+01  0.51100000000E-03 0.  1.
         12    1    3    3    0    0  0.27729003713E+01  0.14315681920E+02  0.17654907944E+02  0.22898111272E+02  0.00000000000E+00 0. -1.
</event>
<event>
 7    1  0.5006721E-012  0.5052887E+02  0.7816164E-02  0.1300439E+00
        -11   -1    0    0    0    0  0.00000000000E+00  0.00000000000E+00  0.45593999997E+02  0.45594000000E+02  0.51100000000E-03 0. -1.
         11   -1    0    0    0    0 -0.00000000000E+00 -0.00000000000E+00 -0.45593999997E+02  0.45594000000E+02  0.51100000000E-03 0.  1.
    9900012    2    1    2    0    0  0.19668370183E+02 -0.24248520576E+02 -0.26044762937E+02  0.50528865575E+02  0.30000017400E+02 0.  0.
         12    1    1    2    0    0 -0.19668370183E+02  0.24248520576E+02  0.26044762937E+02  0.40659134425E+02  0.00000000000E+00 0. -1.
         11    1    3    3    0    0  0.56052351563E+01 -0.40080175977E+01  0.42427246261E+01  0.80921924554E+01  0.51100000000E-03 0. -1.
        -11    1    3    3    0    0  0.12710268606E+02 -0.14247546924E+02 -0.30836000752E+02  0.36268477553E+02  0.51100000000E-03 0.  1.
         12    1    3    3    0    0  0.13528664209E+01 -0.59929560546E+01  0.54851318870E+00  0.61681955663E+01  0.00000000000E+00 0. -1.
</event>
<event>
 7    1  0.5006721E-012  0.5052886E+02  0.7816164E-02  0.1300439E+00
        -11   -1    0    0    0    0  0.00000000000E+00  0.00000000000E+00  0.45593999997E+02  0.45594000000E+02  0.51100000000E-03 0. -1.
         11   -1    0    0    0    0 -0.00000000000E+00 -0.00000000000E+00 -0.45593999997E+02  0.45594000000E+02  0.51100000000E-03 0.  1.
    9900012    2    1    2    0    0  0.58917369871E+01  0.18364378091E+02  0.35793897011E+02  0.50528855757E+02  0.29999987557E+02 0.  0.
        -12    1    1    2    0    0 -0.58917369871E+01 -0.18364378091E+02 -0.35793897011E+02  0.40659144243E+02  0.00000000000E+00 0.  1.
         11    1    3    3    0    0  0.52274096884E+00  0.46354778149E+01  0.10897535054E+01  0.47904567273E+01  0.51100000000E-03 0. -1.
        -11    1    3    3    0    0  0.10225276206E+02  0.17678427154E+02  0.33690745073E+02  0.39397326864E+02  0.51100000000E-03 0.  1.
        -12    1    3    3    0    0 -0.48562801880E+01 -0.39495268784E+01  0.10133984323E+01  0.63410721656E+01  0.00000000000E+00 0.  1.
</event>
<event>
 7    1  0.5006721E-012  0.5052888E+02  0.7816164E-02  0.1300439E+00
        -11   -1    0    0    0    0  0.00000000000E+00  0.00000000000E+00  0.45593999997E+02  0.45594000000E+02  0.51100000000E-03 0. -1.
         11   -1    0    0    0    0 -0.00000000000E+00 -0.00000000000E+00 -0.45593999997E+02  0.45594000000E+02  0.51100000000E-03 0.  1.
    9900012    2    1    2    0    0  0.11034403782E+02 -0.54262706234E+01 -0.38755152001E+02  0.50528876961E+02  0.30000052010E+02 0.  0.
         12    1    1    2    0    0 -0.11034403782E+02  0.54262706234E+01  0.38755152001E+02  0.40659123039E+02  0.00000000000E+00 0. -1.
         11    1    3    3    0    0  0.17611732921E+02  0.47218043903E+01 -0.16076751136E+02  0.24309062107E+02  0.51100000000E-03 0. -1.
        -11    1    3    3    0    0 -0.51701836425E+00 -0.17690474891E+01 -0.83412845388E+01  0.85424741747E+01  0.51100000000E-03 0.  1.
         12    1    3    3    0    0 -0.60603107743E+01 -0.83790275246E+01 -0.14337116326E+02  0.17677340679E+02  0.00000000000E+00 0. -1.
</event>
<event>
 7    1  0.5006721E-012  0.5052887E+02  0.7816164E-02  0.1300439E+00
        -11   -1    0    0    0    0  0.00000000000E+00  0.00000000000E+00  0.45593999997E+02  0.45594000000E+02  0.51100000000E-03 0. -1.
         11   -1    0    0    0    0 -0.00000000000E+00 -0.00000000000E+00 -0.45593999997E+02  0.45594000000E+02  0.51100000000E-03 0.  1.
    9900012    2    1    2    0    0  0.35029771194E+02 -0.17409827394E+02 -0.11089550739E+02  0.50528867012E+02  0.30000021769E+02 0.  0.
         12    1    1    2    0    0 -0.35029771194E+02  0.17409827394E+02  0.11089550739E+02  0.40659132988E+02  0.00000000000E+00 0. -1.
         11    1    3    3    0    0  0.58597883679E+01 -0.35041355584E+01 -0.11221669718E+02  0.13135522724E+02  0.51100000000E-03 0. -1.
        -11    1    3    3    0    0  0.19097268229E+02 -0.18254707263E+02  0.31154391409E+00  0.26420390818E+02  0.51100000000E-03 0.  1.
         12    1    3    3    0    0  0.10072714597E+02  0.43490154282E+01 -0.17942493565E+00  0.10972953470E+02  0.00000000000E+00 0. -1.
</event>
<event>
 7    1  0.5006721E-012  0.5052884E+02  0.7816164E-02  0.1300439E+00
        -11   -1    0    0    0    0  0.00000000000E+00  0.00000000000E+00  0.45593999997E+02  0.45594000000E+02  0.51100000000E-03 0. -1.
         11   -1    0    0    0    0 -0.00000000000E+00 -0.00000000000E+00 -0.45593999997E+02  0.45594000000E+02  0.51100000000E-03 0.  1.
    9900012    2    1    2    0    0 -0.98613920907E+01  0.33184560412E+02  0.21323824548E+02  0.50528836247E+02  0.29999928258E+02 0.  0.
        -12    1    1    2    0    0  0.98613920907E+01 -0.33184560412E+02 -0.21323824548E+02  0.40659163753E+02  0.00000000000E+00 0.  1.
         11    1    3    3    0    0  0.73122641740E+01  0.92071792198E+01  0.57308359102E+01  0.13079902027E+02  0.51100000000E-03 0. -1.
        -11    1    3    3    0    0 -0.14241117614E+02  0.20774765555E+02  0.19306274709E+02  0.31735351868E+02  0.51100000000E-03 0.  1.
         12    1    3    3    0    0 -0.29325386505E+01  0.32026156373E+01 -0.37132860713E+01  0.57135823530E+01  0.00000000000E+00 0. -1.
</event>
<event>
 7    1  0.9142204E-012  0.5052889E+02  0.7816164E-02  0.1300439E+00
        -11   -1    0    0    0    0  0.00000000000E+00  0.00000000000E+00  0.45593999997E+02  0.45594000000E+02  0.51100000000E-03 0. -1.
         11   -1    0    0    0    0 -0.00000000000E+00 -0.00000000000E+00 -0.45593999997E+02  0.45594000000E+02  0.51100000000E-03 0.  1.
    9900012    2    1    2    0    0 -0.88859178123E+01 -0.15650287403E+02  0.36459188861E+02  0.50528886832E+02  0.30000082016E+02 0.  0.
        -12    1    1    2    0    0  0.88859178123E+01  0.15650287403E+02 -0.36459188861E+02  0.40659113168E+02  0.00000000000E+00 0.  1.
         11    1    3    3    0    0 -0.12012439738E+02 -0.99016205732E+01  0.27326727384E+02  0.31449814438E+02  0.51100000000E-03 0. -1.
        -11    1    3    3    0    0 -0.36550122429E+01 -0.42512225498E+01 -0.20046370204E+01  0.59540387561E+01  0.51100000000E-03 0.  1.
         12    1    3    3    0    0  0.67815341686E+01 -0.14974442798E+01  0.11137098498E+02  0.13125033638E+02  0.00000000000E+00 0. -1.
</event>
<event>
 7    1  0.5006721E-012  0.5052885E+02  0.7816164E-02  0.1300439E+00
        -11   -1    0    0    0    0  0.00000000000E+00  0.00000000000E+00  0.45593999997E+02  0.45594000000E+02  0.51100000000E-03 0. -1.
         11   -1    0    0    0    0 -0.00000000000E+00 -0.00000000000E+00 -0.45593999997E+02  0.45594000000E+02  0.51100000000E-03 0.  1.
    9900012    2    1    2    0    0 -0.12293377866E+02 -0.14434138107E+02  0.35967972471E+02  0.50528849420E+02  0.29999968296E+02 0.  0.
        -12    1    1    2    0    0  0.12293377866E+02  0.14434138107E+02 -0.35967972471E+02  0.40659150580E+02  0.00000000000E+00 0.  1.
         11    1    3    3    0    0 -0.11716633901E+02 -0.32607976776E+00  0.23617193947E+02  0.26365843210E+02  0.51100000000E-03 0. -1.
        -11    1    3    3    0    0 -0.22063777549E+01 -0.14901674726E+02  0.39562022574E+01  0.15574965458E+02  0.51100000000E-03 0.  1.
        -12    1    3    3    0    0  0.16296337901E+01  0.79361638673E+00  0.83945762666E+01  0.85880407518E+01  0.00000000000E+00 0.  1.
</event>
<event>
 7    1  0.5006721E-012  0.5052886E+02  0.7816164E-02  0.1300439E+00
        -11   -1    0    0    0    0  0.00000000000E+00  0.00000000000E+00  0.45593999997E+02  0.45594000000E+02  0.51100000000E-03 0. -1.
         11   -1    0    0    0    0 -0.00000000000E+00 -0.00000000000E+00 -0.45593999997E+02  0.45594000000E+02  0.51100000000E-03 0.  1.
    9900012    2    1    2    0    0  0.16822019287E+02 -0.91137549067E+01  0.35876520697E+02  0.50528860821E+02  0.30000002952E+02 0.  0.
        -12    1    1    2    0    0 -0.16822019287E+02  0.91137549067E+01 -0.35876520697E+02  0.40659139179E+02  0.00000000000E+00 0.  1.
         11    1    3    3    0    0  0.63333482527E+01 -0.73009081174E+01  0.11251316901E+02  0.14832622550E+02  0.51100000000E-03 0. -1.
        -11    1    3    3    0    0 -0.67098849513E+01  0.38042605660E+01  0.82407088876E+01  0.11287348570E+02  0.51100000000E-03 0.  1.
        -12    1    3    3    0    0  0.17198555986E+02 -0.56171073554E+01  0.16384494908E+02  0.24408889701E+02  0.00000000000E+00 0.  1.
</event>
<event>
 7    1  0.5006721E-012  0.5052885E+02  0.7816164E-02  0.1300439E+00
        -11   -1    0    0    0    0  0.00000000000E+00  0.00000000000E+00  0.45593999997E+02  0.45594000000E+02  0.51100000000E-03 0. -1.
         11   -1    0    0    0    0 -0.00000000000E+00 -0.00000000000E+00 -0.45593999997E+02  0.45594000000E+02  0.51100000000E-03 0.  1.
    9900012    2    1    2    0    0 -0.22727074674E+01  0.23529719463E+02 -0.33081014191E+02  0.50528851003E+02  0.29999973108E+02 0.  0.
         12    1    1    2    0    0  0.22727074674E+01 -0.23529719463E+02  0.33081014191E+02  0.40659148997E+02  0.00000000000E+00 0. -1.
         11    1    3    3    0    0 -0.12508179062E+01 -0.11389591062E+01  0.55742734743E+00  0.17811509731E+01  0.51100000000E-03 0. -1.
        -11    1    3    3    0    0 -0.18569550139E+01  0.18686053957E+02 -0.37245953151E+02  0.41711843891E+02  0.51100000000E-03 0.  1.
        -12    1    3    3    0    0  0.83506545279E+00  0.59826246123E+01  0.36075116126E+01  0.70358561382E+01  0.00000000000E+00 0.  1.
</event>
<event>
 7    1  0.5006721E-012  0.5052888E+02  0.7816164E-02  0.1300439E+00
        -11   -1    0    0    0    0  0.00000000000E+00  0.00000000000E+00  0.45593999997E+02  0.45594000000E+02  0.51100000000E-03 0. -1.
         11   -1    0    0    0    0 -0.00000000000E+00 -0.00000000000E+00 -0.45593999997E+02  0.45594000000E+02  0.51100000000E-03 0.  1.
    9900012    2    1    2    0    0  0.64683224944E+01 -0.10788902730E+02  0.38664255793E+02  0.50528876866E+02  0.30000051721E+02 0.  0.
        -12    1    1    2    0    0 -0.64683224944E+01  0.10788902730E+02 -0.38664255793E+02  0.40659123134E+02  0.00000000000E+00 0.  1.
         11    1    3    3    0    0  0.82003360291E+01  0.66054810488E+01  0.24606468955E+02  0.26764831506E+02  0.51100000000E-03 0. -1.
        -11    1    3    3    0    0  0.11686249567E+01 -0.10412733024E+02  0.40774700417E+01  0.11243507261E+02  0.51100000000E-03 0.  1.
        -12    1    3    3    0    0 -0.29006384914E+01 -0.69816507550E+01  0.99803167966E+01  0.12520538099E+02  0.00000000000E+00 0.  1.
</event>
<event>
 7    1  0.5006721E-012  0.5052887E+02  0.7816164E-02  0.1300439E+00
        -11   -1    0    0    0    0  0.00000000000E+00  0.00000000000E+00  0.45593999997E+02  0.45594000000E+02  0.51100000000E-03 0. -1.
         11   -1    0    0    0    0 -0.00000000000E+00 -0.00000000000E+00 -0.45593999997E+02  0.45594000000E+02  0.51100000000E-03 0.  1.
    9900012    2    1    2    0    0  0.37246870386E+02  0.75518171219E+01  0.14450095635E+02  0.50528873604E+02  0.30000041808E+02 0.  0.
        -12    1    1    2    0    0 -0.37246870386E+02 -0.75518171219E+01 -0.14450095635E+02  0.40659126396E+02  0.00000000000E+00 0.  1.
         11    1    3    3    0    0  0.24690176674E+02  0.10756497997E+02  0.14359400605E+02  0.30520476067E+02  0.51100000000E-03 0. -1.
        -11    1    3    3    0    0  0.75336666356E+01 -0.91758929279E+01  0.18336759718E+01  0.12013139133E+02  0.51100000000E-03 0.  1.
        -12    1    3    3    0    0  0.50230270761E+01  0.59712120527E+01 -0.17429809415E+01  0.79952584041E+01  0.00000000000E+00 0.  1.
</event>
<event>
 7    1  0.5006721E-012  0.5052888E+02  0.7816164E-02  0.1300439E+00
        -11   -1    0    0    0    0  0.00000000000E+00  0.00000000000E+00  0.45593999997E+02  0.45594000000E+02  0.51100000000E-03 0. -1.
         11   -1    0    0    0    0 -0.00000000000E+00 -0.00000000000E+00 -0.45593999997E+02  0.45594000000E+02  0.51100000000E-03 0.  1.
    9900012    2    1    2    0    0 -0.49633112252E+01 -0.10047318562E+02 -0.39084279158E+02  0.50528881147E+02  0.30000064736E+02 0.  0.
         12    1    1    2    0    0  0.49633112252E+01  0.10047318562E+02  0.39084279158E+02  0.40659118853E+02  0.00000000000E+00 0. -1.
         11    1    3    3    0    0  0.94815564333E+01 -0.11741255911E+02 -0.22134310896E+02  0.26789638330E+02  0.51100000000E-03 0. -1.
        -11    1    3    3    0    0 -0.90251633051E+01 -0.23325239915E+01 -0.12726987864E+02  0.15775628711E+02  0.51100000000E-03 0.  1.
         12    1    3    3    0    0 -0.54197043534E+01  0.40264613405E+01 -0.42229803975E+01  0.79636141068E+01  0.00000000000E+00 0. -1.
</event>
<event>
 7    1  0.5006721E-012  0.5052887E+02  0.7816164E-02  0.1300439E+00
        -11   -1    0    0    0    0  0.00000000000E+00  0.00000000000E+00  0.45593999997E+02  0.45594000000E+02  0.51100000000E-03 0. -1.
         11   -1    0    0    0    0 -0.00000000000E+00 -0.00000000000E+00 -0.45593999997E+02  0.45594000000E+02  0.51100000000E-03 0.  1.
    9900012    2    1    2    0    0  0.12410388328E+01 -0.33350312600E+02  0.23224575732E+02  0.50528874999E+02  0.30000046048E+02 0.  0.
        -12    1    1    2    0    0 -0.12410388328E+01  0.33350312600E+02 -0.23224575732E+02  0.40659125001E+02  0.00000000000E+00 0.  1.
         11    1    3    3    0    0 -0.88400316660E+01 -0.21350512609E+02  0.64479845799E+01  0.23990978594E+02  0.51100000000E-03 0. -1.
        -11    1    3    3    0    0  0.13227701315E+02 -0.10586131667E+02  0.12560402318E+02  0.21090328883E+02  0.51100000000E-03 0.  1.
         12    1    3    3    0    0 -0.31466308162E+01 -0.14136683246E+01  0.42161888337E+01  0.54475675220E+01  0.00000000000E+00 0. -1.
</event>
<event>
 7    1  0.5006721E-012  0.5052886E+02  0.7816164E-02  0.1300439E+00
        -11   -1    0    0    0    0  0.00000000000E+00  0.00000000000E+00  0.45593999997E+02  0.45594000000E+02  0.51100000000E-03 0. -1.
         11   -1    0    0    0    0 -0.00000000000E+00 -0.00000000000E+00 -0.45593999997E+02  0.45594000000E+02  0.51100000000E-03 0.  1.
    9900012    2    1    2    0    0  0.34093771411E+01 -0.26467183240E+02 -0.30676218028E+02  0.50528855965E+02  0.29999988192E+02 0.  0.
         12    1    1    2    0    0 -0.34093771411E+01  0.26467183240E+02  0.30676218028E+02  0.40659144035E+02  0.00000000000E+00 0. -1.
         11    1    3    3    0    0 -0.27576591801E+01 -0.18509776954E+02 -0.13094456932E+02  0.22840344342E+02  0.51100000000E-03 0. -1.
        -11    1    3    3    0    0 -0.37276144571E+00  0.59234023370E+01 -0.36806060394E+01  0.69837316257E+01  0.51100000000E-03 0.  1.
         12    1    3    3    0    0  0.65397977669E+01 -0.13880808623E+02 -0.13901155056E+02  0.20704779997E+02  0.00000000000E+00 0. -1.
</event>
<event>
 7    1  0.5006721E-012  0.5052884E+02  0.7816164E-02  0.1300439E+00
        -11   -1    0    0    0    0  0.00000000000E+00  0.00000000000E+00  0.45593999997E+02  0.45594000000E+02  0.51100000000E-03 0. -1.
         11   -1    0    0    0    0 -0.00000000000E+00 -0.00000000000E+00 -0.45593999997E+02  0.45594000000E+02  0.51100000000E-03 0.  1.
    9900012    2    1    2    0    0  0.12561029266E+02  0.77403978749E+01 -0.37887645520E+02  0.50528844838E+02  0.29999954369E+02 0.  0.
         12    1    1    2    0    0 -0.12561029266E+02 -0.77403978749E+01  0.37887645520E+02  0.40659155162E+02  0.00000000000E+00 0. -1.
         11    1    3    3    0    0  0.11774867038E+02  0.70907083878E+00 -0.39615496268E+01  0.12443638975E+02  0.51100000000E-03 0. -1.
        -11    1    3    3    0    0 -0.55188837327E+01 -0.62072313633E+00 -0.21405420767E+02  0.22114145096E+02  0.51100000000E-03 0.  1.
        -12    1    3    3    0    0  0.63050459608E+01  0.76520501725E+01 -0.12520675126E+02  0.15971060767E+02  0.00000000000E+00 0.  1.
</event>
<event>
 7    1  0.5006721E-012  0.5052886E+02  0.7816164E-02  0.1300439E+00
        -11   -1    0    0    0    0  0.00000000000E+00  0.00000000000E+00  0.45593999997E+02  0.45594000000E+02  0.51100000000E-03 0. -1.
         11   -1    0    0    0    0 -0.00000000000E+00 -0.00000000000E+00 -0.45593999997E+02  0.45594000000E+02  0.51100000000E-03 0.  1.
    9900012    2    1    2    0    0 -0.34416358982E+02  0.85951015151E+01  0.19869674436E+02  0.50528862062E+02  0.30000006725E+02 0.  0.
        -12    1    1    2    0    0  0.34416358982E+02 -0.85951015151E+01 -0.19869674436E+02  0.40659137938E+02  0.00000000000E+00 0.  1.
         11    1    3    3    0    0 -0.18530213113E+02  0.14379905418E+02  0.52918378255E+01  0.24044833659E+02  0.51100000000E-03 0. -1.
        -11    1    3    3    0    0 -0.71440148301E+01 -0.98336824242E+01  0.58711347028E+01  0.13498462167E+02  0.51100000000E-03 0.  1.
        -12    1    3    3    0    0 -0.87421310391E+01  0.40488785213E+01  0.87067019075E+01  0.12985566237E+02  0.00000000000E+00 0.  1.
</event>
<event>
 7    1  0.5006721E-012  0.5052875E+02  0.7816164E-02  0.1300439E+00
        -11   -1    0    0    0    0  0.00000000000E+00  0.00000000000E+00  0.45593999997E+02  0.45594000000E+02  0.51100000000E-03 0. -1.
         11   -1    0    0    0    0 -0.00000000000E+00 -0.00000000000E+00 -0.45593999997E+02  0.45594000000E+02  0.51100000000E-03 0.  1.
    9900012    2    1    2    0    0  0.30376077449E+02 -0.11072886296E+02 -0.24654808874E+02  0.50528751449E+02  0.29999670502E+02 0.  0.
         12    1    1    2    0    0 -0.30376077449E+02  0.11072886296E+02  0.24654808874E+02  0.40659248551E+02  0.00000000000E+00 0. -1.
         11    1    3    3    0    0  0.42840696377E+01  0.38401103043E+01 -0.14409208939E+02  0.15515315089E+02  0.51100000000E-03 0. -1.
        -11    1    3    3    0    0  0.19660426781E+02 -0.86771929756E+01 -0.13617771750E+02  0.25441496946E+02  0.51100000000E-03 0.  1.
         12    1    3    3    0    0  0.64315810304E+01 -0.62358036243E+01  0.33721718148E+01  0.95719394137E+01  0.00000000000E+00 0. -1.
</event>
<event>
 7    1  0.5006721E-012  0.5052886E+02  0.7816164E-02  0.1300439E+00
        -11   -1    0    0    0    0  0.00000000000E+00  0.00000000000E+00  0.45593999997E+02  0.45594000000E+02  0.51100000000E-03 0. -1.
         11   -1    0    0    0    0 -0.00000000000E+00 -0.00000000000E+00 -0.45593999997E+02  0.45594000000E+02  0.51100000000E-03 0.  1.
    9900012    2    1    2    0    0 -0.99771312398E+00 -0.75823697422E+01 -0.39933418771E+02  0.50528859612E+02  0.29999999277E+02 0.  0.
         12    1    1    2    0    0  0.99771312398E+00  0.75823697422E+01  0.39933418771E+02  0.40659140388E+02  0.00000000000E+00 0. -1.
         11    1    3    3    0    0 -0.95865791679E+01  0.87099837204E+00 -0.81568433176E+01  0.12617259270E+02  0.51100000000E-03 0. -1.
        -11    1    3    3    0    0  0.13529225950E+02 -0.43257184636E+01 -0.22872073764E+02  0.26923661592E+02  0.51100000000E-03 0.  1.
        -12    1    3    3    0    0 -0.49403599059E+01 -0.41276496507E+01 -0.89045016893E+01  0.10987938750E+02  0.00000000000E+00 0.  1.
</event>
<event>
 7    1  0.5006721E-012  0.5052885E+02  0.7816164E-02  0.1300439E+00
        -11   -1    0    0    0    0  0.00000000000E+00  0.00000000000E+00  0.45593999997E+02  0.45594000000E+02  0.51100000000E-03 0. -1.
         11   -1    0    0    0    0 -0.00000000000E+00 -0.00000000000E+00 -0.45593999997E+02  0.45594000000E+02  0.51100000000E-03 0.  1.
    9900012    2    1    2    0    0  0.17950879246E+02 -0.18049102850E+02 -0.31704289221E+02  0.50528854234E+02  0.29999982930E+02 0.  0.
         12    1    1    2    0    0 -0.17950879246E+02  0.18049102850E+02  0.31704289221E+02  0.40659145766E+02  0.00000000000E+00 0. -1.
         11    1    3    3    0    0 -0.50567899915E+01 -0.35994300757E+01 -0.11969626432E+01  0.63213718225E+01  0.51100000000E-03 0. -1.
        -11    1    3    3    0    0  0.24874848375E+02 -0.13546516177E+02 -0.23204361409E+02  0.36615687497E+02  0.51100000000E-03 0.  1.
        -12    1    3    3    0    0 -0.18671791375E+01 -0.90315659756E+00 -0.73029651690E+01  0.75917949149E+01  0.00000000000E+00 0.  1.
</event>
<event>
 7    1  0.5006721E-012  0.5052886E+02  0.7816164E-02  0.1300439E+00
        -11   -1    0    0    0    0  0.00000000000E+00  0.00000000000E+00  0.45593999997E+02  0.45594000000E+02  0.51100000000E-03 0. -1.
         11   -1    0    0    0    0 -0.00000000000E+00 -0.00000000000E+00 -0.45593999997E+02  0.45594000000E+02  0.51100000000E-03 0.  1.
    9900012    2    1    2    0    0 -0.17309752319E+02  0.19744719473E+02 -0.31043262257E+02  0.50528860758E+02  0.30000002759E+02 0.  0.
         12    1    1    2    0    0  0.17309752319E+02 -0.19744719473E+02  0.31043262257E+02  0.40659139242E+02  0.00000000000E+00 0. -1.
         11    1    3    3    0    0 -0.93253570515E+01  0.13679436096E+02 -0.21136361896E+00  0.16556990393E+02  0.51100000000E-03 0. -1.
        -11    1    3    3    0    0 -0.76488461377E+01  0.35369465474E+00 -0.23217132039E+02  0.24447191403E+02  0.51100000000E-03 0.  1.
         12    1    3    3    0    0 -0.33554912947E+00  0.57115887217E+01 -0.76147665994E+01  0.95246789608E+01  0.00000000000E+00 0. -1.
</event>
<event>
 7    1  0.5006721E-012  0.5052885E+02  0.7816164E-02  0.1300439E+00
        -11   -1    0    0    0    0  0.00000000000E+00  0.00000000000E+00  0.45593999997E+02  0.45594000000E+02  0.51100000000E-03 0. -1.
         11   -1    0    0    0    0 -0.00000000000E+00 -0.00000000000E+00 -0.45593999997E+02  0.45594000000E+02  0.51100000000E-03 0.  1.
    9900012    2    1    2    0    0 -0.86743686024E+01  0.18534385806E+02  0.35134011306E+02  0.50528845086E+02  0.29999955123E+02 0.  0.
        -12    1    1    2    0    0  0.86743686024E+01 -0.18534385806E+02 -0.35134011306E+02  0.40659154914E+02  0.00000000000E+00 0.  1.
         11    1    3    3    0    0 -0.29355179387E+01 -0.39371895834E+01  0.88970051222E+01  0.10162451859E+02  0.51100000000E-03 0. -1.
        -11    1    3    3    0    0 -0.45091903985E+01  0.25052602437E+02  0.27290591038E+02  0.37319459353E+02  0.51100000000E-03 0.  1.
        -12    1    3    3    0    0 -0.12296602652E+01 -0.25810270478E+01 -0.10535848538E+01  0.30469338742E+01  0.00000000000E+00 0.  1.
</event>
<event>
 7    1  0.5006721E-012  0.5052885E+02  0.7816164E-02  0.1300439E+00
        -11   -1    0    0    0    0  0.00000000000E+00  0.00000000000E+00  0.45593999997E+02  0.45594000000E+02  0.51100000000E-03 0. -1.
         11   -1    0    0    0    0 -0.00000000000E+00 -0.00000000000E+00 -0.45593999997E+02  0.45594000000E+02  0.51100000000E-03 0.  1.
    9900012    2    1    2    0    0  0.70186896254E+01  0.13857091697E+02 -0.37575060459E+02  0.50528853885E+02  0.29999981868E+02 0.  0.
         12    1    1    2    0    0 -0.70186896254E+01 -0.13857091697E+02  0.37575060459E+02  0.40659146115E+02  0.00000000000E+00 0. -1.
         11    1    3    3    0    0  0.66013234359E+01 -0.70321607538E+01 -0.77877668554E+01  0.12396695884E+02  0.51100000000E-03 0. -1.
        -11    1    3    3    0    0 -0.18669995849E+01  0.21250530515E+02 -0.28046681235E+02  0.35237580269E+02  0.51100000000E-03 0.  1.
        -12    1    3    3    0    0  0.22843657744E+01 -0.36127806461E+00 -0.17406123679E+01  0.28945777320E+01  0.00000000000E+00 0.  1.
</event>
<event>
 7    1  0.5006721E-012  0.5052886E+02  0.7816164E-02  0.1300439E+00
        -11   -1    0    0    0    0  0.00000000000E+00  0.00000000000E+00  0.45593999997E+02  0.45594000000E+02  0.51100000000E-03 0.  1.
         11   -1    0    0    0    0 -0.00000000000E+00 -0.00000000000E+00 -0.45593999997E+02  0.45594000000E+02  0.51100000000E-03 0. -1.
    9900012    2    1    2    0    0  0.36283364587E+02 -0.52765917970E+01  0.17573854031E+02  0.50528864345E+02  0.30000013662E+02 0.  0.
        -12    1    1    2    0    0 -0.36283364587E+02  0.52765917970E+01 -0.17573854031E+02  0.40659135655E+02  0.00000000000E+00 0.  1.
         11    1    3    3    0    0  0.24033562077E+02 -0.13432004196E+02  0.28169009990E+01  0.27676086687E+02  0.51100000000E-03 0. -1.
        -11    1    3    3    0    0  0.59655367823E+01  0.74061168405E+01  0.38848520316E+01  0.10272792771E+02  0.51100000000E-03 0.  1.
         12    1    3    3    0    0  0.62842657276E+01  0.74929555798E+00  0.10872101000E+02  0.12579984886E+02  0.00000000000E+00 0. -1.
</event>
<event>
 7    1  0.5006721E-012  0.5052885E+02  0.7816164E-02  0.1300439E+00
        -11   -1    0    0    0    0  0.00000000000E+00  0.00000000000E+00  0.45593999997E+02  0.45594000000E+02  0.51100000000E-03 0. -1.
         11   -1    0    0    0    0 -0.00000000000E+00 -0.00000000000E+00 -0.45593999997E+02  0.45594000000E+02  0.51100000000E-03 0.  1.
    9900012    2    1    2    0    0  0.10204258950E+02  0.36743868244E+02  0.14104168000E+02  0.50528852085E+02  0.29999976397E+02 0.  0.
        -12    1    1    2    0    0 -0.10204258950E+02 -0.36743868244E+02 -0.14104168000E+02  0.40659147915E+02  0.00000000000E+00 0.  1.
         11    1    3    3    0    0 -0.68987060312E+01  0.23343224636E+02  0.13293713923E+02  0.27734835702E+02  0.51100000000E-03 0. -1.
        -11    1    3    3    0    0  0.12862929442E+02  0.13056019920E+02  0.18312679040E+01  0.18419233219E+02  0.51100000000E-03 0.  1.
         12    1    3    3    0    0  0.42400355388E+01  0.34462368765E+00 -0.10208138270E+01  0.43747831633E+01  0.00000000000E+00 0. -1.
</event>
<event>
 7    1  0.5006721E-012  0.5052885E+02  0.7816164E-02  0.1300439E+00
        -11   -1    0    0    0    0  0.00000000000E+00  0.00000000000E+00  0.45593999997E+02  0.45594000000E+02  0.51100000000E-03 0. -1.
         11   -1    0    0    0    0 -0.00000000000E+00 -0.00000000000E+00 -0.45593999997E+02  0.45594000000E+02  0.51100000000E-03 0.  1.
    9900012    2    1    2    0    0 -0.64224508795E+01  0.13627286730E+02  0.37765270929E+02  0.50528849649E+02  0.29999968994E+02 0.  0.
        -12    1    1    2    0    0  0.64224508795E+01 -0.13627286730E+02 -0.37765270929E+02  0.40659150351E+02  0.00000000000E+00 0.  1.
         11    1    3    3    0    0 -0.16028223428E+02  0.96445929109E+01  0.20175216113E+02  0.27512932671E+02  0.51100000000E-03 0. -1.
        -11    1    3    3    0    0  0.81965203002E+01  0.39485635749E+01  0.18972722260E+02  0.21041347142E+02  0.51100000000E-03 0.  1.
         12    1    3    3    0    0  0.14092522487E+01  0.34130244538E-01 -0.13826674449E+01  0.19745698360E+01  0.00000000000E+00 0. -1.
</event>
<event>
 7    1  0.5006721E-012  0.5052890E+02  0.7816164E-02  0.1300439E+00
        -11   -1    0    0    0    0  0.00000000000E+00  0.00000000000E+00  0.45593999997E+02  0.45594000000E+02  0.51100000000E-03 0. -1.
         11   -1    0    0    0    0 -0.00000000000E+00 -0.00000000000E+00 -0.45593999997E+02  0.45594000000E+02  0.51100000000E-03 0.  1.
    9900012    2    1    2    0    0 -0.13540993495E+02 -0.26273136308E+01 -0.38247891746E+02  0.50528898870E+02  0.30000118604E+02 0.  0.
         12    1    1    2    0    0  0.13540993495E+02  0.26273136308E+01  0.38247891746E+02  0.40659101130E+02  0.00000000000E+00 0. -1.
         11    1    3    3    0    0  0.89837146701E+00  0.52805729272E+01  0.19766497329E+01  0.57095241623E+01  0.51100000000E-03 0. -1.
        -11    1    3    3    0    0  0.16936723091E+00 -0.38535471635E+01 -0.14062245427E+02  0.14581675408E+02  0.51100000000E-03 0.  1.
         12    1    3    3    0    0 -0.14608732193E+02 -0.40543393945E+01 -0.26162296052E+02  0.30237699299E+02  0.00000000000E+00 0. -1.
</event>
<event>
 7    1  0.5006721E-012  0.5052887E+02  0.7816164E-02  0.1300439E+00
        -11   -1    0    0    0    0  0.00000000000E+00  0.00000000000E+00  0.45593999997E+02  0.45594000000E+02  0.51100000000E-03 0. -1.
         11   -1    0    0    0    0 -0.00000000000E+00 -0.00000000000E+00 -0.45593999997E+02  0.45594000000E+02  0.51100000000E-03 0.  1.
    9900012    2    1    2    0    0  0.42418016502E+01  0.32576410790E+02  0.23957246933E+02  0.50528866932E+02  0.30000021527E+02 0.  0.
        -12    1    1    2    0    0 -0.42418016502E+01 -0.32576410790E+02 -0.23957246933E+02  0.40659133068E+02  0.00000000000E+00 0.  1.
         11    1    3    3    0    0  0.12777868597E+02  0.20379248389E+02  0.82646689592E+01  0.25434080365E+02  0.51100000000E-03 0. -1.
        -11    1    3    3    0    0  0.55988654803E+00 -0.11284447035E+01  0.63024213206E+01  0.64270813874E+01  0.51100000000E-03 0.  1.
         12    1    3    3    0    0 -0.90959534946E+01  0.13325607105E+02  0.93901566533E+01  0.18667705179E+02  0.00000000000E+00 0. -1.
</event>
<event>
 7    1  0.7504748E-012  0.5052885E+02  0.7816164E-02  0.1300439E+00
        -11   -1    0    0    0    0  0.00000000000E+00  0.00000000000E+00  0.45593999997E+02  0.45594000000E+02  0.51100000000E-03 0. -1.
         11   -1    0    0    0    0 -0.00000000000E+00 -0.00000000000E+00 -0.45593999997E+02  0.45594000000E+02  0.51100000000E-03 0.  1.
    9900012    2    1    2    0    0  0.25198120741E+02 -0.22384465308E+02  0.22741076772E+02  0.50528854057E+02  0.29999982392E+02 0.  0.
        -12    1    1    2    0    0 -0.25198120741E+02  0.22384465308E+02 -0.22741076772E+02  0.40659145943E+02  0.00000000000E+00 0.  1.
         11    1    3    3    0    0  0.52180344651E+01 -0.21164811089E+02  0.62054811527E+01  0.22664622403E+02  0.51100000000E-03 0. -1.
        -11    1    3    3    0    0  0.36235049811E+01  0.36106556827E+01  0.21358113000E+01  0.55433124554E+01  0.51100000000E-03 0.  1.
         12    1    3    3    0    0  0.16356581295E+02 -0.48303099026E+01  0.14399784320E+02  0.22320919198E+02  0.00000000000E+00 0. -1.
</event>
<event>
 7    1  0.5006721E-012  0.5052886E+02  0.7816164E-02  0.1300439E+00
        -11   -1    0    0    0    0  0.00000000000E+00  0.00000000000E+00  0.45593999997E+02  0.45594000000E+02  0.51100000000E-03 0. -1.
         11   -1    0    0    0    0 -0.00000000000E+00 -0.00000000000E+00 -0.45593999997E+02  0.45594000000E+02  0.51100000000E-03 0.  1.
    9900012    2    1    2    0    0 -0.19741359980E+02 -0.31772565174E+02  0.15935765391E+02  0.50528858221E+02  0.29999995049E+02 0.  0.
        -12    1    1    2    0    0  0.19741359980E+02  0.31772565174E+02 -0.15935765391E+02  0.40659141779E+02  0.00000000000E+00 0.  1.
         11    1    3    3    0    0 -0.21149276234E+01 -0.10750369511E+02  0.17111435909E+02  0.20318577770E+02  0.51100000000E-03 0. -1.
        -11    1    3    3    0    0 -0.15315399019E+02 -0.87413224990E+01 -0.15984732690E+01  0.17706701646E+02  0.51100000000E-03 0.  1.
        -12    1    3    3    0    0 -0.23110333373E+01 -0.12280873164E+02  0.42280275141E+00  0.12503578805E+02  0.00000000000E+00 0.  1.
</event>
<event>
 7    1  0.5006721E-012  0.5052880E+02  0.7816164E-02  0.1300439E+00
        -11   -1    0    0    0    0  0.00000000000E+00  0.00000000000E+00  0.45593999997E+02  0.45594000000E+02  0.51100000000E-03 0. -1.
         11   -1    0    0    0    0 -0.00000000000E+00 -0.00000000000E+00 -0.45593999997E+02  0.45594000000E+02  0.51100000000E-03 0.  1.
    9900012    2    1    2    0    0  0.26715110801E+02  0.54256770705E+01 -0.30166798441E+02  0.50528796307E+02  0.29999806854E+02 0.  0.
         12    1    1    2    0    0 -0.26715110801E+02 -0.54256770705E+01  0.30166798441E+02  0.40659203693E+02  0.00000000000E+00 0. -1.
         11    1    3    3    0    0  0.11089145338E+01 -0.72729939364E+01 -0.15374440645E+02  0.17044047572E+02  0.51100000000E-03 0. -1.
        -11    1    3    3    0    0  0.19222691641E+02  0.91258269351E+01 -0.61250004450E+01  0.22142904549E+02  0.51100000000E-03 0.  1.
         12    1    3    3    0    0  0.63835046263E+01  0.35728440717E+01 -0.86673573512E+01  0.11341844186E+02  0.00000000000E+00 0. -1.
</event>
<event>
 7    1  0.5006721E-012  0.5052884E+02  0.7816164E-02  0.1300439E+00
        -11   -1    0    0    0    0  0.00000000000E+00  0.00000000000E+00  0.45593999997E+02  0.45594000000E+02  0.51100000000E-03 0. -1.
         11   -1    0    0    0    0 -0.00000000000E+00 -0.00000000000E+00 -0.45593999997E+02  0.45594000000E+02  0.51100000000E-03 0.  1.
    9900012    2    1    2    0    0  0.17211598808E+02 -0.20502416035E+02  0.30603582281E+02  0.50528838115E+02  0.29999933934E+02 0.  0.
        -12    1    1    2    0    0 -0.17211598808E+02  0.20502416035E+02 -0.30603582281E+02  0.40659161885E+02  0.00000000000E+00 0.  1.
         11    1    3    3    0    0  0.12190774202E+02 -0.46463690003E+01  0.27491485847E+02  0.30430010103E+02  0.51100000000E-03 0. -1.
        -11    1    3    3    0    0  0.62731133923E+01 -0.59077546575E+01 -0.19969664522E+01  0.88454164401E+01  0.51100000000E-03 0.  1.
        -12    1    3    3    0    0 -0.12522887871E+01 -0.99482923770E+01  0.51090628856E+01  0.11253411571E+02  0.00000000000E+00 0.  1.
</event>
<event>
 7    1  0.5006721E-012  0.5052884E+02  0.7816164E-02  0.1300439E+00
        -11   -1    0    0    0    0  0.00000000000E+00  0.00000000000E+00  0.45593999997E+02  0.45594000000E+02  0.51100000000E-03 0. -1.
         11   -1    0    0    0    0 -0.00000000000E+00 -0.00000000000E+00 -0.45593999997E+02  0.45594000000E+02  0.51100000000E-03 0.  1.
    9900012    2    1    2    0    0  0.40737573973E+01 -0.13106605761E+02 -0.38272556678E+02  0.50528841025E+02  0.29999942778E+02 0.  0.
         12    1    1    2    0    0 -0.40737573973E+01  0.13106605761E+02  0.38272556678E+02  0.40659158975E+02  0.00000000000E+00 0. -1.
         11    1    3    3    0    0  0.62413452913E+01 -0.25573949316E+01 -0.10774237081E+01  0.68304832910E+01  0.51100000000E-03 0. -1.
        -11    1    3    3    0    0 -0.10104190509E+02 -0.24389912601E+01 -0.24817566782E+02  0.26906411233E+02  0.51100000000E-03 0.  1.
        -12    1    3    3    0    0  0.79366026150E+01 -0.81102195692E+01 -0.12377566188E+02  0.16791946500E+02  0.00000000000E+00 0.  1.
</event>
<event>
 7    1  0.5006721E-012  0.5052886E+02  0.7816164E-02  0.1300439E+00
        -11   -1    0    0    0    0  0.00000000000E+00  0.00000000000E+00  0.45593999997E+02  0.45594000000E+02  0.51100000000E-03 0.  1.
         11   -1    0    0    0    0 -0.00000000000E+00 -0.00000000000E+00 -0.45593999997E+02  0.45594000000E+02  0.51100000000E-03 0. -1.
    9900012    2    1    2    0    0  0.22622168328E+02 -0.32679294507E+02 -0.85712726419E+01  0.50528861986E+02  0.30000006492E+02 0.  0.
         12    1    1    2    0    0 -0.22622168328E+02  0.32679294507E+02  0.85712726419E+01  0.40659138014E+02  0.00000000000E+00 0. -1.
         11    1    3    3    0    0 -0.51646147633E+00 -0.22951625823E+02 -0.85374503511E+01  0.24493507693E+02  0.51100000000E-03 0. -1.
        -11    1    3    3    0    0  0.16046758662E+02 -0.70451066496E+01 -0.32064336747E+01  0.17816094085E+02  0.51100000000E-03 0.  1.
        -12    1    3    3    0    0  0.70918711425E+01 -0.26825620346E+01  0.31726113839E+01  0.82192602078E+01  0.00000000000E+00 0.  1.
</event>
<event>
 7    1  0.5006721E-012  0.5052886E+02  0.7816164E-02  0.1300439E+00
        -11   -1    0    0    0    0  0.00000000000E+00  0.00000000000E+00  0.45593999997E+02  0.45594000000E+02  0.51100000000E-03 0. -1.
         11   -1    0    0    0    0 -0.00000000000E+00 -0.00000000000E+00 -0.45593999997E+02  0.45594000000E+02  0.51100000000E-03 0.  1.
    9900012    2    1    2    0    0  0.12096202179E+02  0.26146080485E+02  0.28691985505E+02  0.50528860018E+02  0.30000000511E+02 0.  0.
        -12    1    1    2    0    0 -0.12096202179E+02 -0.26146080485E+02 -0.28691985505E+02  0.40659139982E+02  0.00000000000E+00 0.  1.
         11    1    3    3    0    0  0.26155681914E+01 -0.45684182797E+01  0.13388786228E+01  0.54317804420E+01  0.51100000000E-03 0.  1.
        -11    1    3    3    0    0  0.46697481600E+01  0.16720983592E+02  0.24499490792E+02  0.30027035976E+02  0.51100000000E-03 0. -1.
        -12    1    3    3    0    0  0.48108858274E+01  0.13993515172E+02  0.28536160896E+01  0.15070043600E+02  0.00000000000E+00 0.  1.
</event>
<event>
 7    1  0.5006721E-012  0.5052886E+02  0.7816164E-02  0.1300439E+00
        -11   -1    0    0    0    0  0.00000000000E+00  0.00000000000E+00  0.45593999997E+02  0.45594000000E+02  0.51100000000E-03 0. -1.
         11   -1    0    0    0    0 -0.00000000000E+00 -0.00000000000E+00 -0.45593999997E+02  0.45594000000E+02  0.51100000000E-03 0.  1.
    9900012    2    1    2    0    0  0.11349779754E+02 -0.99661726675E+01  0.37749483482E+02  0.50528860790E+02  0.30000002858E+02 0.  0.
        -12    1    1    2    0    0 -0.11349779754E+02  0.99661726675E+01 -0.37749483482E+02  0.40659139210E+02  0.00000000000E+00 0.  1.
         11    1    3    3    0    0  0.77942896468E+01  0.30598847451E+01  0.86221804394E+01  0.12018978390E+02  0.51100000000E-03 0. -1.
        -11    1    3    3    0    0 -0.39503955114E+01 -0.48887731464E+01  0.26359805345E+02  0.27098801923E+02  0.51100000000E-03 0.  1.
        -12    1    3    3    0    0  0.75058856189E+01 -0.81372842661E+01  0.27674976978E+01  0.11411080477E+02  0.00000000000E+00 0.  1.
</event>
<event>
 7    1  0.5006721E-012  0.5052887E+02  0.7816164E-02  0.1300439E+00
        -11   -1    0    0    0    0  0.00000000000E+00  0.00000000000E+00  0.45593999997E+02  0.45594000000E+02  0.51100000000E-03 0. -1.
         11   -1    0    0    0    0 -0.00000000000E+00 -0.00000000000E+00 -0.45593999997E+02  0.45594000000E+02  0.51100000000E-03 0.  1.
    9900012    2    1    2    0    0  0.10499394989E+02  0.35127281987E+02  0.17578443715E+02  0.50528869188E+02  0.30000028385E+02 0.  0.
        -12    1    1    2    0    0 -0.10499394989E+02 -0.35127281987E+02 -0.17578443715E+02  0.40659130812E+02  0.00000000000E+00 0.  1.
         11    1    3    3    0    0  0.10546686771E+02  0.12098374786E+02  0.17121380639E+02  0.23467955803E+02  0.51100000000E-03 0. -1.
        -11    1    3    3    0    0 -0.60819204115E+01  0.51296578327E+01 -0.14078645432E+01  0.80799274876E+01  0.51100000000E-03 0.  1.
        -12    1    3    3    0    0  0.60346286289E+01  0.17899249368E+02  0.18649276195E+01  0.18980985898E+02  0.00000000000E+00 0.  1.
</event>
<event>
 7    1  0.5006721E-012  0.5052886E+02  0.7816164E-02  0.1300439E+00
        -11   -1    0    0    0    0  0.00000000000E+00  0.00000000000E+00  0.45593999997E+02  0.45594000000E+02  0.51100000000E-03 0.  1.
         11   -1    0    0    0    0 -0.00000000000E+00 -0.00000000000E+00 -0.45593999997E+02  0.45594000000E+02  0.51100000000E-03 0. -1.
    9900012    2    1    2    0    0  0.13218461665E+02  0.17781206047E+02  0.34092030157E+02  0.50528861574E+02  0.30000005241E+02 0.  0.
        -12    1    1    2    0    0 -0.13218461665E+02 -0.17781206047E+02 -0.34092030157E+02  0.40659138426E+02  0.00000000000E+00 0.  1.
         11    1    3    3    0    0 -0.43207507140E+01  0.49527992388E+00 -0.23038701013E+01  0.49215857851E+01  0.51100000000E-03 0. -1.
        -11    1    3    3    0    0  0.93202918839E+01  0.44101792863E+01  0.23327021699E+02  0.25504263638E+02  0.51100000000E-03 0.  1.
         12    1    3    3    0    0  0.82189204954E+01  0.12875746837E+02  0.13068878560E+02  0.20103012151E+02  0.00000000000E+00 0. -1.
</event>
<event>
 7    1  0.5006721E-012  0.5052887E+02  0.7816164E-02  0.1300439E+00
        -11   -1    0    0    0    0  0.00000000000E+00  0.00000000000E+00  0.45593999997E+02  0.45594000000E+02  0.51100000000E-03 0. -1.
         11   -1    0    0    0    0 -0.00000000000E+00 -0.00000000000E+00 -0.45593999997E+02  0.45594000000E+02  0.51100000000E-03 0.  1.
    9900012    2    1    2    0    0 -0.48820482849E+01 -0.38415531597E+02  0.12392639282E+02  0.50528868532E+02  0.30000026390E+02 0.  0.
        -12    1    1    2    0    0  0.48820482849E+01  0.38415531597E+02 -0.12392639282E+02  0.40659131468E+02  0.00000000000E+00 0.  1.
         11    1    3    3    0    0  0.12781378394E+01 -0.39007010163E+02  0.56209823140E+01  0.39430646972E+02  0.51100000000E-03 0. -1.
        -11    1    3    3    0    0 -0.68858260345E+01  0.50735752338E+00  0.34903276596E+01  0.77365624968E+01  0.51100000000E-03 0.  1.
        -12    1    3    3    0    0  0.72563991010E+00  0.84121042081E-01  0.32813293083E+01  0.33616590634E+01  0.00000000000E+00 0.  1.
</event>
<event>
 7    1  0.5006721E-012  0.5052885E+02  0.7816164E-02  0.1300439E+00
        -11   -1    0    0    0    0  0.00000000000E+00  0.00000000000E+00  0.45593999997E+02  0.45594000000E+02  0.51100000000E-03 0. -1.
         11   -1    0    0    0    0 -0.00000000000E+00 -0.00000000000E+00 -0.45593999997E+02  0.45594000000E+02  0.51100000000E-03 0.  1.
    9900012    2    1    2    0    0  0.18774952397E+02 -0.15955008796E+02  0.32343548074E+02  0.50528852871E+02  0.29999978788E+02 0.  0.
        -12    1    1    2    0    0 -0.18774952397E+02  0.15955008796E+02 -0.32343548074E+02  0.40659147129E+02  0.00000000000E+00 0.  1.
         11    1    3    3    0    0  0.12281429897E+02 -0.15236831053E+02  0.23161099387E+02  0.30322121725E+02  0.51100000000E-03 0. -1.
        -11    1    3    3    0    0  0.10527495821E+02  0.23541915687E+00  0.44923104203E+00  0.10539705842E+02  0.51100000000E-03 0.  1.
        -12    1    3    3    0    0 -0.40339733203E+01 -0.95359689927E+00  0.87332176457E+01  0.96670253047E+01  0.00000000000E+00 0.  1.
</event>
<event>
 7    1  0.5006721E-012  0.5052886E+02  0.7816164E-02  0.1300439E+00
        -11   -1    0    0    0    0  0.00000000000E+00  0.00000000000E+00  0.45593999997E+02  0.45594000000E+02  0.51100000000E-03 0. -1.
         11   -1    0    0    0    0 -0.00000000000E+00 -0.00000000000E+00 -0.45593999997E+02  0.45594000000E+02  0.51100000000E-03 0.  1.
    9900012    2    1    2    0    0  0.58121160055E+01  0.21210705130E+02  0.34197818835E+02  0.50528861819E+02  0.30000005986E+02 0.  0.
        -12    1    1    2    0    0 -0.58121160055E+01 -0.21210705130E+02 -0.34197818835E+02  0.40659138181E+02  0.00000000000E+00 0.  1.
         11    1    3    3    0    0  0.10944919740E+01  0.42442597782E+01  0.12590954567E+02  0.13332058765E+02  0.51100000000E-03 0. -1.
        -11    1    3    3    0    0  0.13534200823E+02  0.38141537873E+01  0.72372588033E+01  0.15814558997E+02  0.51100000000E-03 0.  1.
        -12    1    3    3    0    0 -0.88165767914E+01  0.13152291564E+02  0.14369605464E+02  0.21382244057E+02  0.00000000000E+00 0.  1.
</event>
<event>
 7    1  0.5006721E-012  0.5052890E+02  0.7816164E-02  0.1300439E+00
        -11   -1    0    0    0    0  0.00000000000E+00  0.00000000000E+00  0.45593999997E+02  0.45594000000E+02  0.51100000000E-03 0. -1.
         11   -1    0    0    0    0 -0.00000000000E+00 -0.00000000000E+00 -0.45593999997E+02  0.45594000000E+02  0.51100000000E-03 0.  1.
    9900012    2    1    2    0    0  0.10696885208E+01  0.25494808982E+02 -0.31654904213E+02  0.50528899182E+02  0.30000119553E+02 0.  0.
         12    1    1    2    0    0 -0.10696885208E+01 -0.25494808982E+02  0.31654904213E+02  0.40659100818E+02  0.00000000000E+00 0. -1.
         11    1    3    3    0    0  0.14361194578E+01 -0.33189186997E+01 -0.14124507370E+02  0.14580101822E+02  0.51100000000E-03 0. -1.
        -11    1    3    3    0    0  0.42179383184E+01  0.24200043703E+02 -0.11678376987E+02  0.27199588382E+02  0.51100000000E-03 0.  1.
         12    1    3    3    0    0 -0.45843692554E+01  0.46136839795E+01 -0.58520198567E+01  0.87492089777E+01  0.00000000000E+00 0. -1.
</event>
<event>
 7    1  0.5006721E-012  0.5052886E+02  0.7816164E-02  0.1300439E+00
        -11   -1    0    0    0    0  0.00000000000E+00  0.00000000000E+00  0.45593999997E+02  0.45594000000E+02  0.51100000000E-03 0.  1.
         11   -1    0    0    0    0 -0.00000000000E+00 -0.00000000000E+00 -0.45593999997E+02  0.45594000000E+02  0.51100000000E-03 0. -1.
    9900012    2    1    2    0    0  0.26770716058E+02  0.28330249679E+02 -0.11571145863E+02  0.50528859556E+02  0.29999999105E+02 0.  0.
         12    1    1    2    0    0 -0.26770716058E+02 -0.28330249679E+02  0.11571145863E+02  0.40659140444E+02  0.00000000000E+00 0. -1.
         11    1    3    3    0    0  0.14618967806E+02  0.25007295020E+02 -0.93661947962E+01  0.30443466116E+02  0.51100000000E-03 0.  1.
        -11    1    3    3    0    0  0.62126482097E+01 -0.48153055301E+01  0.33911534870E+01  0.85606125575E+01  0.51100000000E-03 0. -1.
         12    1    3    3    0    0  0.59391000413E+01  0.81382601891E+01 -0.55961045534E+01  0.11524780882E+02  0.00000000000E+00 0. -1.
</event>
<event>
 7    1  0.5006721E-012  0.5052887E+02  0.7816164E-02  0.1300439E+00
        -11   -1    0    0    0    0  0.00000000000E+00  0.00000000000E+00  0.45593999997E+02  0.45594000000E+02  0.51100000000E-03 0. -1.
         11   -1    0    0    0    0 -0.00000000000E+00 -0.00000000000E+00 -0.45593999997E+02  0.45594000000E+02  0.51100000000E-03 0.  1.
    9900012    2    1    2    0    0  0.29680553153E+02 -0.11561703268E+02  0.25269685595E+02  0.50528865380E+02  0.30000016810E+02 0.  0.
        -12    1    1    2    0    0 -0.29680553153E+02  0.11561703268E+02 -0.25269685595E+02  0.40659134620E+02  0.00000000000E+00 0.  1.
         11    1    3    3    0    0 -0.37424320013E+01  0.17883199663E+01  0.10573370192E+02  0.11357818587E+02  0.51100000000E-03 0. -1.
        -11    1    3    3    0    0  0.31659696191E+02 -0.11745526708E+02  0.12756005979E+02  0.36097222184E+02  0.51100000000E-03 0.  1.
         12    1    3    3    0    0  0.17632889636E+01 -0.16044965257E+01  0.19403094238E+01  0.30738246095E+01  0.00000000000E+00 0. -1.
</event>
<event>
 7    1  0.5006721E-012  0.5052887E+02  0.7816164E-02  0.1300439E+00
        -11   -1    0    0    0    0  0.00000000000E+00  0.00000000000E+00  0.45593999997E+02  0.45594000000E+02  0.51100000000E-03 0. -1.
         11   -1    0    0    0    0 -0.00000000000E+00 -0.00000000000E+00 -0.45593999997E+02  0.45594000000E+02  0.51100000000E-03 0.  1.
    9900012    2    1    2    0    0 -0.15564459441E+02  0.15912012570E+02  0.34025288047E+02  0.50528871033E+02  0.30000033991E+02 0.  0.
        -12    1    1    2    0    0  0.15564459441E+02 -0.15912012570E+02 -0.34025288047E+02  0.40659128967E+02  0.00000000000E+00 0.  1.
         11    1    3    3    0    0 -0.10700552047E+02  0.10152823613E+02  0.45992566989E+01  0.15451045397E+02  0.51100000000E-03 0. -1.
        -11    1    3    3    0    0 -0.23632077208E+01 -0.97028215860E+00  0.27535817280E+02  0.27654067183E+02  0.51100000000E-03 0.  1.
        -12    1    3    3    0    0 -0.25006996737E+01  0.67294711147E+01  0.18902140677E+01  0.74237584527E+01  0.00000000000E+00 0.  1.
</event>
<event>
 7    1  0.5006721E-012  0.5052890E+02  0.7816164E-02  0.1300439E+00
        -11   -1    0    0    0    0  0.00000000000E+00  0.00000000000E+00  0.45593999997E+02  0.45594000000E+02  0.51100000000E-03 0. -1.
         11   -1    0    0    0    0 -0.00000000000E+00 -0.00000000000E+00 -0.45593999997E+02  0.45594000000E+02  0.51100000000E-03 0.  1.
    9900012    2    1    2    0    0 -0.82615071533E+01 -0.36980875565E+02  0.14741940113E+02  0.50528899465E+02  0.30000120415E+02 0.  0.
        -12    1    1    2    0    0  0.82615071533E+01  0.36980875565E+02 -0.14741940113E+02  0.40659100535E+02  0.00000000000E+00 0.  1.
         11    1    3    3    0    0  0.38391823359E+00 -0.39038329221E+01  0.70606881702E-01  0.39233009426E+01  0.51100000000E-03 0. -1.
        -11    1    3    3    0    0 -0.19600232167E+01 -0.15477696681E+02 -0.76741288056E+01  0.17386576395E+02  0.51100000000E-03 0.  1.
        -12    1    3    3    0    0 -0.66854021702E+01 -0.17599345962E+02  0.22345462037E+02  0.29219022127E+02  0.00000000000E+00 0.  1.
</event>
<event>
 7    1  0.5006721E-012  0.5052885E+02  0.7816164E-02  0.1300439E+00
        -11   -1    0    0    0    0  0.00000000000E+00  0.00000000000E+00  0.45593999997E+02  0.45594000000E+02  0.51100000000E-03 0. -1.
         11   -1    0    0    0    0 -0.00000000000E+00 -0.00000000000E+00 -0.45593999997E+02  0.45594000000E+02  0.51100000000E-03 0.  1.
    9900012    2    1    2    0    0  0.11326906079E+02  0.25286809213E+02 -0.29756426030E+02  0.50528850826E+02  0.29999972571E+02 0.  0.
         12    1    1    2    0    0 -0.11326906079E+02 -0.25286809213E+02  0.29756426030E+02  0.40659149174E+02  0.00000000000E+00 0. -1.
         11    1    3    3    0    0 -0.71399380905E+00  0.96034933484E+01  0.24615899232E+01  0.99396326322E+01  0.51100000000E-03 0. -1.
        -11    1    3    3    0    0  0.11907820581E+02  0.56408971412E+01 -0.24870133698E+02  0.28144972232E+02  0.51100000000E-03 0.  1.
        -12    1    3    3    0    0  0.13307930696E+00  0.10042418723E+02 -0.73478822552E+01  0.12444245962E+02  0.00000000000E+00 0.  1.
</event>
<event>
 7    1  0.5006721E-012  0.5052886E+02  0.7816164E-02  0.1300439E+00
        -11   -1    0    0    0    0  0.00000000000E+00  0.00000000000E+00  0.45593999997E+02  0.45594000000E+02  0.51100000000E-03 0. -1.
         11   -1    0    0    0    0 -0.00000000000E+00 -0.00000000000E+00 -0.45593999997E+02  0.45594000000E+02  0.51100000000E-03 0.  1.
    9900012    2    1    2    0    0  0.12183821767E+02  0.26960849092E+01 -0.38696917660E+02  0.50528858063E+02  0.29999994568E+02 0.  0.
         12    1    1    2    0    0 -0.12183821767E+02 -0.26960849092E+01  0.38696917660E+02  0.40659141937E+02  0.00000000000E+00 0. -1.
         11    1    3    3    0    0  0.85700427144E+01  0.89074065689E+01 -0.15824428065E+02  0.20079841826E+02  0.51100000000E-03 0. -1.
        -11    1    3    3    0    0 -0.64692120096E+01 -0.12685617289E+00 -0.25377678154E+01  0.69503282124E+01  0.51100000000E-03 0.  1.
        -12    1    3    3    0    0  0.10082991062E+02 -0.60844654868E+01 -0.20334721780E+02  0.23498688025E+02  0.00000000000E+00 0.  1.
</event>
<event>
 7    1  0.5006721E-012  0.5052884E+02  0.7816164E-02  0.1300439E+00
        -11   -1    0    0    0    0  0.00000000000E+00  0.00000000000E+00  0.45593999997E+02  0.45594000000E+02  0.51100000000E-03 0. -1.
         11   -1    0    0    0    0 -0.00000000000E+00 -0.00000000000E+00 -0.45593999997E+02  0.45594000000E+02  0.51100000000E-03 0.  1.
    9900012    2    1    2    0    0  0.12526383254E+02  0.59847462288E+01  0.38215698423E+02  0.50528842719E+02  0.29999947930E+02 0.  0.
        -12    1    1    2    0    0 -0.12526383254E+02 -0.59847462288E+01 -0.38215698423E+02  0.40659157281E+02  0.00000000000E+00 0.  1.
         11    1    3    3    0    0  0.12830235724E+02  0.19619983009E+01  0.37134162979E+02  0.39337138260E+02  0.51100000000E-03 0. -1.
        -11    1    3    3    0    0  0.11688950325E+01 -0.14096491897E+00 -0.41682027972E+01  0.43312932855E+01  0.51100000000E-03 0.  1.
         12    1    3    3    0    0 -0.14727475028E+01  0.41637128469E+01  0.52497382408E+01  0.68604111739E+01  0.00000000000E+00 0. -1.
</event>
<event>
 7    1  0.5006721E-012  0.5052887E+02  0.7816164E-02  0.1300439E+00
        -11   -1    0    0    0    0  0.00000000000E+00  0.00000000000E+00  0.45593999997E+02  0.45594000000E+02  0.51100000000E-03 0. -1.
         11   -1    0    0    0    0 -0.00000000000E+00 -0.00000000000E+00 -0.45593999997E+02  0.45594000000E+02  0.51100000000E-03 0.  1.
    9900012    2    1    2    0    0 -0.14726334807E+01 -0.18479426826E+02  0.36187114250E+02  0.50528866919E+02  0.30000021486E+02 0.  0.
        -12    1    1    2    0    0  0.14726334807E+01  0.18479426826E+02 -0.36187114250E+02  0.40659133081E+02  0.00000000000E+00 0.  1.
         11    1    3    3    0    0  0.32965736275E+01 -0.93128097498E+01  0.32456990925E+02  0.33927158491E+02  0.51100000000E-03 0. -1.
        -11    1    3    3    0    0  0.17850805240E+01 -0.94430390886E+01  0.19795468938E+01  0.98120388234E+01  0.51100000000E-03 0.  1.
         12    1    3    3    0    0 -0.65542876322E+01  0.27642201286E+00  0.17505764314E+01  0.67896696044E+01  0.00000000000E+00 0. -1.
</event>
<event>
 7    1  0.5006721E-012  0.5052885E+02  0.7816164E-02  0.1300439E+00
        -11   -1    0    0    0    0  0.00000000000E+00  0.00000000000E+00  0.45593999997E+02  0.45594000000E+02  0.51100000000E-03 0. -1.
         11   -1    0    0    0    0 -0.00000000000E+00 -0.00000000000E+00 -0.45593999997E+02  0.45594000000E+02  0.51100000000E-03 0.  1.
    9900012    2    1    2    0    0 -0.18899657561E+02  0.61568413039E+01 -0.35469180445E+02  0.50528849589E+02  0.29999968810E+02 0.  0.
         12    1    1    2    0    0  0.18899657561E+02 -0.61568413039E+01  0.35469180445E+02  0.40659150411E+02  0.00000000000E+00 0. -1.
         11    1    3    3    0    0  0.82036683860E+01  0.22314857630E+01 -0.85442465879E+01  0.12053375200E+02  0.51100000000E-03 0. -1.
        -11    1    3    3    0    0 -0.16482329421E+02  0.19248698242E+01 -0.17745484942E+02  0.24295566325E+02  0.51100000000E-03 0.  1.
         12    1    3    3    0    0 -0.10620996526E+02  0.20004857167E+01 -0.91794489150E+01  0.14179908063E+02  0.00000000000E+00 0. -1.
</event>
<event>
 7    1  0.5006721E-012  0.5052885E+02  0.7816164E-02  0.1300439E+00
        -11   -1    0    0    0    0  0.00000000000E+00  0.00000000000E+00  0.45593999997E+02  0.45594000000E+02  0.51100000000E-03 0. -1.
         11   -1    0    0    0    0 -0.00000000000E+00 -0.00000000000E+00 -0.45593999997E+02  0.45594000000E+02  0.51100000000E-03 0.  1.
    9900012    2    1    2    0    0  0.22038296927E+02 -0.25717290737E+02 -0.22496689184E+02  0.50528848527E+02  0.29999965582E+02 0.  0.
         12    1    1    2    0    0 -0.22038296927E+02  0.25717290737E+02  0.22496689184E+02  0.40659151473E+02  0.00000000000E+00 0. -1.
         11    1    3    3    0    0  0.14222681615E+01 -0.10233223869E+02  0.81368416851E+00  0.10363580446E+02  0.51100000000E-03 0. -1.
        -11    1    3    3    0    0  0.23209170263E+02 -0.13697532875E+02 -0.14066820196E+02  0.30400056280E+02  0.51100000000E-03 0.  1.
        -12    1    3    3    0    0 -0.25931414979E+01 -0.17865339930E+01 -0.92435531573E+01  0.97652118005E+01  0.00000000000E+00 0.  1.
</event>
<event>
 7    1  0.5006721E-012  0.5052885E+02  0.7816164E-02  0.1300439E+00
        -11   -1    0    0    0    0  0.00000000000E+00  0.00000000000E+00  0.45593999997E+02  0.45594000000E+02  0.51100000000E-03 0.  1.
         11   -1    0    0    0    0 -0.00000000000E+00 -0.00000000000E+00 -0.45593999997E+02  0.45594000000E+02  0.51100000000E-03 0. -1.
    9900012    2    1    2    0    0 -0.11632367927E+02 -0.36410737341E+02  0.13860459618E+02  0.50528854434E+02  0.29999983538E+02 0.  0.
        -12    1    1    2    0    0  0.11632367927E+02  0.36410737341E+02 -0.13860459618E+02  0.40659145566E+02  0.00000000000E+00 0.  1.
         11    1    3    3    0    0 -0.13863720330E+02 -0.20946563767E+02  0.52646624677E+01  0.25664721822E+02  0.51100000000E-03 0. -1.
        -11    1    3    3    0    0  0.31308149146E+01 -0.11263327748E+02  0.13819398845E+02  0.18100838065E+02  0.51100000000E-03 0.  1.
         12    1    3    3    0    0 -0.89946251141E+00 -0.42008458262E+01 -0.52236016943E+01  0.67632945467E+01  0.00000000000E+00 0. -1.
</event>
<event>
 7    1  0.5006721E-012  0.5052886E+02  0.7816164E-02  0.1300439E+00
        -11   -1    0    0    0    0  0.00000000000E+00  0.00000000000E+00  0.45593999997E+02  0.45594000000E+02  0.51100000000E-03 0. -1.
         11   -1    0    0    0    0 -0.00000000000E+00 -0.00000000000E+00 -0.45593999997E+02  0.45594000000E+02  0.51100000000E-03 0.  1.
    9900012    2    1    2    0    0 -0.21253695116E+02  0.31232810020E+02  0.15031894681E+02  0.50528857910E+02  0.29999994102E+02 0.  0.
        -12    1    1    2    0    0  0.21253695116E+02 -0.31232810020E+02 -0.15031894681E+02  0.40659142090E+02  0.00000000000E+00 0.  1.
         11    1    3    3    0    0 -0.19977163040E+02  0.12461814819E+02  0.41355617300E+01  0.23905788897E+02  0.51100000000E-03 0.  1.
        -11    1    3    3    0    0  0.68852477681E+01  0.10973480834E+02  0.66604998112E+01  0.14566611700E+02  0.51100000000E-03 0. -1.
         12    1    3    3    0    0 -0.81617798442E+01  0.77975143676E+01  0.42358331397E+01  0.12056457312E+02  0.00000000000E+00 0. -1.
</event>
<event>
 7    1  0.5006721E-012  0.5052885E+02  0.7816164E-02  0.1300439E+00
        -11   -1    0    0    0    0  0.00000000000E+00  0.00000000000E+00  0.45593999997E+02  0.45594000000E+02  0.51100000000E-03 0. -1.
         11   -1    0    0    0    0 -0.00000000000E+00 -0.00000000000E+00 -0.45593999997E+02  0.45594000000E+02  0.51100000000E-03 0.  1.
    9900012    2    1    2    0    0 -0.32881730538E+01  0.29605592729E+02 -0.27674227784E+02  0.50528854826E+02  0.29999984728E+02 0.  0.
         12    1    1    2    0    0  0.32881730538E+01 -0.29605592729E+02  0.27674227784E+02  0.40659145174E+02  0.00000000000E+00 0. -1.
         11    1    3    3    0    0  0.19431508444E+01 -0.28672737872E+01  0.26136529671E+01  0.43391561701E+01  0.51100000000E-03 0. -1.
        -11    1    3    3    0    0 -0.14547770844E+01  0.25694727486E+02 -0.17133858128E+02  0.30917705147E+02  0.51100000000E-03 0.  1.
         12    1    3    3    0    0 -0.37765468137E+01  0.67781390302E+01 -0.13154022624E+02  0.15271993509E+02  0.00000000000E+00 0. -1.
</event>
<event>
 7    1  0.5006721E-012  0.5052883E+02  0.7816164E-02  0.1300439E+00
        -11   -1    0    0    0    0  0.00000000000E+00  0.00000000000E+00  0.45593999997E+02  0.45594000000E+02  0.51100000000E-03 0. -1.
         11   -1    0    0    0    0 -0.00000000000E+00 -0.00000000000E+00 -0.45593999997E+02  0.45594000000E+02  0.51100000000E-03 0.  1.
    9900012    2    1    2    0    0 -0.15185223374E+02 -0.34192718003E+02 -0.15919636844E+02  0.50528833621E+02  0.29999920275E+02 0.  0.
         12    1    1    2    0    0  0.15185223374E+02  0.34192718003E+02  0.15919636844E+02  0.40659166379E+02  0.00000000000E+00 0. -1.
         11    1    3    3    0    0 -0.10110164909E+02 -0.56699135576E+01  0.34193971875E+01  0.12085347808E+02  0.51100000000E-03 0. -1.
        -11    1    3    3    0    0 -0.13299716259E+01 -0.51758436063E+01 -0.12860476202E+02  0.13926594342E+02  0.51100000000E-03 0.  1.
         12    1    3    3    0    0 -0.37450868387E+01 -0.23346960839E+02 -0.64785578295E+01  0.24516891471E+02  0.00000000000E+00 0. -1.
</event>
<event>
 7    1  0.5006721E-012  0.5052885E+02  0.7816164E-02  0.1300439E+00
        -11   -1    0    0    0    0  0.00000000000E+00  0.00000000000E+00  0.45593999997E+02  0.45594000000E+02  0.51100000000E-03 0. -1.
         11   -1    0    0    0    0 -0.00000000000E+00 -0.00000000000E+00 -0.45593999997E+02  0.45594000000E+02  0.51100000000E-03 0.  1.
    9900012    2    1    2    0    0  0.28061249496E+01 -0.19619767106E+02 -0.35501499793E+02  0.50528854828E+02  0.29999984736E+02 0.  0.
         12    1    1    2    0    0 -0.28061249496E+01  0.19619767106E+02  0.35501499793E+02  0.40659145172E+02  0.00000000000E+00 0. -1.
         11    1    3    3    0    0  0.52429554604E+01  0.25226240336E+01 -0.83304628937E+00  0.58775998805E+01  0.51100000000E-03 0.  1.
        -11    1    3    3    0    0 -0.96332741502E+01 -0.15677382723E+02 -0.21255305566E+02  0.28113489909E+02  0.51100000000E-03 0. -1.
        -12    1    3    3    0    0  0.71964436394E+01 -0.64650084159E+01 -0.13413147938E+02  0.16537765039E+02  0.00000000000E+00 0.  1.
</event>
<event>
 7    1  0.5006721E-012  0.5052885E+02  0.7816164E-02  0.1300439E+00
        -11   -1    0    0    0    0  0.00000000000E+00  0.00000000000E+00  0.45593999997E+02  0.45594000000E+02  0.51100000000E-03 0. -1.
         11   -1    0    0    0    0 -0.00000000000E+00 -0.00000000000E+00 -0.45593999997E+02  0.45594000000E+02  0.51100000000E-03 0.  1.
    9900012    2    1    2    0    0  0.10392437590E+02  0.37624850908E+02  0.11381318191E+02  0.50528848894E+02  0.29999966698E+02 0.  0.
        -12    1    1    2    0    0 -0.10392437590E+02 -0.37624850908E+02 -0.11381318191E+02  0.40659151106E+02  0.00000000000E+00 0.  1.
         11    1    3    3    0    0  0.14925060609E+02  0.35841430752E+02  0.16465771186E+02  0.42172114170E+02  0.51100000000E-03 0. -1.
        -11    1    3    3    0    0 -0.27521760742E+01  0.32119595895E+01 -0.40299792092E+01  0.58422504427E+01  0.51100000000E-03 0.  1.
         12    1    3    3    0    0 -0.17804469448E+01 -0.14285394339E+01 -0.10544737859E+01  0.25144842816E+01  0.00000000000E+00 0. -1.
</event>
<event>
 7    1  0.5006721E-012  0.5052885E+02  0.7816164E-02  0.1300439E+00
        -11   -1    0    0    0    0  0.00000000000E+00  0.00000000000E+00  0.45593999997E+02  0.45594000000E+02  0.51100000000E-03 0. -1.
         11   -1    0    0    0    0 -0.00000000000E+00 -0.00000000000E+00 -0.45593999997E+02  0.45594000000E+02  0.51100000000E-03 0.  1.
    9900012    2    1    2    0    0  0.27871180100E+02  0.29593735649E+02  0.75789771071E+00  0.50528852459E+02  0.29999977534E+02 0.  0.
        -12    1    1    2    0    0 -0.27871180100E+02 -0.29593735649E+02 -0.75789771071E+00  0.40659147541E+02  0.00000000000E+00 0.  1.
         11    1    3    3    0    0  0.22242404210E+02  0.27757066699E+02  0.94010814760E+01  0.36790754680E+02  0.51100000000E-03 0. -1.
        -11    1    3    3    0    0  0.94581601457E+00  0.34937235837E+01 -0.79335207756E+01  0.87201734255E+01  0.51100000000E-03 0.  1.
        -12    1    3    3    0    0  0.46829598753E+01 -0.16570546337E+01 -0.70966298965E+00  0.50179243529E+01  0.00000000000E+00 0.  1.
</event>
<event>
 7    1  0.5006721E-012  0.5052886E+02  0.7816164E-02  0.1300439E+00
        -11   -1    0    0    0    0  0.00000000000E+00  0.00000000000E+00  0.45593999997E+02  0.45594000000E+02  0.51100000000E-03 0. -1.
         11   -1    0    0    0    0 -0.00000000000E+00 -0.00000000000E+00 -0.45593999997E+02  0.45594000000E+02  0.51100000000E-03 0.  1.
    9900012    2    1    2    0    0  0.22088512300E+02  0.26936131579E+02 -0.20969217763E+02  0.50528860146E+02  0.30000000900E+02 0.  0.
         12    1    1    2    0    0 -0.22088512300E+02 -0.26936131579E+02  0.20969217763E+02  0.40659139854E+02  0.00000000000E+00 0. -1.
         11    1    3    3    0    0 -0.55444250403E+01  0.23008847375E+01  0.83393031655E+00  0.60605412000E+01  0.51100000000E-03 0. -1.
        -11    1    3    3    0    0  0.24646710843E+02  0.25675626679E+02 -0.20183015491E+02  0.40915183921E+02  0.51100000000E-03 0.  1.
        -12    1    3    3    0    0  0.29862264976E+01 -0.10403798374E+01 -0.16201325885E+01  0.35531350249E+01  0.00000000000E+00 0.  1.
</event>
<event>
 7    1  0.5006721E-012  0.5052895E+02  0.7816164E-02  0.1300438E+00
        -11   -1    0    0    0    0  0.00000000000E+00  0.00000000000E+00  0.45593999997E+02  0.45594000000E+02  0.51100000000E-03 0. -1.
         11   -1    0    0    0    0 -0.00000000000E+00 -0.00000000000E+00 -0.45593999997E+02  0.45594000000E+02  0.51100000000E-03 0.  1.
    9900012    2    1    2    0    0 -0.14619950158E+02  0.36743927212E+02  0.94498201005E+01  0.50528951444E+02  0.30000278407E+02 0.  0.
        -12    1    1    2    0    0  0.14619950158E+02 -0.36743927212E+02 -0.94498201005E+01  0.40659048556E+02  0.00000000000E+00 0.  1.
         11    1    3    3    0    0 -0.14771136648E+02  0.74672671353E+01  0.53803320644E+01  0.17403865368E+02  0.51100000000E-03 0. -1.
        -11    1    3    3    0    0  0.66417568745E+01  0.69208497582E+01  0.13899733384E+01  0.96924260069E+01  0.51100000000E-03 0.  1.
        -12    1    3    3    0    0 -0.64905703840E+01  0.22355810318E+02  0.26795146977E+01  0.23432660069E+02  0.00000000000E+00 0.  1.
</event>
<event>
 7    1  0.5006721E-012  0.5052886E+02  0.7816164E-02  0.1300439E+00
        -11   -1    0    0    0    0  0.00000000000E+00  0.00000000000E+00  0.45593999997E+02  0.45594000000E+02  0.51100000000E-03 0. -1.
         11   -1    0    0    0    0 -0.00000000000E+00 -0.00000000000E+00 -0.45593999997E+02  0.45594000000E+02  0.51100000000E-03 0.  1.
    9900012    2    1    2    0    0 -0.28539951898E+02  0.14283539638E+02 -0.25191604159E+02  0.50528864753E+02  0.30000014903E+02 0.  0.
         12    1    1    2    0    0  0.28539951898E+02 -0.14283539638E+02  0.25191604159E+02  0.40659135247E+02  0.00000000000E+00 0. -1.
         11    1    3    3    0    0 -0.28860480219E+02  0.71982750121E+01 -0.15826948439E+02  0.33693245299E+02  0.51100000000E-03 0.  1.
        -11    1    3    3    0    0  0.13878807483E+00  0.38800793277E+01  0.24510821224E+01  0.45915227921E+01  0.51100000000E-03 0. -1.
         12    1    3    3    0    0  0.18174024599E+00  0.32051852979E+01 -0.11815737842E+02  0.12244096662E+02  0.00000000000E+00 0. -1.
</event>
<event>
 7    1  0.5006721E-012  0.5052884E+02  0.7816164E-02  0.1300439E+00
        -11   -1    0    0    0    0  0.00000000000E+00  0.00000000000E+00  0.45593999997E+02  0.45594000000E+02  0.51100000000E-03 0. -1.
         11   -1    0    0    0    0 -0.00000000000E+00 -0.00000000000E+00 -0.45593999997E+02  0.45594000000E+02  0.51100000000E-03 0.  1.
    9900012    2    1    2    0    0 -0.28898690484E+02  0.14856622664E+02 -0.24440000859E+02  0.50528841245E+02  0.29999943449E+02 0.  0.
         12    1    1    2    0    0  0.28898690484E+02 -0.14856622664E+02  0.24440000859E+02  0.40659158755E+02  0.00000000000E+00 0. -1.
         11    1    3    3    0    0 -0.24428548773E+01 -0.30240570157E+01  0.27299891366E+01  0.47502949101E+01  0.51100000000E-03 0. -1.
        -11    1    3    3    0    0 -0.24017987376E+02  0.20906315182E+02 -0.27222326607E+02  0.41892634176E+02  0.51100000000E-03 0.  1.
        -12    1    3    3    0    0 -0.24378482300E+01 -0.30256355021E+01  0.52336610955E-01  0.38859121586E+01  0.00000000000E+00 0.  1.
</event>
<event>
 7    1  0.5006721E-012  0.5052884E+02  0.7816164E-02  0.1300439E+00
        -11   -1    0    0    0    0  0.00000000000E+00  0.00000000000E+00  0.45593999997E+02  0.45594000000E+02  0.51100000000E-03 0. -1.
         11   -1    0    0    0    0 -0.00000000000E+00 -0.00000000000E+00 -0.45593999997E+02  0.45594000000E+02  0.51100000000E-03 0.  1.
    9900012    2    1    2    0    0  0.42515562020E+01  0.22237837224E+02  0.33772329403E+02  0.50528839066E+02  0.29999936825E+02 0.  0.
        -12    1    1    2    0    0 -0.42515562020E+01 -0.22237837224E+02 -0.33772329403E+02  0.40659160934E+02  0.00000000000E+00 0.  1.
         11    1    3    3    0    0  0.15143485470E+01  0.19677198740E+02  0.33236445412E+02  0.38654193894E+02  0.51100000000E-03 0. -1.
        -11    1    3    3    0    0  0.25377041761E+01  0.40185736205E+01 -0.45503267902E+01  0.65798442677E+01  0.51100000000E-03 0.  1.
         12    1    3    3    0    0  0.19950347887E+00 -0.14579351359E+01  0.50862107817E+01  0.52948009042E+01  0.00000000000E+00 0. -1.
</event>
<event>
 7    1  0.5006721E-012  0.5052886E+02  0.7816164E-02  0.1300439E+00
        -11   -1    0    0    0    0  0.00000000000E+00  0.00000000000E+00  0.45593999997E+02  0.45594000000E+02  0.51100000000E-03 0. -1.
         11   -1    0    0    0    0 -0.00000000000E+00 -0.00000000000E+00 -0.45593999997E+02  0.45594000000E+02  0.51100000000E-03 0.  1.
    9900012    2    1    2    0    0 -0.33085554285E+02  0.61265805412E+01  0.22824910284E+02  0.50528863008E+02  0.30000009599E+02 0.  0.
        -12    1    1    2    0    0  0.33085554285E+02 -0.61265805412E+01 -0.22824910284E+02  0.40659136992E+02  0.00000000000E+00 0.  1.
         11    1    3    3    0    0 -0.66334345670E+01  0.15061195838E+00  0.18728755448E+02  0.19869358797E+02  0.51100000000E-03 0. -1.
        -11    1    3    3    0    0 -0.92177610829E+01  0.90046442595E+01  0.17800364744E+01  0.13008430641E+02  0.51100000000E-03 0.  1.
         12    1    3    3    0    0 -0.17234358635E+02 -0.30286756767E+01  0.23161183616E+01  0.17651073570E+02  0.00000000000E+00 0. -1.
</event>
<event>
 7    1  0.5006721E-012  0.5052884E+02  0.7816164E-02  0.1300439E+00
        -11   -1    0    0    0    0  0.00000000000E+00  0.00000000000E+00  0.45593999997E+02  0.45594000000E+02  0.51100000000E-03 0. -1.
         11   -1    0    0    0    0 -0.00000000000E+00 -0.00000000000E+00 -0.45593999997E+02  0.45594000000E+02  0.51100000000E-03 0.  1.
    9900012    2    1    2    0    0  0.13397428060E+02 -0.24216351318E+02  0.29786653814E+02  0.50528837500E+02  0.29999932065E+02 0.  0.
        -12    1    1    2    0    0 -0.13397428060E+02  0.24216351318E+02 -0.29786653814E+02  0.40659162500E+02  0.00000000000E+00 0.  1.
         11    1    3    3    0    0 -0.75043834510E+00 -0.22086771656E+02  0.27844517764E+02  0.35548640054E+02  0.51100000000E-03 0. -1.
        -11    1    3    3    0    0  0.54748162898E+01  0.86103663808E+00 -0.25001435452E+00  0.55477477356E+01  0.51100000000E-03 0.  1.
         12    1    3    3    0    0  0.86730501150E+01 -0.29906163003E+01  0.21921504038E+01  0.94324497108E+01  0.00000000000E+00 0. -1.
</event>
<event>
 7    1  0.5006721E-012  0.5052886E+02  0.7816164E-02  0.1300439E+00
        -11   -1    0    0    0    0  0.00000000000E+00  0.00000000000E+00  0.45593999997E+02  0.45594000000E+02  0.51100000000E-03 0. -1.
         11   -1    0    0    0    0 -0.00000000000E+00 -0.00000000000E+00 -0.45593999997E+02  0.45594000000E+02  0.51100000000E-03 0.  1.
    9900012    2    1    2    0    0  0.31171165125E+02  0.96459186761E+01  0.24258617932E+02  0.50528858023E+02  0.29999994445E+02 0.  0.
        -12    1    1    2    0    0 -0.31171165125E+02 -0.96459186761E+01 -0.24258617932E+02  0.40659141977E+02  0.00000000000E+00 0.  1.
         11    1    3    3    0    0  0.15561343921E+01  0.54011542162E+01  0.45494238623E+01  0.72312709017E+01  0.51100000000E-03 0. -1.
        -11    1    3    3    0    0  0.16146068930E+02 -0.93836906619E+01  0.55808054918E+01  0.19490884601E+02  0.51100000000E-03 0.  1.
        -12    1    3    3    0    0  0.13468961803E+02  0.13628455122E+02  0.14128388578E+02  0.23806702520E+02  0.00000000000E+00 0.  1.
</event>
<event>
 7    1  0.5006721E-012  0.5052886E+02  0.7816164E-02  0.1300439E+00
        -11   -1    0    0    0    0  0.00000000000E+00  0.00000000000E+00  0.45593999997E+02  0.45594000000E+02  0.51100000000E-03 0. -1.
         11   -1    0    0    0    0 -0.00000000000E+00 -0.00000000000E+00 -0.45593999997E+02  0.45594000000E+02  0.51100000000E-03 0.  1.
    9900012    2    1    2    0    0  0.39726701144E+01  0.33366864523E+01  0.40326786662E+02  0.50528864411E+02  0.30000013865E+02 0.  0.
        -12    1    1    2    0    0 -0.39726701144E+01 -0.33366864523E+01 -0.40326786662E+02  0.40659135589E+02  0.00000000000E+00 0.  1.
         11    1    3    3    0    0 -0.10104974216E+02  0.13019689949E+01  0.63680195421E+01  0.12014878289E+02  0.51100000000E-03 0.  1.
        -11    1    3    3    0    0  0.91501812609E+01  0.20512450531E+01  0.31764997674E+02  0.33120212875E+02  0.51100000000E-03 0. -1.
        -12    1    3    3    0    0  0.49274630692E+01 -0.16527595685E-01  0.21937694460E+01  0.53937732471E+01  0.00000000000E+00 0.  1.
</event>
<event>
 7    1  0.5006721E-012  0.5052886E+02  0.7816164E-02  0.1300439E+00
        -11   -1    0    0    0    0  0.00000000000E+00  0.00000000000E+00  0.45593999997E+02  0.45594000000E+02  0.51100000000E-03 0. -1.
         11   -1    0    0    0    0 -0.00000000000E+00 -0.00000000000E+00 -0.45593999997E+02  0.45594000000E+02  0.51100000000E-03 0.  1.
    9900012    2    1    2    0    0 -0.21411921276E+02 -0.22589073298E+02  0.26161589505E+02  0.50528863627E+02  0.30000011479E+02 0.  0.
        -12    1    1    2    0    0  0.21411921276E+02  0.22589073298E+02 -0.26161589505E+02  0.40659136373E+02  0.00000000000E+00 0.  1.
         11    1    3    3    0    0  0.37784766567E+01 -0.11894731746E+02  0.28279834650E+01  0.12796836324E+02  0.51100000000E-03 0. -1.
        -11    1    3    3    0    0 -0.10615137394E+02 -0.20169342607E+01  0.15871766665E+02  0.19200576632E+02  0.51100000000E-03 0.  1.
         12    1    3    3    0    0 -0.14575260539E+02 -0.86774072914E+01  0.74618393754E+01  0.18531450670E+02  0.00000000000E+00 0. -1.
</event>
<event>
 7    1  0.5006721E-012  0.5052886E+02  0.7816164E-02  0.1300439E+00
        -11   -1    0    0    0    0  0.00000000000E+00  0.00000000000E+00  0.45593999997E+02  0.45594000000E+02  0.51100000000E-03 0. -1.
         11   -1    0    0    0    0 -0.00000000000E+00 -0.00000000000E+00 -0.45593999997E+02  0.45594000000E+02  0.51100000000E-03 0.  1.
    9900012    2    1    2    0    0  0.92445556057E+01 -0.10559435752E+02  0.38160214547E+02  0.50528862454E+02  0.30000007914E+02 0.  0.
        -12    1    1    2    0    0 -0.92445556057E+01  0.10559435752E+02 -0.38160214547E+02  0.40659137546E+02  0.00000000000E+00 0.  1.
         11    1    3    3    0    0  0.90254912928E+01 -0.16804813212E+02  0.18443305567E+02  0.26533314167E+02  0.51100000000E-03 0. -1.
        -11    1    3    3    0    0 -0.53209847068E+01  0.56787614782E+01  0.88508288291E+01  0.11785515746E+02  0.51100000000E-03 0.  1.
         12    1    3    3    0    0  0.55400490196E+01  0.56661598181E+00  0.10866080151E+02  0.12210032541E+02  0.00000000000E+00 0. -1.
</event>
<event>
 7    1  0.5006721E-012  0.5052886E+02  0.7816164E-02  0.1300439E+00
        -11   -1    0    0    0    0  0.00000000000E+00  0.00000000000E+00  0.45593999997E+02  0.45594000000E+02  0.51100000000E-03 0. -1.
         11   -1    0    0    0    0 -0.00000000000E+00 -0.00000000000E+00 -0.45593999997E+02  0.45594000000E+02  0.51100000000E-03 0.  1.
    9900012    2    1    2    0    0  0.33084289803E+02  0.23265115117E+02  0.41629233499E+01  0.50528859036E+02  0.29999997525E+02 0.  0.
         12    1    1    2    0    0 -0.33084289803E+02 -0.23265115117E+02 -0.41629233499E+01  0.40659140964E+02  0.00000000000E+00 0. -1.
         11    1    3    3    0    0  0.20910117926E+02  0.11183188992E+02  0.46792567064E+01  0.24170068086E+02  0.51100000000E-03 0. -1.
        -11    1    3    3    0    0 -0.35081011982E+01  0.94388421054E+01  0.19745763173E+01  0.10261455365E+02  0.51100000000E-03 0.  1.
        -12    1    3    3    0    0  0.15682273074E+02  0.26430840198E+01 -0.24909096739E+01  0.16097335585E+02  0.00000000000E+00 0.  1.
</event>
<event>
 7    1  0.5006721E-012  0.5052886E+02  0.7816164E-02  0.1300439E+00
        -11   -1    0    0    0    0  0.00000000000E+00  0.00000000000E+00  0.45593999997E+02  0.45594000000E+02  0.51100000000E-03 0. -1.
         11   -1    0    0    0    0 -0.00000000000E+00 -0.00000000000E+00 -0.45593999997E+02  0.45594000000E+02  0.51100000000E-03 0.  1.
    9900012    2    1    2    0    0 -0.23784655979E+02 -0.12241211961E+01  0.32953868757E+02  0.50528858362E+02  0.29999995476E+02 0.  0.
        -12    1    1    2    0    0  0.23784655979E+02  0.12241211961E+01 -0.32953868757E+02  0.40659141638E+02  0.00000000000E+00 0.  1.
         11    1    3    3    0    0 -0.23190740944E+01 -0.71432409093E+01  0.20859097899E+01  0.77945503562E+01  0.51100000000E-03 0. -1.
        -11    1    3    3    0    0 -0.95377857602E+01  0.79952690953E+01  0.27472420556E+02  0.30160032769E+02  0.51100000000E-03 0.  1.
        -12    1    3    3    0    0 -0.11927796124E+02 -0.20761493821E+01  0.33955384107E+01  0.12574275237E+02  0.00000000000E+00 0.  1.
</event>
<event>
 7    1  0.5091413E-012  0.5052886E+02  0.7816164E-02  0.1300439E+00
        -11   -1    0    0    0    0  0.00000000000E+00  0.00000000000E+00  0.45593999997E+02  0.45594000000E+02  0.51100000000E-03 0. -1.
         11   -1    0    0    0    0 -0.00000000000E+00 -0.00000000000E+00 -0.45593999997E+02  0.45594000000E+02  0.51100000000E-03 0.  1.
    9900012    2    1    2    0    0  0.22866194290E+02  0.18969598706E+02  0.27757106730E+02  0.50528862154E+02  0.30000007003E+02 0.  0.
        -12    1    1    2    0    0 -0.22866194290E+02 -0.18969598706E+02 -0.27757106730E+02  0.40659137846E+02  0.00000000000E+00 0.  1.
         11    1    3    3    0    0  0.12192811988E+02  0.16338664759E+02  0.15855128676E+01  0.20448239083E+02  0.51100000000E-03 0. -1.
        -11    1    3    3    0    0  0.17463736503E+01 -0.34356920291E+01  0.49645374349E+01  0.62849369805E+01  0.51100000000E-03 0.  1.
         12    1    3    3    0    0  0.89270086512E+01  0.60666259757E+01  0.21207056427E+02  0.23795686090E+02  0.00000000000E+00 0. -1.
</event>
<event>
 7    1  0.5006721E-012  0.5052886E+02  0.7816164E-02  0.1300439E+00
        -11   -1    0    0    0    0  0.00000000000E+00  0.00000000000E+00  0.45593999997E+02  0.45594000000E+02  0.51100000000E-03 0. -1.
         11   -1    0    0    0    0 -0.00000000000E+00 -0.00000000000E+00 -0.45593999997E+02  0.45594000000E+02  0.51100000000E-03 0.  1.
    9900012    2    1    2    0    0  0.23630731126E+02  0.34593435504E+01 -0.32905731421E+02  0.50528859924E+02  0.30000000226E+02 0.  0.
         12    1    1    2    0    0 -0.23630731126E+02 -0.34593435504E+01  0.32905731421E+02  0.40659140076E+02  0.00000000000E+00 0. -1.
         11    1    3    3    0    0  0.45499222803E+01  0.87416338081E+01  0.79322086521E+00  0.98867160369E+01  0.51100000000E-03 0. -1.
        -11    1    3    3    0    0  0.11982219964E+02 -0.71163948355E+01 -0.14596607359E+02  0.20181120320E+02  0.51100000000E-03 0.  1.
         12    1    3    3    0    0  0.70985888816E+01  0.18341045778E+01 -0.19102344927E+02  0.20461023567E+02  0.00000000000E+00 0. -1.
</event>
<event>
 7    1  0.5006721E-012  0.5052894E+02  0.7816164E-02  0.1300439E+00
        -11   -1    0    0    0    0  0.00000000000E+00  0.00000000000E+00  0.45593999997E+02  0.45594000000E+02  0.51100000000E-03 0. -1.
         11   -1    0    0    0    0 -0.00000000000E+00 -0.00000000000E+00 -0.45593999997E+02  0.45594000000E+02  0.51100000000E-03 0.  1.
    9900012    2    1    2    0    0  0.19649843833E+02 -0.15646526354E+01 -0.35561141048E+02  0.50528938856E+02  0.30000240144E+02 0.  0.
         12    1    1    2    0    0 -0.19649843833E+02  0.15646526354E+01  0.35561141048E+02  0.40659061144E+02  0.00000000000E+00 0. -1.
         11    1    3    3    0    0 -0.27513777356E+01  0.10348471920E+01  0.34011920127E+01  0.44954527606E+01  0.51100000000E-03 0. -1.
        -11    1    3    3    0    0  0.14735755925E+02  0.22392364886E+01 -0.28709406857E+02  0.32347901402E+02  0.51100000000E-03 0.  1.
        -12    1    3    3    0    0  0.76654656439E+01 -0.48387363160E+01 -0.10252926203E+02  0.13685584693E+02  0.00000000000E+00 0.  1.
</event>
<event>
 7    1  0.5006721E-012  0.5052887E+02  0.7816164E-02  0.1300439E+00
        -11   -1    0    0    0    0  0.00000000000E+00  0.00000000000E+00  0.45593999997E+02  0.45594000000E+02  0.51100000000E-03 0. -1.
         11   -1    0    0    0    0 -0.00000000000E+00 -0.00000000000E+00 -0.45593999997E+02  0.45594000000E+02  0.51100000000E-03 0.  1.
    9900012    2    1    2    0    0 -0.20892173505E+02  0.25983060412E+02 -0.23271500760E+02  0.50528867080E+02  0.30000021977E+02 0.  0.
         12    1    1    2    0    0  0.20892173505E+02 -0.25983060412E+02  0.23271500760E+02  0.40659132920E+02  0.00000000000E+00 0. -1.
         11    1    3    3    0    0 -0.14778477233E+01 -0.12168726110E+01  0.48518672951E+01  0.52158824139E+01  0.51100000000E-03 0. -1.
        -11    1    3    3    0    0 -0.20099084561E+02  0.24154563129E+02 -0.28154924458E+02  0.42191419645E+02  0.51100000000E-03 0.  1.
        -12    1    3    3    0    0  0.68475877902E+00  0.30453698943E+01  0.31556402853E-01  0.31215650218E+01  0.00000000000E+00 0.  1.
</event>
<event>
 7    1  0.5006721E-012  0.5052882E+02  0.7816164E-02  0.1300439E+00
        -11   -1    0    0    0    0  0.00000000000E+00  0.00000000000E+00  0.45593999997E+02  0.45594000000E+02  0.51100000000E-03 0.  1.
         11   -1    0    0    0    0 -0.00000000000E+00 -0.00000000000E+00 -0.45593999997E+02  0.45594000000E+02  0.51100000000E-03 0. -1.
    9900012    2    1    2    0    0  0.36037696699E+02 -0.18793713271E+02 -0.11178910521E+01  0.50528819951E+02  0.29999878721E+02 0.  0.
        -12    1    1    2    0    0 -0.36037696699E+02  0.18793713271E+02  0.11178910521E+01  0.40659180049E+02  0.00000000000E+00 0.  1.
         11    1    3    3    0    0  0.24582241648E+02 -0.24626107673E+02 -0.47446993816E+01  0.35117573322E+02  0.51100000000E-03 0. -1.
        -11    1    3    3    0    0  0.45111340698E+01  0.55259709954E+01  0.44560350395E+01  0.84108819141E+01  0.51100000000E-03 0.  1.
         12    1    3    3    0    0  0.69443209814E+01  0.30642340661E+00 -0.82922671012E+00  0.70003647144E+01  0.00000000000E+00 0. -1.
</event>
<event>
 7    1  0.5006721E-012  0.5052877E+02  0.7816164E-02  0.1300439E+00
        -11   -1    0    0    0    0  0.00000000000E+00  0.00000000000E+00  0.45593999997E+02  0.45594000000E+02  0.51100000000E-03 0. -1.
         11   -1    0    0    0    0 -0.00000000000E+00 -0.00000000000E+00 -0.45593999997E+02  0.45594000000E+02  0.51100000000E-03 0.  1.
    9900012    2    1    2    0    0 -0.34177101285E+02  0.17939755364E+02  0.12777482144E+02  0.50528768271E+02  0.29999721637E+02 0.  0.
        -12    1    1    2    0    0  0.34177101285E+02 -0.17939755364E+02 -0.12777482144E+02  0.40659231729E+02  0.00000000000E+00 0.  1.
         11    1    3    3    0    0 -0.10181805844E+02  0.14410568355E+02  0.13261198340E+01  0.17694412808E+02  0.51100000000E-03 0. -1.
        -11    1    3    3    0    0 -0.24879321653E+02 -0.21203591915E+01  0.83468411046E+01  0.26327672242E+02  0.51100000000E-03 0.  1.
         12    1    3    3    0    0  0.88402621141E+00  0.56495462009E+01  0.31045212057E+01  0.65066832207E+01  0.00000000000E+00 0. -1.
</event>
<event>
 7    1  0.5006721E-012  0.5052886E+02  0.7816164E-02  0.1300439E+00
        -11   -1    0    0    0    0  0.00000000000E+00  0.00000000000E+00  0.45593999997E+02  0.45594000000E+02  0.51100000000E-03 0. -1.
         11   -1    0    0    0    0 -0.00000000000E+00 -0.00000000000E+00 -0.45593999997E+02  0.45594000000E+02  0.51100000000E-03 0.  1.
    9900012    2    1    2    0    0 -0.15899441517E+02  0.26227401984E+02 -0.26692631626E+02  0.50528862792E+02  0.30000008942E+02 0.  0.
         12    1    1    2    0    0  0.15899441517E+02 -0.26227401984E+02  0.26692631626E+02  0.40659137208E+02  0.00000000000E+00 0. -1.
         11    1    3    3    0    0 -0.82970164289E+01  0.66791461681E+01  0.54573567464E+01  0.11968049886E+02  0.51100000000E-03 0. -1.
        -11    1    3    3    0    0 -0.39304365274E+00  0.53352464136E+01 -0.77363981163E+01  0.94059126980E+01  0.51100000000E-03 0.  1.
         12    1    3    3    0    0 -0.72093814354E+01  0.14213009403E+02 -0.24413590256E+02  0.29154900208E+02  0.00000000000E+00 0. -1.
</event>
<event>
 7    1  0.5006721E-012  0.5052885E+02  0.7816164E-02  0.1300439E+00
        -11   -1    0    0    0    0  0.00000000000E+00  0.00000000000E+00  0.45593999997E+02  0.45594000000E+02  0.51100000000E-03 0.  1.
         11   -1    0    0    0    0 -0.00000000000E+00 -0.00000000000E+00 -0.45593999997E+02  0.45594000000E+02  0.51100000000E-03 0. -1.
    9900012    2    1    2    0    0  0.37826306283E+02  0.41763636719E+01  0.14314147947E+02  0.50528852297E+02  0.29999977040E+02 0.  0.
        -12    1    1    2    0    0 -0.37826306283E+02 -0.41763636719E+01 -0.14314147947E+02  0.40659147703E+02  0.00000000000E+00 0.  1.
         11    1    3    3    0    0  0.22732139442E+02  0.10855959574E+02 -0.36181279731E+01  0.25449810848E+02  0.51100000000E-03 0. -1.
        -11    1    3    3    0    0  0.72944930153E+01 -0.61694361819E+01  0.11541961950E+02  0.14982938866E+02  0.51100000000E-03 0.  1.
        -12    1    3    3    0    0  0.77996738255E+01 -0.51015972012E+00  0.63903139698E+01  0.10096102583E+02  0.00000000000E+00 0.  1.
</event>
<event>
 7    1  0.5006721E-012  0.5052887E+02  0.7816164E-02  0.1300439E+00
        -11   -1    0    0    0    0  0.00000000000E+00  0.00000000000E+00  0.45593999997E+02  0.45594000000E+02  0.51100000000E-03 0. -1.
         11   -1    0    0    0    0 -0.00000000000E+00 -0.00000000000E+00 -0.45593999997E+02  0.45594000000E+02  0.51100000000E-03 0.  1.
    9900012    2    1    2    0    0  0.12797982872E+02  0.28280108168E+02 -0.26260462791E+02  0.50528870773E+02  0.30000033200E+02 0.  0.
         12    1    1    2    0    0 -0.12797982872E+02 -0.28280108168E+02  0.26260462791E+02  0.40659129227E+02  0.00000000000E+00 0. -1.
         11    1    3    3    0    0 -0.11797900756E+01  0.79861087250E+01  0.40973132912E+01  0.90530554873E+01  0.51100000000E-03 0. -1.
        -11    1    3    3    0    0  0.13877836880E+02  0.11644767262E+02 -0.13724525825E+02  0.22727902904E+02  0.51100000000E-03 0.  1.
         12    1    3    3    0    0  0.99936067316E-01  0.86492321812E+01 -0.16633250257E+02  0.18747912381E+02  0.00000000000E+00 0. -1.
</event>
<event>
 7    1  0.5006721E-012  0.5052887E+02  0.7816164E-02  0.1300439E+00
        -11   -1    0    0    0    0  0.00000000000E+00  0.00000000000E+00  0.45593999997E+02  0.45594000000E+02  0.51100000000E-03 0. -1.
         11   -1    0    0    0    0 -0.00000000000E+00 -0.00000000000E+00 -0.45593999997E+02  0.45594000000E+02  0.51100000000E-03 0.  1.
    9900012    2    1    2    0    0 -0.37677084114E+01 -0.10524815473E+02  0.39092167134E+02  0.50528869430E+02  0.30000029120E+02 0.  0.
        -12    1    1    2    0    0  0.37677084114E+01  0.10524815473E+02 -0.39092167134E+02  0.40659130570E+02  0.00000000000E+00 0.  1.
         11    1    3    3    0    0  0.76746671804E+01 -0.67150534017E+01  0.15673533101E+02  0.18698986568E+02  0.51100000000E-03 0. -1.
        -11    1    3    3    0    0 -0.67150996049E+01 -0.26576219466E+01 -0.67173938181E+00  0.72530511630E+01  0.51100000000E-03 0.  1.
        -12    1    3    3    0    0 -0.47272759870E+01 -0.11521401251E+01  0.24090373415E+02  0.24576831700E+02  0.00000000000E+00 0.  1.
</event>
<event>
 7    1  0.5006721E-012  0.5052886E+02  0.7816164E-02  0.1300439E+00
        -11   -1    0    0    0    0  0.00000000000E+00  0.00000000000E+00  0.45593999997E+02  0.45594000000E+02  0.51100000000E-03 0. -1.
         11   -1    0    0    0    0 -0.00000000000E+00 -0.00000000000E+00 -0.45593999997E+02  0.45594000000E+02  0.51100000000E-03 0.  1.
    9900012    2    1    2    0    0 -0.10156988085E+02  0.93419200588E+01  0.38245655598E+02  0.50528855279E+02  0.29999986106E+02 0.  0.
        -12    1    1    2    0    0  0.10156988085E+02 -0.93419200588E+01 -0.38245655598E+02  0.40659144721E+02  0.00000000000E+00 0.  1.
         11    1    3    3    0    0  0.12434067097E+01 -0.45952388395E+01  0.43678728652E+01  0.64606960821E+01  0.51100000000E-03 0. -1.
        -11    1    3    3    0    0 -0.13457411032E+02  0.11038720928E+02  0.35958590401E+02  0.39949662017E+02  0.51100000000E-03 0.  1.
        -12    1    3    3    0    0  0.20570162373E+01  0.28984379704E+01 -0.20808076683E+01  0.41184971799E+01  0.00000000000E+00 0.  1.
</event>
<event>
 7    1  0.5006721E-012  0.5052883E+02  0.7816164E-02  0.1300439E+00
        -11   -1    0    0    0    0  0.00000000000E+00  0.00000000000E+00  0.45593999997E+02  0.45594000000E+02  0.51100000000E-03 0. -1.
         11   -1    0    0    0    0 -0.00000000000E+00 -0.00000000000E+00 -0.45593999997E+02  0.45594000000E+02  0.51100000000E-03 0.  1.
    9900012    2    1    2    0    0  0.23219977448E+02  0.18731927109E+01 -0.33324048543E+02  0.50528826190E+02  0.29999897688E+02 0.  0.
         12    1    1    2    0    0 -0.23219977448E+02 -0.18731927109E+01  0.33324048543E+02  0.40659173810E+02  0.00000000000E+00 0. -1.
         11    1    3    3    0    0  0.80372055043E+01  0.10216664052E+02 -0.16418908905E+01  0.13102393012E+02  0.51100000000E-03 0. -1.
        -11    1    3    3    0    0  0.13836840391E+02 -0.34807974038E+01 -0.18872648322E+02  0.23659056565E+02  0.51100000000E-03 0.  1.
         12    1    3    3    0    0  0.13459315530E+01 -0.48626739378E+01 -0.12809509330E+02  0.13767376614E+02  0.00000000000E+00 0. -1.
</event>
<event>
 7    1  0.5006721E-012  0.5052885E+02  0.7816164E-02  0.1300439E+00
        -11   -1    0    0    0    0  0.00000000000E+00  0.00000000000E+00  0.45593999997E+02  0.45594000000E+02  0.51100000000E-03 0. -1.
         11   -1    0    0    0    0 -0.00000000000E+00 -0.00000000000E+00 -0.45593999997E+02  0.45594000000E+02  0.51100000000E-03 0.  1.
    9900012    2    1    2    0    0 -0.69118652607E+01  0.76948180250E+01  0.39321529184E+02  0.50528846502E+02  0.29999959426E+02 0.  0.
        -12    1    1    2    0    0  0.69118652607E+01 -0.76948180250E+01 -0.39321529184E+02  0.40659153498E+02  0.00000000000E+00 0.  1.
         11    1    3    3    0    0 -0.28299667268E+01 -0.28680884378E+01  0.17975906184E+02  0.18421939267E+02  0.51100000000E-03 0. -1.
        -11    1    3    3    0    0  0.32252384889E+01  0.26366797882E+00 -0.31700387795E+01  0.45299923000E+01  0.51100000000E-03 0.  1.
        -12    1    3    3    0    0 -0.73071370229E+01  0.10299238484E+02  0.24515661780E+02  0.27576914935E+02  0.00000000000E+00 0.  1.
</event>
<event>
 7    1  0.5006721E-012  0.5052887E+02  0.7816164E-02  0.1300439E+00
        -11   -1    0    0    0    0  0.00000000000E+00  0.00000000000E+00  0.45593999997E+02  0.45594000000E+02  0.51100000000E-03 0. -1.
         11   -1    0    0    0    0 -0.00000000000E+00 -0.00000000000E+00 -0.45593999997E+02  0.45594000000E+02  0.51100000000E-03 0.  1.
    9900012    2    1    2    0    0  0.11211173420E+02  0.10577800594E+02  0.37624256279E+02  0.50528868979E+02  0.30000027748E+02 0.  0.
        -12    1    1    2    0    0 -0.11211173420E+02 -0.10577800594E+02 -0.37624256279E+02  0.40659131021E+02  0.00000000000E+00 0.  1.
         11    1    3    3    0    0 -0.53489987438E+00  0.13551031559E+02  0.34888951343E+01  0.14003176915E+02  0.51100000000E-03 0. -1.
        -11    1    3    3    0    0  0.57798444144E+01 -0.51047990623E+00  0.10195336951E+02  0.11730817832E+02  0.51100000000E-03 0.  1.
         12    1    3    3    0    0  0.59662288798E+01 -0.24627510587E+01  0.23940024193E+02  0.24794874232E+02  0.00000000000E+00 0. -1.
</event>
<event>
 7    1  0.5006721E-012  0.5052885E+02  0.7816164E-02  0.1300439E+00
        -11   -1    0    0    0    0  0.00000000000E+00  0.00000000000E+00  0.45593999997E+02  0.45594000000E+02  0.51100000000E-03 0. -1.
         11   -1    0    0    0    0 -0.00000000000E+00 -0.00000000000E+00 -0.45593999997E+02  0.45594000000E+02  0.51100000000E-03 0.  1.
    9900012    2    1    2    0    0 -0.63534167891E+01  0.33302460536E+02  0.22444306764E+02  0.50528847417E+02  0.29999962209E+02 0.  0.
        -12    1    1    2    0    0  0.63534167891E+01 -0.33302460536E+02 -0.22444306764E+02  0.40659152583E+02  0.00000000000E+00 0.  1.
         11    1    3    3    0    0 -0.98257427668E+01  0.32380311102E+02  0.21768495522E+02  0.40235521191E+02  0.51100000000E-03 0. -1.
        -11    1    3    3    0    0  0.66447983545E+01  0.12164592347E+01 -0.76153866157E+00  0.67980188022E+01  0.51100000000E-03 0.  1.
         12    1    3    3    0    0 -0.31724723768E+01 -0.29430980075E+00  0.14373499038E+01  0.34953074238E+01  0.00000000000E+00 0. -1.
</event>
<event>
 7    1  0.5006721E-012  0.5052890E+02  0.7816164E-02  0.1300439E+00
        -11   -1    0    0    0    0  0.00000000000E+00  0.00000000000E+00  0.45593999997E+02  0.45594000000E+02  0.51100000000E-03 0. -1.
         11   -1    0    0    0    0 -0.00000000000E+00 -0.00000000000E+00 -0.45593999997E+02  0.45594000000E+02  0.51100000000E-03 0.  1.
    9900012    2    1    2    0    0  0.20877099856E+01  0.26040982140E+02  0.31155589774E+02  0.50528904363E+02  0.30000135302E+02 0.  0.
        -12    1    1    2    0    0 -0.20877099856E+01 -0.26040982140E+02 -0.31155589774E+02  0.40659095637E+02  0.00000000000E+00 0.  1.
         11    1    3    3    0    0 -0.67166772137E+01  0.44607712474E+01  0.20175571643E+02  0.21727078135E+02  0.51100000000E-03 0. -1.
        -11    1    3    3    0    0  0.11560809266E+02  0.20723203103E+02  0.95356305433E+01  0.25574043635E+02  0.51100000000E-03 0.  1.
        -12    1    3    3    0    0 -0.27564220665E+01  0.85700778935E+00  0.14443875883E+01  0.32277825926E+01  0.00000000000E+00 0.  1.
</event>
<event>
 7    1  0.5006721E-012  0.5052887E+02  0.7816164E-02  0.1300439E+00
        -11   -1    0    0    0    0  0.00000000000E+00  0.00000000000E+00  0.45593999997E+02  0.45594000000E+02  0.51100000000E-03 0. -1.
         11   -1    0    0    0    0 -0.00000000000E+00 -0.00000000000E+00 -0.45593999997E+02  0.45594000000E+02  0.51100000000E-03 0.  1.
    9900012    2    1    2    0    0  0.26075811084E+02  0.29039644280E+02 -0.11398078586E+02  0.50528867458E+02  0.30000023126E+02 0.  0.
         12    1    1    2    0    0 -0.26075811084E+02 -0.29039644280E+02  0.11398078586E+02  0.40659132542E+02  0.00000000000E+00 0. -1.
         11    1    3    3    0    0  0.59226982431E+01  0.18878819803E+02  0.69228053616E+01  0.20962190390E+02  0.51100000000E-03 0. -1.
        -11    1    3    3    0    0  0.11925342084E+02  0.86879983648E+01 -0.10402153975E+02  0.18052698053E+02  0.51100000000E-03 0.  1.
         12    1    3    3    0    0  0.82277707568E+01  0.14728261124E+01 -0.79187299723E+01  0.11513979015E+02  0.00000000000E+00 0. -1.
</event>
<event>
 7    1  0.5006721E-012  0.5052886E+02  0.7816164E-02  0.1300439E+00
        -11   -1    0    0    0    0  0.00000000000E+00  0.00000000000E+00  0.45593999997E+02  0.45594000000E+02  0.51100000000E-03 0. -1.
         11   -1    0    0    0    0 -0.00000000000E+00 -0.00000000000E+00 -0.45593999997E+02  0.45594000000E+02  0.51100000000E-03 0.  1.
    9900012    2    1    2    0    0  0.23019957543E+02 -0.64035056178E+01  0.32897450541E+02  0.50528861033E+02  0.30000003595E+02 0.  0.
        -12    1    1    2    0    0 -0.23019957543E+02  0.64035056178E+01 -0.32897450541E+02  0.40659138967E+02  0.00000000000E+00 0.  1.
         11    1    3    3    0    0  0.17016546594E+02  0.44801873792E+01  0.10082324514E+02  0.20280241734E+02  0.51100000000E-03 0.  1.
        -11    1    3    3    0    0  0.16443798859E+01 -0.11306465752E+02  0.60649297537E+01  0.12935359530E+02  0.51100000000E-03 0. -1.
         12    1    3    3    0    0  0.43590310632E+01  0.42277275470E+00  0.16750196273E+02  0.17313259768E+02  0.00000000000E+00 0. -1.
</event>
<event>
 7    1  0.5006721E-012  0.5052887E+02  0.7816164E-02  0.1300439E+00
        -11   -1    0    0    0    0  0.00000000000E+00  0.00000000000E+00  0.45593999997E+02  0.45594000000E+02  0.51100000000E-03 0. -1.
         11   -1    0    0    0    0 -0.00000000000E+00 -0.00000000000E+00 -0.45593999997E+02  0.45594000000E+02  0.51100000000E-03 0.  1.
    9900012    2    1    2    0    0 -0.15635420944E+02 -0.18922649285E+02  0.32413444973E+02  0.50528874837E+02  0.30000045553E+02 0.  0.
        -12    1    1    2    0    0  0.15635420944E+02  0.18922649285E+02 -0.32413444973E+02  0.40659125163E+02  0.00000000000E+00 0.  1.
         11    1    3    3    0    0 -0.18935495314E+02 -0.55126615291E+01  0.88031821389E+01  0.21597185834E+02  0.51100000000E-03 0. -1.
        -11    1    3    3    0    0 -0.30145149835E+00 -0.16627630645E+00  0.85455150493E+01  0.85524469326E+01  0.51100000000E-03 0.  1.
         12    1    3    3    0    0  0.36015258684E+01 -0.13243711449E+02  0.15064747784E+02  0.20379242070E+02  0.00000000000E+00 0. -1.
</event>
<event>
 7    1  0.5006721E-012  0.5052886E+02  0.7816164E-02  0.1300439E+00
        -11   -1    0    0    0    0  0.00000000000E+00  0.00000000000E+00  0.45593999997E+02  0.45594000000E+02  0.51100000000E-03 0. -1.
         11   -1    0    0    0    0 -0.00000000000E+00 -0.00000000000E+00 -0.45593999997E+02  0.45594000000E+02  0.51100000000E-03 0.  1.
    9900012    2    1    2    0    0 -0.15630827989E+02 -0.93148385085E+01 -0.36360370068E+02  0.50528861894E+02  0.30000006213E+02 0.  0.
         12    1    1    2    0    0  0.15630827989E+02  0.93148385085E+01  0.36360370068E+02  0.40659138106E+02  0.00000000000E+00 0. -1.
         11    1    3    3    0    0  0.56169405435E+01  0.14667237431E+01 -0.40991160623E+01  0.71066203193E+01  0.51100000000E-03 0. -1.
        -11    1    3    3    0    0 -0.16924864184E+02  0.43088416093E+00 -0.20760691571E+02  0.26788859692E+02  0.51100000000E-03 0.  1.
        -12    1    3    3    0    0 -0.43229043477E+01 -0.11212446413E+02 -0.11500562435E+02  0.16633381883E+02  0.00000000000E+00 0.  1.
</event>
<event>
 7    1  0.5006721E-012  0.5052884E+02  0.7816164E-02  0.1300439E+00
        -11   -1    0    0    0    0  0.00000000000E+00  0.00000000000E+00  0.45593999997E+02  0.45594000000E+02  0.51100000000E-03 0. -1.
         11   -1    0    0    0    0 -0.00000000000E+00 -0.00000000000E+00 -0.45593999997E+02  0.45594000000E+02  0.51100000000E-03 0.  1.
    9900012    2    1    2    0    0 -0.58886688019E+01 -0.19888586366E+02  0.34970487142E+02  0.50528840406E+02  0.29999940899E+02 0.  0.
        -12    1    1    2    0    0  0.58886688019E+01  0.19888586366E+02 -0.34970487142E+02  0.40659159594E+02  0.00000000000E+00 0.  1.
         11    1    3    3    0    0 -0.52119450519E+01 -0.26020451576E+02  0.20192507473E+02  0.33346148649E+02  0.51100000000E-03 0. -1.
        -11    1    3    3    0    0 -0.31105134084E+01  0.51046004876E+01  0.87024937229E+01  0.10557728783E+02  0.51100000000E-03 0.  1.
         12    1    3    3    0    0  0.24337896584E+01  0.10272647227E+01  0.60754859468E+01  0.66249629736E+01  0.00000000000E+00 0. -1.
</event>
<event>
 7    1  0.5006721E-012  0.5052886E+02  0.7816164E-02  0.1300439E+00
        -11   -1    0    0    0    0  0.00000000000E+00  0.00000000000E+00  0.45593999997E+02  0.45594000000E+02  0.51100000000E-03 0. -1.
         11   -1    0    0    0    0 -0.00000000000E+00 -0.00000000000E+00 -0.45593999997E+02  0.45594000000E+02  0.51100000000E-03 0.  1.
    9900012    2    1    2    0    0 -0.56859654992E+01  0.46562831695E+01  0.39989432206E+02  0.50528857550E+02  0.29999993008E+02 0.  0.
        -12    1    1    2    0    0  0.56859654992E+01 -0.46562831695E+01 -0.39989432206E+02  0.40659142450E+02  0.00000000000E+00 0.  1.
         11    1    3    3    0    0 -0.99153669480E+00  0.81447934537E+01  0.21592661287E+02  0.23099000565E+02  0.51100000000E-03 0. -1.
        -11    1    3    3    0    0 -0.10500392755E+02 -0.22020786347E+00  0.34325198746E+01  0.11049386067E+02  0.51100000000E-03 0.  1.
        -12    1    3    3    0    0  0.58059639507E+01 -0.32683024207E+01  0.14964251045E+02  0.16380470917E+02  0.00000000000E+00 0.  1.
</event>
<event>
 7    1  0.5006721E-012  0.5052886E+02  0.7816164E-02  0.1300439E+00
        -11   -1    0    0    0    0  0.00000000000E+00  0.00000000000E+00  0.45593999997E+02  0.45594000000E+02  0.51100000000E-03 0. -1.
         11   -1    0    0    0    0 -0.00000000000E+00 -0.00000000000E+00 -0.45593999997E+02  0.45594000000E+02  0.51100000000E-03 0.  1.
    9900012    2    1    2    0    0  0.89979730342E+01 -0.16631639389E+02  0.35994315010E+02  0.50528860062E+02  0.30000000643E+02 0.  0.
        -12    1    1    2    0    0 -0.89979730342E+01  0.16631639389E+02 -0.35994315010E+02  0.40659139938E+02  0.00000000000E+00 0.  1.
         11    1    3    3    0    0 -0.98796471347E+01 -0.76279712746E+01  0.10486927031E+02  0.16302423504E+02  0.51100000000E-03 0. -1.
        -11    1    3    3    0    0  0.14006701432E+02 -0.96603137984E+01  0.23267593532E+02  0.28825167072E+02  0.51100000000E-03 0.  1.
        -12    1    3    3    0    0  0.48709187372E+01  0.65664568384E+00  0.22397944464E+01  0.54012694860E+01  0.00000000000E+00 0.  1.
</event>
<event>
 7    1  0.5006721E-012  0.5052886E+02  0.7816164E-02  0.1300439E+00
        -11   -1    0    0    0    0  0.00000000000E+00  0.00000000000E+00  0.45593999997E+02  0.45594000000E+02  0.51100000000E-03 0. -1.
         11   -1    0    0    0    0 -0.00000000000E+00 -0.00000000000E+00 -0.45593999997E+02  0.45594000000E+02  0.51100000000E-03 0.  1.
    9900012    2    1    2    0    0 -0.81308144011E+01 -0.10678089405E+02  0.38380123794E+02  0.50528860331E+02  0.30000001463E+02 0.  0.
        -12    1    1    2    0    0  0.81308144011E+01  0.10678089405E+02 -0.38380123794E+02  0.40659139669E+02  0.00000000000E+00 0.  1.
         11    1    3    3    0    0 -0.60153651790E+01  0.20731378957E+01  0.35094652531E+02  0.35666751401E+02  0.51100000000E-03 0. -1.
        -11    1    3    3    0    0  0.22057475175E+01 -0.50884962017E+01  0.23215184063E+01  0.60122843976E+01  0.51100000000E-03 0.  1.
         12    1    3    3    0    0 -0.43211967397E+01 -0.76627310987E+01  0.96395285684E+00  0.88498245329E+01  0.00000000000E+00 0. -1.
</event>
<event>
 7    1  0.5006721E-012  0.5052884E+02  0.7816164E-02  0.1300439E+00
        -11   -1    0    0    0    0  0.00000000000E+00  0.00000000000E+00  0.45593999997E+02  0.45594000000E+02  0.51100000000E-03 0. -1.
         11   -1    0    0    0    0 -0.00000000000E+00 -0.00000000000E+00 -0.45593999997E+02  0.45594000000E+02  0.51100000000E-03 0.  1.
    9900012    2    1    2    0    0  0.11400834650E+02  0.20873173229E+02 -0.32977246032E+02  0.50528841779E+02  0.29999945071E+02 0.  0.
         12    1    1    2    0    0 -0.11400834650E+02 -0.20873173229E+02  0.32977246032E+02  0.40659158221E+02  0.00000000000E+00 0. -1.
         11    1    3    3    0    0  0.44122961625E+01 -0.25704687633E+01 -0.71981482520E+01  0.88254748091E+01  0.51100000000E-03 0. -1.
        -11    1    3    3    0    0 -0.68236025179E+01  0.69712405246E+01 -0.14365093702E+02  0.17364206377E+02  0.51100000000E-03 0.  1.
        -12    1    3    3    0    0  0.13812141006E+02  0.16472401467E+02 -0.11414004079E+02  0.24339160593E+02  0.00000000000E+00 0.  1.
</event>
<event>
 7    1  0.5006721E-012  0.5052886E+02  0.7816164E-02  0.1300439E+00
        -11   -1    0    0    0    0  0.00000000000E+00  0.00000000000E+00  0.45593999997E+02  0.45594000000E+02  0.51100000000E-03 0. -1.
         11   -1    0    0    0    0 -0.00000000000E+00 -0.00000000000E+00 -0.45593999997E+02  0.45594000000E+02  0.51100000000E-03 0.  1.
    9900012    2    1    2    0    0 -0.47717694205E+01  0.28651789797E+01  0.40276382320E+02  0.50528855804E+02  0.29999987702E+02 0.  0.
        -12    1    1    2    0    0  0.47717694205E+01 -0.28651789797E+01 -0.40276382320E+02  0.40659144196E+02  0.00000000000E+00 0.  1.
         11    1    3    3    0    0  0.27532411210E+01  0.11474340201E+01  0.14738442373E+02  0.15037241281E+02  0.51100000000E-03 0. -1.
        -11    1    3    3    0    0 -0.15856920535E+02 -0.55561802705E+00  0.14663392199E+02  0.21604761311E+02  0.51100000000E-03 0.  1.
        -12    1    3    3    0    0  0.83319099939E+01  0.22733629866E+01  0.10874547748E+02  0.13886853212E+02  0.00000000000E+00 0.  1.
</event>
<event>
 7    1  0.5006721E-012  0.5052885E+02  0.7816164E-02  0.1300439E+00
        -11   -1    0    0    0    0  0.00000000000E+00  0.00000000000E+00  0.45593999997E+02  0.45594000000E+02  0.51100000000E-03 0. -1.
         11   -1    0    0    0    0 -0.00000000000E+00 -0.00000000000E+00 -0.45593999997E+02  0.45594000000E+02  0.51100000000E-03 0.  1.
    9900012    2    1    2    0    0 -0.26736619562E+02  0.14135617562E+02  0.27175425464E+02  0.50528852707E+02  0.29999978287E+02 0.  0.
        -12    1    1    2    0    0  0.26736619562E+02 -0.14135617562E+02 -0.27175425464E+02  0.40659147293E+02  0.00000000000E+00 0.  1.
         11    1    3    3    0    0 -0.14524711925E+02  0.16096835849E+01  0.22886464256E+02  0.27154163293E+02  0.51100000000E-03 0. -1.
        -11    1    3    3    0    0  0.33701831705E+01  0.15878603619E+01  0.19163152958E+01  0.41894748723E+01  0.51100000000E-03 0.  1.
         12    1    3    3    0    0 -0.15582090808E+02  0.10938073616E+02  0.23726459118E+01  0.19185214541E+02  0.00000000000E+00 0. -1.
</event>
<event>
 7    1  0.5006721E-012  0.5052885E+02  0.7816164E-02  0.1300439E+00
        -11   -1    0    0    0    0  0.00000000000E+00  0.00000000000E+00  0.45593999997E+02  0.45594000000E+02  0.51100000000E-03 0. -1.
         11   -1    0    0    0    0 -0.00000000000E+00 -0.00000000000E+00 -0.45593999997E+02  0.45594000000E+02  0.51100000000E-03 0.  1.
    9900012    2    1    2    0    0  0.34365572457E+02 -0.31083901034E+01 -0.21506083081E+02  0.50528852581E+02  0.29999977905E+02 0.  0.
         12    1    1    2    0    0 -0.34365572457E+02  0.31083901034E+01  0.21506083081E+02  0.40659147419E+02  0.00000000000E+00 0. -1.
         11    1    3    3    0    0  0.10577629364E+02  0.83299241585E+01  0.42667129865E+00  0.13470557825E+02  0.51100000000E-03 0.  1.
        -11    1    3    3    0    0  0.95068567751E+01 -0.11908451243E+02 -0.14114357211E+02  0.20770330197E+02  0.51100000000E-03 0. -1.
         12    1    3    3    0    0  0.14281086318E+02  0.47013698111E+00 -0.78183971687E+01  0.16287964560E+02  0.00000000000E+00 0. -1.
</event>
<event>
 7    1  0.5006721E-012  0.5052885E+02  0.7816164E-02  0.1300439E+00
        -11   -1    0    0    0    0  0.00000000000E+00  0.00000000000E+00  0.45593999997E+02  0.45594000000E+02  0.51100000000E-03 0. -1.
         11   -1    0    0    0    0 -0.00000000000E+00 -0.00000000000E+00 -0.45593999997E+02  0.45594000000E+02  0.51100000000E-03 0.  1.
    9900012    2    1    2    0    0  0.26386047827E+01  0.22548857006E+02  0.33730596808E+02  0.50528851602E+02  0.29999974928E+02 0.  0.
        -12    1    1    2    0    0 -0.26386047827E+01 -0.22548857006E+02 -0.33730596808E+02  0.40659148398E+02  0.00000000000E+00 0.  1.
         11    1    3    3    0    0  0.38552857229E+01  0.91207070955E+01  0.23451421677E+02  0.25456231160E+02  0.51100000000E-03 0. -1.
        -11    1    3    3    0    0 -0.46260554476E+01  0.15242194854E+02  0.21505999514E+01  0.16073268908E+02  0.51100000000E-03 0.  1.
        -12    1    3    3    0    0  0.34093745073E+01 -0.18140449434E+01  0.81285751797E+01  0.89993515344E+01  0.00000000000E+00 0.  1.
</event>
<event>
 7    1  0.5006721E-012  0.5052882E+02  0.7816164E-02  0.1300439E+00
        -11   -1    0    0    0    0  0.00000000000E+00  0.00000000000E+00  0.45593999997E+02  0.45594000000E+02  0.51100000000E-03 0.  1.
         11   -1    0    0    0    0 -0.00000000000E+00 -0.00000000000E+00 -0.45593999997E+02  0.45594000000E+02  0.51100000000E-03 0. -1.
    9900012    2    1    2    0    0 -0.30373413169E+02 -0.10517518729E+02 -0.24899924302E+02  0.50528823201E+02  0.29999888600E+02 0.  0.
         12    1    1    2    0    0  0.30373413169E+02  0.10517518729E+02  0.24899924302E+02  0.40659176799E+02  0.00000000000E+00 0. -1.
         11    1    3    3    0    0 -0.21149591877E+02  0.37409584294E+01 -0.11081272255E+02  0.24168049189E+02  0.51100000000E-03 0. -1.
        -11    1    3    3    0    0 -0.10448767402E+02 -0.12049369991E+02 -0.16310740996E+02  0.22812372291E+02  0.51100000000E-03 0.  1.
         12    1    3    3    0    0  0.12249461103E+01 -0.22091071667E+01  0.24920889488E+01  0.35484017213E+01  0.00000000000E+00 0. -1.
</event>
<event>
 7    1  0.5006721E-012  0.5052886E+02  0.7816164E-02  0.1300439E+00
        -11   -1    0    0    0    0  0.00000000000E+00  0.00000000000E+00  0.45593999997E+02  0.45594000000E+02  0.51100000000E-03 0. -1.
         11   -1    0    0    0    0 -0.00000000000E+00 -0.00000000000E+00 -0.45593999997E+02  0.45594000000E+02  0.51100000000E-03 0.  1.
    9900012    2    1    2    0    0  0.22393155392E+02  0.26903751040E+02  0.20685755102E+02  0.50528859668E+02  0.29999999446E+02 0.  0.
        -12    1    1    2    0    0 -0.22393155392E+02 -0.26903751040E+02 -0.20685755102E+02  0.40659140332E+02  0.00000000000E+00 0.  1.
         11    1    3    3    0    0  0.20633501870E+01  0.10090465717E+02  0.35216763313E+00  0.10305286735E+02  0.51100000000E-03 0. -1.
        -11    1    3    3    0    0  0.21145363829E+02  0.38161052508E+01  0.10562677019E+02  0.23942832264E+02  0.51100000000E-03 0.  1.
        -12    1    3    3    0    0 -0.81555862455E+00  0.12997180072E+02  0.97709104503E+01  0.16280740669E+02  0.00000000000E+00 0.  1.
</event>
<event>
 7    1  0.5006721E-012  0.5052886E+02  0.7816164E-02  0.1300439E+00
        -11   -1    0    0    0    0  0.00000000000E+00  0.00000000000E+00  0.45593999997E+02  0.45594000000E+02  0.51100000000E-03 0. -1.
         11   -1    0    0    0    0 -0.00000000000E+00 -0.00000000000E+00 -0.45593999997E+02  0.45594000000E+02  0.51100000000E-03 0.  1.
    9900012    2    1    2    0    0  0.21631624100E+02 -0.10166460379E+02  0.32891971887E+02  0.50528857209E+02  0.29999991973E+02 0.  0.
        -12    1    1    2    0    0 -0.21631624100E+02  0.10166460379E+02 -0.32891971887E+02  0.40659142791E+02  0.00000000000E+00 0.  1.
         11    1    3    3    0    0  0.56278463995E+01 -0.56973669888E+01  0.19217770705E+02  0.20819590698E+02  0.51100000000E-03 0. -1.
        -11    1    3    3    0    0  0.17115913391E+02 -0.10393124287E+02  0.84549646152E+01  0.21736097869E+02  0.51100000000E-03 0.  1.
         12    1    3    3    0    0 -0.11121356898E+01  0.59240308970E+01  0.52192365667E+01  0.79731686424E+01  0.00000000000E+00 0. -1.
</event>
<event>
 7    1  0.5006721E-012  0.5052885E+02  0.7816164E-02  0.1300439E+00
        -11   -1    0    0    0    0  0.00000000000E+00  0.00000000000E+00  0.45593999997E+02  0.45594000000E+02  0.51100000000E-03 0. -1.
         11   -1    0    0    0    0 -0.00000000000E+00 -0.00000000000E+00 -0.45593999997E+02  0.45594000000E+02  0.51100000000E-03 0.  1.
    9900012    2    1    2    0    0  0.41653407966E+01  0.32914703944E+02  0.23504008493E+02  0.50528853244E+02  0.29999979920E+02 0.  0.
        -12    1    1    2    0    0 -0.41653407966E+01 -0.32914703944E+02 -0.23504008493E+02  0.40659146756E+02  0.00000000000E+00 0.  1.
         11    1    3    3    0    0 -0.44805238238E+01  0.13834701844E+02  0.83361424382E+01  0.16762020757E+02  0.51100000000E-03 0. -1.
        -11    1    3    3    0    0  0.56000509400E+01  0.18391550986E+01 -0.45144598121E+01  0.74245141029E+01  0.51100000000E-03 0.  1.
        -12    1    3    3    0    0  0.30458136805E+01  0.17240847002E+02  0.19682325867E+02  0.26342318384E+02  0.00000000000E+00 0.  1.
</event>
<event>
 7    1  0.5006721E-012  0.5052886E+02  0.7816164E-02  0.1300439E+00
        -11   -1    0    0    0    0  0.00000000000E+00  0.00000000000E+00  0.45593999997E+02  0.45594000000E+02  0.51100000000E-03 0. -1.
         11   -1    0    0    0    0 -0.00000000000E+00 -0.00000000000E+00 -0.45593999997E+02  0.45594000000E+02  0.51100000000E-03 0.  1.
    9900012    2    1    2    0    0 -0.80880829098E+01 -0.27053975288E+02  0.29254586459E+02  0.50528862123E+02  0.30000006909E+02 0.  0.
        -12    1    1    2    0    0  0.80880829098E+01  0.27053975288E+02 -0.29254586459E+02  0.40659137877E+02  0.00000000000E+00 0.  1.
         11    1    3    3    0    0 -0.29031451774E+01 -0.75034410714E+01  0.11473048581E+02  0.14012877072E+02  0.51100000000E-03 0. -1.
        -11    1    3    3    0    0 -0.37679963541E+01  0.25891037767E+01 -0.35124509875E+01  0.57652898532E+01  0.51100000000E-03 0.  1.
        -12    1    3    3    0    0 -0.14169413783E+01 -0.22139637993E+02  0.21293988865E+02  0.30750695198E+02  0.00000000000E+00 0.  1.
</event>
<event>
 7    1  0.5006721E-012  0.5052886E+02  0.7816164E-02  0.1300439E+00
        -11   -1    0    0    0    0  0.00000000000E+00  0.00000000000E+00  0.45593999997E+02  0.45594000000E+02  0.51100000000E-03 0. -1.
         11   -1    0    0    0    0 -0.00000000000E+00 -0.00000000000E+00 -0.45593999997E+02  0.45594000000E+02  0.51100000000E-03 0.  1.
    9900012    2    1    2    0    0  0.13723208284E+02  0.29780146859E+02 -0.24041258057E+02  0.50528859803E+02  0.29999999858E+02 0.  0.
         12    1    1    2    0    0 -0.13723208284E+02 -0.29780146859E+02  0.24041258057E+02  0.40659140197E+02  0.00000000000E+00 0. -1.
         11    1    3    3    0    0 -0.22050711097E-01 -0.47205873928E+01 -0.57784056871E+00  0.47558733741E+01  0.51100000000E-03 0. -1.
        -11    1    3    3    0    0  0.47717418060E+01  0.20815095627E+02 -0.67861101040E+01  0.22407342914E+02  0.51100000000E-03 0.  1.
        -12    1    3    3    0    0  0.89735171889E+01  0.13685638624E+02 -0.16677307385E+02  0.23365643516E+02  0.00000000000E+00 0.  1.
</event>
<event>
 7    1  0.5006721E-012  0.5052886E+02  0.7816164E-02  0.1300439E+00
        -11   -1    0    0    0    0  0.00000000000E+00  0.00000000000E+00  0.45593999997E+02  0.45594000000E+02  0.51100000000E-03 0. -1.
         11   -1    0    0    0    0 -0.00000000000E+00 -0.00000000000E+00 -0.45593999997E+02  0.45594000000E+02  0.51100000000E-03 0.  1.
    9900012    2    1    2    0    0  0.10687461576E+02 -0.23191060299E+02  0.31640459712E+02  0.50528858303E+02  0.29999995297E+02 0.  0.
        -12    1    1    2    0    0 -0.10687461576E+02  0.23191060299E+02 -0.31640459712E+02  0.40659141697E+02  0.00000000000E+00 0.  1.
         11    1    3    3    0    0  0.81286178872E+00 -0.69587729701E+01  0.17134397499E+02  0.18511424673E+02  0.51100000000E-03 0. -1.
        -11    1    3    3    0    0  0.53421326920E+01  0.32778223124E+01 -0.14216858457E+01  0.64267948244E+01  0.51100000000E-03 0.  1.
        -12    1    3    3    0    0  0.45324670955E+01 -0.19510109642E+02  0.15927748059E+02  0.25590638805E+02  0.00000000000E+00 0.  1.
</event>
<event>
 7    1  0.5006721E-012  0.5052887E+02  0.7816164E-02  0.1300439E+00
        -11   -1    0    0    0    0  0.00000000000E+00  0.00000000000E+00  0.45593999997E+02  0.45594000000E+02  0.51100000000E-03 0. -1.
         11   -1    0    0    0    0 -0.00000000000E+00 -0.00000000000E+00 -0.45593999997E+02  0.45594000000E+02  0.51100000000E-03 0.  1.
    9900012    2    1    2    0    0  0.27015495011E+02  0.65981138067E+01 -0.29661303168E+02  0.50528868404E+02  0.30000026000E+02 0.  0.
         12    1    1    2    0    0 -0.27015495011E+02 -0.65981138067E+01  0.29661303168E+02  0.40659131596E+02  0.00000000000E+00 0. -1.
         11    1    3    3    0    0  0.76093303731E+01 -0.82474839954E+00  0.37754436216E+01  0.85344064498E+01  0.51100000000E-03 0. -1.
        -11    1    3    3    0    0  0.20044346250E+02  0.39408168940E+01 -0.32406067931E+02  0.38307428697E+02  0.51100000000E-03 0.  1.
         12    1    3    3    0    0 -0.63818161204E+00  0.34820453123E+01 -0.10306788590E+01  0.36870332569E+01  0.00000000000E+00 0. -1.
</event>
<event>
 7    1  0.5006721E-012  0.5052886E+02  0.7816164E-02  0.1300439E+00
        -11   -1    0    0    0    0  0.00000000000E+00  0.00000000000E+00  0.45593999997E+02  0.45594000000E+02  0.51100000000E-03 0. -1.
         11   -1    0    0    0    0 -0.00000000000E+00 -0.00000000000E+00 -0.45593999997E+02  0.45594000000E+02  0.51100000000E-03 0.  1.
    9900012    2    1    2    0    0 -0.15440820235E+02 -0.11384405000E+01  0.37595881205E+02  0.50528864989E+02  0.30000015619E+02 0.  0.
        -12    1    1    2    0    0  0.15440820235E+02  0.11384405000E+01 -0.37595881205E+02  0.40659135011E+02  0.00000000000E+00 0.  1.
         11    1    3    3    0    0 -0.12973378003E+02 -0.34462914384E+01  0.74477085682E+01  0.15351020313E+02  0.51100000000E-03 0. -1.
        -11    1    3    3    0    0 -0.81487783585E+01  0.25962328079E+01  0.27690237163E+02  0.28980894533E+02  0.51100000000E-03 0.  1.
        -12    1    3    3    0    0  0.56813361258E+01 -0.28838186952E+00  0.24579354741E+01  0.61969501427E+01  0.00000000000E+00 0.  1.
</event>
<event>
 7    1  0.5006721E-012  0.5052886E+02  0.7816164E-02  0.1300439E+00
        -11   -1    0    0    0    0  0.00000000000E+00  0.00000000000E+00  0.45593999997E+02  0.45594000000E+02  0.51100000000E-03 0. -1.
         11   -1    0    0    0    0 -0.00000000000E+00 -0.00000000000E+00 -0.45593999997E+02  0.45594000000E+02  0.51100000000E-03 0.  1.
    9900012    2    1    2    0    0  0.33032959512E+02 -0.10045167357E+02  0.21472864486E+02  0.50528859446E+02  0.29999998772E+02 0.  0.
        -12    1    1    2    0    0 -0.33032959512E+02  0.10045167357E+02 -0.21472864486E+02  0.40659140554E+02  0.00000000000E+00 0.  1.
         11    1    3    3    0    0  0.31800183030E+01  0.41493442928E+01  0.11043622793E+02  0.12218476956E+02  0.51100000000E-03 0.  1.
        -11    1    3    3    0    0  0.18511763992E+02 -0.15922408629E+02  0.29017630947E+01  0.24589199498E+02  0.51100000000E-03 0. -1.
         12    1    3    3    0    0  0.11341177218E+02  0.17278969788E+01  0.75274785974E+01  0.13721182992E+02  0.00000000000E+00 0. -1.
</event>
<event>
 7    1  0.5006721E-012  0.5052886E+02  0.7816164E-02  0.1300439E+00
        -11   -1    0    0    0    0  0.00000000000E+00  0.00000000000E+00  0.45593999997E+02  0.45594000000E+02  0.51100000000E-03 0. -1.
         11   -1    0    0    0    0 -0.00000000000E+00 -0.00000000000E+00 -0.45593999997E+02  0.45594000000E+02  0.51100000000E-03 0.  1.
    9900012    2    1    2    0    0  0.26909291329E+02  0.25338383459E+02 -0.16941735623E+02  0.50528855370E+02  0.29999986382E+02 0.  0.
         12    1    1    2    0    0 -0.26909291329E+02 -0.25338383459E+02  0.16941735623E+02  0.40659144630E+02  0.00000000000E+00 0. -1.
         11    1    3    3    0    0  0.86754867825E+01  0.10202868412E+01 -0.15325691670E+01  0.88686991529E+01  0.51100000000E-03 0. -1.
        -11    1    3    3    0    0  0.13956056238E+02  0.21434789905E+02 -0.17725333660E+00  0.25578372563E+02  0.51100000000E-03 0.  1.
        -12    1    3    3    0    0  0.42777483085E+01  0.28833067129E+01 -0.15231913120E+02  0.16081783653E+02  0.00000000000E+00 0.  1.
</event>
<event>
 7    1  0.5006721E-012  0.5052885E+02  0.7816164E-02  0.1300439E+00
        -11   -1    0    0    0    0  0.00000000000E+00  0.00000000000E+00  0.45593999997E+02  0.45594000000E+02  0.51100000000E-03 0. -1.
         11   -1    0    0    0    0 -0.00000000000E+00 -0.00000000000E+00 -0.45593999997E+02  0.45594000000E+02  0.51100000000E-03 0.  1.
    9900012    2    1    2    0    0 -0.17826223328E+02 -0.23054771265E+02  0.28352599799E+02  0.50528848120E+02  0.29999964346E+02 0.  0.
        -12    1    1    2    0    0  0.17826223328E+02  0.23054771265E+02 -0.28352599799E+02  0.40659151880E+02  0.00000000000E+00 0.  1.
         11    1    3    3    0    0 -0.13707687936E+02 -0.16795763138E+02  0.97277895568E+01  0.23761907707E+02  0.51100000000E-03 0. -1.
        -11    1    3    3    0    0  0.48878415395E+01 -0.85740991260E+01  0.10608055532E+02  0.14489203331E+02  0.51100000000E-03 0.  1.
        -12    1    3    3    0    0 -0.90063769313E+01  0.23150909997E+01  0.80167547105E+01  0.12277737082E+02  0.00000000000E+00 0.  1.
</event>
<event>
 7    1  0.5006721E-012  0.5052886E+02  0.7816164E-02  0.1300439E+00
        -11   -1    0    0    0    0  0.00000000000E+00  0.00000000000E+00  0.45593999997E+02  0.45594000000E+02  0.51100000000E-03 0.  1.
         11   -1    0    0    0    0 -0.00000000000E+00 -0.00000000000E+00 -0.45593999997E+02  0.45594000000E+02  0.51100000000E-03 0. -1.
    9900012    2    1    2    0    0  0.24009409956E+02 -0.33703233459E+01 -0.32639776776E+02  0.50528857438E+02  0.29999992669E+02 0.  0.
         12    1    1    2    0    0 -0.24009409956E+02  0.33703233459E+01  0.32639776776E+02  0.40659142562E+02  0.00000000000E+00 0. -1.
         11    1    3    3    0    0  0.23221924870E+02  0.67665304155E+01 -0.22351578999E+02  0.32933824748E+02  0.51100000000E-03 0. -1.
        -11    1    3    3    0    0  0.53383076127E+01 -0.66275086847E+01 -0.57197695803E+01  0.10253641492E+02  0.51100000000E-03 0.  1.
         12    1    3    3    0    0 -0.45508225267E+01 -0.35093450767E+01 -0.45684281963E+01  0.73413911979E+01  0.00000000000E+00 0. -1.
</event>
<event>
 7    1  0.5006721E-012  0.5052885E+02  0.7816164E-02  0.1300439E+00
        -11   -1    0    0    0    0  0.00000000000E+00  0.00000000000E+00  0.45593999997E+02  0.45594000000E+02  0.51100000000E-03 0.  1.
         11   -1    0    0    0    0 -0.00000000000E+00 -0.00000000000E+00 -0.45593999997E+02  0.45594000000E+02  0.51100000000E-03 0. -1.
    9900012    2    1    2    0    0 -0.18062395541E+02  0.14450827703E+02  0.33437848683E+02  0.50528852462E+02  0.29999977544E+02 0.  0.
        -12    1    1    2    0    0  0.18062395541E+02 -0.14450827703E+02 -0.33437848683E+02  0.40659147538E+02  0.00000000000E+00 0.  1.
         11    1    3    3    0    0 -0.17740283038E+02  0.13714827714E+02  0.36097401928E+02  0.42495135812E+02  0.51100000000E-03 0. -1.
        -11    1    3    3    0    0  0.79103521938E+00  0.37471054446E+01 -0.29156156803E+01  0.48132474472E+01  0.51100000000E-03 0.  1.
        -12    1    3    3    0    0 -0.11131477222E+01 -0.30111054557E+01  0.25606243518E+00  0.32204692030E+01  0.00000000000E+00 0.  1.
</event>
<event>
 7    1  0.5006721E-012  0.5052885E+02  0.7816164E-02  0.1300439E+00
        -11   -1    0    0    0    0  0.00000000000E+00  0.00000000000E+00  0.45593999997E+02  0.45594000000E+02  0.51100000000E-03 0. -1.
         11   -1    0    0    0    0 -0.00000000000E+00 -0.00000000000E+00 -0.45593999997E+02  0.45594000000E+02  0.51100000000E-03 0.  1.
    9900012    2    1    2    0    0 -0.63533376405E+01  0.23369057457E+02  0.32660202539E+02  0.50528848810E+02  0.29999966442E+02 0.  0.
        -12    1    1    2    0    0  0.63533376405E+01 -0.23369057457E+02 -0.32660202539E+02  0.40659151190E+02  0.00000000000E+00 0.  1.
         11    1    3    3    0    0 -0.42923823102E+01 -0.20518168840E+01  0.10549348741E+02  0.11572521659E+02  0.51100000000E-03 0. -1.
        -11    1    3    3    0    0  0.83447402609E+01  0.13455582774E+02  0.80451010591E+01  0.17759815572E+02  0.51100000000E-03 0.  1.
        -12    1    3    3    0    0 -0.10405695591E+02  0.11965291567E+02  0.14065752739E+02  0.21196511579E+02  0.00000000000E+00 0.  1.
</event>
<event>
 7    1  0.5006721E-012  0.5052886E+02  0.7816164E-02  0.1300439E+00
        -11   -1    0    0    0    0  0.00000000000E+00  0.00000000000E+00  0.45593999997E+02  0.45594000000E+02  0.51100000000E-03 0. -1.
         11   -1    0    0    0    0 -0.00000000000E+00 -0.00000000000E+00 -0.45593999997E+02  0.45594000000E+02  0.51100000000E-03 0.  1.
    9900012    2    1    2    0    0 -0.31531780285E+02  0.16804251038E+02 -0.19404381587E+02  0.50528855325E+02  0.29999986247E+02 0.  0.
         12    1    1    2    0    0  0.31531780285E+02 -0.16804251038E+02  0.19404381587E+02  0.40659144675E+02  0.00000000000E+00 0. -1.
         11    1    3    3    0    0  0.22606743181E+01  0.20652329648E+01 -0.54426694600E+01  0.62448768349E+01  0.51100000000E-03 0. -1.
        -11    1    3    3    0    0 -0.34125639502E+02  0.87217909202E+01 -0.86936852173E+01  0.36279595797E+02  0.51100000000E-03 0.  1.
        -12    1    3    3    0    0  0.33318489813E+00  0.60172271528E+01 -0.52680269097E+01  0.80043826936E+01  0.00000000000E+00 0.  1.
</event>
<event>
 7    1  0.5006721E-012  0.5052886E+02  0.7816164E-02  0.1300439E+00
        -11   -1    0    0    0    0  0.00000000000E+00  0.00000000000E+00  0.45593999997E+02  0.45594000000E+02  0.51100000000E-03 0. -1.
         11   -1    0    0    0    0 -0.00000000000E+00 -0.00000000000E+00 -0.45593999997E+02  0.45594000000E+02  0.51100000000E-03 0.  1.
    9900012    2    1    2    0    0  0.19689696410E+02 -0.28369716351E+02 -0.21462540725E+02  0.50528860745E+02  0.30000002721E+02 0.  0.
         12    1    1    2    0    0 -0.19689696410E+02  0.28369716351E+02  0.21462540725E+02  0.40659139255E+02  0.00000000000E+00 0. -1.
         11    1    3    3    0    0  0.87798340806E+01 -0.41891101250E+01 -0.65704410823E+00  0.97501711444E+01  0.51100000000E-03 0. -1.
        -11    1    3    3    0    0 -0.45265703913E+01 -0.16500026209E+02 -0.62528036373E+01  0.18216428245E+02  0.51100000000E-03 0.  1.
        -12    1    3    3    0    0  0.15436432721E+02 -0.76805800171E+01 -0.14552692979E+02  0.22562261356E+02  0.00000000000E+00 0.  1.
</event>
<event>
 7    1  0.5006721E-012  0.5052900E+02  0.7816164E-02  0.1300438E+00
        -11   -1    0    0    0    0  0.00000000000E+00  0.00000000000E+00  0.45593999997E+02  0.45594000000E+02  0.51100000000E-03 0. -1.
         11   -1    0    0    0    0 -0.00000000000E+00 -0.00000000000E+00 -0.45593999997E+02  0.45594000000E+02  0.51100000000E-03 0.  1.
    9900012    2    1    2    0    0 -0.43501784975E+01  0.23981996717E+01 -0.40354415203E+02  0.50529000492E+02  0.30000427494E+02 0.  0.
         12    1    1    2    0    0  0.43501784975E+01 -0.23981996717E+01  0.40354415203E+02  0.40658999508E+02  0.00000000000E+00 0. -1.
         11    1    3    3    0    0 -0.81612506820E+01 -0.65121084953E+01 -0.13883245354E+02  0.17371185094E+02  0.51100000000E-03 0. -1.
        -11    1    3    3    0    0  0.61626529346E+01  0.12872752936E+02 -0.14567959081E+02  0.20393908193E+02  0.51100000000E-03 0.  1.
        -12    1    3    3    0    0 -0.23515807501E+01 -0.39624447688E+01 -0.11903210768E+02  0.12763907206E+02  0.00000000000E+00 0.  1.
</event>
<event>
 7    1  0.5006721E-012  0.5052886E+02  0.7816164E-02  0.1300439E+00
        -11   -1    0    0    0    0  0.00000000000E+00  0.00000000000E+00  0.45593999997E+02  0.45594000000E+02  0.51100000000E-03 0. -1.
         11   -1    0    0    0    0 -0.00000000000E+00 -0.00000000000E+00 -0.45593999997E+02  0.45594000000E+02  0.51100000000E-03 0.  1.
    9900012    2    1    2    0    0  0.14308046546E+02 -0.34180449162E+02  0.16737446003E+02  0.50528863271E+02  0.30000010398E+02 0.  0.
        -12    1    1    2    0    0 -0.14308046546E+02  0.34180449162E+02 -0.16737446003E+02  0.40659136729E+02  0.00000000000E+00 0.  1.
         11    1    3    3    0    0  0.14853946435E+02 -0.40547708026E+01  0.12309107774E+02  0.19712813737E+02  0.51100000000E-03 0. -1.
        -11    1    3    3    0    0 -0.73589184342E+00 -0.91602315922E+01 -0.74821684960E+00  0.92201522951E+01  0.51100000000E-03 0.  1.
         12    1    3    3    0    0  0.18999195348E+00 -0.20965446767E+02  0.51765550786E+01  0.21595897239E+02  0.00000000000E+00 0. -1.
</event>
<event>
 7    1  0.5006721E-012  0.5052890E+02  0.7816164E-02  0.1300439E+00
        -11   -1    0    0    0    0  0.00000000000E+00  0.00000000000E+00  0.45593999997E+02  0.45594000000E+02  0.51100000000E-03 0. -1.
         11   -1    0    0    0    0 -0.00000000000E+00 -0.00000000000E+00 -0.45593999997E+02  0.45594000000E+02  0.51100000000E-03 0.  1.
    9900012    2    1    2    0    0 -0.37778504094E+02  0.10985556999E+02  0.10259853606E+02  0.50528899787E+02  0.30000121392E+02 0.  0.
        -12    1    1    2    0    0  0.37778504094E+02 -0.10985556999E+02 -0.10259853606E+02  0.40659100213E+02  0.00000000000E+00 0.  1.
         11    1    3    3    0    0 -0.24170022078E+02 -0.66372186339E+01  0.40304658960E+01  0.25386754303E+02  0.51100000000E-03 0. -1.
        -11    1    3    3    0    0 -0.37895426419E+00  0.63744233368E+01  0.42362193589E+01  0.76630564352E+01  0.51100000000E-03 0.  1.
         12    1    3    3    0    0 -0.13229527751E+02  0.11248352296E+02  0.19931683507E+01  0.17479089049E+02  0.00000000000E+00 0. -1.
</event>
<event>
 7    1  0.5006721E-012  0.5052886E+02  0.7816164E-02  0.1300439E+00
        -11   -1    0    0    0    0  0.00000000000E+00  0.00000000000E+00  0.45593999997E+02  0.45594000000E+02  0.51100000000E-03 0.  1.
         11   -1    0    0    0    0 -0.00000000000E+00 -0.00000000000E+00 -0.45593999997E+02  0.45594000000E+02  0.51100000000E-03 0. -1.
    9900012    2    1    2    0    0  0.23308376006E+02  0.14705110312E+02 -0.29893895937E+02  0.50528859876E+02  0.30000000078E+02 0.  0.
         12    1    1    2    0    0 -0.23308376006E+02 -0.14705110312E+02  0.29893895937E+02  0.40659140124E+02  0.00000000000E+00 0. -1.
         11    1    3    3    0    0 -0.61011158366E+01  0.66060116327E+01 -0.61392477233E+01  0.10888221481E+02  0.51100000000E-03 0. -1.
        -11    1    3    3    0    0  0.11956007549E+02  0.43853355452E+01 -0.15265698744E+02  0.19880111739E+02  0.51100000000E-03 0.  1.
         12    1    3    3    0    0  0.17453484294E+02  0.37137631345E+01 -0.84889494695E+01  0.19760526656E+02  0.00000000000E+00 0. -1.
</event>
<event>
 7    1  0.5006721E-012  0.5052887E+02  0.7816164E-02  0.1300439E+00
        -11   -1    0    0    0    0  0.00000000000E+00  0.00000000000E+00  0.45593999997E+02  0.45594000000E+02  0.51100000000E-03 0. -1.
         11   -1    0    0    0    0 -0.00000000000E+00 -0.00000000000E+00 -0.45593999997E+02  0.45594000000E+02  0.51100000000E-03 0.  1.
    9900012    2    1    2    0    0 -0.35403423899E+02 -0.84302761336E+01  0.18129897624E+02  0.50528866127E+02  0.30000019080E+02 0.  0.
        -12    1    1    2    0    0  0.35403423899E+02  0.84302761336E+01 -0.18129897624E+02  0.40659133873E+02  0.00000000000E+00 0.  1.
         11    1    3    3    0    0 -0.32318927848E+02 -0.70006304770E+01  0.11515960273E+02  0.35016271440E+02  0.51100000000E-03 0. -1.
        -11    1    3    3    0    0 -0.37184392863E+01 -0.59232245109E+01  0.81335189659E+01  0.10726859296E+02  0.51100000000E-03 0.  1.
         12    1    3    3    0    0  0.63394323557E+00  0.44935788542E+01 -0.15195816149E+01  0.47857353906E+01  0.00000000000E+00 0. -1.
</event>
<event>
 7    1  0.5006721E-012  0.5052886E+02  0.7816164E-02  0.1300439E+00
        -11   -1    0    0    0    0  0.00000000000E+00  0.00000000000E+00  0.45593999997E+02  0.45594000000E+02  0.51100000000E-03 0. -1.
         11   -1    0    0    0    0 -0.00000000000E+00 -0.00000000000E+00 -0.45593999997E+02  0.45594000000E+02  0.51100000000E-03 0.  1.
    9900012    2    1    2    0    0  0.20899277966E+02 -0.31334936129E+02 -0.15313629921E+02  0.50528864458E+02  0.30000014005E+02 0.  0.
         12    1    1    2    0    0 -0.20899277966E+02  0.31334936129E+02  0.15313629921E+02  0.40659135542E+02  0.00000000000E+00 0. -1.
         11    1    3    3    0    0  0.15268333291E+02 -0.95415283588E+01  0.10470514135E+01  0.18034940583E+02  0.51100000000E-03 0. -1.
        -11    1    3    3    0    0  0.72531476574E+01 -0.21497717968E+02 -0.18857364001E+02  0.29501867841E+02  0.51100000000E-03 0.  1.
         12    1    3    3    0    0 -0.16222029821E+01 -0.29568980248E+00  0.24966826667E+01  0.29920560344E+01  0.00000000000E+00 0. -1.
</event>
<event>
 7    1  0.5006721E-012  0.5052885E+02  0.7816164E-02  0.1300439E+00
        -11   -1    0    0    0    0  0.00000000000E+00  0.00000000000E+00  0.45593999997E+02  0.45594000000E+02  0.51100000000E-03 0.  1.
         11   -1    0    0    0    0 -0.00000000000E+00 -0.00000000000E+00 -0.45593999997E+02  0.45594000000E+02  0.51100000000E-03 0. -1.
    9900012    2    1    2    0    0 -0.13231467100E+02 -0.35381815847E+02  0.15040667450E+02  0.50528852301E+02  0.29999977055E+02 0.  0.
         12    1    1    2    0    0  0.13231467100E+02  0.35381815847E+02 -0.15040667450E+02  0.40659147699E+02  0.00000000000E+00 0. -1.
         11    1    3    3    0    0 -0.81622603724E+01  0.12962111779E+00  0.54818937520E+01  0.98331304980E+01  0.51100000000E-03 0. -1.
        -11    1    3    3    0    0 -0.18427265929E+01 -0.15819420482E+02 -0.41837750558E+01  0.16466744659E+02  0.51100000000E-03 0.  1.
         12    1    3    3    0    0 -0.32264801349E+01 -0.19692016482E+02  0.13742548754E+02  0.24228977144E+02  0.00000000000E+00 0. -1.
</event>
<event>
 7    1  0.5006721E-012  0.5052886E+02  0.7816164E-02  0.1300439E+00
        -11   -1    0    0    0    0  0.00000000000E+00  0.00000000000E+00  0.45593999997E+02  0.45594000000E+02  0.51100000000E-03 0. -1.
         11   -1    0    0    0    0 -0.00000000000E+00 -0.00000000000E+00 -0.45593999997E+02  0.45594000000E+02  0.51100000000E-03 0.  1.
    9900012    2    1    2    0    0  0.18096553778E+00 -0.15055208452E+02 -0.37768682476E+02  0.50528862945E+02  0.30000009407E+02 0.  0.
         12    1    1    2    0    0 -0.18096553778E+00  0.15055208452E+02  0.37768682476E+02  0.40659137055E+02  0.00000000000E+00 0. -1.
         11    1    3    3    0    0  0.22906964396E+01 -0.47615915626E+01 -0.40760501290E+01  0.66733971336E+01  0.51100000000E-03 0. -1.
        -11    1    3    3    0    0 -0.75844482011E+01  0.60362916697E+01 -0.65126212797E+01  0.11677966768E+02  0.51100000000E-03 0.  1.
        -12    1    3    3    0    0  0.54747172993E+01 -0.16329908559E+02 -0.27180011068E+02  0.32177499043E+02  0.00000000000E+00 0.  1.
</event>
<event>
 7    1  0.5006721E-012  0.5052886E+02  0.7816164E-02  0.1300439E+00
        -11   -1    0    0    0    0  0.00000000000E+00  0.00000000000E+00  0.45593999997E+02  0.45594000000E+02  0.51100000000E-03 0. -1.
         11   -1    0    0    0    0 -0.00000000000E+00 -0.00000000000E+00 -0.45593999997E+02  0.45594000000E+02  0.51100000000E-03 0.  1.
    9900012    2    1    2    0    0  0.18322664782E+02 -0.36289139027E+02 -0.73770393259E+00  0.50528857571E+02  0.29999993072E+02 0.  0.
         12    1    1    2    0    0 -0.18322664782E+02  0.36289139027E+02  0.73770393259E+00  0.40659142429E+02  0.00000000000E+00 0. -1.
         11    1    3    3    0    0 -0.55122860585E+01 -0.59548747982E+01 -0.57981667628E+00  0.81352331923E+01  0.51100000000E-03 0. -1.
        -11    1    3    3    0    0  0.15532980919E+02 -0.30021419674E+02 -0.20821301507E+01  0.33865829411E+02  0.51100000000E-03 0.  1.
        -12    1    3    3    0    0  0.83019699209E+01 -0.31284455439E+00  0.19242428944E+01  0.85277949671E+01  0.00000000000E+00 0.  1.
</event>
<event>
 7    1  0.5006721E-012  0.5052886E+02  0.7816164E-02  0.1300439E+00
        -11   -1    0    0    0    0  0.00000000000E+00  0.00000000000E+00  0.45593999997E+02  0.45594000000E+02  0.51100000000E-03 0. -1.
         11   -1    0    0    0    0 -0.00000000000E+00 -0.00000000000E+00 -0.45593999997E+02  0.45594000000E+02  0.51100000000E-03 0.  1.
    9900012    2    1    2    0    0  0.26979448227E+02  0.17571959823E+02  0.24829440020E+02  0.50528862154E+02  0.30000007004E+02 0.  0.
        -12    1    1    2    0    0 -0.26979448227E+02 -0.17571959823E+02 -0.24829440020E+02  0.40659137846E+02  0.00000000000E+00 0.  1.
         11    1    3    3    0    0  0.13722812286E+02  0.12706349739E+02  0.18244697954E+02  0.26127301897E+02  0.51100000000E-03 0. -1.
        -11    1    3    3    0    0  0.10181476313E+02 -0.36301571774E+01 -0.30117305909E+01  0.11221008085E+02  0.51100000000E-03 0.  1.
        -12    1    3    3    0    0  0.30751596285E+01  0.84957672615E+01  0.95964726571E+01  0.13180552172E+02  0.00000000000E+00 0.  1.
</event>
<event>
 7    1  0.5006721E-012  0.5052887E+02  0.7816164E-02  0.1300439E+00
        -11   -1    0    0    0    0  0.00000000000E+00  0.00000000000E+00  0.45593999997E+02  0.45594000000E+02  0.51100000000E-03 0. -1.
         11   -1    0    0    0    0 -0.00000000000E+00 -0.00000000000E+00 -0.45593999997E+02  0.45594000000E+02  0.51100000000E-03 0.  1.
    9900012    2    1    2    0    0  0.22002097594E+02  0.25473782511E+01  0.34096677608E+02  0.50528869926E+02  0.30000030628E+02 0.  0.
        -12    1    1    2    0    0 -0.22002097594E+02 -0.25473782511E+01 -0.34096677608E+02  0.40659130074E+02  0.00000000000E+00 0.  1.
         11    1    3    3    0    0  0.27290092003E+02  0.75114581445E+01  0.30867158418E+02  0.41880217216E+02  0.51100000000E-03 0. -1.
        -11    1    3    3    0    0 -0.46589822210E+01 -0.34173290226E+01  0.37635828017E+01  0.68955644259E+01  0.51100000000E-03 0.  1.
         12    1    3    3    0    0 -0.62901218859E+00 -0.15467508708E+01 -0.53406361246E+00  0.17530882841E+01  0.00000000000E+00 0. -1.
</event>
<event>
 7    1  0.5006721E-012  0.5052887E+02  0.7816164E-02  0.1300439E+00
        -11   -1    0    0    0    0  0.00000000000E+00  0.00000000000E+00  0.45593999997E+02  0.45594000000E+02  0.51100000000E-03 0. -1.
         11   -1    0    0    0    0 -0.00000000000E+00 -0.00000000000E+00 -0.45593999997E+02  0.45594000000E+02  0.51100000000E-03 0.  1.
    9900012    2    1    2    0    0  0.23149923959E+02  0.11203139214E+02 -0.31491828719E+02  0.50528873305E+02  0.30000040897E+02 0.  0.
         12    1    1    2    0    0 -0.23149923959E+02 -0.11203139214E+02  0.31491828719E+02  0.40659126695E+02  0.00000000000E+00 0. -1.
         11    1    3    3    0    0  0.68223530167E+01  0.60879795573E+01 -0.67623497918E+01  0.11372658913E+02  0.51100000000E-03 0. -1.
        -11    1    3    3    0    0 -0.26653707719E+01 -0.69860040817E+01 -0.36951325995E+01  0.83404112351E+01  0.51100000000E-03 0.  1.
        -12    1    3    3    0    0  0.18992941714E+02  0.12101163738E+02 -0.21034346328E+02  0.30815803157E+02  0.00000000000E+00 0.  1.
</event>
<event>
 7    1  0.5006721E-012  0.5052891E+02  0.7816164E-02  0.1300439E+00
        -11   -1    0    0    0    0  0.00000000000E+00  0.00000000000E+00  0.45593999997E+02  0.45594000000E+02  0.51100000000E-03 0. -1.
         11   -1    0    0    0    0 -0.00000000000E+00 -0.00000000000E+00 -0.45593999997E+02  0.45594000000E+02  0.51100000000E-03 0.  1.
    9900012    2    1    2    0    0 -0.17712202812E+02  0.66130703554E+01  0.35995926900E+02  0.50528910224E+02  0.30000153118E+02 0.  0.
        -12    1    1    2    0    0  0.17712202812E+02 -0.66130703554E+01 -0.35995926900E+02  0.40659089776E+02  0.00000000000E+00 0.  1.
         11    1    3    3    0    0 -0.61731881278E+01  0.76863047144E+01  0.35766612584E+02  0.37100378810E+02  0.51100000000E-03 0. -1.
        -11    1    3    3    0    0 -0.12383166024E+02 -0.96259064411E+00  0.72803626138E+00  0.12441841446E+02  0.51100000000E-03 0.  1.
         12    1    3    3    0    0  0.84415133950E+00 -0.11064371489E+00 -0.49872194514E+00  0.98668996862E+00  0.00000000000E+00 0. -1.
</event>
<event>
 7    1  0.5006721E-012  0.5052886E+02  0.7816164E-02  0.1300439E+00
        -11   -1    0    0    0    0  0.00000000000E+00  0.00000000000E+00  0.45593999997E+02  0.45594000000E+02  0.51100000000E-03 0. -1.
         11   -1    0    0    0    0 -0.00000000000E+00 -0.00000000000E+00 -0.45593999997E+02  0.45594000000E+02  0.51100000000E-03 0.  1.
    9900012    2    1    2    0    0  0.19856361167E+02  0.86708510647E+01 -0.34405045864E+02  0.50528856897E+02  0.29999991024E+02 0.  0.
         12    1    1    2    0    0 -0.19856361167E+02 -0.86708510647E+01  0.34405045864E+02  0.40659143103E+02  0.00000000000E+00 0. -1.
         11    1    3    3    0    0 -0.85610643723E+00 -0.71026052509E+01 -0.25691401709E+01  0.76013420566E+01  0.51100000000E-03 0. -1.
        -11    1    3    3    0    0  0.11519645117E+02  0.99697187797E+01 -0.27058516431E+02  0.31052549459E+02  0.51100000000E-03 0.  1.
        -12    1    3    3    0    0  0.91928224868E+01  0.58037375359E+01 -0.47773892621E+01  0.11874965382E+02  0.00000000000E+00 0.  1.
</event>
<event>
 7    1  0.5006721E-012  0.5052887E+02  0.7816164E-02  0.1300439E+00
        -11   -1    0    0    0    0  0.00000000000E+00  0.00000000000E+00  0.45593999997E+02  0.45594000000E+02  0.51100000000E-03 0.  1.
         11   -1    0    0    0    0 -0.00000000000E+00 -0.00000000000E+00 -0.45593999997E+02  0.45594000000E+02  0.51100000000E-03 0. -1.
    9900012    2    1    2    0    0 -0.24909986158E+02  0.31062239341E+02 -0.82337350245E+01  0.50528874140E+02  0.30000043436E+02 0.  0.
         12    1    1    2    0    0  0.24909986158E+02 -0.31062239341E+02  0.82337350245E+01  0.40659125860E+02  0.00000000000E+00 0. -1.
         11    1    3    3    0    0  0.33503770372E+01  0.85182092584E+01 -0.81946076368E+01  0.12285622078E+02  0.51100000000E-03 0. -1.
        -11    1    3    3    0    0 -0.19684137732E+02  0.21176963883E+02  0.29410564770E+01  0.29061639510E+02  0.51100000000E-03 0.  1.
         12    1    3    3    0    0 -0.85762254627E+01  0.13670661990E+01 -0.29801838646E+01  0.91816125515E+01  0.00000000000E+00 0. -1.
</event>
<event>
 7    1  0.5006721E-012  0.5052886E+02  0.7816164E-02  0.1300439E+00
        -11   -1    0    0    0    0  0.00000000000E+00  0.00000000000E+00  0.45593999997E+02  0.45594000000E+02  0.51100000000E-03 0. -1.
         11   -1    0    0    0    0 -0.00000000000E+00 -0.00000000000E+00 -0.45593999997E+02  0.45594000000E+02  0.51100000000E-03 0.  1.
    9900012    2    1    2    0    0  0.29322043074E+02  0.18960956335E+02 -0.20829441308E+02  0.50528859571E+02  0.29999999152E+02 0.  0.
         12    1    1    2    0    0 -0.29322043074E+02 -0.18960956335E+02  0.20829441308E+02  0.40659140429E+02  0.00000000000E+00 0. -1.
         11    1    3    3    0    0  0.18527673321E+02  0.20876412280E+02 -0.15143389580E+02  0.31755653302E+02  0.51100000000E-03 0. -1.
        -11    1    3    3    0    0  0.12517332957E+02  0.18044761940E+01 -0.12115551102E+01  0.12704630052E+02  0.51100000000E-03 0.  1.
         12    1    3    3    0    0 -0.17229632044E+01 -0.37199321388E+01 -0.44744966185E+01  0.60685762177E+01  0.00000000000E+00 0. -1.
</event>
<event>
 7    1  0.5006721E-012  0.5052886E+02  0.7816164E-02  0.1300439E+00
        -11   -1    0    0    0    0  0.00000000000E+00  0.00000000000E+00  0.45593999997E+02  0.45594000000E+02  0.51100000000E-03 0. -1.
         11   -1    0    0    0    0 -0.00000000000E+00 -0.00000000000E+00 -0.45593999997E+02  0.45594000000E+02  0.51100000000E-03 0.  1.
    9900012    2    1    2    0    0  0.28169509805E+02 -0.11806288079E+02  0.26837578857E+02  0.50528863761E+02  0.30000011886E+02 0.  0.
        -12    1    1    2    0    0 -0.28169509805E+02  0.11806288079E+02 -0.26837578857E+02  0.40659136239E+02  0.00000000000E+00 0.  1.
         11    1    3    3    0    0  0.14468939282E+02 -0.16890960043E+02  0.14834782010E+02  0.26734350426E+02  0.51100000000E-03 0. -1.
        -11    1    3    3    0    0 -0.23071495578E+01  0.33012406195E+01  0.44590465185E+01  0.60086791249E+01  0.51100000000E-03 0.  1.
        -12    1    3    3    0    0  0.16007720080E+02  0.17834313449E+01  0.75437503283E+01  0.17785834210E+02  0.00000000000E+00 0.  1.
</event>
<event>
 7    1  0.5006721E-012  0.5052884E+02  0.7816164E-02  0.1300439E+00
        -11   -1    0    0    0    0  0.00000000000E+00  0.00000000000E+00  0.45593999997E+02  0.45594000000E+02  0.51100000000E-03 0. -1.
         11   -1    0    0    0    0 -0.00000000000E+00 -0.00000000000E+00 -0.45593999997E+02  0.45594000000E+02  0.51100000000E-03 0.  1.
    9900012    2    1    2    0    0 -0.32661466757E+02 -0.41893374564E+01 -0.23850471448E+02  0.50528844237E+02  0.29999952544E+02 0.  0.
         12    1    1    2    0    0  0.32661466757E+02  0.41893374564E+01  0.23850471448E+02  0.40659155763E+02  0.00000000000E+00 0. -1.
         11    1    3    3    0    0 -0.13171733516E+01  0.32245346478E+01  0.35273268270E+01  0.49572778961E+01  0.51100000000E-03 0. -1.
        -11    1    3    3    0    0 -0.28117553855E+02 -0.11682546207E+02 -0.26018782830E+02  0.40050665174E+02  0.51100000000E-03 0.  1.
        -12    1    3    3    0    0 -0.32267395508E+01  0.42686741023E+01 -0.13590154442E+01  0.55209011672E+01  0.00000000000E+00 0.  1.
</event>
<event>
 7    1  0.5006721E-012  0.5052886E+02  0.7816164E-02  0.1300439E+00
        -11   -1    0    0    0    0  0.00000000000E+00  0.00000000000E+00  0.45593999997E+02  0.45594000000E+02  0.51100000000E-03 0. -1.
         11   -1    0    0    0    0 -0.00000000000E+00 -0.00000000000E+00 -0.45593999997E+02  0.45594000000E+02  0.51100000000E-03 0.  1.
    9900012    2    1    2    0    0  0.30811810679E+02  0.19561688824E+02  0.17920339979E+02  0.50528856724E+02  0.29999990498E+02 0.  0.
        -12    1    1    2    0    0 -0.30811810679E+02 -0.19561688824E+02 -0.17920339979E+02  0.40659143276E+02  0.00000000000E+00 0.  1.
         11    1    3    3    0    0  0.19573431343E+01  0.91411297545E+01  0.11262334023E+01  0.94159358150E+01  0.51100000000E-03 0. -1.
        -11    1    3    3    0    0  0.25815103822E+02 -0.86877977023E+00  0.11882029825E+02  0.28431619663E+02  0.51100000000E-03 0.  1.
        -12    1    3    3    0    0  0.30393637228E+01  0.11289338840E+02  0.49120767519E+01  0.12681301246E+02  0.00000000000E+00 0.  1.
</event>
<event>
 7    1  0.5006721E-012  0.5052888E+02  0.7816164E-02  0.1300439E+00
        -11   -1    0    0    0    0  0.00000000000E+00  0.00000000000E+00  0.45593999997E+02  0.45594000000E+02  0.51100000000E-03 0. -1.
         11   -1    0    0    0    0 -0.00000000000E+00 -0.00000000000E+00 -0.45593999997E+02  0.45594000000E+02  0.51100000000E-03 0.  1.
    9900012    2    1    2    0    0  0.12232742668E+02 -0.20794641691E+01  0.38719500045E+02  0.50528882349E+02  0.30000068388E+02 0.  0.
        -12    1    1    2    0    0 -0.12232742668E+02  0.20794641691E+01 -0.38719500045E+02  0.40659117651E+02  0.00000000000E+00 0.  1.
         11    1    3    3    0    0 -0.45258735813E+01  0.35670375287E+01  0.19341363950E+02  0.20181567038E+02  0.51100000000E-03 0. -1.
        -11    1    3    3    0    0  0.88227813484E+01 -0.10656508285E+02  0.13123838873E+02  0.19069289095E+02  0.51100000000E-03 0.  1.
        -12    1    3    3    0    0  0.79358349014E+01  0.50100065876E+01  0.62542972213E+01  0.11278026216E+02  0.00000000000E+00 0.  1.
</event>
<event>
 7    1  0.5006721E-012  0.5052887E+02  0.7816164E-02  0.1300439E+00
        -11   -1    0    0    0    0  0.00000000000E+00  0.00000000000E+00  0.45593999997E+02  0.45594000000E+02  0.51100000000E-03 0. -1.
         11   -1    0    0    0    0 -0.00000000000E+00 -0.00000000000E+00 -0.45593999997E+02  0.45594000000E+02  0.51100000000E-03 0.  1.
    9900012    2    1    2    0    0  0.21454220899E+02  0.34476912808E+02  0.20552729494E+01  0.50528865011E+02  0.30000015688E+02 0.  0.
        -12    1    1    2    0    0 -0.21454220899E+02 -0.34476912808E+02 -0.20552729494E+01  0.40659134989E+02  0.00000000000E+00 0.  1.
         11    1    3    3    0    0  0.89918051332E+01  0.38180250732E+00  0.36626051972E+01  0.97166357243E+01  0.51100000000E-03 0. -1.
        -11    1    3    3    0    0  0.15285102709E+02  0.33361797214E+02  0.12655771515E+01  0.36718463530E+02  0.51100000000E-03 0.  1.
        -12    1    3    3    0    0 -0.28226869429E+01  0.73331308581E+00 -0.28729093992E+01  0.40937657573E+01  0.00000000000E+00 0.  1.
</event>
<event>
 7    1  0.5006721E-012  0.5052882E+02  0.7816164E-02  0.1300439E+00
        -11   -1    0    0    0    0  0.00000000000E+00  0.00000000000E+00  0.45593999997E+02  0.45594000000E+02  0.51100000000E-03 0. -1.
         11   -1    0    0    0    0 -0.00000000000E+00 -0.00000000000E+00 -0.45593999997E+02  0.45594000000E+02  0.51100000000E-03 0.  1.
    9900012    2    1    2    0    0  0.12855221039E+02 -0.19088629316E+02 -0.33519189152E+02  0.50528824915E+02  0.29999893813E+02 0.  0.
         12    1    1    2    0    0 -0.12855221039E+02  0.19088629316E+02  0.33519189152E+02  0.40659175085E+02  0.00000000000E+00 0. -1.
         11    1    3    3    0    0  0.19999207898E+02 -0.75671980491E+01 -0.16766929926E+02  0.27172794156E+02  0.51100000000E-03 0. -1.
        -11    1    3    3    0    0 -0.64971587633E+01 -0.13035519399E+02 -0.14373291327E+02  0.20462877164E+02  0.51100000000E-03 0.  1.
        -12    1    3    3    0    0 -0.64682809606E+00  0.15140881319E+01 -0.23789678999E+01  0.28931535952E+01  0.00000000000E+00 0.  1.
</event>
<event>
 7    1  0.5006721E-012  0.5052886E+02  0.7816164E-02  0.1300439E+00
        -11   -1    0    0    0    0  0.00000000000E+00  0.00000000000E+00  0.45593999997E+02  0.45594000000E+02  0.51100000000E-03 0. -1.
         11   -1    0    0    0    0 -0.00000000000E+00 -0.00000000000E+00 -0.45593999997E+02  0.45594000000E+02  0.51100000000E-03 0.  1.
    9900012    2    1    2    0    0 -0.26164167618E+02 -0.20111832429E+02 -0.23751122545E+02  0.50528864582E+02  0.30000014384E+02 0.  0.
         12    1    1    2    0    0  0.26164167618E+02  0.20111832429E+02  0.23751122545E+02  0.40659135418E+02  0.00000000000E+00 0. -1.
         11    1    3    3    0    0 -0.17436965198E+02  0.15571600660E+00 -0.39780151228E+01  0.17885653675E+02  0.51100000000E-03 0. -1.
        -11    1    3    3    0    0 -0.37207397197E+01 -0.70565727820E+01 -0.16219789934E+02  0.18075417264E+02  0.51100000000E-03 0.  1.
         12    1    3    3    0    0 -0.50064626996E+01 -0.13210975653E+02 -0.35533174884E+01  0.14567793644E+02  0.00000000000E+00 0. -1.
</event>
<event>
 7    1  0.5006721E-012  0.5052886E+02  0.7816164E-02  0.1300439E+00
        -11   -1    0    0    0    0  0.00000000000E+00  0.00000000000E+00  0.45593999997E+02  0.45594000000E+02  0.51100000000E-03 0. -1.
         11   -1    0    0    0    0 -0.00000000000E+00 -0.00000000000E+00 -0.45593999997E+02  0.45594000000E+02  0.51100000000E-03 0.  1.
    9900012    2    1    2    0    0 -0.35926079746E+02  0.50872396568E+01  0.18346724388E+02  0.50528861925E+02  0.30000006307E+02 0.  0.
        -12    1    1    2    0    0  0.35926079746E+02 -0.50872396568E+01 -0.18346724388E+02  0.40659138075E+02  0.00000000000E+00 0.  1.
         11    1    3    3    0    0 -0.12657477659E+02  0.27922973906E+01  0.86963464705E+01  0.15608815060E+02  0.51100000000E-03 0. -1.
        -11    1    3    3    0    0 -0.34557378588E+01 -0.41069341941E+01 -0.66005538632E+01  0.85074287647E+01  0.51100000000E-03 0.  1.
        -12    1    3    3    0    0 -0.19812864229E+02  0.64018764603E+01  0.16250931781E+02  0.26412618100E+02  0.00000000000E+00 0.  1.
</event>
<event>
 7    1  0.5006721E-012  0.5052886E+02  0.7816164E-02  0.1300439E+00
        -11   -1    0    0    0    0  0.00000000000E+00  0.00000000000E+00  0.45593999997E+02  0.45594000000E+02  0.51100000000E-03 0. -1.
         11   -1    0    0    0    0 -0.00000000000E+00 -0.00000000000E+00 -0.45593999997E+02  0.45594000000E+02  0.51100000000E-03 0.  1.
    9900012    2    1    2    0    0 -0.95417551859E+01  0.96550960286E+01  0.38326230342E+02  0.50528857073E+02  0.29999991558E+02 0.  0.
        -12    1    1    2    0    0  0.95417551859E+01 -0.96550960286E+01 -0.38326230342E+02  0.40659142927E+02  0.00000000000E+00 0.  1.
         11    1    3    3    0    0 -0.11494694813E+02 -0.23566495349E+01  0.36025188510E+02  0.37887940210E+02  0.51100000000E-03 0. -1.
        -11    1    3    3    0    0  0.88083908528E+00  0.74538556188E+01  0.26147721397E+01  0.79481365542E+01  0.51100000000E-03 0.  1.
         12    1    3    3    0    0  0.10721005421E+01  0.45578899447E+01 -0.31373030794E+00  0.46927803088E+01  0.00000000000E+00 0. -1.
</event>
<event>
 7    1  0.5006721E-012  0.5052886E+02  0.7816164E-02  0.1300439E+00
        -11   -1    0    0    0    0  0.00000000000E+00  0.00000000000E+00  0.45593999997E+02  0.45594000000E+02  0.51100000000E-03 0. -1.
         11   -1    0    0    0    0 -0.00000000000E+00 -0.00000000000E+00 -0.45593999997E+02  0.45594000000E+02  0.51100000000E-03 0.  1.
    9900012    2    1    2    0    0  0.36265054474E+02 -0.18376439031E+02 -0.56412183377E+00  0.50528856860E+02  0.29999990910E+02 0.  0.
         12    1    1    2    0    0 -0.36265054474E+02  0.18376439031E+02  0.56412183377E+00  0.40659143140E+02  0.00000000000E+00 0. -1.
         11    1    3    3    0    0  0.13264432737E+01  0.49099925939E+01 -0.10076598672E+01  0.51848681468E+01  0.51100000000E-03 0. -1.
        -11    1    3    3    0    0  0.13805698759E+02 -0.14723789105E+02 -0.69918934700E+01  0.21360567839E+02  0.51100000000E-03 0.  1.
         12    1    3    3    0    0  0.21132912442E+02 -0.85626425196E+01  0.74354315035E+01  0.23983420874E+02  0.00000000000E+00 0. -1.
</event>
<event>
 7    1  0.5006721E-012  0.5052883E+02  0.7816164E-02  0.1300439E+00
        -11   -1    0    0    0    0  0.00000000000E+00  0.00000000000E+00  0.45593999997E+02  0.45594000000E+02  0.51100000000E-03 0. -1.
         11   -1    0    0    0    0 -0.00000000000E+00 -0.00000000000E+00 -0.45593999997E+02  0.45594000000E+02  0.51100000000E-03 0.  1.
    9900012    2    1    2    0    0  0.21000823307E+01  0.13231997055E+02 -0.38388434869E+02  0.50528831002E+02  0.29999912315E+02 0.  0.
         12    1    1    2    0    0 -0.21000823307E+01 -0.13231997055E+02  0.38388434869E+02  0.40659168998E+02  0.00000000000E+00 0. -1.
         11    1    3    3    0    0 -0.25006208698E+01 -0.45306065395E+01 -0.49981555670E+01  0.71945159451E+01  0.51100000000E-03 0. -1.
        -11    1    3    3    0    0  0.48518939325E+01  0.11009361591E+02 -0.34453109064E+02  0.36493336951E+02  0.51100000000E-03 0.  1.
        -12    1    3    3    0    0 -0.25119073198E+00  0.67532420042E+01  0.10628297618E+01  0.68409781065E+01  0.00000000000E+00 0.  1.
</event>
<event>
 7    1  0.5006721E-012  0.5052886E+02  0.7816164E-02  0.1300439E+00
        -11   -1    0    0    0    0  0.00000000000E+00  0.00000000000E+00  0.45593999997E+02  0.45594000000E+02  0.51100000000E-03 0. -1.
         11   -1    0    0    0    0 -0.00000000000E+00 -0.00000000000E+00 -0.45593999997E+02  0.45594000000E+02  0.51100000000E-03 0.  1.
    9900012    2    1    2    0    0  0.25780356286E+02 -0.15025944034E+01  0.31405110547E+02  0.50528861683E+02  0.30000005572E+02 0.  0.
        -12    1    1    2    0    0 -0.25780356286E+02  0.15025944034E+01 -0.31405110547E+02  0.40659138317E+02  0.00000000000E+00 0.  1.
         11    1    3    3    0    0  0.23486608569E+02  0.63772870030E+01  0.20452498357E+02  0.31789860976E+02  0.51100000000E-03 0. -1.
        -11    1    3    3    0    0  0.61228133423E+01 -0.77224002886E+01  0.11175520858E+02  0.14900220675E+02  0.51100000000E-03 0.  1.
         12    1    3    3    0    0 -0.38290656249E+01 -0.15748111780E+00 -0.22290866802E+00  0.38387800323E+01  0.00000000000E+00 0. -1.
</event>
<event>
 7    1  0.5006721E-012  0.5052886E+02  0.7816164E-02  0.1300439E+00
        -11   -1    0    0    0    0  0.00000000000E+00  0.00000000000E+00  0.45593999997E+02  0.45594000000E+02  0.51100000000E-03 0. -1.
         11   -1    0    0    0    0 -0.00000000000E+00 -0.00000000000E+00 -0.45593999997E+02  0.45594000000E+02  0.51100000000E-03 0.  1.
    9900012    2    1    2    0    0  0.82843494192E+00  0.11381194394E+02 -0.39024967564E+02  0.50528856088E+02  0.29999988564E+02 0.  0.
         12    1    1    2    0    0 -0.82843494192E+00 -0.11381194394E+02  0.39024967564E+02  0.40659143912E+02  0.00000000000E+00 0. -1.
         11    1    3    3    0    0  0.11051122783E+02 -0.49137800887E+00 -0.34607863477E+01  0.11590763975E+02  0.51100000000E-03 0. -1.
        -11    1    3    3    0    0 -0.25876643076E+01  0.33494105207E+01 -0.12385407924E+02  0.13088654901E+02  0.51100000000E-03 0.  1.
         12    1    3    3    0    0 -0.76350235336E+01  0.85231618825E+01 -0.23178773292E+02  0.25849437212E+02  0.00000000000E+00 0. -1.
</event>
<event>
 7    1  0.5006721E-012  0.5052886E+02  0.7816164E-02  0.1300439E+00
        -11   -1    0    0    0    0  0.00000000000E+00  0.00000000000E+00  0.45593999997E+02  0.45594000000E+02  0.51100000000E-03 0. -1.
         11   -1    0    0    0    0 -0.00000000000E+00 -0.00000000000E+00 -0.45593999997E+02  0.45594000000E+02  0.51100000000E-03 0.  1.
    9900012    2    1    2    0    0 -0.38222688757E+01 -0.34930656273E+02 -0.20454955927E+02  0.50528859466E+02  0.29999998832E+02 0.  0.
         12    1    1    2    0    0  0.38222688757E+01  0.34930656273E+02  0.20454955927E+02  0.40659140534E+02  0.00000000000E+00 0. -1.
         11    1    3    3    0    0  0.50072333973E+01  0.26363848436E+01 -0.46820040160E+00  0.56782147912E+01  0.51100000000E-03 0. -1.
        -11    1    3    3    0    0 -0.74595514280E+01 -0.26125325487E+02 -0.19261516491E+02  0.33304407473E+02  0.51100000000E-03 0.  1.
         12    1    3    3    0    0 -0.13699508450E+01 -0.11441715629E+02 -0.72523903485E+00  0.11546237202E+02  0.00000000000E+00 0. -1.
</event>
<event>
 7    1  0.5006721E-012  0.5052885E+02  0.7816164E-02  0.1300439E+00
        -11   -1    0    0    0    0  0.00000000000E+00  0.00000000000E+00  0.45593999997E+02  0.45594000000E+02  0.51100000000E-03 0. -1.
         11   -1    0    0    0    0 -0.00000000000E+00 -0.00000000000E+00 -0.45593999997E+02  0.45594000000E+02  0.51100000000E-03 0.  1.
    9900012    2    1    2    0    0 -0.25229935251E+02 -0.31125833699E+02 -0.69137170391E+01  0.50528848023E+02  0.29999964050E+02 0.  0.
         12    1    1    2    0    0  0.25229935251E+02  0.31125833699E+02  0.69137170391E+01  0.40659151977E+02  0.00000000000E+00 0. -1.
         11    1    3    3    0    0 -0.22317704086E+02 -0.11585143364E+02 -0.54101308073E+01  0.25720905467E+02  0.51100000000E-03 0. -1.
        -11    1    3    3    0    0 -0.72829276939E+01 -0.70389936410E+01 -0.47274138472E+01  0.11177518026E+02  0.51100000000E-03 0.  1.
         12    1    3    3    0    0  0.43706965291E+01 -0.12501696694E+02  0.32238276154E+01  0.13630424530E+02  0.00000000000E+00 0. -1.
</event>
<event>
 7    1  0.5006721E-012  0.5052886E+02  0.7816164E-02  0.1300439E+00
        -11   -1    0    0    0    0  0.00000000000E+00  0.00000000000E+00  0.45593999997E+02  0.45594000000E+02  0.51100000000E-03 0.  1.
         11   -1    0    0    0    0 -0.00000000000E+00 -0.00000000000E+00 -0.45593999997E+02  0.45594000000E+02  0.51100000000E-03 0. -1.
    9900012    2    1    2    0    0  0.26160370628E+02 -0.29565014003E+02 -0.97319201969E+01  0.50528864309E+02  0.30000013555E+02 0.  0.
         12    1    1    2    0    0 -0.26160370628E+02  0.29565014003E+02  0.97319201969E+01  0.40659135691E+02  0.00000000000E+00 0. -1.
         11    1    3    3    0    0  0.76134601251E+00  0.32509336860E+01  0.22792492172E+01  0.40426717449E+01  0.51100000000E-03 0. -1.
        -11    1    3    3    0    0  0.18378867066E+02 -0.23493933282E+02 -0.16374373580E+02  0.34027456063E+02  0.51100000000E-03 0.  1.
         12    1    3    3    0    0  0.70201575492E+01 -0.93220144071E+01  0.43632041663E+01  0.12458736502E+02  0.00000000000E+00 0. -1.
</event>
<event>
 7    1  0.5006721E-012  0.5052889E+02  0.7816164E-02  0.1300439E+00
        -11   -1    0    0    0    0  0.00000000000E+00  0.00000000000E+00  0.45593999997E+02  0.45594000000E+02  0.51100000000E-03 0. -1.
         11   -1    0    0    0    0 -0.00000000000E+00 -0.00000000000E+00 -0.45593999997E+02  0.45594000000E+02  0.51100000000E-03 0.  1.
    9900012    2    1    2    0    0  0.45836527155E+01  0.44320392442E+01 -0.40156071708E+02  0.50528893528E+02  0.30000102368E+02 0.  0.
         12    1    1    2    0    0 -0.45836527155E+01 -0.44320392442E+01  0.40156071708E+02  0.40659106472E+02  0.00000000000E+00 0. -1.
         11    1    3    3    0    0  0.54621060029E+01 -0.75192854753E+01 -0.26127142938E+02  0.27730882683E+02  0.51100000000E-03 0. -1.
        -11    1    3    3    0    0  0.61353486641E+01  0.53305474573E+01 -0.47479591377E+01  0.94127761930E+01  0.51100000000E-03 0.  1.
         12    1    3    3    0    0 -0.70138019515E+01  0.66207772623E+01 -0.92809696326E+01  0.13385234652E+02  0.00000000000E+00 0. -1.
</event>
<event>
 7    1  0.5006721E-012  0.5052886E+02  0.7816164E-02  0.1300439E+00
        -11   -1    0    0    0    0  0.00000000000E+00  0.00000000000E+00  0.45593999997E+02  0.45594000000E+02  0.51100000000E-03 0.  1.
         11   -1    0    0    0    0 -0.00000000000E+00 -0.00000000000E+00 -0.45593999997E+02  0.45594000000E+02  0.51100000000E-03 0. -1.
    9900012    2    1    2    0    0 -0.36252700505E+02  0.17904434172E+02 -0.42823764522E+01  0.50528858285E+02  0.29999995243E+02 0.  0.
        -12    1    1    2    0    0  0.36252700505E+02 -0.17904434172E+02  0.42823764522E+01  0.40659141715E+02  0.00000000000E+00 0.  1.
         11    1    3    3    0    0 -0.35030274930E+02  0.17918896037E+02  0.39535921850E+01  0.39545390228E+02  0.51100000000E-03 0. -1.
        -11    1    3    3    0    0  0.20917694432E+01 -0.19944869429E+01 -0.15930617533E+01  0.33002005364E+01  0.51100000000E-03 0.  1.
         12    1    3    3    0    0 -0.33141950184E+01  0.19800250780E+01 -0.66429068839E+01  0.76832675208E+01  0.00000000000E+00 0. -1.
</event>
<event>
 7    1  0.5006721E-012  0.5052886E+02  0.7816164E-02  0.1300439E+00
        -11   -1    0    0    0    0  0.00000000000E+00  0.00000000000E+00  0.45593999997E+02  0.45594000000E+02  0.51100000000E-03 0.  1.
         11   -1    0    0    0    0 -0.00000000000E+00 -0.00000000000E+00 -0.45593999997E+02  0.45594000000E+02  0.51100000000E-03 0. -1.
    9900012    2    1    2    0    0  0.36675019660E+02 -0.11160088943E+02  0.13548459250E+02  0.50528863261E+02  0.30000010369E+02 0.  0.
        -12    1    1    2    0    0 -0.36675019660E+02  0.11160088943E+02 -0.13548459250E+02  0.40659136739E+02  0.00000000000E+00 0.  1.
         11    1    3    3    0    0  0.31379043794E+01 -0.72024322413E+01 -0.52180051887E+01  0.94312805332E+01  0.51100000000E-03 0. -1.
        -11    1    3    3    0    0  0.13593963099E+02 -0.61460473065E+00  0.15480132252E+02  0.20610872531E+02  0.51100000000E-03 0.  1.
         12    1    3    3    0    0  0.19943152182E+02 -0.33430519711E+01  0.32863321867E+01  0.20486710197E+02  0.00000000000E+00 0. -1.
</event>
<event>
 7    1  0.5006721E-012  0.5052886E+02  0.7816164E-02  0.1300439E+00
        -11   -1    0    0    0    0  0.00000000000E+00  0.00000000000E+00  0.45593999997E+02  0.45594000000E+02  0.51100000000E-03 0. -1.
         11   -1    0    0    0    0 -0.00000000000E+00 -0.00000000000E+00 -0.45593999997E+02  0.45594000000E+02  0.51100000000E-03 0.  1.
    9900012    2    1    2    0    0 -0.25691482730E+01 -0.17154941840E+02 -0.36773265610E+02  0.50528860609E+02  0.30000002307E+02 0.  0.
         12    1    1    2    0    0  0.25691482730E+01  0.17154941840E+02  0.36773265610E+02  0.40659139391E+02  0.00000000000E+00 0. -1.
         11    1    3    3    0    0  0.93081009469E+01 -0.64460389047E+01 -0.55179165050E+01  0.12595219872E+02  0.51100000000E-03 0. -1.
        -11    1    3    3    0    0 -0.77703495256E+01 -0.21479611333E+01 -0.25695627531E+02  0.26930602356E+02  0.51100000000E-03 0.  1.
         12    1    3    3    0    0 -0.41068996943E+01 -0.85609418022E+01 -0.55597215740E+01  0.11003038381E+02  0.00000000000E+00 0. -1.
</event>
<event>
 7    1  0.5006721E-012  0.5052886E+02  0.7816164E-02  0.1300439E+00
        -11   -1    0    0    0    0  0.00000000000E+00  0.00000000000E+00  0.45593999997E+02  0.45594000000E+02  0.51100000000E-03 0. -1.
         11   -1    0    0    0    0 -0.00000000000E+00 -0.00000000000E+00 -0.45593999997E+02  0.45594000000E+02  0.51100000000E-03 0.  1.
    9900012    2    1    2    0    0 -0.29091593780E+02 -0.52838714102E+01 -0.27909238206E+02  0.50528859540E+02  0.29999999057E+02 0.  0.
         12    1    1    2    0    0  0.29091593780E+02  0.52838714102E+01  0.27909238206E+02  0.40659140460E+02  0.00000000000E+00 0. -1.
         11    1    3    3    0    0 -0.16360550785E+02  0.87402560924E+00  0.89259585642E+00  0.16408176936E+02  0.51100000000E-03 0. -1.
        -11    1    3    3    0    0 -0.63231730057E+01 -0.92270693743E+01 -0.17292140842E+02  0.20594646423E+02  0.51100000000E-03 0.  1.
         12    1    3    3    0    0 -0.64078699896E+01  0.30691723549E+01 -0.11509693220E+02  0.13526036181E+02  0.00000000000E+00 0. -1.
</event>
<event>
 7    1  0.5006721E-012  0.5052886E+02  0.7816164E-02  0.1300439E+00
        -11   -1    0    0    0    0  0.00000000000E+00  0.00000000000E+00  0.45593999997E+02  0.45594000000E+02  0.51100000000E-03 0. -1.
         11   -1    0    0    0    0 -0.00000000000E+00 -0.00000000000E+00 -0.45593999997E+02  0.45594000000E+02  0.51100000000E-03 0.  1.
    9900012    2    1    2    0    0  0.16362720317E+02  0.17062775648E+02 -0.33080038787E+02  0.50528857177E+02  0.29999991875E+02 0.  0.
         12    1    1    2    0    0 -0.16362720317E+02 -0.17062775648E+02  0.33080038787E+02  0.40659142823E+02  0.00000000000E+00 0. -1.
         11    1    3    3    0    0 -0.18617697258E+01  0.48656288609E+01 -0.12890582631E+02  0.13903512202E+02  0.51100000000E-03 0.  1.
        -11    1    3    3    0    0  0.20086737222E+02  0.21548722982E+01 -0.15049534114E+02  0.25191446250E+02  0.51100000000E-03 0. -1.
         12    1    3    3    0    0 -0.18622471792E+01  0.10042274489E+02 -0.51399220416E+01  0.11433898726E+02  0.00000000000E+00 0. -1.
</event>
<event>
 7    1  0.5006721E-012  0.5052878E+02  0.7816164E-02  0.1300439E+00
        -11   -1    0    0    0    0  0.00000000000E+00  0.00000000000E+00  0.45593999997E+02  0.45594000000E+02  0.51100000000E-03 0. -1.
         11   -1    0    0    0    0 -0.00000000000E+00 -0.00000000000E+00 -0.45593999997E+02  0.45594000000E+02  0.51100000000E-03 0.  1.
    9900012    2    1    2    0    0  0.30346720082E+02 -0.23990058042E+01  0.26953544786E+02  0.50528779335E+02  0.29999755265E+02 0.  0.
        -12    1    1    2    0    0 -0.30346720082E+02  0.23990058042E+01 -0.26953544786E+02  0.40659220665E+02  0.00000000000E+00 0.  1.
         11    1    3    3    0    0  0.46223254332E+01 -0.39415819610E+01  0.28927720117E+01  0.67283052055E+01  0.51100000000E-03 0. -1.
        -11    1    3    3    0    0  0.27601623746E+02 -0.59575833184E+01  0.15299805528E+02  0.32115829148E+02  0.51100000000E-03 0.  1.
        -12    1    3    3    0    0 -0.18772290976E+01  0.75001594752E+01  0.87609672468E+01  0.11684644981E+02  0.00000000000E+00 0.  1.
</event>
<event>
 7    1  0.5006721E-012  0.5052882E+02  0.7816164E-02  0.1300439E+00
        -11   -1    0    0    0    0  0.00000000000E+00  0.00000000000E+00  0.45593999997E+02  0.45594000000E+02  0.51100000000E-03 0. -1.
         11   -1    0    0    0    0 -0.00000000000E+00 -0.00000000000E+00 -0.45593999997E+02  0.45594000000E+02  0.51100000000E-03 0.  1.
    9900012    2    1    2    0    0  0.88039416357E+01  0.31992809557E+01 -0.39565440480E+02  0.50528820627E+02  0.29999880777E+02 0.  0.
         12    1    1    2    0    0 -0.88039416357E+01 -0.31992809557E+01  0.39565440480E+02  0.40659179373E+02  0.00000000000E+00 0. -1.
         11    1    3    3    0    0  0.58193837884E+01  0.80882522429E+01 -0.37268571741E+01  0.10638351220E+02  0.51100000000E-03 0. -1.
        -11    1    3    3    0    0  0.83840938816E+01 -0.82412740505E+00 -0.29298531817E+02  0.30485671767E+02  0.51100000000E-03 0.  1.
         12    1    3    3    0    0 -0.53995360343E+01 -0.40648438822E+01 -0.65400514885E+01  0.94047976398E+01  0.00000000000E+00 0. -1.
</event>
<event>
 7    1  0.5006721E-012  0.5052886E+02  0.7816164E-02  0.1300439E+00
        -11   -1    0    0    0    0  0.00000000000E+00  0.00000000000E+00  0.45593999997E+02  0.45594000000E+02  0.51100000000E-03 0. -1.
         11   -1    0    0    0    0 -0.00000000000E+00 -0.00000000000E+00 -0.45593999997E+02  0.45594000000E+02  0.51100000000E-03 0.  1.
    9900012    2    1    2    0    0 -0.18882937343E+02 -0.30843075827E+02  0.18582383060E+02  0.50528860691E+02  0.30000002557E+02 0.  0.
        -12    1    1    2    0    0  0.18882937343E+02  0.30843075827E+02 -0.18582383060E+02  0.40659139309E+02  0.00000000000E+00 0.  1.
         11    1    3    3    0    0 -0.20559829625E+02 -0.15990427899E+02  0.21872807301E+02  0.34012057834E+02  0.51100000000E-03 0. -1.
        -11    1    3    3    0    0 -0.23770248732E+01 -0.55963557958E+01 -0.11817780492E+01  0.61940330206E+01  0.51100000000E-03 0.  1.
         12    1    3    3    0    0  0.40539171548E+01 -0.92562921325E+01 -0.21086461924E+01  0.10322769837E+02  0.00000000000E+00 0. -1.
</event>
<event>
 7    1  0.5006721E-012  0.5052887E+02  0.7816164E-02  0.1300439E+00
        -11   -1    0    0    0    0  0.00000000000E+00  0.00000000000E+00  0.45593999997E+02  0.45594000000E+02  0.51100000000E-03 0. -1.
         11   -1    0    0    0    0 -0.00000000000E+00 -0.00000000000E+00 -0.45593999997E+02  0.45594000000E+02  0.51100000000E-03 0.  1.
    9900012    2    1    2    0    0 -0.75566313225E+01 -0.13093791195E+02  0.37744068194E+02  0.50528871521E+02  0.30000035476E+02 0.  0.
        -12    1    1    2    0    0  0.75566313225E+01  0.13093791195E+02 -0.37744068194E+02  0.40659128479E+02  0.00000000000E+00 0.  1.
         11    1    3    3    0    0 -0.99298105481E+01 -0.41400023465E+01  0.15464709343E+02  0.18838736483E+02  0.51100000000E-03 0. -1.
        -11    1    3    3    0    0  0.93500482056E+00 -0.12646446695E+02  0.44708149964E+01  0.13446004425E+02  0.51100000000E-03 0.  1.
        -12    1    3    3    0    0  0.14381744051E+01  0.36926578463E+01  0.17808543855E+02  0.18244130613E+02  0.00000000000E+00 0.  1.
</event>
<event>
 7    1  0.5006721E-012  0.5052886E+02  0.7816164E-02  0.1300439E+00
        -11   -1    0    0    0    0  0.00000000000E+00  0.00000000000E+00  0.45593999997E+02  0.45594000000E+02  0.51100000000E-03 0.  1.
         11   -1    0    0    0    0 -0.00000000000E+00 -0.00000000000E+00 -0.45593999997E+02  0.45594000000E+02  0.51100000000E-03 0. -1.
    9900012    2    1    2    0    0 -0.63680247502E+01 -0.38574591073E+02  0.11163095557E+02  0.50528861814E+02  0.30000005969E+02 0.  0.
        -12    1    1    2    0    0  0.63680247502E+01  0.38574591073E+02 -0.11163095557E+02  0.40659138186E+02  0.00000000000E+00 0.  1.
         11    1    3    3    0    0 -0.43722568525E+01  0.19055856739E+01 -0.18757651965E+01  0.51250738607E+01  0.51100000000E-03 0. -1.
        -11    1    3    3    0    0  0.36641255063E+01 -0.16311656901E+02 -0.12459934274E+01  0.16764500185E+02  0.51100000000E-03 0.  1.
         12    1    3    3    0    0 -0.56598934040E+01 -0.24168519846E+02  0.14284854180E+02  0.28639287768E+02  0.00000000000E+00 0. -1.
</event>
<event>
 7    1  0.5006721E-012  0.5052886E+02  0.7816164E-02  0.1300439E+00
        -11   -1    0    0    0    0  0.00000000000E+00  0.00000000000E+00  0.45593999997E+02  0.45594000000E+02  0.51100000000E-03 0. -1.
         11   -1    0    0    0    0 -0.00000000000E+00 -0.00000000000E+00 -0.45593999997E+02  0.45594000000E+02  0.51100000000E-03 0.  1.
    9900012    2    1    2    0    0  0.17929341149E+02 -0.28190067691E+02  0.23173787149E+02  0.50528860790E+02  0.30000002857E+02 0.  0.
        -12    1    1    2    0    0 -0.17929341149E+02  0.28190067691E+02 -0.23173787149E+02  0.40659139210E+02  0.00000000000E+00 0.  1.
         11    1    3    3    0    0 -0.91264780260E+00 -0.23442357897E+02  0.12742636230E+02  0.26697412761E+02  0.51100000000E-03 0. -1.
        -11    1    3    3    0    0  0.11452807901E+02 -0.67524612301E+01  0.41485971892E+01  0.13927433374E+02  0.51100000000E-03 0.  1.
         12    1    3    3    0    0  0.73891810505E+01  0.20047514356E+01  0.62825537298E+01  0.99040146548E+01  0.00000000000E+00 0. -1.
</event>
<event>
 7    1  0.5006721E-012  0.5052885E+02  0.7816164E-02  0.1300439E+00
        -11   -1    0    0    0    0  0.00000000000E+00  0.00000000000E+00  0.45593999997E+02  0.45594000000E+02  0.51100000000E-03 0. -1.
         11   -1    0    0    0    0 -0.00000000000E+00 -0.00000000000E+00 -0.45593999997E+02  0.45594000000E+02  0.51100000000E-03 0.  1.
    9900012    2    1    2    0    0  0.19742926080E+01 -0.25158752838E+02 -0.31879546851E+02  0.50528853636E+02  0.29999981112E+02 0.  0.
         12    1    1    2    0    0 -0.19742926080E+01  0.25158752838E+02  0.31879546851E+02  0.40659146364E+02  0.00000000000E+00 0. -1.
         11    1    3    3    0    0 -0.76719932241E+01 -0.68119552277E+01 -0.20808861955E+02  0.23200667021E+02  0.51100000000E-03 0. -1.
        -11    1    3    3    0    0  0.93911299768E+01 -0.19439772172E+02 -0.63904223247E+01  0.22515229558E+02  0.51100000000E-03 0.  1.
        -12    1    3    3    0    0  0.25515585538E+00  0.10929745616E+01 -0.46802625705E+01  0.48129570570E+01  0.00000000000E+00 0.  1.
</event>
<event>
 7    1  0.5006721E-012  0.5052885E+02  0.7816164E-02  0.1300439E+00
        -11   -1    0    0    0    0  0.00000000000E+00  0.00000000000E+00  0.45593999997E+02  0.45594000000E+02  0.51100000000E-03 0.  1.
         11   -1    0    0    0    0 -0.00000000000E+00 -0.00000000000E+00 -0.45593999997E+02  0.45594000000E+02  0.51100000000E-03 0. -1.
    9900012    2    1    2    0    0 -0.31013706585E+02 -0.92632168688E+01 -0.24607091049E+02  0.50528854500E+02  0.29999983738E+02 0.  0.
         12    1    1    2    0    0  0.31013706585E+02  0.92632168688E+01  0.24607091049E+02  0.40659145500E+02  0.00000000000E+00 0. -1.
         11    1    3    3    0    0 -0.18500192051E+02 -0.31295639095E+00 -0.12857554491E+02  0.22531572413E+02  0.51100000000E-03 0. -1.
        -11    1    3    3    0    0 -0.44009436103E+01 -0.14780721116E+02 -0.71729926602E+01  0.17008522727E+02  0.51100000000E-03 0.  1.
        -12    1    3    3    0    0 -0.81125709232E+01  0.58304606383E+01 -0.45765438982E+01  0.10988759361E+02  0.00000000000E+00 0.  1.
</event>
<event>
 7    1  0.5006721E-012  0.5052886E+02  0.7816164E-02  0.1300439E+00
        -11   -1    0    0    0    0  0.00000000000E+00  0.00000000000E+00  0.45593999997E+02  0.45594000000E+02  0.51100000000E-03 0. -1.
         11   -1    0    0    0    0 -0.00000000000E+00 -0.00000000000E+00 -0.45593999997E+02  0.45594000000E+02  0.51100000000E-03 0.  1.
    9900012    2    1    2    0    0 -0.89605942163E+01 -0.55552870843E+01  0.39268461652E+02  0.50528861497E+02  0.30000005006E+02 0.  0.
        -12    1    1    2    0    0  0.89605942163E+01  0.55552870843E+01 -0.39268461652E+02  0.40659138503E+02  0.00000000000E+00 0.  1.
         11    1    3    3    0    0 -0.69858608090E+01 -0.59925942574E+01  0.98177461841E+01  0.13457398618E+02  0.51100000000E-03 0. -1.
        -11    1    3    3    0    0 -0.22972714032E+01  0.75892864065E+01  0.13131083373E+01  0.80373489302E+01  0.51100000000E-03 0.  1.
        -12    1    3    3    0    0  0.32253799597E+00 -0.71519792334E+01  0.28137607131E+02  0.29034113948E+02  0.00000000000E+00 0.  1.
</event>
<event>
 7    1  0.5006721E-012  0.5052885E+02  0.7816164E-02  0.1300439E+00
        -11   -1    0    0    0    0  0.00000000000E+00  0.00000000000E+00  0.45593999997E+02  0.45594000000E+02  0.51100000000E-03 0. -1.
         11   -1    0    0    0    0 -0.00000000000E+00 -0.00000000000E+00 -0.45593999997E+02  0.45594000000E+02  0.51100000000E-03 0.  1.
    9900012    2    1    2    0    0  0.81385031656E+01  0.23974157155E+02 -0.31814638784E+02  0.50528847451E+02  0.29999962311E+02 0.  0.
         12    1    1    2    0    0 -0.81385031656E+01 -0.23974157155E+02  0.31814638784E+02  0.40659152549E+02  0.00000000000E+00 0. -1.
         11    1    3    3    0    0 -0.38446989517E+01  0.36201248659E+01  0.23067855239E+01  0.57626620401E+01  0.51100000000E-03 0. -1.
        -11    1    3    3    0    0  0.55960554287E+01  0.19457302750E+02 -0.16886413748E+02  0.26363866108E+02  0.51100000000E-03 0.  1.
         12    1    3    3    0    0  0.63871466886E+01  0.89672953944E+00 -0.17235010561E+02  0.18402319302E+02  0.00000000000E+00 0. -1.
</event>
<event>
 7    1  0.5006721E-012  0.5052887E+02  0.7816164E-02  0.1300439E+00
        -11   -1    0    0    0    0  0.00000000000E+00  0.00000000000E+00  0.45593999997E+02  0.45594000000E+02  0.51100000000E-03 0. -1.
         11   -1    0    0    0    0 -0.00000000000E+00 -0.00000000000E+00 -0.45593999997E+02  0.45594000000E+02  0.51100000000E-03 0.  1.
    9900012    2    1    2    0    0  0.29441710269E+02  0.95584233907E+01 -0.26362600458E+02  0.50528874774E+02  0.30000045362E+02 0.  0.
         12    1    1    2    0    0 -0.29441710269E+02 -0.95584233907E+01  0.26362600458E+02  0.40659125226E+02  0.00000000000E+00 0. -1.
         11    1    3    3    0    0 -0.90220502847E+00  0.48221945651E+01 -0.15636341183E+02  0.16387882724E+02  0.51100000000E-03 0.  1.
        -11    1    3    3    0    0  0.27989860091E+02  0.44635658977E+01 -0.12698247707E+02  0.31058029292E+02  0.51100000000E-03 0. -1.
        -12    1    3    3    0    0  0.23540552065E+01  0.27266292795E+00  0.19719884321E+01  0.30829627574E+01  0.00000000000E+00 0.  1.
</event>
<event>
 7    1  0.5006721E-012  0.5052886E+02  0.7816164E-02  0.1300439E+00
        -11   -1    0    0    0    0  0.00000000000E+00  0.00000000000E+00  0.45593999997E+02  0.45594000000E+02  0.51100000000E-03 0. -1.
         11   -1    0    0    0    0 -0.00000000000E+00 -0.00000000000E+00 -0.45593999997E+02  0.45594000000E+02  0.51100000000E-03 0.  1.
    9900012    2    1    2    0    0 -0.11141467020E+02  0.35201794937E+02 -0.17025482312E+02  0.50528859550E+02  0.29999999089E+02 0.  0.
         12    1    1    2    0    0  0.11141467020E+02 -0.35201794937E+02  0.17025482312E+02  0.40659140450E+02  0.00000000000E+00 0. -1.
         11    1    3    3    0    0 -0.12008722349E+02  0.83340553395E+01  0.41552015249E+01  0.15196433491E+02  0.51100000000E-03 0. -1.
        -11    1    3    3    0    0 -0.17457926606E+01  0.12436127576E+02 -0.14598833386E+02  0.19256972701E+02  0.51100000000E-03 0.  1.
         12    1    3    3    0    0  0.26130479895E+01  0.14431612022E+02 -0.65818504508E+01  0.16075453359E+02  0.00000000000E+00 0. -1.
</event>
<event>
 7    1  0.5006721E-012  0.5052886E+02  0.7816164E-02  0.1300439E+00
        -11   -1    0    0    0    0  0.00000000000E+00  0.00000000000E+00  0.45593999997E+02  0.45594000000E+02  0.51100000000E-03 0. -1.
         11   -1    0    0    0    0 -0.00000000000E+00 -0.00000000000E+00 -0.45593999997E+02  0.45594000000E+02  0.51100000000E-03 0.  1.
    9900012    2    1    2    0    0 -0.38823064832E+00  0.13895972467E+02  0.38208859339E+02  0.50528859504E+02  0.29999998949E+02 0.  0.
        -12    1    1    2    0    0  0.38823064832E+00 -0.13895972467E+02 -0.38208859339E+02  0.40659140496E+02  0.00000000000E+00 0.  1.
         11    1    3    3    0    0  0.54352967991E+01  0.13733175502E+02  0.38335262665E+02  0.41082051123E+02  0.51100000000E-03 0. -1.
        -11    1    3    3    0    0 -0.44829767170E+01  0.90637444104E+00  0.33354504942E+01  0.56607265553E+01  0.51100000000E-03 0.  1.
         12    1    3    3    0    0 -0.13405507304E+01 -0.74357747605E+00 -0.34618538196E+01  0.37860818258E+01  0.00000000000E+00 0. -1.
</event>
<event>
 7    1  0.5006721E-012  0.5052886E+02  0.7816164E-02  0.1300439E+00
        -11   -1    0    0    0    0  0.00000000000E+00  0.00000000000E+00  0.45593999997E+02  0.45594000000E+02  0.51100000000E-03 0. -1.
         11   -1    0    0    0    0 -0.00000000000E+00 -0.00000000000E+00 -0.45593999997E+02  0.45594000000E+02  0.51100000000E-03 0.  1.
    9900012    2    1    2    0    0  0.34960326750E+02 -0.31664865222E+01  0.20516203917E+02  0.50528859496E+02  0.29999998924E+02 0.  0.
        -12    1    1    2    0    0 -0.34960326750E+02  0.31664865222E+01 -0.20516203917E+02  0.40659140504E+02  0.00000000000E+00 0.  1.
         11    1    3    3    0    0  0.18673368397E+02  0.92407156659E+01  0.10228096350E+02  0.23209900226E+02  0.51100000000E-03 0. -1.
        -11    1    3    3    0    0  0.76202641276E+00 -0.36119268845E+01  0.86451255112E+01  0.94002603921E+01  0.51100000000E-03 0.  1.
         12    1    3    3    0    0  0.15524931940E+02 -0.87952753036E+01  0.16429820554E+01  0.17918698877E+02  0.00000000000E+00 0. -1.
</event>
<event>
 7    1  0.5006721E-012  0.5052885E+02  0.7816164E-02  0.1300439E+00
        -11   -1    0    0    0    0  0.00000000000E+00  0.00000000000E+00  0.45593999997E+02  0.45594000000E+02  0.51100000000E-03 0. -1.
         11   -1    0    0    0    0 -0.00000000000E+00 -0.00000000000E+00 -0.45593999997E+02  0.45594000000E+02  0.51100000000E-03 0.  1.
    9900012    2    1    2    0    0 -0.69121340705E+01  0.31484157399E+02  0.24781782128E+02  0.50528849862E+02  0.29999969640E+02 0.  0.
        -12    1    1    2    0    0  0.69121340705E+01 -0.31484157399E+02 -0.24781782128E+02  0.40659150138E+02  0.00000000000E+00 0.  1.
         11    1    3    3    0    0  0.40608622103E+00  0.17703217051E+02  0.13440237244E+02  0.22230806945E+02  0.51100000000E-03 0. -1.
        -11    1    3    3    0    0 -0.75507437792E+00  0.43887691434E+01 -0.60250182014E+01  0.74921476560E+01  0.51100000000E-03 0.  1.
        -12    1    3    3    0    0 -0.65631459136E+01  0.93921712046E+01  0.17366563085E+02  0.20805895261E+02  0.00000000000E+00 0.  1.
</event>
<event>
 7    1  0.5006721E-012  0.5052886E+02  0.7816164E-02  0.1300439E+00
        -11   -1    0    0    0    0  0.00000000000E+00  0.00000000000E+00  0.45593999997E+02  0.45594000000E+02  0.51100000000E-03 0. -1.
         11   -1    0    0    0    0 -0.00000000000E+00 -0.00000000000E+00 -0.45593999997E+02  0.45594000000E+02  0.51100000000E-03 0.  1.
    9900012    2    1    2    0    0  0.13854260173E+02  0.32849187208E+02 -0.19548805710E+02  0.50528862898E+02  0.30000009266E+02 0.  0.
         12    1    1    2    0    0 -0.13854260173E+02 -0.32849187208E+02  0.19548805710E+02  0.40659137102E+02  0.00000000000E+00 0. -1.
         11    1    3    3    0    0  0.40576828441E+01  0.16130376301E+02 -0.18727386642E+02  0.25047332001E+02  0.51100000000E-03 0. -1.
        -11    1    3    3    0    0  0.11743267778E+02  0.14460302812E+02  0.46952161196E+01  0.19210667615E+02  0.51100000000E-03 0.  1.
         12    1    3    3    0    0 -0.19466904490E+01  0.22585080941E+01 -0.55166351876E+01  0.62708632825E+01  0.00000000000E+00 0. -1.
</event>
<event>
 7    1  0.5006721E-012  0.5052887E+02  0.7816164E-02  0.1300439E+00
        -11   -1    0    0    0    0  0.00000000000E+00  0.00000000000E+00  0.45593999997E+02  0.45594000000E+02  0.51100000000E-03 0.  1.
         11   -1    0    0    0    0 -0.00000000000E+00 -0.00000000000E+00 -0.45593999997E+02  0.45594000000E+02  0.51100000000E-03 0. -1.
    9900012    2    1    2    0    0  0.37317992560E+01  0.33429530292E+02 -0.22840870488E+02  0.50528865899E+02  0.30000018385E+02 0.  0.
         12    1    1    2    0    0 -0.37317992560E+01 -0.33429530292E+02  0.22840870488E+02  0.40659134101E+02  0.00000000000E+00 0. -1.
         11    1    3    3    0    0  0.49830042422E+01  0.75615455733E+00 -0.90219804897E+01  0.10334323065E+02  0.51100000000E-03 0. -1.
        -11    1    3    3    0    0  0.49920715287E+01  0.30213954547E+02 -0.89521490417E+01  0.31905247221E+02  0.51100000000E-03 0.  1.
        -12    1    3    3    0    0 -0.62432765149E+01  0.24594211883E+01 -0.48667409562E+01  0.82892956129E+01  0.00000000000E+00 0.  1.
</event>
<event>
 7    1  0.5006721E-012  0.5052885E+02  0.7816164E-02  0.1300439E+00
        -11   -1    0    0    0    0  0.00000000000E+00  0.00000000000E+00  0.45593999997E+02  0.45594000000E+02  0.51100000000E-03 0. -1.
         11   -1    0    0    0    0 -0.00000000000E+00 -0.00000000000E+00 -0.45593999997E+02  0.45594000000E+02  0.51100000000E-03 0.  1.
    9900012    2    1    2    0    0 -0.10490784543E+02  0.13448459402E+02  0.36908652493E+02  0.50528852819E+02  0.29999978628E+02 0.  0.
        -12    1    1    2    0    0  0.10490784543E+02 -0.13448459402E+02 -0.36908652493E+02  0.40659147181E+02  0.00000000000E+00 0.  1.
         11    1    3    3    0    0 -0.78558466469E+01 -0.43605696025E+01  0.47977818932E+01  0.10185656835E+02  0.51100000000E-03 0. -1.
        -11    1    3    3    0    0 -0.54491008543E+01  0.19899779007E+02  0.24994766864E+02  0.32410372962E+02  0.51100000000E-03 0.  1.
        -12    1    3    3    0    0  0.28141629578E+01 -0.20907500025E+01  0.71161037357E+01  0.79328230223E+01  0.00000000000E+00 0.  1.
</event>
<event>
 7    1  0.5006721E-012  0.5052885E+02  0.7816164E-02  0.1300439E+00
        -11   -1    0    0    0    0  0.00000000000E+00  0.00000000000E+00  0.45593999997E+02  0.45594000000E+02  0.51100000000E-03 0. -1.
         11   -1    0    0    0    0 -0.00000000000E+00 -0.00000000000E+00 -0.45593999997E+02  0.45594000000E+02  0.51100000000E-03 0.  1.
    9900012    2    1    2    0    0 -0.14759504902E+02  0.55993290304E+01 -0.37469600154E+02  0.50528850891E+02  0.29999972770E+02 0.  0.
         12    1    1    2    0    0  0.14759504902E+02 -0.55993290304E+01  0.37469600154E+02  0.40659149109E+02  0.00000000000E+00 0. -1.
         11    1    3    3    0    0 -0.42168127834E+01  0.46045538555E+01  0.14687581443E+01  0.64140998594E+01  0.51100000000E-03 0. -1.
        -11    1    3    3    0    0 -0.71821011651E+01  0.15764895104E+00 -0.39883100230E+02  0.40524919673E+02  0.51100000000E-03 0.  1.
        -12    1    3    3    0    0 -0.33605909531E+01  0.83712622387E+00  0.94474193127E+00  0.35898313589E+01  0.00000000000E+00 0.  1.
</event>
<event>
 7    1  0.5006721E-012  0.5052886E+02  0.7816164E-02  0.1300439E+00
        -11   -1    0    0    0    0  0.00000000000E+00  0.00000000000E+00  0.45593999997E+02  0.45594000000E+02  0.51100000000E-03 0. -1.
         11   -1    0    0    0    0 -0.00000000000E+00 -0.00000000000E+00 -0.45593999997E+02  0.45594000000E+02  0.51100000000E-03 0.  1.
    9900012    2    1    2    0    0 -0.10479465351E+02  0.13142175562E+02  0.37022015493E+02  0.50528860760E+02  0.30000002767E+02 0.  0.
        -12    1    1    2    0    0  0.10479465351E+02 -0.13142175562E+02 -0.37022015493E+02  0.40659139240E+02  0.00000000000E+00 0.  1.
         11    1    3    3    0    0  0.10363732530E+01 -0.12637123590E+01  0.20146018584E+01  0.25941586989E+01  0.51100000000E-03 0. -1.
        -11    1    3    3    0    0  0.12749236458E+01  0.17595486377E+02  0.11735188283E+02  0.21188232947E+02  0.51100000000E-03 0.  1.
        -12    1    3    3    0    0 -0.12790762250E+02 -0.31895984554E+01  0.23272225352E+02  0.26746469114E+02  0.00000000000E+00 0.  1.
</event>
<event>
 7    1  0.5006721E-012  0.5052887E+02  0.7816164E-02  0.1300439E+00
        -11   -1    0    0    0    0  0.00000000000E+00  0.00000000000E+00  0.45593999997E+02  0.45594000000E+02  0.51100000000E-03 0. -1.
         11   -1    0    0    0    0 -0.00000000000E+00 -0.00000000000E+00 -0.45593999997E+02  0.45594000000E+02  0.51100000000E-03 0.  1.
    9900012    2    1    2    0    0 -0.39089740117E+02 -0.90678246696E+01 -0.65522121990E+01  0.50528871734E+02  0.30000036122E+02 0.  0.
         12    1    1    2    0    0  0.39089740117E+02  0.90678246696E+01  0.65522121990E+01  0.40659128266E+02  0.00000000000E+00 0. -1.
         11    1    3    3    0    0 -0.28764547787E+01 -0.58475492971E+01 -0.38220256031E+01  0.75548464477E+01  0.51100000000E-03 0. -1.
        -11    1    3    3    0    0 -0.12165798098E+02  0.77032818963E+00  0.97304608227E+01  0.15597497138E+02  0.51100000000E-03 0.  1.
        -12    1    3    3    0    0 -0.24047487240E+02 -0.39906035621E+01 -0.12460647419E+02  0.27376528148E+02  0.00000000000E+00 0.  1.
</event>
<event>
 7    1  0.5006721E-012  0.5052884E+02  0.7816164E-02  0.1300439E+00
        -11   -1    0    0    0    0  0.00000000000E+00  0.00000000000E+00  0.45593999997E+02  0.45594000000E+02  0.51100000000E-03 0. -1.
         11   -1    0    0    0    0 -0.00000000000E+00 -0.00000000000E+00 -0.45593999997E+02  0.45594000000E+02  0.51100000000E-03 0.  1.
    9900012    2    1    2    0    0  0.15374575640E+02 -0.59194038904E+01 -0.37171898444E+02  0.50528844174E+02  0.29999952352E+02 0.  0.
         12    1    1    2    0    0 -0.15374575640E+02  0.59194038904E+01  0.37171898444E+02  0.40659155826E+02  0.00000000000E+00 0. -1.
         11    1    3    3    0    0  0.18326889369E+02  0.76628550242E+01 -0.24776411963E+02  0.31756334976E+02  0.51100000000E-03 0. -1.
        -11    1    3    3    0    0 -0.90092823240E+00 -0.70067560610E+01 -0.76202779952E+01  0.10391099035E+02  0.51100000000E-03 0.  1.
         12    1    3    3    0    0 -0.20513854971E+01 -0.65755028535E+01 -0.47752084861E+01  0.83814101630E+01  0.00000000000E+00 0. -1.
</event>
<event>
 7    1  0.5006721E-012  0.5052886E+02  0.7816164E-02  0.1300439E+00
        -11   -1    0    0    0    0  0.00000000000E+00  0.00000000000E+00  0.45593999997E+02  0.45594000000E+02  0.51100000000E-03 0. -1.
         11   -1    0    0    0    0 -0.00000000000E+00 -0.00000000000E+00 -0.45593999997E+02  0.45594000000E+02  0.51100000000E-03 0.  1.
    9900012    2    1    2    0    0  0.11601359479E+02 -0.29426311480E+02 -0.25547334503E+02  0.50528860199E+02  0.30000001062E+02 0.  0.
         12    1    1    2    0    0 -0.11601359479E+02  0.29426311480E+02  0.25547334503E+02  0.40659139801E+02  0.00000000000E+00 0. -1.
         11    1    3    3    0    0 -0.33249734562E+01  0.15137106559E+01 -0.59800059429E+01  0.70076557972E+01  0.51100000000E-03 0. -1.
        -11    1    3    3    0    0  0.16302204446E+02 -0.19039020509E+02 -0.67100596019E+01  0.25947467542E+02  0.51100000000E-03 0.  1.
        -12    1    3    3    0    0 -0.13758715108E+01 -0.11901001628E+02 -0.12857268958E+02  0.17573736860E+02  0.00000000000E+00 0.  1.
</event>
<event>
 7    1  0.5006721E-012  0.5052887E+02  0.7816164E-02  0.1300439E+00
        -11   -1    0    0    0    0  0.00000000000E+00  0.00000000000E+00  0.45593999997E+02  0.45594000000E+02  0.51100000000E-03 0. -1.
         11   -1    0    0    0    0 -0.00000000000E+00 -0.00000000000E+00 -0.45593999997E+02  0.45594000000E+02  0.51100000000E-03 0.  1.
    9900012    2    1    2    0    0 -0.18041908896E+02  0.19573426342E+02  0.30733291630E+02  0.50528871753E+02  0.30000036180E+02 0.  0.
        -12    1    1    2    0    0  0.18041908896E+02 -0.19573426342E+02 -0.30733291630E+02  0.40659128247E+02  0.00000000000E+00 0.  1.
         11    1    3    3    0    0  0.36806922797E+01 -0.12250118910E+01 -0.15382466739E+01  0.41730507883E+01  0.51100000000E-03 0. -1.
        -11    1    3    3    0    0 -0.10147056668E+02  0.22656698090E+01  0.16126414585E+02  0.19187424692E+02  0.51100000000E-03 0.  1.
         12    1    3    3    0    0 -0.11575544508E+02  0.18532768424E+02  0.16145123720E+02  0.27168396273E+02  0.00000000000E+00 0. -1.
</event>
<event>
 7    1  0.7589336E-012  0.5052881E+02  0.7816164E-02  0.1300439E+00
        -11   -1    0    0    0    0  0.00000000000E+00  0.00000000000E+00  0.45593999997E+02  0.45594000000E+02  0.51100000000E-03 0. -1.
         11   -1    0    0    0    0 -0.00000000000E+00 -0.00000000000E+00 -0.45593999997E+02  0.45594000000E+02  0.51100000000E-03 0.  1.
    9900012    2    1    2    0    0  0.99358564511E+00  0.26231244489E+01  0.40562318529E+02  0.50528810648E+02  0.29999850446E+02 0.  0.
        -12    1    1    2    0    0 -0.99358564511E+00 -0.26231244489E+01 -0.40562318529E+02  0.40659189352E+02  0.00000000000E+00 0.  1.
         11    1    3    3    0    0 -0.84025569153E+01  0.67711056518E+01  0.85747718698E+01  0.13783234285E+02  0.51100000000E-03 0. -1.
        -11    1    3    3    0    0  0.10469648173E+02  0.29597328212E+01  0.18504111907E+02  0.21465686781E+02  0.51100000000E-03 0.  1.
         12    1    3    3    0    0 -0.10735056127E+01 -0.71077140241E+01  0.13483434752E+02  0.15279889583E+02  0.00000000000E+00 0. -1.
</event>
<event>
 7    1  0.5006721E-012  0.5052886E+02  0.7816164E-02  0.1300439E+00
        -11   -1    0    0    0    0  0.00000000000E+00  0.00000000000E+00  0.45593999997E+02  0.45594000000E+02  0.51100000000E-03 0. -1.
         11   -1    0    0    0    0 -0.00000000000E+00 -0.00000000000E+00 -0.45593999997E+02  0.45594000000E+02  0.51100000000E-03 0.  1.
    9900012    2    1    2    0    0  0.32918480501E+02 -0.69275181609E+01 -0.22837449444E+02  0.50528856336E+02  0.29999989319E+02 0.  0.
         12    1    1    2    0    0 -0.32918480501E+02  0.69275181609E+01  0.22837449444E+02  0.40659143664E+02  0.00000000000E+00 0. -1.
         11    1    3    3    0    0  0.30387439456E+02 -0.28544538424E+01 -0.23383190102E+02  0.38448900674E+02  0.51100000000E-03 0. -1.
        -11    1    3    3    0    0  0.37604968038E+01  0.30483400218E+01  0.20559678308E+00  0.48452021009E+01  0.51100000000E-03 0.  1.
         12    1    3    3    0    0 -0.12294557584E+01 -0.71214043403E+01  0.34014387467E+00  0.72347535615E+01  0.00000000000E+00 0. -1.
</event>
<event>
 7    1  0.5006721E-012  0.5052886E+02  0.7816164E-02  0.1300439E+00
        -11   -1    0    0    0    0  0.00000000000E+00  0.00000000000E+00  0.45593999997E+02  0.45594000000E+02  0.51100000000E-03 0.  1.
         11   -1    0    0    0    0 -0.00000000000E+00 -0.00000000000E+00 -0.45593999997E+02  0.45594000000E+02  0.51100000000E-03 0. -1.
    9900012    2    1    2    0    0 -0.23524060224E+01  0.38839007430E+02  0.11796738988E+02  0.50528863720E+02  0.30000011764E+02 0.  0.
        -12    1    1    2    0    0  0.23524060224E+01 -0.38839007430E+02 -0.11796738988E+02  0.40659136280E+02  0.00000000000E+00 0.  1.
         11    1    3    3    0    0 -0.52927203892E+01 -0.12063625809E+01  0.69848935136E+01  0.88462951258E+01  0.51100000000E-03 0. -1.
        -11    1    3    3    0    0 -0.37855145253E+01  0.14350772237E+02  0.19188695450E+01  0.14965187757E+02  0.51100000000E-03 0.  1.
         12    1    3    3    0    0  0.67258288921E+01  0.25694597774E+02  0.28929759292E+01  0.26717380837E+02  0.00000000000E+00 0. -1.
</event>
<event>
 7    1  0.5006721E-012  0.5052885E+02  0.7816164E-02  0.1300439E+00
        -11   -1    0    0    0    0  0.00000000000E+00  0.00000000000E+00  0.45593999997E+02  0.45594000000E+02  0.51100000000E-03 0. -1.
         11   -1    0    0    0    0 -0.00000000000E+00 -0.00000000000E+00 -0.45593999997E+02  0.45594000000E+02  0.51100000000E-03 0.  1.
    9900012    2    1    2    0    0  0.34225425270E+02  0.18830682286E+02  0.11277962496E+02  0.50528846439E+02  0.29999959235E+02 0.  0.
        -12    1    1    2    0    0 -0.34225425270E+02 -0.18830682286E+02 -0.11277962496E+02  0.40659153561E+02  0.00000000000E+00 0.  1.
         11    1    3    3    0    0  0.18851041858E+02  0.34538139563E+01  0.44077862800E+01  0.19665177094E+02  0.51100000000E-03 0. -1.
        -11    1    3    3    0    0  0.18841308009E+02  0.17706084859E+02  0.52454949081E+01  0.26382106542E+02  0.51100000000E-03 0.  1.
        -12    1    3    3    0    0 -0.34669245971E+01 -0.23292165292E+01  0.16246813083E+01  0.44815628028E+01  0.00000000000E+00 0.  1.
</event>
<event>
 7    1  0.5006721E-012  0.5052884E+02  0.7816164E-02  0.1300439E+00
        -11   -1    0    0    0    0  0.00000000000E+00  0.00000000000E+00  0.45593999997E+02  0.45594000000E+02  0.51100000000E-03 0. -1.
         11   -1    0    0    0    0 -0.00000000000E+00 -0.00000000000E+00 -0.45593999997E+02  0.45594000000E+02  0.51100000000E-03 0.  1.
    9900012    2    1    2    0    0  0.86392836378E+01 -0.32745085919E+02 -0.22500871780E+02  0.50528842305E+02  0.29999946669E+02 0.  0.
         12    1    1    2    0    0 -0.86392836378E+01  0.32745085919E+02  0.22500871780E+02  0.40659157695E+02  0.00000000000E+00 0. -1.
         11    1    3    3    0    0 -0.51154837878E+01 -0.30206200457E+01  0.12093749362E+01  0.60625826049E+01  0.51100000000E-03 0. -1.
        -11    1    3    3    0    0  0.51811881907E+01 -0.25097279152E+02 -0.96985501349E+01  0.27400365087E+02  0.51100000000E-03 0.  1.
        -12    1    3    3    0    0  0.85735792349E+01 -0.46271867214E+01 -0.14011696581E+02  0.17065894613E+02  0.00000000000E+00 0.  1.
</event>
<event>
 7    1  0.5006721E-012  0.5052887E+02  0.7816164E-02  0.1300439E+00
        -11   -1    0    0    0    0  0.00000000000E+00  0.00000000000E+00  0.45593999997E+02  0.45594000000E+02  0.51100000000E-03 0. -1.
         11   -1    0    0    0    0 -0.00000000000E+00 -0.00000000000E+00 -0.45593999997E+02  0.45594000000E+02  0.51100000000E-03 0.  1.
    9900012    2    1    2    0    0 -0.63971429731E+01 -0.54115287299E+01  0.39786393398E+02  0.50528865959E+02  0.30000018568E+02 0.  0.
        -12    1    1    2    0    0  0.63971429731E+01  0.54115287299E+01 -0.39786393398E+02  0.40659134041E+02  0.00000000000E+00 0.  1.
         11    1    3    3    0    0  0.88845207185E+00  0.10417608707E+02  0.13771371895E+02  0.17290650722E+02  0.51100000000E-03 0. -1.
        -11    1    3    3    0    0 -0.23941921619E+01 -0.15463021306E+02  0.18092907965E+02  0.23920503818E+02  0.51100000000E-03 0.  1.
         12    1    3    3    0    0 -0.48914028830E+01 -0.36611613051E+00  0.79221135374E+01  0.93177114188E+01  0.00000000000E+00 0. -1.
</event>
<event>
 7    1  0.5006721E-012  0.5052885E+02  0.7816164E-02  0.1300439E+00
        -11   -1    0    0    0    0  0.00000000000E+00  0.00000000000E+00  0.45593999997E+02  0.45594000000E+02  0.51100000000E-03 0. -1.
         11   -1    0    0    0    0 -0.00000000000E+00 -0.00000000000E+00 -0.45593999997E+02  0.45594000000E+02  0.51100000000E-03 0.  1.
    9900012    2    1    2    0    0  0.16696369329E+02  0.16289025041E+02  0.33302633515E+02  0.50528849927E+02  0.29999969839E+02 0.  0.
        -12    1    1    2    0    0 -0.16696369329E+02 -0.16289025041E+02 -0.33302633515E+02  0.40659150073E+02  0.00000000000E+00 0.  1.
         11    1    3    3    0    0  0.30196651758E+01  0.13976824811E+02  0.17928496987E+02  0.22932531784E+02  0.51100000000E-03 0. -1.
        -11    1    3    3    0    0  0.11341157855E+02 -0.55526305649E+01  0.33930507124E+01  0.13075410551E+02  0.51100000000E-03 0.  1.
        -12    1    3    3    0    0  0.23355462980E+01  0.78648307952E+01  0.11981085816E+02  0.14520907592E+02  0.00000000000E+00 0.  1.
</event>
<event>
 7    1  0.5006721E-012  0.5052886E+02  0.7816164E-02  0.1300439E+00
        -11   -1    0    0    0    0  0.00000000000E+00  0.00000000000E+00  0.45593999997E+02  0.45594000000E+02  0.51100000000E-03 0. -1.
         11   -1    0    0    0    0 -0.00000000000E+00 -0.00000000000E+00 -0.45593999997E+02  0.45594000000E+02  0.51100000000E-03 0.  1.
    9900012    2    1    2    0    0 -0.17322611306E+02 -0.27226839369E+02 -0.24734427670E+02  0.50528861339E+02  0.30000004526E+02 0.  0.
         12    1    1    2    0    0  0.17322611306E+02  0.27226839369E+02  0.24734427670E+02  0.40659138661E+02  0.00000000000E+00 0. -1.
         11    1    3    3    0    0 -0.57025780876E+01  0.36013287704E+01 -0.20177498941E+01  0.70399062958E+01  0.51100000000E-03 0. -1.
        -11    1    3    3    0    0 -0.19745106929E-01 -0.13161949486E+02 -0.17178263839E+02  0.21640934659E+02  0.51100000000E-03 0.  1.
         12    1    3    3    0    0 -0.11600288111E+02 -0.17666218653E+02 -0.55384139373E+01  0.21848020384E+02  0.00000000000E+00 0. -1.
</event>
<event>
 7    1  0.6196442E-012  0.5052887E+02  0.7816164E-02  0.1300439E+00
        -11   -1    0    0    0    0  0.00000000000E+00  0.00000000000E+00  0.45593999997E+02  0.45594000000E+02  0.51100000000E-03 0. -1.
         11   -1    0    0    0    0 -0.00000000000E+00 -0.00000000000E+00 -0.45593999997E+02  0.45594000000E+02  0.51100000000E-03 0.  1.
    9900012    2    1    2    0    0  0.28197243480E+02 -0.67327185499E+01  0.28508791603E+02  0.50528865263E+02  0.30000016453E+02 0.  0.
        -12    1    1    2    0    0 -0.28197243480E+02  0.67327185499E+01 -0.28508791603E+02  0.40659134737E+02  0.00000000000E+00 0.  1.
         11    1    3    3    0    0 -0.18741211095E+01 -0.49627882551E+01  0.67792163831E+01  0.86080992227E+01  0.51100000000E-03 0. -1.
        -11    1    3    3    0    0  0.21065631153E+02 -0.14233016242E+01  0.32522396527E+01  0.21362669926E+02  0.51100000000E-03 0.  1.
         12    1    3    3    0    0  0.90057334369E+01 -0.34662867063E+00  0.18477335567E+02  0.20558096114E+02  0.00000000000E+00 0. -1.
</event>
<event>
 7    1  0.5006721E-012  0.5052886E+02  0.7816164E-02  0.1300439E+00
        -11   -1    0    0    0    0  0.00000000000E+00  0.00000000000E+00  0.45593999997E+02  0.45594000000E+02  0.51100000000E-03 0. -1.
         11   -1    0    0    0    0 -0.00000000000E+00 -0.00000000000E+00 -0.45593999997E+02  0.45594000000E+02  0.51100000000E-03 0.  1.
    9900012    2    1    2    0    0 -0.17737645047E+02  0.33194052374E+02  0.15384942069E+02  0.50528860716E+02  0.30000002633E+02 0.  0.
        -12    1    1    2    0    0  0.17737645047E+02 -0.33194052374E+02 -0.15384942069E+02  0.40659139284E+02  0.00000000000E+00 0.  1.
         11    1    3    3    0    0 -0.13446422375E+02  0.96194865325E+01  0.18788511466E+02  0.25026964643E+02  0.51100000000E-03 0. -1.
        -11    1    3    3    0    0 -0.34981393399E+01  0.42189155068E+01 -0.27189332983E+01  0.61179102181E+01  0.51100000000E-03 0.  1.
         12    1    3    3    0    0 -0.79308333128E+00  0.19355650335E+02 -0.68463609900E+00  0.19383985855E+02  0.00000000000E+00 0. -1.
</event>
<event>
 7    1  0.5006721E-012  0.5052886E+02  0.7816164E-02  0.1300439E+00
        -11   -1    0    0    0    0  0.00000000000E+00  0.00000000000E+00  0.45593999997E+02  0.45594000000E+02  0.51100000000E-03 0. -1.
         11   -1    0    0    0    0 -0.00000000000E+00 -0.00000000000E+00 -0.45593999997E+02  0.45594000000E+02  0.51100000000E-03 0.  1.
    9900012    2    1    2    0    0 -0.11464959493E+02  0.31720047885E+02 -0.22705917258E+02  0.50528863111E+02  0.30000009912E+02 0.  0.
         12    1    1    2    0    0  0.11464959493E+02 -0.31720047885E+02  0.22705917258E+02  0.40659136889E+02  0.00000000000E+00 0. -1.
         11    1    3    3    0    0 -0.14920480927E+02  0.15159142987E+02 -0.20499454697E+02  0.29540616282E+02  0.51100000000E-03 0.  1.
        -11    1    3    3    0    0  0.74025203907E+01  0.12856393677E+02 -0.38581549810E+01  0.15328715753E+02  0.51100000000E-03 0. -1.
         12    1    3    3    0    0 -0.39469989566E+01  0.37045112209E+01  0.16516924194E+01  0.56595310757E+01  0.00000000000E+00 0. -1.
</event>
<event>
 7    1  0.5006721E-012  0.5052886E+02  0.7816164E-02  0.1300439E+00
        -11   -1    0    0    0    0  0.00000000000E+00  0.00000000000E+00  0.45593999997E+02  0.45594000000E+02  0.51100000000E-03 0. -1.
         11   -1    0    0    0    0 -0.00000000000E+00 -0.00000000000E+00 -0.45593999997E+02  0.45594000000E+02  0.51100000000E-03 0.  1.
    9900012    2    1    2    0    0  0.20099082208E+02  0.18962405470E+01 -0.35293016034E+02  0.50528858167E+02  0.29999994884E+02 0.  0.
         12    1    1    2    0    0 -0.20099082208E+02 -0.18962405470E+01  0.35293016034E+02  0.40659141833E+02  0.00000000000E+00 0. -1.
         11    1    3    3    0    0 -0.49571751893E+01  0.84905616577E+01 -0.66800421926E+01  0.11886386628E+02  0.51100000000E-03 0. -1.
        -11    1    3    3    0    0  0.19551807794E+02 -0.45044430017E+01 -0.21473038110E+02  0.29388000285E+02  0.51100000000E-03 0.  1.
         12    1    3    3    0    0  0.55044496030E+01 -0.20898781091E+01 -0.71399357314E+01  0.92544712540E+01  0.00000000000E+00 0. -1.
</event>
<event>
 7    1  0.5006721E-012  0.5052885E+02  0.7816164E-02  0.1300439E+00
        -11   -1    0    0    0    0  0.00000000000E+00  0.00000000000E+00  0.45593999997E+02  0.45594000000E+02  0.51100000000E-03 0. -1.
         11   -1    0    0    0    0 -0.00000000000E+00 -0.00000000000E+00 -0.45593999997E+02  0.45594000000E+02  0.51100000000E-03 0.  1.
    9900012    2    1    2    0    0  0.36369729760E+02 -0.72298424328E+01 -0.16677476401E+02  0.50528854860E+02  0.29999984832E+02 0.  0.
         12    1    1    2    0    0 -0.36369729760E+02  0.72298424328E+01  0.16677476401E+02  0.40659145140E+02  0.00000000000E+00 0. -1.
         11    1    3    3    0    0  0.99345145769E+01 -0.48715039818E+01  0.45816622414E+01  0.11975715431E+02  0.51100000000E-03 0. -1.
        -11    1    3    3    0    0  0.17021657467E+02  0.73046471062E+01 -0.10455384581E+02  0.21269926170E+02  0.51100000000E-03 0.  1.
         12    1    3    3    0    0  0.94135577160E+01 -0.96629855572E+01 -0.10803754062E+02  0.17283213260E+02  0.00000000000E+00 0. -1.
</event>
<event>
 7    1  0.5006721E-012  0.5052886E+02  0.7816164E-02  0.1300439E+00
        -11   -1    0    0    0    0  0.00000000000E+00  0.00000000000E+00  0.45593999997E+02  0.45594000000E+02  0.51100000000E-03 0. -1.
         11   -1    0    0    0    0 -0.00000000000E+00 -0.00000000000E+00 -0.45593999997E+02  0.45594000000E+02  0.51100000000E-03 0.  1.
    9900012    2    1    2    0    0 -0.13960055919E+02 -0.21819064238E+02  0.31340244636E+02  0.50528860077E+02  0.30000000689E+02 0.  0.
        -12    1    1    2    0    0  0.13960055919E+02  0.21819064238E+02 -0.31340244636E+02  0.40659139923E+02  0.00000000000E+00 0.  1.
         11    1    3    3    0    0 -0.22302489522E+01 -0.62857865779E+01  0.12627244736E+01  0.67881953897E+01  0.51100000000E-03 0. -1.
        -11    1    3    3    0    0  0.36904304024E+01  0.47678489012E+01  0.37892605441E+01  0.71211063348E+01  0.51100000000E-03 0.  1.
        -12    1    3    3    0    0 -0.15420237369E+02 -0.20301126561E+02  0.26288259618E+02  0.36619558352E+02  0.00000000000E+00 0.  1.
</event>
<event>
 7    1  0.5006721E-012  0.5052886E+02  0.7816164E-02  0.1300439E+00
        -11   -1    0    0    0    0  0.00000000000E+00  0.00000000000E+00  0.45593999997E+02  0.45594000000E+02  0.51100000000E-03 0. -1.
         11   -1    0    0    0    0 -0.00000000000E+00 -0.00000000000E+00 -0.45593999997E+02  0.45594000000E+02  0.51100000000E-03 0.  1.
    9900012    2    1    2    0    0 -0.16522485489E+02 -0.23323054748E+02 -0.28917270221E+02  0.50528856791E+02  0.29999990701E+02 0.  0.
         12    1    1    2    0    0  0.16522485489E+02  0.23323054748E+02  0.28917270221E+02  0.40659143209E+02  0.00000000000E+00 0. -1.
         11    1    3    3    0    0  0.19183439854E+01  0.23686875221E+01  0.14384216427E+01  0.33704274665E+01  0.51100000000E-03 0. -1.
        -11    1    3    3    0    0 -0.18269605487E+02 -0.28134805663E+02 -0.29086100803E+02  0.44399853992E+02  0.51100000000E-03 0.  1.
        -12    1    3    3    0    0 -0.17122398806E+00  0.24430633938E+01 -0.12695910606E+01  0.27585753318E+01  0.00000000000E+00 0.  1.
</event>
<event>
 7    1  0.5006721E-012  0.5052886E+02  0.7816164E-02  0.1300439E+00
        -11   -1    0    0    0    0  0.00000000000E+00  0.00000000000E+00  0.45593999997E+02  0.45594000000E+02  0.51100000000E-03 0. -1.
         11   -1    0    0    0    0 -0.00000000000E+00 -0.00000000000E+00 -0.45593999997E+02  0.45594000000E+02  0.51100000000E-03 0.  1.
    9900012    2    1    2    0    0 -0.13074621972E+02  0.34414121525E+02  0.17259431793E+02  0.50528862210E+02  0.30000007173E+02 0.  0.
        -12    1    1    2    0    0  0.13074621972E+02 -0.34414121525E+02 -0.17259431793E+02  0.40659137790E+02  0.00000000000E+00 0.  1.
         11    1    3    3    0    0 -0.59705729502E+01 -0.11421134813E+01  0.16902204468E+01  0.63094381666E+01  0.51100000000E-03 0. -1.
        -11    1    3    3    0    0 -0.12410115834E+02  0.31255301298E+02  0.91627428845E+01  0.34854851767E+02  0.51100000000E-03 0.  1.
        -12    1    3    3    0    0  0.53060668119E+01  0.43009337081E+01  0.64064684616E+01  0.93645722766E+01  0.00000000000E+00 0.  1.
</event>
<event>
 7    1  0.5006721E-012  0.5052886E+02  0.7816164E-02  0.1300439E+00
        -11   -1    0    0    0    0  0.00000000000E+00  0.00000000000E+00  0.45593999997E+02  0.45594000000E+02  0.51100000000E-03 0. -1.
         11   -1    0    0    0    0 -0.00000000000E+00 -0.00000000000E+00 -0.45593999997E+02  0.45594000000E+02  0.51100000000E-03 0.  1.
    9900012    2    1    2    0    0  0.57830469474E+01 -0.15849679348E+02  0.36993374842E+02  0.50528858966E+02  0.29999997313E+02 0.  0.
        -12    1    1    2    0    0 -0.57830469474E+01  0.15849679348E+02 -0.36993374842E+02  0.40659141034E+02  0.00000000000E+00 0.  1.
         11    1    3    3    0    0  0.24093519233E+01 -0.29734456392E+01  0.11268858912E+02  0.11900988913E+02  0.51100000000E-03 0. -1.
        -11    1    3    3    0    0  0.30097122954E+01 -0.15768546152E+02  0.37821755149E+01  0.16492733786E+02  0.51100000000E-03 0.  1.
        -12    1    3    3    0    0  0.36398272867E+00  0.28923124431E+01  0.21942340415E+02  0.22135136267E+02  0.00000000000E+00 0.  1.
</event>
<event>
 7    1  0.5006721E-012  0.5052885E+02  0.7816164E-02  0.1300439E+00
        -11   -1    0    0    0    0  0.00000000000E+00  0.00000000000E+00  0.45593999997E+02  0.45594000000E+02  0.51100000000E-03 0. -1.
         11   -1    0    0    0    0 -0.00000000000E+00 -0.00000000000E+00 -0.45593999997E+02  0.45594000000E+02  0.51100000000E-03 0.  1.
    9900012    2    1    2    0    0 -0.21157507402E+02  0.31009813100E+02  0.15617868471E+02  0.50528850433E+02  0.29999971376E+02 0.  0.
        -12    1    1    2    0    0  0.21157507402E+02 -0.31009813100E+02 -0.15617868471E+02  0.40659149567E+02  0.00000000000E+00 0.  1.
         11    1    3    3    0    0 -0.91263506359E+01  0.14538750907E+02  0.85783439872E+01  0.19189933290E+02  0.51100000000E-03 0. -1.
        -11    1    3    3    0    0  0.52228172141E+01  0.63806711070E+01 -0.32439429176E+01  0.88608097453E+01  0.51100000000E-03 0.  1.
        -12    1    3    3    0    0 -0.17253973980E+02  0.10090391086E+02  0.10283467401E+02  0.22478107397E+02  0.00000000000E+00 0.  1.
</event>
<event>
 7    1  0.5006721E-012  0.5052886E+02  0.7816164E-02  0.1300439E+00
        -11   -1    0    0    0    0  0.00000000000E+00  0.00000000000E+00  0.45593999997E+02  0.45594000000E+02  0.51100000000E-03 0. -1.
         11   -1    0    0    0    0 -0.00000000000E+00 -0.00000000000E+00 -0.45593999997E+02  0.45594000000E+02  0.51100000000E-03 0.  1.
    9900012    2    1    2    0    0  0.29279556792E+02  0.27836531789E+02 -0.45826622067E+01  0.50528859073E+02  0.29999997639E+02 0.  0.
         12    1    1    2    0    0 -0.29279556792E+02 -0.27836531789E+02  0.45826622067E+01  0.40659140927E+02  0.00000000000E+00 0. -1.
         11    1    3    3    0    0  0.99178524525E+01  0.95052542793E+00  0.45986113960E+01  0.10973355134E+02  0.51100000000E-03 0. -1.
        -11    1    3    3    0    0  0.16717328614E+02  0.23288659841E+02 -0.14893445086E+02  0.32305502008E+02  0.51100000000E-03 0.  1.
        -12    1    3    3    0    0  0.26443757249E+01  0.35973465206E+01  0.57121714829E+01  0.72500019320E+01  0.00000000000E+00 0.  1.
</event>
<event>
 7    1  0.5006721E-012  0.5052885E+02  0.7816164E-02  0.1300439E+00
        -11   -1    0    0    0    0  0.00000000000E+00  0.00000000000E+00  0.45593999997E+02  0.45594000000E+02  0.51100000000E-03 0. -1.
         11   -1    0    0    0    0 -0.00000000000E+00 -0.00000000000E+00 -0.45593999997E+02  0.45594000000E+02  0.51100000000E-03 0.  1.
    9900012    2    1    2    0    0  0.29914647654E+02  0.16571052753E+02  0.21992733085E+02  0.50528852909E+02  0.29999978902E+02 0.  0.
        -12    1    1    2    0    0 -0.29914647654E+02 -0.16571052753E+02 -0.21992733085E+02  0.40659147091E+02  0.00000000000E+00 0.  1.
         11    1    3    3    0    0  0.20331884193E+02  0.14990258663E+02  0.17927926374E+02  0.30975860181E+02  0.51100000000E-03 0. -1.
        -11    1    3    3    0    0  0.40474272448E+01  0.68880002969E+01 -0.35532600054E+01  0.87436761330E+01  0.51100000000E-03 0.  1.
         12    1    3    3    0    0  0.55353362164E+01 -0.53072062068E+01  0.76180667161E+01  0.10809316595E+02  0.00000000000E+00 0. -1.
</event>
<event>
 7    1  0.5006721E-012  0.5052886E+02  0.7816164E-02  0.1300439E+00
        -11   -1    0    0    0    0  0.00000000000E+00  0.00000000000E+00  0.45593999997E+02  0.45594000000E+02  0.51100000000E-03 0. -1.
         11   -1    0    0    0    0 -0.00000000000E+00 -0.00000000000E+00 -0.45593999997E+02  0.45594000000E+02  0.51100000000E-03 0.  1.
    9900012    2    1    2    0    0  0.70320197117E+01  0.24155000192E+02  0.31941389080E+02  0.50528859922E+02  0.30000000220E+02 0.  0.
        -12    1    1    2    0    0 -0.70320197117E+01 -0.24155000192E+02 -0.31941389080E+02  0.40659140078E+02  0.00000000000E+00 0.  1.
         11    1    3    3    0    0  0.10382882285E+02  0.21250741218E+02  0.29518578903E+02  0.37825186683E+02  0.51100000000E-03 0. -1.
        -11    1    3    3    0    0 -0.73266991266E+01  0.31555496401E+01  0.32857305008E+01  0.86275163754E+01  0.51100000000E-03 0.  1.
        -12    1    3    3    0    0  0.39758365534E+01 -0.25129066658E+00 -0.86292032334E+00  0.40761568643E+01  0.00000000000E+00 0.  1.
</event>
<event>
 7    1  0.5006721E-012  0.5052885E+02  0.7816164E-02  0.1300439E+00
        -11   -1    0    0    0    0  0.00000000000E+00  0.00000000000E+00  0.45593999997E+02  0.45594000000E+02  0.51100000000E-03 0. -1.
         11   -1    0    0    0    0 -0.00000000000E+00 -0.00000000000E+00 -0.45593999997E+02  0.45594000000E+02  0.51100000000E-03 0.  1.
    9900012    2    1    2    0    0  0.28725822403E+02  0.21674649489E+02 -0.18926246585E+02  0.50528854498E+02  0.29999983731E+02 0.  0.
         12    1    1    2    0    0 -0.28725822403E+02 -0.21674649489E+02  0.18926246585E+02  0.40659145502E+02  0.00000000000E+00 0. -1.
         11    1    3    3    0    0  0.17623050003E+02 -0.28217469800E+00 -0.53787314410E+01  0.18427758034E+02  0.51100000000E-03 0. -1.
        -11    1    3    3    0    0  0.71619836230E+01  0.23667059753E+02 -0.10672258747E+02  0.26931781111E+02  0.51100000000E-03 0.  1.
        -12    1    3    3    0    0  0.39407887765E+01 -0.17102355659E+01 -0.28752563969E+01  0.51693153531E+01  0.00000000000E+00 0.  1.
</event>
<event>
 7    1  0.5006721E-012  0.5052885E+02  0.7816164E-02  0.1300439E+00
        -11   -1    0    0    0    0  0.00000000000E+00  0.00000000000E+00  0.45593999997E+02  0.45594000000E+02  0.51100000000E-03 0. -1.
         11   -1    0    0    0    0 -0.00000000000E+00 -0.00000000000E+00 -0.45593999997E+02  0.45594000000E+02  0.51100000000E-03 0.  1.
    9900012    2    1    2    0    0  0.53423320624E+01 -0.28869325342E+02 -0.28128058721E+02  0.50528854104E+02  0.29999982535E+02 0.  0.
         12    1    1    2    0    0 -0.53423320624E+01  0.28869325342E+02  0.28128058721E+02  0.40659145896E+02  0.00000000000E+00 0. -1.
         11    1    3    3    0    0  0.38207512631E+01 -0.13079127581E+02 -0.46590182848E+01  0.14400283683E+02  0.51100000000E-03 0. -1.
        -11    1    3    3    0    0  0.70407428738E+01 -0.65496221258E+00 -0.17626084507E+02  0.18991574211E+02  0.51100000000E-03 0.  1.
        -12    1    3    3    0    0 -0.55191620746E+01 -0.15135235548E+02 -0.58429559290E+01  0.17136996210E+02  0.00000000000E+00 0.  1.
</event>
<event>
 7    1  0.5006721E-012  0.5052886E+02  0.7816164E-02  0.1300439E+00
        -11   -1    0    0    0    0  0.00000000000E+00  0.00000000000E+00  0.45593999997E+02  0.45594000000E+02  0.51100000000E-03 0. -1.
         11   -1    0    0    0    0 -0.00000000000E+00 -0.00000000000E+00 -0.45593999997E+02  0.45594000000E+02  0.51100000000E-03 0.  1.
    9900012    2    1    2    0    0  0.14707554983E+02  0.93522379502E+01  0.36734029835E+02  0.50528862329E+02  0.30000007534E+02 0.  0.
        -12    1    1    2    0    0 -0.14707554983E+02 -0.93522379502E+01 -0.36734029835E+02  0.40659137671E+02  0.00000000000E+00 0.  1.
         11    1    3    3    0    0 -0.59276011028E+01 -0.48970302586E+01  0.10090738672E+02  0.12686227469E+02  0.51100000000E-03 0. -1.
        -11    1    3    3    0    0  0.96415668952E+01  0.12046236112E+02  0.12943764536E+02  0.20139827638E+02  0.51100000000E-03 0.  1.
         12    1    3    3    0    0  0.10993589191E+02  0.22030320965E+01  0.13699526627E+02  0.17702807221E+02  0.00000000000E+00 0. -1.
</event>
<event>
 7    1  0.5006721E-012  0.5052888E+02  0.7816164E-02  0.1300439E+00
        -11   -1    0    0    0    0  0.00000000000E+00  0.00000000000E+00  0.45593999997E+02  0.45594000000E+02  0.51100000000E-03 0. -1.
         11   -1    0    0    0    0 -0.00000000000E+00 -0.00000000000E+00 -0.45593999997E+02  0.45594000000E+02  0.51100000000E-03 0.  1.
    9900012    2    1    2    0    0 -0.59414489132E+01 -0.50669627170E+01  0.39902243569E+02  0.50528880873E+02  0.30000063902E+02 0.  0.
        -12    1    1    2    0    0  0.59414489132E+01  0.50669627170E+01 -0.39902243569E+02  0.40659119127E+02  0.00000000000E+00 0.  1.
         11    1    3    3    0    0  0.15384878992E+01 -0.66664035361E+01  0.16347397501E+02  0.17721322931E+02  0.51100000000E-03 0. -1.
        -11    1    3    3    0    0 -0.36189606213E+01 -0.76926797359E+01  0.20654322672E+02  0.22335515279E+02  0.51100000000E-03 0.  1.
        -12    1    3    3    0    0 -0.38609761910E+01  0.92921205551E+01  0.29005233958E+01  0.10472042663E+02  0.00000000000E+00 0.  1.
</event>
<event>
 7    1  0.5006721E-012  0.5052886E+02  0.7816164E-02  0.1300439E+00
        -11   -1    0    0    0    0  0.00000000000E+00  0.00000000000E+00  0.45593999997E+02  0.45594000000E+02  0.51100000000E-03 0. -1.
         11   -1    0    0    0    0 -0.00000000000E+00 -0.00000000000E+00 -0.45593999997E+02  0.45594000000E+02  0.51100000000E-03 0.  1.
    9900012    2    1    2    0    0  0.31916081479E+02 -0.19726017517E+02 -0.15665671723E+02  0.50528864562E+02  0.30000014322E+02 0.  0.
         12    1    1    2    0    0 -0.31916081479E+02  0.19726017517E+02  0.15665671723E+02  0.40659135438E+02  0.00000000000E+00 0. -1.
         11    1    3    3    0    0 -0.24030773509E+01 -0.67835221266E+01  0.25047415716E+01  0.76200186218E+01  0.51100000000E-03 0. -1.
        -11    1    3    3    0    0  0.25826333256E+02 -0.14091996480E+02 -0.10015837694E+02  0.31078945594E+02  0.51100000000E-03 0.  1.
        -12    1    3    3    0    0  0.84928255741E+01  0.11495010894E+01 -0.81545756001E+01  0.11829900346E+02  0.00000000000E+00 0.  1.
</event>
<event>
 7    1  0.5357886E-012  0.5052886E+02  0.7816164E-02  0.1300439E+00
        -11   -1    0    0    0    0  0.00000000000E+00  0.00000000000E+00  0.45593999997E+02  0.45594000000E+02  0.51100000000E-03 0. -1.
         11   -1    0    0    0    0 -0.00000000000E+00 -0.00000000000E+00 -0.45593999997E+02  0.45594000000E+02  0.51100000000E-03 0.  1.
    9900012    2    1    2    0    0  0.43693558733E+00 -0.16087635225E+02  0.37338490206E+02  0.50528858707E+02  0.29999996525E+02 0.  0.
        -12    1    1    2    0    0 -0.43693558733E+00  0.16087635225E+02 -0.37338490206E+02  0.40659141293E+02  0.00000000000E+00 0.  1.
         11    1    3    3    0    0  0.85118616441E+00 -0.20430939083E+02  0.14344766807E+02  0.24978393157E+02  0.51100000000E-03 0. -1.
        -11    1    3    3    0    0 -0.39488160555E+00  0.16624943688E+01 -0.59538713187E+00  0.18095041052E+01  0.51100000000E-03 0.  1.
         12    1    3    3    0    0 -0.19368971525E-01  0.26808094889E+01  0.23589110531E+02  0.23740961444E+02  0.00000000000E+00 0. -1.
</event>
<event>
 7    1  0.5006721E-012  0.5052884E+02  0.7816164E-02  0.1300439E+00
        -11   -1    0    0    0    0  0.00000000000E+00  0.00000000000E+00  0.45593999997E+02  0.45594000000E+02  0.51100000000E-03 0. -1.
         11   -1    0    0    0    0 -0.00000000000E+00 -0.00000000000E+00 -0.45593999997E+02  0.45594000000E+02  0.51100000000E-03 0.  1.
    9900012    2    1    2    0    0  0.35847537049E+02 -0.12945990753E+02  0.14160603539E+02  0.50528840127E+02  0.29999940049E+02 0.  0.
        -12    1    1    2    0    0 -0.35847537049E+02  0.12945990753E+02 -0.14160603539E+02  0.40659159873E+02  0.00000000000E+00 0.  1.
         11    1    3    3    0    0  0.35659538508E+02 -0.15398383904E+02  0.57160701886E+01  0.39260493784E+02  0.51100000000E-03 0. -1.
        -11    1    3    3    0    0 -0.21207047723E+01 -0.93356405444E+00  0.56221196894E+00  0.23843265578E+01  0.51100000000E-03 0.  1.
         12    1    3    3    0    0  0.23087033128E+01  0.33859572060E+01  0.78823213811E+01  0.88840197851E+01  0.00000000000E+00 0. -1.
</event>
<event>
 7    1  0.5006721E-012  0.5052886E+02  0.7816164E-02  0.1300439E+00
        -11   -1    0    0    0    0  0.00000000000E+00  0.00000000000E+00  0.45593999997E+02  0.45594000000E+02  0.51100000000E-03 0. -1.
         11   -1    0    0    0    0 -0.00000000000E+00 -0.00000000000E+00 -0.45593999997E+02  0.45594000000E+02  0.51100000000E-03 0.  1.
    9900012    2    1    2    0    0 -0.30581744522E+02  0.20910246360E+02 -0.16753633398E+02  0.50528859172E+02  0.29999997940E+02 0.  0.
         12    1    1    2    0    0  0.30581744522E+02 -0.20910246360E+02  0.16753633398E+02  0.40659140828E+02  0.00000000000E+00 0. -1.
         11    1    3    3    0    0 -0.10440578703E+02  0.48246249409E+01  0.25943176313E+00  0.11504346769E+02  0.51100000000E-03 0. -1.
        -11    1    3    3    0    0  0.51722144544E+01  0.28597059710E+00 -0.14973525120E+01  0.53921838202E+01  0.51100000000E-03 0.  1.
        -12    1    3    3    0    0 -0.25313380273E+02  0.15799650822E+02 -0.15515712649E+02  0.33632328584E+02  0.00000000000E+00 0.  1.
</event>
<event>
 7    1  0.5006721E-012  0.5052886E+02  0.7816164E-02  0.1300439E+00
        -11   -1    0    0    0    0  0.00000000000E+00  0.00000000000E+00  0.45593999997E+02  0.45594000000E+02  0.51100000000E-03 0.  1.
         11   -1    0    0    0    0 -0.00000000000E+00 -0.00000000000E+00 -0.45593999997E+02  0.45594000000E+02  0.51100000000E-03 0. -1.
    9900012    2    1    2    0    0  0.28149307234E+02  0.29006784315E+02 -0.44032708848E+01  0.50528857995E+02  0.29999994363E+02 0.  0.
         12    1    1    2    0    0 -0.28149307234E+02 -0.29006784315E+02  0.44032708848E+01  0.40659142005E+02  0.00000000000E+00 0. -1.
         11    1    3    3    0    0 -0.32436259593E+01  0.87950600951E+01 -0.82737086459E+01  0.12503137465E+02  0.51100000000E-03 0. -1.
        -11    1    3    3    0    0  0.22806362775E+02  0.11399803307E+02  0.32930557682E+01  0.25708557234E+02  0.51100000000E-03 0.  1.
        -12    1    3    3    0    0  0.85865704178E+01  0.88119209135E+01  0.57738199286E+00  0.12317163297E+02  0.00000000000E+00 0.  1.
</event>
<event>
 7    1  0.5006721E-012  0.5052886E+02  0.7816164E-02  0.1300439E+00
        -11   -1    0    0    0    0  0.00000000000E+00  0.00000000000E+00  0.45593999997E+02  0.45594000000E+02  0.51100000000E-03 0. -1.
         11   -1    0    0    0    0 -0.00000000000E+00 -0.00000000000E+00 -0.45593999997E+02  0.45594000000E+02  0.51100000000E-03 0.  1.
    9900012    2    1    2    0    0 -0.51955174279E+01 -0.14376332753E+01  0.40300191163E+02  0.50528860823E+02  0.30000002959E+02 0.  0.
        -12    1    1    2    0    0  0.51955174279E+01  0.14376332753E+01 -0.40300191163E+02  0.40659139177E+02  0.00000000000E+00 0.  1.
         11    1    3    3    0    0 -0.15246941206E+02  0.91291400464E+00  0.25653394152E+02  0.29856310219E+02  0.51100000000E-03 0. -1.
        -11    1    3    3    0    0  0.94926448720E+01 -0.18890681793E+01  0.48081966262E+01  0.10807295698E+02  0.51100000000E-03 0.  1.
        -12    1    3    3    0    0  0.55877890606E+00 -0.46147910066E+00  0.98386003849E+01  0.98652549060E+01  0.00000000000E+00 0.  1.
</event>
<event>
 7    1  0.5006721E-012  0.5052886E+02  0.7816164E-02  0.1300439E+00
        -11   -1    0    0    0    0  0.00000000000E+00  0.00000000000E+00  0.45593999997E+02  0.45594000000E+02  0.51100000000E-03 0. -1.
         11   -1    0    0    0    0 -0.00000000000E+00 -0.00000000000E+00 -0.45593999997E+02  0.45594000000E+02  0.51100000000E-03 0.  1.
    9900012    2    1    2    0    0  0.87402745024E+01 -0.66511175661E+01 -0.39147616319E+02  0.50528860478E+02  0.30000001908E+02 0.  0.
         12    1    1    2    0    0 -0.87402745024E+01  0.66511175661E+01  0.39147616319E+02  0.40659139522E+02  0.00000000000E+00 0. -1.
         11    1    3    3    0    0 -0.58627395604E+01 -0.10864986487E+01 -0.29688436396E+01  0.66607977964E+01  0.51100000000E-03 0. -1.
        -11    1    3    3    0    0  0.15741426370E+02  0.10512698600E+01 -0.32700607141E+02  0.36307401175E+02  0.51100000000E-03 0.  1.
        -12    1    3    3    0    0 -0.11384123074E+01 -0.66158887774E+01 -0.34781655385E+01  0.75606615061E+01  0.00000000000E+00 0.  1.
</event>
<event>
 7    1  0.5006721E-012  0.5052887E+02  0.7816164E-02  0.1300439E+00
        -11   -1    0    0    0    0  0.00000000000E+00  0.00000000000E+00  0.45593999997E+02  0.45594000000E+02  0.51100000000E-03 0. -1.
         11   -1    0    0    0    0 -0.00000000000E+00 -0.00000000000E+00 -0.45593999997E+02  0.45594000000E+02  0.51100000000E-03 0.  1.
    9900012    2    1    2    0    0 -0.94815523781E+01 -0.21050791734E+02  0.33468334645E+02  0.50528867053E+02  0.30000021894E+02 0.  0.
        -12    1    1    2    0    0  0.94815523781E+01  0.21050791734E+02 -0.33468334645E+02  0.40659132947E+02  0.00000000000E+00 0.  1.
         11    1    3    3    0    0  0.56895912617E+01 -0.14099885023E+02  0.27191526283E+02  0.31153768765E+02  0.51100000000E-03 0. -1.
        -11    1    3    3    0    0 -0.11762089319E+02 -0.75307521580E+01  0.73130725188E+01  0.15765151542E+02  0.51100000000E-03 0.  1.
         12    1    3    3    0    0 -0.34090543209E+01  0.57984544693E+00 -0.10362641576E+01  0.36099467461E+01  0.00000000000E+00 0. -1.
</event>
<event>
 7    1  0.5006721E-012  0.5052887E+02  0.7816164E-02  0.1300439E+00
        -11   -1    0    0    0    0  0.00000000000E+00  0.00000000000E+00  0.45593999997E+02  0.45594000000E+02  0.51100000000E-03 0. -1.
         11   -1    0    0    0    0 -0.00000000000E+00 -0.00000000000E+00 -0.45593999997E+02  0.45594000000E+02  0.51100000000E-03 0.  1.
    9900012    2    1    2    0    0 -0.16795217440E+02  0.28227501198E+02 -0.23964425265E+02  0.50528870263E+02  0.30000031651E+02 0.  0.
         12    1    1    2    0    0  0.16795217440E+02 -0.28227501198E+02  0.23964425265E+02  0.40659129737E+02  0.00000000000E+00 0. -1.
         11    1    3    3    0    0 -0.52716441167E+01  0.18270698333E+01  0.12508029965E+01  0.57177726665E+01  0.51100000000E-03 0. -1.
        -11    1    3    3    0    0 -0.15167893343E+02  0.10846645621E+02 -0.21404596407E+02  0.28387875181E+02  0.51100000000E-03 0.  1.
        -12    1    3    3    0    0  0.36443200197E+01  0.15553785744E+02 -0.38106318542E+01  0.16423222415E+02  0.00000000000E+00 0.  1.
</event>
<event>
 7    1  0.5006721E-012  0.5052886E+02  0.7816164E-02  0.1300439E+00
        -11   -1    0    0    0    0  0.00000000000E+00  0.00000000000E+00  0.45593999997E+02  0.45594000000E+02  0.51100000000E-03 0. -1.
         11   -1    0    0    0    0 -0.00000000000E+00 -0.00000000000E+00 -0.45593999997E+02  0.45594000000E+02  0.51100000000E-03 0.  1.
    9900012    2    1    2    0    0  0.10877257601E+02  0.29695129743E+02 -0.25554841586E+02  0.50528863366E+02  0.30000010687E+02 0.  0.
         12    1    1    2    0    0 -0.10877257601E+02 -0.29695129743E+02  0.25554841586E+02  0.40659136634E+02  0.00000000000E+00 0. -1.
         11    1    3    3    0    0 -0.19931487963E+01 -0.32133050464E+01 -0.98497832793E+01  0.10550649381E+02  0.51100000000E-03 0. -1.
        -11    1    3    3    0    0  0.14184082306E+02  0.26883808189E+02 -0.14572703231E+02  0.33708915932E+02  0.51100000000E-03 0.  1.
        -12    1    3    3    0    0 -0.13136759083E+01  0.60246266002E+01 -0.11323550752E+01  0.62692980532E+01  0.00000000000E+00 0.  1.
</event>
<event>
 7    1  0.5006721E-012  0.5052886E+02  0.7816164E-02  0.1300439E+00
        -11   -1    0    0    0    0  0.00000000000E+00  0.00000000000E+00  0.45593999997E+02  0.45594000000E+02  0.51100000000E-03 0. -1.
         11   -1    0    0    0    0 -0.00000000000E+00 -0.00000000000E+00 -0.45593999997E+02  0.45594000000E+02  0.51100000000E-03 0.  1.
    9900012    2    1    2    0    0  0.38259882885E+02  0.86668015718E+01 -0.10688012253E+02  0.50528859653E+02  0.29999999401E+02 0.  0.
         12    1    1    2    0    0 -0.38259882885E+02 -0.86668015718E+01  0.10688012253E+02  0.40659140347E+02  0.00000000000E+00 0. -1.
         11    1    3    3    0    0  0.36743853456E+02  0.37163940583E+01 -0.54028141440E+01  0.37324425683E+02  0.51100000000E-03 0. -1.
        -11    1    3    3    0    0  0.50098265978E+01  0.25387764444E+01 -0.66879264754E+01  0.87333904743E+01  0.51100000000E-03 0.  1.
         12    1    3    3    0    0 -0.34937971691E+01  0.24116310691E+01  0.14027283662E+01  0.44710434958E+01  0.00000000000E+00 0. -1.
</event>
<event>
 7    1  0.5006721E-012  0.5052886E+02  0.7816164E-02  0.1300439E+00
        -11   -1    0    0    0    0  0.00000000000E+00  0.00000000000E+00  0.45593999997E+02  0.45594000000E+02  0.51100000000E-03 0. -1.
         11   -1    0    0    0    0 -0.00000000000E+00 -0.00000000000E+00 -0.45593999997E+02  0.45594000000E+02  0.51100000000E-03 0.  1.
    9900012    2    1    2    0    0  0.21697004954E+02 -0.29040469328E+02 -0.18413485617E+02  0.50528864061E+02  0.30000012800E+02 0.  0.
         12    1    1    2    0    0 -0.21697004954E+02  0.29040469328E+02  0.18413485617E+02  0.40659135939E+02  0.00000000000E+00 0. -1.
         11    1    3    3    0    0  0.18933171060E+02 -0.16519165649E+02 -0.13943739053E+01  0.25165295130E+02  0.51100000000E-03 0. -1.
        -11    1    3    3    0    0  0.23555974854E+00  0.18807132278E+01 -0.79148773381E+01  0.81386641520E+01  0.51100000000E-03 0.  1.
        -12    1    3    3    0    0  0.25282741459E+01 -0.14402016906E+02 -0.91042343735E+01  0.17224904779E+02  0.00000000000E+00 0.  1.
</event>
<event>
 7    1  0.5006721E-012  0.5052886E+02  0.7816164E-02  0.1300439E+00
        -11   -1    0    0    0    0  0.00000000000E+00  0.00000000000E+00  0.45593999997E+02  0.45594000000E+02  0.51100000000E-03 0. -1.
         11   -1    0    0    0    0 -0.00000000000E+00 -0.00000000000E+00 -0.45593999997E+02  0.45594000000E+02  0.51100000000E-03 0.  1.
    9900012    2    1    2    0    0 -0.85455751179E+01 -0.37270240405E+02 -0.13822726729E+02  0.50528862673E+02  0.30000008581E+02 0.  0.
         12    1    1    2    0    0  0.85455751179E+01  0.37270240405E+02  0.13822726729E+02  0.40659137327E+02  0.00000000000E+00 0. -1.
         11    1    3    3    0    0 -0.89968716238E+01 -0.40563236920E+01  0.31981250441E+01  0.10374269370E+02  0.51100000000E-03 0. -1.
        -11    1    3    3    0    0 -0.32766203617E+01 -0.31919634445E+02 -0.16757455629E+02  0.36199608058E+02  0.51100000000E-03 0.  1.
         12    1    3    3    0    0  0.37279168675E+01 -0.12942822680E+01 -0.26339614347E+00  0.39549852451E+01  0.00000000000E+00 0. -1.
</event>
<event>
 7    1  0.5006721E-012  0.5052886E+02  0.7816164E-02  0.1300439E+00
        -11   -1    0    0    0    0  0.00000000000E+00  0.00000000000E+00  0.45593999997E+02  0.45594000000E+02  0.51100000000E-03 0.  1.
         11   -1    0    0    0    0 -0.00000000000E+00 -0.00000000000E+00 -0.45593999997E+02  0.45594000000E+02  0.51100000000E-03 0. -1.
    9900012    2    1    2    0    0 -0.40161173216E+02  0.33450693925E+01 -0.53904191828E+01  0.50528856597E+02  0.29999990111E+02 0.  0.
         12    1    1    2    0    0  0.40161173216E+02 -0.33450693925E+01  0.53904191828E+01  0.40659143403E+02  0.00000000000E+00 0. -1.
         11    1    3    3    0    0 -0.11280172770E+02 -0.22852264404E+01  0.51074295544E+01  0.12591679575E+02  0.51100000000E-03 0.  1.
        -11    1    3    3    0    0 -0.20104425675E+02  0.11742718894E+02 -0.13389148939E+02  0.26857935295E+02  0.51100000000E-03 0. -1.
         12    1    3    3    0    0 -0.87765747708E+01 -0.61124230608E+01  0.28913002014E+01  0.11079241727E+02  0.00000000000E+00 0. -1.
</event>
<event>
 7    1  0.5006721E-012  0.5052887E+02  0.7816164E-02  0.1300439E+00
        -11   -1    0    0    0    0  0.00000000000E+00  0.00000000000E+00  0.45593999997E+02  0.45594000000E+02  0.51100000000E-03 0. -1.
         11   -1    0    0    0    0 -0.00000000000E+00 -0.00000000000E+00 -0.45593999997E+02  0.45594000000E+02  0.51100000000E-03 0.  1.
    9900012    2    1    2    0    0  0.89717598755E+00 -0.37710019134E+00 -0.40647477820E+02  0.50528873320E+02  0.30000040943E+02 0.  0.
         12    1    1    2    0    0 -0.89717598755E+00  0.37710019134E+00  0.40647477820E+02  0.40659126680E+02  0.00000000000E+00 0. -1.
         11    1    3    3    0    0 -0.47909196557E+01 -0.13508615581E+02 -0.14068506497E+02  0.20083786530E+02  0.51100000000E-03 0. -1.
        -11    1    3    3    0    0  0.42115663611E+01  0.86316777818E+01 -0.21226480919E+02  0.23298211197E+02  0.51100000000E-03 0.  1.
         12    1    3    3    0    0  0.14765292821E+01  0.44998376074E+01 -0.53524904035E+01  0.71468755924E+01  0.00000000000E+00 0. -1.
</event>
<event>
 7    1  0.5006721E-012  0.5052885E+02  0.7816164E-02  0.1300439E+00
        -11   -1    0    0    0    0  0.00000000000E+00  0.00000000000E+00  0.45593999997E+02  0.45594000000E+02  0.51100000000E-03 0.  1.
         11   -1    0    0    0    0 -0.00000000000E+00 -0.00000000000E+00 -0.45593999997E+02  0.45594000000E+02  0.51100000000E-03 0. -1.
    9900012    2    1    2    0    0  0.29186156103E+02  0.25449594470E+02  0.12395664859E+02  0.50528854976E+02  0.29999985185E+02 0.  0.
        -12    1    1    2    0    0 -0.29186156103E+02 -0.25449594470E+02 -0.12395664859E+02  0.40659145024E+02  0.00000000000E+00 0.  1.
         11    1    3    3    0    0 -0.50224366422E+00  0.15547534350E+02 -0.17375279357E+01  0.15652382459E+02  0.51100000000E-03 0. -1.
        -11    1    3    3    0    0  0.23957316137E+02  0.70080063642E+01  0.86013383916E+01  0.26401669873E+02  0.51100000000E-03 0.  1.
        -12    1    3    3    0    0  0.57310836306E+01  0.28940537560E+01  0.55318544026E+01  0.84748026440E+01  0.00000000000E+00 0.  1.
</event>
<event>
 7    1  0.5006721E-012  0.5052886E+02  0.7816164E-02  0.1300439E+00
        -11   -1    0    0    0    0  0.00000000000E+00  0.00000000000E+00  0.45593999997E+02  0.45594000000E+02  0.51100000000E-03 0. -1.
         11   -1    0    0    0    0 -0.00000000000E+00 -0.00000000000E+00 -0.45593999997E+02  0.45594000000E+02  0.51100000000E-03 0.  1.
    9900012    2    1    2    0    0  0.16738755876E+02  0.31319723248E+02 -0.19800379393E+02  0.50528855436E+02  0.29999986583E+02 0.  0.
         12    1    1    2    0    0 -0.16738755876E+02 -0.31319723248E+02  0.19800379393E+02  0.40659144564E+02  0.00000000000E+00 0. -1.
         11    1    3    3    0    0 -0.46498069894E+00  0.18657474184E+02 -0.11055896246E+01  0.18695985629E+02  0.51100000000E-03 0. -1.
        -11    1    3    3    0    0  0.12748489889E+02  0.13446162656E+02 -0.19860104709E+02  0.27161499295E+02  0.51100000000E-03 0.  1.
         12    1    3    3    0    0  0.44552466858E+01 -0.78391359210E+00  0.11653149404E+01  0.46713705121E+01  0.00000000000E+00 0. -1.
</event>
<event>
 7    1  0.5006721E-012  0.5052886E+02  0.7816164E-02  0.1300439E+00
        -11   -1    0    0    0    0  0.00000000000E+00  0.00000000000E+00  0.45593999997E+02  0.45594000000E+02  0.51100000000E-03 0.  1.
         11   -1    0    0    0    0 -0.00000000000E+00 -0.00000000000E+00 -0.45593999997E+02  0.45594000000E+02  0.51100000000E-03 0. -1.
    9900012    2    1    2    0    0  0.27418608926E+02  0.29906948829E+02  0.26381698242E+01  0.50528860269E+02  0.30000001272E+02 0.  0.
         12    1    1    2    0    0 -0.27418608926E+02 -0.29906948829E+02 -0.26381698242E+01  0.40659139731E+02  0.00000000000E+00 0. -1.
         11    1    3    3    0    0  0.45543175570E+01 -0.44057330631E+01 -0.14894978416E+01  0.65092930734E+01  0.51100000000E-03 0. -1.
        -11    1    3    3    0    0  0.21831087148E+02  0.30743766866E+02 -0.96118390268E+00  0.37718688232E+02  0.51100000000E-03 0.  1.
         12    1    3    3    0    0  0.10332042207E+01  0.35689150258E+01  0.50888515685E+01  0.63008789632E+01  0.00000000000E+00 0. -1.
</event>
<event>
 7    1  0.5006721E-012  0.5052886E+02  0.7816164E-02  0.1300439E+00
        -11   -1    0    0    0    0  0.00000000000E+00  0.00000000000E+00  0.45593999997E+02  0.45594000000E+02  0.51100000000E-03 0. -1.
         11   -1    0    0    0    0 -0.00000000000E+00 -0.00000000000E+00 -0.45593999997E+02  0.45594000000E+02  0.51100000000E-03 0.  1.
    9900012    2    1    2    0    0  0.21257947943E+02  0.38664993802E+01 -0.34442926555E+02  0.50528863783E+02  0.30000011954E+02 0.  0.
         12    1    1    2    0    0 -0.21257947943E+02 -0.38664993802E+01  0.34442926555E+02  0.40659136217E+02  0.00000000000E+00 0. -1.
         11    1    3    3    0    0 -0.54244725078E+00 -0.47644516313E+01 -0.97963348121E+00  0.48942752666E+01  0.51100000000E-03 0. -1.
        -11    1    3    3    0    0  0.15883534427E+02  0.73438910074E+01 -0.76110084425E+01  0.19082632176E+02  0.51100000000E-03 0.  1.
        -12    1    3    3    0    0  0.59168607677E+01  0.12870600042E+01 -0.25852284632E+02  0.26551956340E+02  0.00000000000E+00 0.  1.
</event>
<event>
 7    1  0.5006721E-012  0.5052886E+02  0.7816164E-02  0.1300439E+00
        -11   -1    0    0    0    0  0.00000000000E+00  0.00000000000E+00  0.45593999997E+02  0.45594000000E+02  0.51100000000E-03 0. -1.
         11   -1    0    0    0    0 -0.00000000000E+00 -0.00000000000E+00 -0.45593999997E+02  0.45594000000E+02  0.51100000000E-03 0.  1.
    9900012    2    1    2    0    0  0.30417172644E+02  0.25480664636E+02  0.88711505064E+01  0.50528856216E+02  0.29999988954E+02 0.  0.
        -12    1    1    2    0    0 -0.30417172644E+02 -0.25480664636E+02 -0.88711505064E+01  0.40659143784E+02  0.00000000000E+00 0.  1.
         11    1    3    3    0    0  0.16157244678E+02  0.10488242180E+02 -0.39860942890E+01  0.19671012367E+02  0.51100000000E-03 0. -1.
        -11    1    3    3    0    0  0.38567374133E+01 -0.37850243058E+01  0.65344074705E+01  0.84793463028E+01  0.51100000000E-03 0.  1.
         12    1    3    3    0    0  0.10403190553E+02  0.18777446762E+02  0.63228373249E+01  0.22378497546E+02  0.00000000000E+00 0. -1.
</event>
<event>
 7    1  0.5006721E-012  0.5052887E+02  0.7816164E-02  0.1300439E+00
        -11   -1    0    0    0    0  0.00000000000E+00  0.00000000000E+00  0.45593999997E+02  0.45594000000E+02  0.51100000000E-03 0.  1.
         11   -1    0    0    0    0 -0.00000000000E+00 -0.00000000000E+00 -0.45593999997E+02  0.45594000000E+02  0.51100000000E-03 0. -1.
    9900012    2    1    2    0    0 -0.24588054214E+02  0.32339959784E+02  0.16491195078E+01  0.50528868135E+02  0.30000025183E+02 0.  0.
         12    1    1    2    0    0  0.24588054214E+02 -0.32339959784E+02 -0.16491195078E+01  0.40659131865E+02  0.00000000000E+00 0. -1.
         11    1    3    3    0    0 -0.11335598809E+02  0.20980853217E+02  0.82010435146E+01  0.25218031586E+02  0.51100000000E-03 0.  1.
        -11    1    3    3    0    0 -0.62975275027E+01 -0.35435983560E+01 -0.50100809465E+01  0.87930002449E+01  0.51100000000E-03 0. -1.
        -12    1    3    3    0    0 -0.69549279032E+01  0.14902704923E+02 -0.15418430603E+01  0.16517836304E+02  0.00000000000E+00 0.  1.
</event>
<event>
 7    1  0.5006721E-012  0.5052886E+02  0.7816164E-02  0.1300439E+00
        -11   -1    0    0    0    0  0.00000000000E+00  0.00000000000E+00  0.45593999997E+02  0.45594000000E+02  0.51100000000E-03 0. -1.
         11   -1    0    0    0    0 -0.00000000000E+00 -0.00000000000E+00 -0.45593999997E+02  0.45594000000E+02  0.51100000000E-03 0.  1.
    9900012    2    1    2    0    0 -0.12101220171E+02  0.19364993387E+02  0.33641095243E+02  0.50528858498E+02  0.29999995891E+02 0.  0.
        -12    1    1    2    0    0  0.12101220171E+02 -0.19364993387E+02 -0.33641095243E+02  0.40659141502E+02  0.00000000000E+00 0.  1.
         11    1    3    3    0    0 -0.64487112119E+01  0.25623058413E+02  0.23627499792E+02  0.35445532094E+02  0.51100000000E-03 0. -1.
        -11    1    3    3    0    0 -0.11062081958E+01 -0.13076510701E+01 -0.11425678512E+01  0.20589097720E+01  0.51100000000E-03 0.  1.
         12    1    3    3    0    0 -0.45463007637E+01 -0.49504139564E+01  0.11156163302E+02  0.13024416632E+02  0.00000000000E+00 0. -1.
</event>
<event>
 7    1  0.5006721E-012  0.5052887E+02  0.7816164E-02  0.1300439E+00
        -11   -1    0    0    0    0  0.00000000000E+00  0.00000000000E+00  0.45593999997E+02  0.45594000000E+02  0.51100000000E-03 0. -1.
         11   -1    0    0    0    0 -0.00000000000E+00 -0.00000000000E+00 -0.45593999997E+02  0.45594000000E+02  0.51100000000E-03 0.  1.
    9900012    2    1    2    0    0  0.26034932163E+02  0.20957629069E+02 -0.23154380501E+02  0.50528865168E+02  0.30000016165E+02 0.  0.
         12    1    1    2    0    0 -0.26034932163E+02 -0.20957629069E+02  0.23154380501E+02  0.40659134832E+02  0.00000000000E+00 0. -1.
         11    1    3    3    0    0  0.21088719453E+01  0.12029276479E+02  0.23907234878E+01  0.12444532636E+02  0.51100000000E-03 0.  1.
        -11    1    3    3    0    0  0.16819891182E+02  0.11728041868E+02 -0.20020588951E+02  0.28657977731E+02  0.51100000000E-03 0. -1.
         12    1    3    3    0    0  0.71061690360E+01 -0.27996892784E+01 -0.55245150375E+01  0.94263548004E+01  0.00000000000E+00 0. -1.
</event>
<event>
 7    1  0.5006721E-012  0.5052886E+02  0.7816164E-02  0.1300439E+00
        -11   -1    0    0    0    0  0.00000000000E+00  0.00000000000E+00  0.45593999997E+02  0.45594000000E+02  0.51100000000E-03 0. -1.
         11   -1    0    0    0    0 -0.00000000000E+00 -0.00000000000E+00 -0.45593999997E+02  0.45594000000E+02  0.51100000000E-03 0.  1.
    9900012    2    1    2    0    0  0.20585989447E-02 -0.22788195160E+02 -0.33672894123E+02  0.50528860296E+02  0.30000001355E+02 0.  0.
         12    1    1    2    0    0 -0.20585989447E-02  0.22788195160E+02  0.33672894123E+02  0.40659139704E+02  0.00000000000E+00 0. -1.
         11    1    3    3    0    0 -0.10565603261E+02 -0.12515389463E+02 -0.36670983137E+01  0.16784354500E+02  0.51100000000E-03 0. -1.
        -11    1    3    3    0    0  0.19996076544E+01 -0.20488022512E+01 -0.10716335896E+02  0.11092153837E+02  0.51100000000E-03 0.  1.
         12    1    3    3    0    0  0.85680542058E+01 -0.82240034458E+01 -0.19289459913E+02  0.22652351959E+02  0.00000000000E+00 0. -1.
</event>
<event>
 7    1  0.5006721E-012  0.5052886E+02  0.7816164E-02  0.1300439E+00
        -11   -1    0    0    0    0  0.00000000000E+00  0.00000000000E+00  0.45593999997E+02  0.45594000000E+02  0.51100000000E-03 0. -1.
         11   -1    0    0    0    0 -0.00000000000E+00 -0.00000000000E+00 -0.45593999997E+02  0.45594000000E+02  0.51100000000E-03 0.  1.
    9900012    2    1    2    0    0 -0.33267317823E+02 -0.34969185456E+01 -0.23113262294E+02  0.50528858737E+02  0.29999996616E+02 0.  0.
         12    1    1    2    0    0  0.33267317823E+02  0.34969185456E+01  0.23113262294E+02  0.40659141263E+02  0.00000000000E+00 0. -1.
         11    1    3    3    0    0 -0.10288916767E+02 -0.43079848191E+01 -0.13314425261E+00  0.11155190231E+02  0.51100000000E-03 0. -1.
        -11    1    3    3    0    0 -0.17733219136E+02 -0.77832843279E+00 -0.27184241327E+02  0.32466226033E+02  0.51100000000E-03 0.  1.
        -12    1    3    3    0    0 -0.52451819194E+01  0.15893947062E+01  0.42041232857E+01  0.69074424718E+01  0.00000000000E+00 0.  1.
</event>
<event>
 7    1  0.5006721E-012  0.5052877E+02  0.7816164E-02  0.1300439E+00
        -11   -1    0    0    0    0  0.00000000000E+00  0.00000000000E+00  0.45593999997E+02  0.45594000000E+02  0.51100000000E-03 0. -1.
         11   -1    0    0    0    0 -0.00000000000E+00 -0.00000000000E+00 -0.45593999997E+02  0.45594000000E+02  0.51100000000E-03 0.  1.
    9900012    2    1    2    0    0 -0.19742307830E+02 -0.15126363096E+02  0.32165313142E+02  0.50528770439E+02  0.29999728226E+02 0.  0.
        -12    1    1    2    0    0  0.19742307830E+02  0.15126363096E+02 -0.32165313142E+02  0.40659229561E+02  0.00000000000E+00 0.  1.
         11    1    3    3    0    0 -0.24968028150E+02 -0.18161313308E+02  0.30492667464E+02  0.43393991521E+02  0.51100000000E-03 0. -1.
        -11    1    3    3    0    0  0.16260883814E+01  0.23089258688E+01 -0.50012559520E+00  0.28680006910E+01  0.51100000000E-03 0.  1.
         12    1    3    3    0    0  0.35996319385E+01  0.72602434265E+00  0.21727712724E+01  0.42667782274E+01  0.00000000000E+00 0. -1.
</event>
<event>
 7    1  0.5006721E-012  0.5052888E+02  0.7816164E-02  0.1300439E+00
        -11   -1    0    0    0    0  0.00000000000E+00  0.00000000000E+00  0.45593999997E+02  0.45594000000E+02  0.51100000000E-03 0. -1.
         11   -1    0    0    0    0 -0.00000000000E+00 -0.00000000000E+00 -0.45593999997E+02  0.45594000000E+02  0.51100000000E-03 0.  1.
    9900012    2    1    2    0    0 -0.52338708568E+01  0.13974982998E+02  0.37821563004E+02  0.50528878244E+02  0.30000055910E+02 0.  0.
        -12    1    1    2    0    0  0.52338708568E+01 -0.13974982998E+02 -0.37821563004E+02  0.40659121756E+02  0.00000000000E+00 0.  1.
         11    1    3    3    0    0  0.10041481118E+02  0.55877849170E+01  0.11781627884E+02  0.16457868610E+02  0.51100000000E-03 0. -1.
        -11    1    3    3    0    0 -0.15972584967E+02  0.51487970827E+01  0.14876346151E+02  0.22426307253E+02  0.51100000000E-03 0.  1.
        -12    1    3    3    0    0  0.69723299232E+00  0.32384009983E+01  0.11163588969E+02  0.11644702381E+02  0.00000000000E+00 0.  1.
</event>
<event>
 7    1  0.5006721E-012  0.5052886E+02  0.7816164E-02  0.1300439E+00
        -11   -1    0    0    0    0  0.00000000000E+00  0.00000000000E+00  0.45593999997E+02  0.45594000000E+02  0.51100000000E-03 0. -1.
         11   -1    0    0    0    0 -0.00000000000E+00 -0.00000000000E+00 -0.45593999997E+02  0.45594000000E+02  0.51100000000E-03 0.  1.
    9900012    2    1    2    0    0 -0.71307429463E+01  0.29738575327E+02 -0.26794310691E+02  0.50528862739E+02  0.30000008782E+02 0.  0.
         12    1    1    2    0    0  0.71307429463E+01 -0.29738575327E+02  0.26794310691E+02  0.40659137261E+02  0.00000000000E+00 0. -1.
         11    1    3    3    0    0  0.62355160143E+01  0.49370015594E+01 -0.51952213904E+01  0.94997878881E+01  0.51100000000E-03 0. -1.
        -11    1    3    3    0    0 -0.18248961180E+02  0.13920491944E+02 -0.13884040285E+02  0.26824825349E+02  0.51100000000E-03 0.  1.
        -12    1    3    3    0    0  0.48827022195E+01  0.10881081823E+02 -0.77150490148E+01  0.14204249502E+02  0.00000000000E+00 0.  1.
</event>
<event>
 7    1  0.5006721E-012  0.5052886E+02  0.7816164E-02  0.1300439E+00
        -11   -1    0    0    0    0  0.00000000000E+00  0.00000000000E+00  0.45593999997E+02  0.45594000000E+02  0.51100000000E-03 0. -1.
         11   -1    0    0    0    0 -0.00000000000E+00 -0.00000000000E+00 -0.45593999997E+02  0.45594000000E+02  0.51100000000E-03 0.  1.
    9900012    2    1    2    0    0 -0.14742032493E+02  0.33358898294E+02  0.17972814641E+02  0.50528859779E+02  0.29999999785E+02 0.  0.
        -12    1    1    2    0    0  0.14742032493E+02 -0.33358898294E+02 -0.17972814641E+02  0.40659140221E+02  0.00000000000E+00 0.  1.
         11    1    3    3    0    0 -0.46760889354E+01  0.24154006710E+01 -0.57563924315E+01  0.77997450099E+01  0.51100000000E-03 0. -1.
        -11    1    3    3    0    0 -0.72151782090E+01  0.19591390134E+02  0.22909913435E+02  0.30995894854E+02  0.51100000000E-03 0.  1.
        -12    1    3    3    0    0 -0.28507653483E+01  0.11352107489E+02  0.81929363754E+00  0.11733219915E+02  0.00000000000E+00 0.  1.
</event>
<event>
 7    1  0.5006721E-012  0.5052886E+02  0.7816164E-02  0.1300439E+00
        -11   -1    0    0    0    0  0.00000000000E+00  0.00000000000E+00  0.45593999997E+02  0.45594000000E+02  0.51100000000E-03 0. -1.
         11   -1    0    0    0    0 -0.00000000000E+00 -0.00000000000E+00 -0.45593999997E+02  0.45594000000E+02  0.51100000000E-03 0.  1.
    9900012    2    1    2    0    0 -0.13562884074E+02  0.29426001396E+02 -0.24562662475E+02  0.50528858710E+02  0.29999996536E+02 0.  0.
         12    1    1    2    0    0  0.13562884074E+02 -0.29426001396E+02  0.24562662475E+02  0.40659141290E+02  0.00000000000E+00 0. -1.
         11    1    3    3    0    0 -0.22169007229E-01  0.11836084429E+02  0.52259823159E+01  0.12938480494E+02  0.51100000000E-03 0. -1.
        -11    1    3    3    0    0 -0.28866110415E+01  0.66885920632E+01 -0.13091512975E+02  0.14981905731E+02  0.51100000000E-03 0.  1.
         12    1    3    3    0    0 -0.10654104025E+02  0.10901324904E+02 -0.16697131816E+02  0.22608472485E+02  0.00000000000E+00 0. -1.
</event>
<event>
 7    1  0.5006721E-012  0.5052887E+02  0.7816164E-02  0.1300439E+00
        -11   -1    0    0    0    0  0.00000000000E+00  0.00000000000E+00  0.45593999997E+02  0.45594000000E+02  0.51100000000E-03 0. -1.
         11   -1    0    0    0    0 -0.00000000000E+00 -0.00000000000E+00 -0.45593999997E+02  0.45594000000E+02  0.51100000000E-03 0.  1.
    9900012    2    1    2    0    0 -0.13096193131E+02  0.22608002143E+02  0.31153381645E+02  0.50528865438E+02  0.30000016984E+02 0.  0.
        -12    1    1    2    0    0  0.13096193131E+02 -0.22608002143E+02 -0.31153381645E+02  0.40659134562E+02  0.00000000000E+00 0.  1.
         11    1    3    3    0    0 -0.54792337027E+01  0.21813794103E+02  0.14793684214E+02  0.26920562922E+02  0.51100000000E-03 0. -1.
        -11    1    3    3    0    0 -0.10209354061E+02 -0.42805353481E+01  0.88030441137E+01  0.14143814165E+02  0.51100000000E-03 0.  1.
         12    1    3    3    0    0  0.25923946326E+01  0.50747433885E+01  0.75566533171E+01  0.94644883510E+01  0.00000000000E+00 0. -1.
</event>
<event>
 7    1  0.5006721E-012  0.5052885E+02  0.7816164E-02  0.1300439E+00
        -11   -1    0    0    0    0  0.00000000000E+00  0.00000000000E+00  0.45593999997E+02  0.45594000000E+02  0.51100000000E-03 0. -1.
         11   -1    0    0    0    0 -0.00000000000E+00 -0.00000000000E+00 -0.45593999997E+02  0.45594000000E+02  0.51100000000E-03 0.  1.
    9900012    2    1    2    0    0  0.83271894547E+01  0.14466637472E+02 -0.37074796418E+02  0.50528853262E+02  0.29999979976E+02 0.  0.
         12    1    1    2    0    0 -0.83271894547E+01 -0.14466637472E+02  0.37074796418E+02  0.40659146738E+02  0.00000000000E+00 0. -1.
         11    1    3    3    0    0 -0.11038993202E+02  0.84695700937E+01 -0.15370575872E+02  0.20732766130E+02  0.51100000000E-03 0. -1.
        -11    1    3    3    0    0  0.10363207626E+02  0.19638934513E+01 -0.11046223589E+02  0.15273244764E+02  0.51100000000E-03 0.  1.
         12    1    3    3    0    0  0.90029750307E+01  0.40331739271E+01 -0.10657996957E+02  0.14522842369E+02  0.00000000000E+00 0. -1.
</event>
<event>
 7    1  0.5006721E-012  0.5052885E+02  0.7816164E-02  0.1300439E+00
        -11   -1    0    0    0    0  0.00000000000E+00  0.00000000000E+00  0.45593999997E+02  0.45594000000E+02  0.51100000000E-03 0. -1.
         11   -1    0    0    0    0 -0.00000000000E+00 -0.00000000000E+00 -0.45593999997E+02  0.45594000000E+02  0.51100000000E-03 0.  1.
    9900012    2    1    2    0    0 -0.14377996287E+02  0.32848265659E+02  0.19168489551E+02  0.50528851882E+02  0.29999975781E+02 0.  0.
        -12    1    1    2    0    0  0.14377996287E+02 -0.32848265659E+02 -0.19168489551E+02  0.40659148118E+02  0.00000000000E+00 0.  1.
         11    1    3    3    0    0 -0.37990054371E+01  0.21221870403E+02  0.88720284022E+01  0.23313367709E+02  0.51100000000E-03 0. -1.
        -11    1    3    3    0    0 -0.17425180099E+01 -0.49328219838E+01 -0.97513622445E+00  0.53216531882E+01  0.51100000000E-03 0.  1.
        -12    1    3    3    0    0 -0.88364728403E+01  0.16559217239E+02  0.11271597373E+02  0.21893830984E+02  0.00000000000E+00 0.  1.
</event>
<event>
 7    1  0.5006721E-012  0.5052887E+02  0.7816164E-02  0.1300439E+00
        -11   -1    0    0    0    0  0.00000000000E+00  0.00000000000E+00  0.45593999997E+02  0.45594000000E+02  0.51100000000E-03 0. -1.
         11   -1    0    0    0    0 -0.00000000000E+00 -0.00000000000E+00 -0.45593999997E+02  0.45594000000E+02  0.51100000000E-03 0.  1.
    9900012    2    1    2    0    0 -0.90561630732E+01 -0.18105088106E+02  0.35261265539E+02  0.50528866311E+02  0.30000019638E+02 0.  0.
        -12    1    1    2    0    0  0.90561630732E+01  0.18105088106E+02 -0.35261265539E+02  0.40659133689E+02  0.00000000000E+00 0.  1.
         11    1    3    3    0    0 -0.48855331609E+01 -0.19849729505E+02  0.16686830172E+02  0.26388074903E+02  0.51100000000E-03 0.  1.
        -11    1    3    3    0    0 -0.12377208359E+01  0.70207729431E+01  0.16116873670E+02  0.17623189914E+02  0.51100000000E-03 0. -1.
         12    1    3    3    0    0 -0.29329090764E+01 -0.52761315446E+01  0.24575616974E+01  0.65176014931E+01  0.00000000000E+00 0. -1.
</event>
<event>
 7    1  0.5006721E-012  0.5052886E+02  0.7816164E-02  0.1300439E+00
        -11   -1    0    0    0    0  0.00000000000E+00  0.00000000000E+00  0.45593999997E+02  0.45594000000E+02  0.51100000000E-03 0. -1.
         11   -1    0    0    0    0 -0.00000000000E+00 -0.00000000000E+00 -0.45593999997E+02  0.45594000000E+02  0.51100000000E-03 0.  1.
    9900012    2    1    2    0    0  0.21030095851E+02 -0.18442845650E+02  0.29508681458E+02  0.50528858733E+02  0.29999996605E+02 0.  0.
        -12    1    1    2    0    0 -0.21030095851E+02  0.18442845650E+02 -0.29508681458E+02  0.40659141267E+02  0.00000000000E+00 0.  1.
         11    1    3    3    0    0  0.94574594700E+01  0.35993762119E+00  0.13256835890E+02  0.16288547903E+02  0.51100000000E-03 0. -1.
        -11    1    3    3    0    0  0.16512025468E+02 -0.16235212614E+02  0.84376449399E+01  0.24645952326E+02  0.51100000000E-03 0.  1.
        -12    1    3    3    0    0 -0.49393890877E+01 -0.25675706575E+01  0.78142006284E+01  0.95943585039E+01  0.00000000000E+00 0.  1.
</event>
<event>
 7    1  0.5006721E-012  0.5052886E+02  0.7816164E-02  0.1300439E+00
        -11   -1    0    0    0    0  0.00000000000E+00  0.00000000000E+00  0.45593999997E+02  0.45594000000E+02  0.51100000000E-03 0. -1.
         11   -1    0    0    0    0 -0.00000000000E+00 -0.00000000000E+00 -0.45593999997E+02  0.45594000000E+02  0.51100000000E-03 0.  1.
    9900012    2    1    2    0    0 -0.14054344538E+02 -0.69390657554E+01  0.37516536686E+02  0.50528858852E+02  0.29999996968E+02 0.  0.
        -12    1    1    2    0    0  0.14054344538E+02  0.69390657554E+01 -0.37516536686E+02  0.40659141148E+02  0.00000000000E+00 0.  1.
         11    1    3    3    0    0 -0.14902837303E+01 -0.34968268077E+01  0.32932416569E+02  0.33151060385E+02  0.51100000000E-03 0. -1.
        -11    1    3    3    0    0 -0.36059035945E+01  0.26524179259E+01 -0.17741333865E+01  0.48151231678E+01  0.51100000000E-03 0.  1.
        -12    1    3    3    0    0 -0.89581572134E+01 -0.60946568737E+01  0.63582535033E+01  0.12562675299E+02  0.00000000000E+00 0.  1.
</event>
<event>
 7    1  0.5006721E-012  0.5052887E+02  0.7816164E-02  0.1300439E+00
        -11   -1    0    0    0    0  0.00000000000E+00  0.00000000000E+00  0.45593999997E+02  0.45594000000E+02  0.51100000000E-03 0. -1.
         11   -1    0    0    0    0 -0.00000000000E+00 -0.00000000000E+00 -0.45593999997E+02  0.45594000000E+02  0.51100000000E-03 0.  1.
    9900012    2    1    2    0    0 -0.53994482838E+01 -0.36101557178E+02  0.17907774448E+02  0.50528869929E+02  0.30000030637E+02 0.  0.
        -12    1    1    2    0    0  0.53994482838E+01  0.36101557178E+02 -0.17907774448E+02  0.40659130071E+02  0.00000000000E+00 0.  1.
         11    1    3    3    0    0  0.17354314438E+01 -0.28277359108E+02  0.21428942981E+02  0.35522110832E+02  0.51100000000E-03 0. -1.
        -11    1    3    3    0    0 -0.47717076190E+01  0.14548923307E+01 -0.16158845614E+01  0.52437570951E+01  0.51100000000E-03 0.  1.
         12    1    3    3    0    0 -0.23631721086E+01 -0.92790904003E+01 -0.19052839723E+01  0.97630020018E+01  0.00000000000E+00 0. -1.
</event>
<event>
 7    1  0.5006721E-012  0.5052886E+02  0.7816164E-02  0.1300439E+00
        -11   -1    0    0    0    0  0.00000000000E+00  0.00000000000E+00  0.45593999997E+02  0.45594000000E+02  0.51100000000E-03 0. -1.
         11   -1    0    0    0    0 -0.00000000000E+00 -0.00000000000E+00 -0.45593999997E+02  0.45594000000E+02  0.51100000000E-03 0.  1.
    9900012    2    1    2    0    0 -0.21090065233E+02 -0.50547309955E+01 -0.34392215921E+02  0.50528859910E+02  0.30000000181E+02 0.  0.
         12    1    1    2    0    0  0.21090065233E+02  0.50547309955E+01  0.34392215921E+02  0.40659140090E+02  0.00000000000E+00 0. -1.
         11    1    3    3    0    0 -0.23294440935E+02  0.37840693407E+00 -0.12463581633E+02  0.26421866657E+02  0.51100000000E-03 0. -1.
        -11    1    3    3    0    0 -0.95912792262E+00 -0.19456059451E+01 -0.17529359211E+02  0.17663061554E+02  0.51100000000E-03 0.  1.
         12    1    3    3    0    0  0.31635036248E+01 -0.34875319845E+01 -0.43992750766E+01  0.64439316979E+01  0.00000000000E+00 0. -1.
</event>
<event>
 7    1  0.5006721E-012  0.5052882E+02  0.7816164E-02  0.1300439E+00
        -11   -1    0    0    0    0  0.00000000000E+00  0.00000000000E+00  0.45593999997E+02  0.45594000000E+02  0.51100000000E-03 0. -1.
         11   -1    0    0    0    0 -0.00000000000E+00 -0.00000000000E+00 -0.45593999997E+02  0.45594000000E+02  0.51100000000E-03 0.  1.
    9900012    2    1    2    0    0 -0.11108066709E+02  0.10521977039E+02 -0.37670511274E+02  0.50528824326E+02  0.29999892023E+02 0.  0.
         12    1    1    2    0    0  0.11108066709E+02 -0.10521977039E+02  0.37670511274E+02  0.40659175674E+02  0.00000000000E+00 0. -1.
         11    1    3    3    0    0  0.19595401843E+01 -0.66626792591E+01 -0.68367199941E+00  0.69784310778E+01  0.51100000000E-03 0. -1.
        -11    1    3    3    0    0 -0.10762495788E+02  0.94194031185E+01 -0.18638514706E+02  0.23493631081E+02  0.51100000000E-03 0.  1.
         12    1    3    3    0    0 -0.23051111048E+01  0.77652531795E+01 -0.18348324569E+02  0.20056762167E+02  0.00000000000E+00 0. -1.
</event>
<event>
 7    1  0.5006721E-012  0.5052885E+02  0.7816164E-02  0.1300439E+00
        -11   -1    0    0    0    0  0.00000000000E+00  0.00000000000E+00  0.45593999997E+02  0.45594000000E+02  0.51100000000E-03 0.  1.
         11   -1    0    0    0    0 -0.00000000000E+00 -0.00000000000E+00 -0.45593999997E+02  0.45594000000E+02  0.51100000000E-03 0. -1.
    9900012    2    1    2    0    0  0.31144692300E+02  0.23072954961E+02  0.12280623323E+02  0.50528845824E+02  0.29999957367E+02 0.  0.
        -12    1    1    2    0    0 -0.31144692300E+02 -0.23072954961E+02 -0.12280623323E+02  0.40659154176E+02  0.00000000000E+00 0.  1.
         11    1    3    3    0    0  0.24013448114E+02  0.26272796022E+02  0.80402939241E+01  0.36490434743E+02  0.51100000000E-03 0. -1.
        -11    1    3    3    0    0 -0.28147956749E+00 -0.29480405263E+01 -0.26058881310E+01  0.39447213975E+01  0.51100000000E-03 0.  1.
         12    1    3    3    0    0  0.74127237533E+01 -0.25180053415E+00  0.68462175301E+01  0.10093689683E+02  0.00000000000E+00 0. -1.
</event>
<event>
 7    1  0.5006721E-012  0.5052886E+02  0.7816164E-02  0.1300439E+00
        -11   -1    0    0    0    0  0.00000000000E+00  0.00000000000E+00  0.45593999997E+02  0.45594000000E+02  0.51100000000E-03 0. -1.
         11   -1    0    0    0    0 -0.00000000000E+00 -0.00000000000E+00 -0.45593999997E+02  0.45594000000E+02  0.51100000000E-03 0.  1.
    9900012    2    1    2    0    0  0.91843231908E+01 -0.44958988816E+01 -0.39352263249E+02  0.50528861765E+02  0.30000005820E+02 0.  0.
         12    1    1    2    0    0 -0.91843231908E+01  0.44958988816E+01  0.39352263249E+02  0.40659138235E+02  0.00000000000E+00 0. -1.
         11    1    3    3    0    0  0.98164301152E+00 -0.72895467461E+01  0.83772253458E+00  0.74028976807E+01  0.51100000000E-03 0. -1.
        -11    1    3    3    0    0  0.48487352200E+01  0.74553213458E+01 -0.16437877289E+02  0.18689458516E+02  0.51100000000E-03 0.  1.
         12    1    3    3    0    0  0.33539449593E+01 -0.46616734812E+01 -0.23752108494E+02  0.24436505568E+02  0.00000000000E+00 0. -1.
</event>
<event>
 7    1  0.5006721E-012  0.5052886E+02  0.7816164E-02  0.1300439E+00
        -11   -1    0    0    0    0  0.00000000000E+00  0.00000000000E+00  0.45593999997E+02  0.45594000000E+02  0.51100000000E-03 0.  1.
         11   -1    0    0    0    0 -0.00000000000E+00 -0.00000000000E+00 -0.45593999997E+02  0.45594000000E+02  0.51100000000E-03 0. -1.
    9900012    2    1    2    0    0 -0.33732512949E+00 -0.39973296102E+02  0.74288343250E+01  0.50528858728E+02  0.29999996590E+02 0.  0.
        -12    1    1    2    0    0  0.33732512949E+00  0.39973296102E+02 -0.74288343250E+01  0.40659141272E+02  0.00000000000E+00 0.  1.
         11    1    3    3    0    0  0.13322689000E+02 -0.20892121935E+02  0.60504449217E+01  0.25506522404E+02  0.51100000000E-03 0. -1.
        -11    1    3    3    0    0 -0.75161803782E+01 -0.64646788915E+01  0.40994808457E+01  0.10728037291E+02  0.51100000000E-03 0.  1.
         12    1    3    3    0    0 -0.61438337514E+01 -0.12616495276E+02 -0.27210914425E+01  0.14294299033E+02  0.00000000000E+00 0. -1.
</event>
<event>
 7    1  0.5006721E-012  0.5052886E+02  0.7816164E-02  0.1300439E+00
        -11   -1    0    0    0    0  0.00000000000E+00  0.00000000000E+00  0.45593999997E+02  0.45594000000E+02  0.51100000000E-03 0. -1.
         11   -1    0    0    0    0 -0.00000000000E+00 -0.00000000000E+00 -0.45593999997E+02  0.45594000000E+02  0.51100000000E-03 0.  1.
    9900012    2    1    2    0    0  0.91181305783E+01  0.19827372268E+02 -0.34305983811E+02  0.50528861770E+02  0.30000005838E+02 0.  0.
         12    1    1    2    0    0 -0.91181305783E+01 -0.19827372268E+02  0.34305983811E+02  0.40659138230E+02  0.00000000000E+00 0. -1.
         11    1    3    3    0    0 -0.46249122453E+01  0.30682883079E+01 -0.61795471034E+01  0.83060826556E+01  0.51100000000E-03 0. -1.
        -11    1    3    3    0    0  0.14140867159E+02  0.21619239761E+02 -0.19702170801E+02  0.32488939447E+02  0.51100000000E-03 0.  1.
        -12    1    3    3    0    0 -0.39782433570E+00 -0.48601558007E+01 -0.84242659069E+01  0.97338396678E+01  0.00000000000E+00 0.  1.
</event>
<event>
 7    1  0.5006721E-012  0.5052886E+02  0.7816164E-02  0.1300439E+00
        -11   -1    0    0    0    0  0.00000000000E+00  0.00000000000E+00  0.45593999997E+02  0.45594000000E+02  0.51100000000E-03 0. -1.
         11   -1    0    0    0    0 -0.00000000000E+00 -0.00000000000E+00 -0.45593999997E+02  0.45594000000E+02  0.51100000000E-03 0.  1.
    9900012    2    1    2    0    0  0.21870228787E+02 -0.20921309731E+02  0.27150642073E+02  0.50528862368E+02  0.30000007652E+02 0.  0.
        -12    1    1    2    0    0 -0.21870228787E+02  0.20921309731E+02 -0.27150642073E+02  0.40659137632E+02  0.00000000000E+00 0.  1.
         11    1    3    3    0    0  0.10480389466E+02 -0.22477087077E+02  0.26272371525E+02  0.36128873669E+02  0.51100000000E-03 0. -1.
        -11    1    3    3    0    0  0.61114337965E+00  0.33073607063E+01  0.89303156756E+00  0.34798903308E+01  0.51100000000E-03 0.  1.
         12    1    3    3    0    0  0.10778695942E+02 -0.17515833602E+01 -0.14761019329E-01  0.10920098368E+02  0.00000000000E+00 0. -1.
</event>
<event>
 7    1  0.5006721E-012  0.5052885E+02  0.7816164E-02  0.1300439E+00
        -11   -1    0    0    0    0  0.00000000000E+00  0.00000000000E+00  0.45593999997E+02  0.45594000000E+02  0.51100000000E-03 0. -1.
         11   -1    0    0    0    0 -0.00000000000E+00 -0.00000000000E+00 -0.45593999997E+02  0.45594000000E+02  0.51100000000E-03 0.  1.
    9900012    2    1    2    0    0  0.98641891263E+01  0.17359479486E+02 -0.35419099687E+02  0.50528851241E+02  0.29999973834E+02 0.  0.
         12    1    1    2    0    0 -0.98641891263E+01 -0.17359479486E+02  0.35419099687E+02  0.40659148759E+02  0.00000000000E+00 0. -1.
         11    1    3    3    0    0 -0.21028563579E+00 -0.50870468561E+01 -0.89408171336E+01  0.10288852076E+02  0.51100000000E-03 0.  1.
        -11    1    3    3    0    0  0.14678441968E+02  0.14589503832E+02 -0.14859666994E+02  0.25477833191E+02  0.51100000000E-03 0. -1.
        -12    1    3    3    0    0 -0.46039672055E+01  0.78570225098E+01 -0.11618615559E+02  0.14762165974E+02  0.00000000000E+00 0.  1.
</event>
<event>
 7    1  0.5006721E-012  0.5052885E+02  0.7816164E-02  0.1300439E+00
        -11   -1    0    0    0    0  0.00000000000E+00  0.00000000000E+00  0.45593999997E+02  0.45594000000E+02  0.51100000000E-03 0. -1.
         11   -1    0    0    0    0 -0.00000000000E+00 -0.00000000000E+00 -0.45593999997E+02  0.45594000000E+02  0.51100000000E-03 0.  1.
    9900012    2    1    2    0    0  0.23747889483E+02 -0.11595841377E+02 -0.30898874024E+02  0.50528853328E+02  0.29999980176E+02 0.  0.
         12    1    1    2    0    0 -0.23747889483E+02  0.11595841377E+02  0.30898874024E+02  0.40659146672E+02  0.00000000000E+00 0. -1.
         11    1    3    3    0    0  0.56239795953E+01 -0.41153743436E+01  0.55707973966E+01  0.89218404139E+01  0.51100000000E-03 0. -1.
        -11    1    3    3    0    0  0.11812699659E+02 -0.66690748066E+01 -0.22829826497E+02  0.26555929849E+02  0.51100000000E-03 0.  1.
         12    1    3    3    0    0  0.63112102293E+01 -0.81139222675E+00 -0.13639844923E+02  0.15051083065E+02  0.00000000000E+00 0. -1.
</event>
<event>
 7    1  0.5006721E-012  0.5052885E+02  0.7816164E-02  0.1300439E+00
        -11   -1    0    0    0    0  0.00000000000E+00  0.00000000000E+00  0.45593999997E+02  0.45594000000E+02  0.51100000000E-03 0. -1.
         11   -1    0    0    0    0 -0.00000000000E+00 -0.00000000000E+00 -0.45593999997E+02  0.45594000000E+02  0.51100000000E-03 0.  1.
    9900012    2    1    2    0    0 -0.10741088581E+02 -0.90584963134E+01  0.38154146907E+02  0.50528852621E+02  0.29999978026E+02 0.  0.
        -12    1    1    2    0    0  0.10741088581E+02  0.90584963134E+01 -0.38154146907E+02  0.40659147379E+02  0.00000000000E+00 0.  1.
         11    1    3    3    0    0 -0.11382187836E+02  0.53639311521E+01  0.12748764757E+02  0.17912480577E+02  0.51100000000E-03 0.  1.
        -11    1    3    3    0    0  0.23326207219E+01 -0.15831803200E+02  0.25819026564E+02  0.30376129526E+02  0.51100000000E-03 0. -1.
         12    1    3    3    0    0 -0.16915214675E+01  0.14093757345E+01 -0.41364441406E+00  0.22402425176E+01  0.00000000000E+00 0. -1.
</event>
<event>
 7    1  0.5006721E-012  0.5052886E+02  0.7816164E-02  0.1300439E+00
        -11   -1    0    0    0    0  0.00000000000E+00  0.00000000000E+00  0.45593999997E+02  0.45594000000E+02  0.51100000000E-03 0. -1.
         11   -1    0    0    0    0 -0.00000000000E+00 -0.00000000000E+00 -0.45593999997E+02  0.45594000000E+02  0.51100000000E-03 0.  1.
    9900012    2    1    2    0    0  0.16136959241E+02 -0.26290206124E+02 -0.26487528378E+02  0.50528861406E+02  0.30000004731E+02 0.  0.
         12    1    1    2    0    0 -0.16136959241E+02  0.26290206124E+02  0.26487528378E+02  0.40659138594E+02  0.00000000000E+00 0. -1.
         11    1    3    3    0    0 -0.15173478233E+01 -0.10582836783E+02 -0.18877298996E+02  0.21694496916E+02  0.51100000000E-03 0. -1.
        -11    1    3    3    0    0  0.13520615344E+02 -0.89850927801E+01  0.20474743260E+01  0.16362490120E+02  0.51100000000E-03 0.  1.
        -12    1    3    3    0    0  0.41336917204E+01 -0.67222765608E+01 -0.96577037074E+01  0.12471874370E+02  0.00000000000E+00 0.  1.
</event>
<event>
 7    1  0.5006721E-012  0.5052887E+02  0.7816164E-02  0.1300439E+00
        -11   -1    0    0    0    0  0.00000000000E+00  0.00000000000E+00  0.45593999997E+02  0.45594000000E+02  0.51100000000E-03 0.  1.
         11   -1    0    0    0    0 -0.00000000000E+00 -0.00000000000E+00 -0.45593999997E+02  0.45594000000E+02  0.51100000000E-03 0. -1.
    9900012    2    1    2    0    0 -0.27947474581E+02  0.28377413498E+02 -0.81747177447E+01  0.50528868892E+02  0.30000027483E+02 0.  0.
         12    1    1    2    0    0  0.27947474581E+02 -0.28377413498E+02  0.81747177447E+01  0.40659131108E+02  0.00000000000E+00 0. -1.
         11    1    3    3    0    0 -0.38736413927E+01  0.23641622837E+00 -0.64531051697E+01  0.75301764166E+01  0.51100000000E-03 0. -1.
        -11    1    3    3    0    0 -0.15404239339E+02  0.27886904469E+02  0.47046533773E+01  0.32204095922E+02  0.51100000000E-03 0.  1.
        -12    1    3    3    0    0 -0.86695938489E+01  0.25409280020E+00 -0.64262659523E+01  0.10794596553E+02  0.00000000000E+00 0.  1.
</event>
<event>
 7    1  0.5006721E-012  0.5052885E+02  0.7816164E-02  0.1300439E+00
        -11   -1    0    0    0    0  0.00000000000E+00  0.00000000000E+00  0.45593999997E+02  0.45594000000E+02  0.51100000000E-03 0. -1.
         11   -1    0    0    0    0 -0.00000000000E+00 -0.00000000000E+00 -0.45593999997E+02  0.45594000000E+02  0.51100000000E-03 0.  1.
    9900012    2    1    2    0    0  0.30182169977E+02 -0.61428628007E+01  0.26541827646E+02  0.50528846508E+02  0.29999959445E+02 0.  0.
        -12    1    1    2    0    0 -0.30182169977E+02  0.61428628007E+01 -0.26541827646E+02  0.40659153492E+02  0.00000000000E+00 0.  1.
         11    1    3    3    0    0  0.10932822469E+02  0.77488250294E+01  0.14559056325E+02  0.19787294353E+02  0.51100000000E-03 0. -1.
        -11    1    3    3    0    0  0.13529269144E+02 -0.15280689778E+02  0.13734231585E+02  0.24600197584E+02  0.51100000000E-03 0.  1.
         12    1    3    3    0    0  0.57200783641E+01  0.13890019481E+01 -0.17514602646E+01  0.61413545706E+01  0.00000000000E+00 0. -1.
</event>
<event>
 7    1  0.5006721E-012  0.5052886E+02  0.7816164E-02  0.1300439E+00
        -11   -1    0    0    0    0  0.00000000000E+00  0.00000000000E+00  0.45593999997E+02  0.45594000000E+02  0.51100000000E-03 0. -1.
         11   -1    0    0    0    0 -0.00000000000E+00 -0.00000000000E+00 -0.45593999997E+02  0.45594000000E+02  0.51100000000E-03 0.  1.
    9900012    2    1    2    0    0  0.28605509967E+02 -0.22534665105E+02  0.18085330060E+02  0.50528862094E+02  0.30000006820E+02 0.  0.
        -12    1    1    2    0    0 -0.28605509967E+02  0.22534665105E+02 -0.18085330060E+02  0.40659137906E+02  0.00000000000E+00 0.  1.
         11    1    3    3    0    0 -0.37016279943E+01 -0.44343237004E+01  0.10195562068E+02  0.11718138190E+02  0.51100000000E-03 0. -1.
        -11    1    3    3    0    0  0.19804523537E+02 -0.10002943731E+02  0.88426683411E+01  0.23884530966E+02  0.51100000000E-03 0.  1.
         12    1    3    3    0    0  0.12502614425E+02 -0.80973976740E+01 -0.95290034925E+00  0.14926192938E+02  0.00000000000E+00 0. -1.
</event>
<event>
 7    1  0.5006721E-012  0.5052886E+02  0.7816164E-02  0.1300439E+00
        -11   -1    0    0    0    0  0.00000000000E+00  0.00000000000E+00  0.45593999997E+02  0.45594000000E+02  0.51100000000E-03 0. -1.
         11   -1    0    0    0    0 -0.00000000000E+00 -0.00000000000E+00 -0.45593999997E+02  0.45594000000E+02  0.51100000000E-03 0.  1.
    9900012    2    1    2    0    0  0.28318315203E+02  0.16359280724E+02  0.24158073157E+02  0.50528861539E+02  0.30000005134E+02 0.  0.
        -12    1    1    2    0    0 -0.28318315203E+02 -0.16359280724E+02 -0.24158073157E+02  0.40659138461E+02  0.00000000000E+00 0.  1.
         11    1    3    3    0    0  0.18318322612E+02  0.14018678123E+02  0.12854999195E+01  0.23102744208E+02  0.51100000000E-03 0. -1.
        -11    1    3    3    0    0  0.84075734257E+01  0.65251809328E+01  0.15551730376E+02  0.18844670203E+02  0.51100000000E-03 0.  1.
         12    1    3    3    0    0  0.15924191654E+01 -0.41845783317E+01  0.73208428612E+01  0.85814471280E+01  0.00000000000E+00 0. -1.
</event>
<event>
 7    1  0.5006721E-012  0.5052886E+02  0.7816164E-02  0.1300439E+00
        -11   -1    0    0    0    0  0.00000000000E+00  0.00000000000E+00  0.45593999997E+02  0.45594000000E+02  0.51100000000E-03 0. -1.
         11   -1    0    0    0    0 -0.00000000000E+00 -0.00000000000E+00 -0.45593999997E+02  0.45594000000E+02  0.51100000000E-03 0.  1.
    9900012    2    1    2    0    0  0.94445693133E+01 -0.22549254898E+02  0.32488405714E+02  0.50528864596E+02  0.30000014426E+02 0.  0.
        -12    1    1    2    0    0 -0.94445693133E+01  0.22549254898E+02 -0.32488405714E+02  0.40659135404E+02  0.00000000000E+00 0.  1.
         11    1    3    3    0    0  0.98028981842E+01 -0.20128248592E+00  0.31019911794E+01  0.10283952401E+02  0.51100000000E-03 0. -1.
        -11    1    3    3    0    0 -0.72178603701E+01 -0.48359260275E+01  0.94754688159E+01  0.12855667949E+02  0.51100000000E-03 0.  1.
         12    1    3    3    0    0  0.68595314992E+01 -0.17512046385E+02  0.19910945718E+02  0.27389244246E+02  0.00000000000E+00 0. -1.
</event>
<event>
 7    1  0.5006721E-012  0.5052885E+02  0.7816164E-02  0.1300439E+00
        -11   -1    0    0    0    0  0.00000000000E+00  0.00000000000E+00  0.45593999997E+02  0.45594000000E+02  0.51100000000E-03 0. -1.
         11   -1    0    0    0    0 -0.00000000000E+00 -0.00000000000E+00 -0.45593999997E+02  0.45594000000E+02  0.51100000000E-03 0.  1.
    9900012    2    1    2    0    0  0.15350991944E+02  0.16985316230E+02  0.33600785172E+02  0.50528847460E+02  0.29999962340E+02 0.  0.
        -12    1    1    2    0    0 -0.15350991944E+02 -0.16985316230E+02 -0.33600785172E+02  0.40659152540E+02  0.00000000000E+00 0.  1.
         11    1    3    3    0    0  0.64861315061E+01  0.57667902622E+01  0.15234416829E+02  0.17533203593E+02  0.51100000000E-03 0. -1.
        -11    1    3    3    0    0 -0.63919036976E+01 -0.25286803215E+01  0.47221527903E+01  0.83396273468E+01  0.51100000000E-03 0.  1.
        -12    1    3    3    0    0  0.15256764135E+02  0.13747206289E+02  0.13644215553E+02  0.24656016521E+02  0.00000000000E+00 0.  1.
</event>
<event>
 7    1  0.5006721E-012  0.5052884E+02  0.7816164E-02  0.1300439E+00
        -11   -1    0    0    0    0  0.00000000000E+00  0.00000000000E+00  0.45593999997E+02  0.45594000000E+02  0.51100000000E-03 0.  1.
         11   -1    0    0    0    0 -0.00000000000E+00 -0.00000000000E+00 -0.45593999997E+02  0.45594000000E+02  0.51100000000E-03 0. -1.
    9900012    2    1    2    0    0 -0.26271098427E+02  0.37059086618E+00 -0.31029975282E+02  0.50528839701E+02  0.29999938756E+02 0.  0.
         12    1    1    2    0    0  0.26271098427E+02 -0.37059086618E+00  0.31029975282E+02  0.40659160299E+02  0.00000000000E+00 0. -1.
         11    1    3    3    0    0 -0.17980088273E+01 -0.10927303711E+02 -0.61125033973E+01  0.12649169940E+02  0.51100000000E-03 0. -1.
        -11    1    3    3    0    0 -0.84368505893E+01  0.89016449390E+01 -0.11865114616E+02  0.17064603001E+02  0.51100000000E-03 0.  1.
        -12    1    3    3    0    0 -0.16036239011E+02  0.23962496381E+01 -0.13052357269E+02  0.20815066760E+02  0.00000000000E+00 0.  1.
</event>
<event>
 7    1  0.5006721E-012  0.5052887E+02  0.7816164E-02  0.1300439E+00
        -11   -1    0    0    0    0  0.00000000000E+00  0.00000000000E+00  0.45593999997E+02  0.45594000000E+02  0.51100000000E-03 0. -1.
         11   -1    0    0    0    0 -0.00000000000E+00 -0.00000000000E+00 -0.45593999997E+02  0.45594000000E+02  0.51100000000E-03 0.  1.
    9900012    2    1    2    0    0  0.14675315608E+02  0.14456633972E+02  0.35054328675E+02  0.50528866796E+02  0.30000021113E+02 0.  0.
        -12    1    1    2    0    0 -0.14675315608E+02 -0.14456633972E+02 -0.35054328675E+02  0.40659133204E+02  0.00000000000E+00 0.  1.
         11    1    3    3    0    0  0.27070108771E+01  0.12010546008E+02  0.11986448516E+02  0.17183016952E+02  0.51100000000E-03 0. -1.
        -11    1    3    3    0    0  0.25784568248E+01 -0.80298822236E+00 -0.38214896192E+01  0.46794244147E+01  0.51100000000E-03 0.  1.
        -12    1    3    3    0    0  0.93898479064E+01  0.32490761867E+01  0.26889369779E+02  0.28666425429E+02  0.00000000000E+00 0.  1.
</event>
<event>
 7    1  0.5656616E-012  0.5052886E+02  0.7816164E-02  0.1300439E+00
        -11   -1    0    0    0    0  0.00000000000E+00  0.00000000000E+00  0.45593999997E+02  0.45594000000E+02  0.51100000000E-03 0. -1.
         11   -1    0    0    0    0 -0.00000000000E+00 -0.00000000000E+00 -0.45593999997E+02  0.45594000000E+02  0.51100000000E-03 0.  1.
    9900012    2    1    2    0    0  0.23686782433E+02  0.24354402730E+02  0.22337519604E+02  0.50528863556E+02  0.30000011265E+02 0.  0.
        -12    1    1    2    0    0 -0.23686782433E+02 -0.24354402730E+02 -0.22337519604E+02  0.40659136444E+02  0.00000000000E+00 0.  1.
         11    1    3    3    0    0  0.24226318168E+02  0.12742612680E+02  0.19013287179E+02  0.33328572719E+02  0.51100000000E-03 0. -1.
        -11    1    3    3    0    0 -0.17124504940E+01 -0.23258414768E+01  0.63405964641E+00  0.29570351986E+01  0.51100000000E-03 0.  1.
         12    1    3    3    0    0  0.11729147590E+01  0.13937631527E+02  0.26901727785E+01  0.14243255638E+02  0.00000000000E+00 0. -1.
</event>
<event>
 7    1  0.5466480E-012  0.5052886E+02  0.7816164E-02  0.1300439E+00
        -11   -1    0    0    0    0  0.00000000000E+00  0.00000000000E+00  0.45593999997E+02  0.45594000000E+02  0.51100000000E-03 0. -1.
         11   -1    0    0    0    0 -0.00000000000E+00 -0.00000000000E+00 -0.45593999997E+02  0.45594000000E+02  0.51100000000E-03 0.  1.
    9900012    2    1    2    0    0  0.19869472018E+02 -0.10028537118E+02  0.34026430226E+02  0.50528862910E+02  0.30000009300E+02 0.  0.
        -12    1    1    2    0    0 -0.19869472018E+02  0.10028537118E+02 -0.34026430226E+02  0.40659137090E+02  0.00000000000E+00 0.  1.
         11    1    3    3    0    0  0.66181856772E+01 -0.78192812441E+01 -0.11943847535E+01  0.10313490972E+02  0.51100000000E-03 0. -1.
        -11    1    3    3    0    0  0.40862697093E+01  0.58970696372E+01  0.12879940119E+02  0.14743333686E+02  0.51100000000E-03 0.  1.
         12    1    3    3    0    0  0.91650166313E+01 -0.81063255112E+01  0.22340874861E+02  0.25472038252E+02  0.00000000000E+00 0. -1.
</event>
<event>
 7    1  0.5006721E-012  0.5052886E+02  0.7816164E-02  0.1300439E+00
        -11   -1    0    0    0    0  0.00000000000E+00  0.00000000000E+00  0.45593999997E+02  0.45594000000E+02  0.51100000000E-03 0. -1.
         11   -1    0    0    0    0 -0.00000000000E+00 -0.00000000000E+00 -0.45593999997E+02  0.45594000000E+02  0.51100000000E-03 0.  1.
    9900012    2    1    2    0    0  0.25838830090E+02  0.41568753015E+01 -0.31116568359E+02  0.50528861063E+02  0.30000003687E+02 0.  0.
         12    1    1    2    0    0 -0.25838830090E+02 -0.41568753015E+01  0.31116568359E+02  0.40659138937E+02  0.00000000000E+00 0. -1.
         11    1    3    3    0    0  0.37720580208E+01 -0.14238856981E+01 -0.15198299991E+02  0.15724000607E+02  0.51100000000E-03 0. -1.
        -11    1    3    3    0    0  0.17348941290E+02 -0.29767210589E+01 -0.18829917289E+01  0.17702889320E+02  0.51100000000E-03 0.  1.
        -12    1    3    3    0    0  0.47178307788E+01  0.85574820585E+01 -0.14035276638E+02  0.17101971136E+02  0.00000000000E+00 0.  1.
</event>
<event>
 7    1  0.5006721E-012  0.5052896E+02  0.7816164E-02  0.1300438E+00
        -11   -1    0    0    0    0  0.00000000000E+00  0.00000000000E+00  0.45593999997E+02  0.45594000000E+02  0.51100000000E-03 0. -1.
         11   -1    0    0    0    0 -0.00000000000E+00 -0.00000000000E+00 -0.45593999997E+02  0.45594000000E+02  0.51100000000E-03 0.  1.
    9900012    2    1    2    0    0  0.19185575448E+02 -0.13206525723E+02 -0.33326545335E+02  0.50528963478E+02  0.30000314986E+02 0.  0.
         12    1    1    2    0    0 -0.19185575448E+02  0.13206525723E+02  0.33326545335E+02  0.40659036522E+02  0.00000000000E+00 0. -1.
         11    1    3    3    0    0  0.50980932827E+00  0.64843639424E+01 -0.79719800352E+01  0.10288797171E+02  0.51100000000E-03 0. -1.
        -11    1    3    3    0    0  0.17836321794E+02 -0.93004882639E+01 -0.20568450929E+02  0.28769682497E+02  0.51100000000E-03 0.  1.
         12    1    3    3    0    0  0.83944432586E+00 -0.10390401401E+02 -0.47861143705E+01  0.11470483810E+02  0.00000000000E+00 0. -1.
</event>
<event>
 7    1  0.5006721E-012  0.5052887E+02  0.7816164E-02  0.1300439E+00
        -11   -1    0    0    0    0  0.00000000000E+00  0.00000000000E+00  0.45593999997E+02  0.45594000000E+02  0.51100000000E-03 0. -1.
         11   -1    0    0    0    0 -0.00000000000E+00 -0.00000000000E+00 -0.45593999997E+02  0.45594000000E+02  0.51100000000E-03 0.  1.
    9900012    2    1    2    0    0  0.11048411494E+02 -0.18050764638E+02  0.34716965511E+02  0.50528865788E+02  0.30000018051E+02 0.  0.
        -12    1    1    2    0    0 -0.11048411494E+02  0.18050764638E+02 -0.34716965511E+02  0.40659134212E+02  0.00000000000E+00 0.  1.
         11    1    3    3    0    0  0.20608033305E+02 -0.16507783577E+02  0.21228319431E+02  0.33879780127E+02  0.51100000000E-03 0. -1.
        -11    1    3    3    0    0 -0.36548569286E+01 -0.99178236838E+00  0.60227217995E+01  0.71144071834E+01  0.51100000000E-03 0.  1.
         12    1    3    3    0    0 -0.59047648827E+01 -0.55119869276E+00  0.74659242806E+01  0.95346784782E+01  0.00000000000E+00 0. -1.
</event>
<event>
 7    1  0.5006721E-012  0.5052886E+02  0.7816164E-02  0.1300439E+00
        -11   -1    0    0    0    0  0.00000000000E+00  0.00000000000E+00  0.45593999997E+02  0.45594000000E+02  0.51100000000E-03 0. -1.
         11   -1    0    0    0    0 -0.00000000000E+00 -0.00000000000E+00 -0.45593999997E+02  0.45594000000E+02  0.51100000000E-03 0.  1.
    9900012    2    1    2    0    0  0.23691950107E+02  0.60175812171E+01 -0.32490699045E+02  0.50528864396E+02  0.30000013818E+02 0.  0.
         12    1    1    2    0    0 -0.23691950107E+02 -0.60175812171E+01  0.32490699045E+02  0.40659135604E+02  0.00000000000E+00 0. -1.
         11    1    3    3    0    0  0.29965700631E+01 -0.34240390801E+00  0.64920897813E+00  0.30851491273E+01  0.51100000000E-03 0. -1.
        -11    1    3    3    0    0  0.19249627432E+02  0.26038074049E+01 -0.37049331756E+02  0.41832773672E+02  0.51100000000E-03 0.  1.
        -12    1    3    3    0    0  0.14457526126E+01  0.37561777202E+01  0.39094237324E+01  0.56109415968E+01  0.00000000000E+00 0.  1.
</event>
<event>
 7    1  0.5006721E-012  0.5052889E+02  0.7816164E-02  0.1300439E+00
        -11   -1    0    0    0    0  0.00000000000E+00  0.00000000000E+00  0.45593999997E+02  0.45594000000E+02  0.51100000000E-03 0. -1.
         11   -1    0    0    0    0 -0.00000000000E+00 -0.00000000000E+00 -0.45593999997E+02  0.45594000000E+02  0.51100000000E-03 0.  1.
    9900012    2    1    2    0    0 -0.77765730849E+01  0.11735369535E+02  0.38144058589E+02  0.50528890409E+02  0.30000092889E+02 0.  0.
        -12    1    1    2    0    0  0.77765730849E+01 -0.11735369535E+02 -0.38144058589E+02  0.40659109591E+02  0.00000000000E+00 0.  1.
         11    1    3    3    0    0 -0.29471653943E+01 -0.34992840744E+01  0.10192833846E+02  0.11172494572E+02  0.51100000000E-03 0. -1.
        -11    1    3    3    0    0  0.77124078612E+01  0.53545612629E+01  0.32327053194E+01  0.99299015745E+01  0.51100000000E-03 0.  1.
        -12    1    3    3    0    0 -0.12541815552E+02  0.98800923462E+01  0.24718519424E+02  0.29426494263E+02  0.00000000000E+00 0.  1.
</event>
<event>
 7    1  0.5006721E-012  0.5052884E+02  0.7816164E-02  0.1300439E+00
        -11   -1    0    0    0    0  0.00000000000E+00  0.00000000000E+00  0.45593999997E+02  0.45594000000E+02  0.51100000000E-03 0. -1.
         11   -1    0    0    0    0 -0.00000000000E+00 -0.00000000000E+00 -0.45593999997E+02  0.45594000000E+02  0.51100000000E-03 0.  1.
    9900012    2    1    2    0    0  0.91080484441E+01  0.85592142241E+01 -0.38690442745E+02  0.50528842921E+02  0.29999948543E+02 0.  0.
         12    1    1    2    0    0 -0.91080484441E+01 -0.85592142241E+01  0.38690442745E+02  0.40659157079E+02  0.00000000000E+00 0. -1.
         11    1    3    3    0    0  0.16368715603E+02  0.10601203855E+02 -0.13236692484E+02  0.23569692443E+02  0.51100000000E-03 0. -1.
        -11    1    3    3    0    0 -0.27141869620E+01  0.14949944632E+01 -0.98633956390E+01  0.10338684302E+02  0.51100000000E-03 0.  1.
         12    1    3    3    0    0 -0.45464801974E+01 -0.35369840938E+01 -0.15590354622E+02  0.16620466176E+02  0.00000000000E+00 0. -1.
</event>
<event>
 7    1  0.5006721E-012  0.5052888E+02  0.7816164E-02  0.1300439E+00
        -11   -1    0    0    0    0  0.00000000000E+00  0.00000000000E+00  0.45593999997E+02  0.45594000000E+02  0.51100000000E-03 0. -1.
         11   -1    0    0    0    0 -0.00000000000E+00 -0.00000000000E+00 -0.45593999997E+02  0.45594000000E+02  0.51100000000E-03 0.  1.
    9900012    2    1    2    0    0 -0.24609948554E+01  0.31301093598E+02  0.25833098940E+02  0.50528881011E+02  0.30000064320E+02 0.  0.
        -12    1    1    2    0    0  0.24609948554E+01 -0.31301093598E+02 -0.25833098940E+02  0.40659118989E+02  0.00000000000E+00 0.  1.
         11    1    3    3    0    0  0.40078784779E+01  0.20415182363E+02  0.25826659427E+02  0.33164123662E+02  0.51100000000E-03 0. -1.
        -11    1    3    3    0    0 -0.25726333876E+01  0.72541615180E+01 -0.56857420468E+01  0.95691674016E+01  0.51100000000E-03 0.  1.
        -12    1    3    3    0    0 -0.38962399457E+01  0.36317497171E+01  0.56921815593E+01  0.77955899473E+01  0.00000000000E+00 0.  1.
</event>
<event>
 7    1  0.5006721E-012  0.5052887E+02  0.7816164E-02  0.1300439E+00
        -11   -1    0    0    0    0  0.00000000000E+00  0.00000000000E+00  0.45593999997E+02  0.45594000000E+02  0.51100000000E-03 0. -1.
         11   -1    0    0    0    0 -0.00000000000E+00 -0.00000000000E+00 -0.45593999997E+02  0.45594000000E+02  0.51100000000E-03 0.  1.
    9900012    2    1    2    0    0  0.28513426556E+01  0.40241414552E+02  0.50659117713E+01  0.50528867420E+02  0.30000023011E+02 0.  0.
        -12    1    1    2    0    0 -0.28513426556E+01 -0.40241414552E+02 -0.50659117713E+01  0.40659132580E+02  0.00000000000E+00 0.  1.
         11    1    3    3    0    0  0.35930766389E+01  0.44720595816E+02  0.71503994045E+01  0.45430937716E+02  0.51100000000E-03 0. -1.
        -11    1    3    3    0    0 -0.98843176345E-01 -0.28474224993E+01 -0.16447678558E+01  0.32898094814E+01  0.51100000000E-03 0.  1.
         12    1    3    3    0    0 -0.64289080695E+00 -0.16317587652E+01 -0.43971977744E+00  0.18081202228E+01  0.00000000000E+00 0. -1.
</event>
<event>
 7    1  0.5006721E-012  0.5052886E+02  0.7816164E-02  0.1300439E+00
        -11   -1    0    0    0    0  0.00000000000E+00  0.00000000000E+00  0.45593999997E+02  0.45594000000E+02  0.51100000000E-03 0. -1.
         11   -1    0    0    0    0 -0.00000000000E+00 -0.00000000000E+00 -0.45593999997E+02  0.45594000000E+02  0.51100000000E-03 0.  1.
    9900012    2    1    2    0    0  0.29648755945E+02 -0.37887169050E+00  0.27820370735E+02  0.50528864487E+02  0.30000014093E+02 0.  0.
        -12    1    1    2    0    0 -0.29648755945E+02  0.37887169050E+00 -0.27820370735E+02  0.40659135513E+02  0.00000000000E+00 0.  1.
         11    1    3    3    0    0  0.87039541550E+01 -0.11664308045E+01  0.28165353452E+02  0.29502652662E+02  0.51100000000E-03 0. -1.
        -11    1    3    3    0    0  0.10001981230E+02  0.11652833103E+01 -0.38042222694E+00  0.10076816712E+02  0.51100000000E-03 0.  1.
         12    1    3    3    0    0  0.10942820560E+02 -0.37772419627E+00  0.35439510748E-01  0.10949395113E+02  0.00000000000E+00 0. -1.
</event>
<event>
 7    1  0.5006721E-012  0.5052886E+02  0.7816164E-02  0.1300439E+00
        -11   -1    0    0    0    0  0.00000000000E+00  0.00000000000E+00  0.45593999997E+02  0.45594000000E+02  0.51100000000E-03 0. -1.
         11   -1    0    0    0    0 -0.00000000000E+00 -0.00000000000E+00 -0.45593999997E+02  0.45594000000E+02  0.51100000000E-03 0.  1.
    9900012    2    1    2    0    0  0.35862265827E+01  0.33367366567E+02  0.22954806622E+02  0.50528864252E+02  0.30000013380E+02 0.  0.
        -12    1    1    2    0    0 -0.35862265827E+01 -0.33367366567E+02 -0.22954806622E+02  0.40659135748E+02  0.00000000000E+00 0.  1.
         11    1    3    3    0    0 -0.25076188294E+01  0.15149629571E+02 -0.42120937685E+00  0.15361537876E+02  0.51100000000E-03 0. -1.
        -11    1    3    3    0    0  0.77927100078E+01  0.14054741493E+02  0.25541565723E+02  0.30176707368E+02  0.51100000000E-03 0.  1.
        -12    1    3    3    0    0 -0.16988645957E+01  0.41629955033E+01 -0.21655497242E+01  0.49906190080E+01  0.00000000000E+00 0.  1.
</event>
<event>
 7    1  0.5006721E-012  0.5052885E+02  0.7816164E-02  0.1300439E+00
        -11   -1    0    0    0    0  0.00000000000E+00  0.00000000000E+00  0.45593999997E+02  0.45594000000E+02  0.51100000000E-03 0. -1.
         11   -1    0    0    0    0 -0.00000000000E+00 -0.00000000000E+00 -0.45593999997E+02  0.45594000000E+02  0.51100000000E-03 0.  1.
    9900012    2    1    2    0    0  0.72006488729E+01  0.58184829371E+01  0.39591186269E+02  0.50528854435E+02  0.29999983541E+02 0.  0.
        -12    1    1    2    0    0 -0.72006488729E+01 -0.58184829371E+01 -0.39591186269E+02  0.40659145565E+02  0.00000000000E+00 0.  1.
         11    1    3    3    0    0 -0.58128332604E+01  0.24374091690E+00  0.67277861937E+01  0.88944672396E+01  0.51100000000E-03 0. -1.
        -11    1    3    3    0    0  0.13433470263E+02  0.12534886225E+02  0.21281962911E+02  0.28115893043E+02  0.51100000000E-03 0.  1.
        -12    1    3    3    0    0 -0.41998812944E+00 -0.69601442043E+01  0.11581437164E+02  0.13518494153E+02  0.00000000000E+00 0.  1.
</event>
<event>
 7    1  0.5006721E-012  0.5052886E+02  0.7816164E-02  0.1300439E+00
        -11   -1    0    0    0    0  0.00000000000E+00  0.00000000000E+00  0.45593999997E+02  0.45594000000E+02  0.51100000000E-03 0. -1.
         11   -1    0    0    0    0 -0.00000000000E+00 -0.00000000000E+00 -0.45593999997E+02  0.45594000000E+02  0.51100000000E-03 0.  1.
    9900012    2    1    2    0    0 -0.36668452201E+01  0.33403662912E+02  0.22889190472E+02  0.50528862156E+02  0.30000007009E+02 0.  0.
        -12    1    1    2    0    0  0.36668452201E+01 -0.33403662912E+02 -0.22889190472E+02  0.40659137844E+02  0.00000000000E+00 0.  1.
         11    1    3    3    0    0  0.77629145617E+01  0.22728770785E+02  0.18264581473E+02  0.30173743562E+02  0.51100000000E-03 0. -1.
        -11    1    3    3    0    0  0.11540424771E+01 -0.10077969345E+01 -0.14811482369E+01  0.21310253544E+01  0.51100000000E-03 0.  1.
         12    1    3    3    0    0 -0.12583802259E+02  0.11682689061E+02  0.61057572361E+01  0.18224093240E+02  0.00000000000E+00 0. -1.
</event>
<event>
 7    1  0.5006721E-012  0.5052888E+02  0.7816164E-02  0.1300439E+00
        -11   -1    0    0    0    0  0.00000000000E+00  0.00000000000E+00  0.45593999997E+02  0.45594000000E+02  0.51100000000E-03 0. -1.
         11   -1    0    0    0    0 -0.00000000000E+00 -0.00000000000E+00 -0.45593999997E+02  0.45594000000E+02  0.51100000000E-03 0.  1.
    9900012    2    1    2    0    0 -0.22253755780E+02  0.28068542718E+01 -0.33912472322E+02  0.50528882251E+02  0.30000068089E+02 0.  0.
         12    1    1    2    0    0  0.22253755780E+02 -0.28068542718E+01  0.33912472322E+02  0.40659117749E+02  0.00000000000E+00 0. -1.
         11    1    3    3    0    0 -0.18686118564E+02 -0.85740107179E+01 -0.13422627431E+02  0.24553036761E+02  0.51100000000E-03 0. -1.
        -11    1    3    3    0    0 -0.19377639849E+01  0.68506503210E+01 -0.19887985830E+02  0.21123880318E+02  0.51100000000E-03 0.  1.
         12    1    3    3    0    0 -0.16298732303E+01  0.45302146687E+01 -0.60185906127E+00  0.48519651710E+01  0.00000000000E+00 0. -1.
</event>
<event>
 7    1  0.5006721E-012  0.5052886E+02  0.7816164E-02  0.1300439E+00
        -11   -1    0    0    0    0  0.00000000000E+00  0.00000000000E+00  0.45593999997E+02  0.45594000000E+02  0.51100000000E-03 0. -1.
         11   -1    0    0    0    0 -0.00000000000E+00 -0.00000000000E+00 -0.45593999997E+02  0.45594000000E+02  0.51100000000E-03 0.  1.
    9900012    2    1    2    0    0 -0.36194930313E+02 -0.17955472354E+02  0.45490224634E+01  0.50528861136E+02  0.30000003909E+02 0.  0.
        -12    1    1    2    0    0  0.36194930313E+02  0.17955472354E+02 -0.45490224634E+01  0.40659138864E+02  0.00000000000E+00 0.  1.
         11    1    3    3    0    0 -0.16307466426E+02 -0.13035095823E+02 -0.17344256536E+01  0.20948876269E+02  0.51100000000E-03 0. -1.
        -11    1    3    3    0    0 -0.16103549201E+02  0.60874649685E+01  0.29009376789E+01  0.17458435390E+02  0.51100000000E-03 0.  1.
        -12    1    3    3    0    0 -0.37839146862E+01 -0.11007841500E+02  0.33825104381E+01  0.12121549476E+02  0.00000000000E+00 0.  1.
</event>
<event>
 7    1  0.5006721E-012  0.5052887E+02  0.7816164E-02  0.1300439E+00
        -11   -1    0    0    0    0  0.00000000000E+00  0.00000000000E+00  0.45593999997E+02  0.45594000000E+02  0.51100000000E-03 0.  1.
         11   -1    0    0    0    0 -0.00000000000E+00 -0.00000000000E+00 -0.45593999997E+02  0.45594000000E+02  0.51100000000E-03 0. -1.
    9900012    2    1    2    0    0  0.17982326477E+02  0.30599749988E+02  0.19835722819E+02  0.50528872309E+02  0.30000037871E+02 0.  0.
        -12    1    1    2    0    0 -0.17982326477E+02 -0.30599749988E+02 -0.19835722819E+02  0.40659127691E+02  0.00000000000E+00 0.  1.
         11    1    3    3    0    0  0.68417700893E+01  0.24013544967E+02  0.25445438123E+02  0.35650111940E+02  0.51100000000E-03 0. -1.
        -11    1    3    3    0    0  0.80833342211E+01  0.64475557055E+01 -0.57198261306E+01  0.11816415613E+02  0.51100000000E-03 0.  1.
         12    1    3    3    0    0  0.30572221670E+01  0.13864931507E+00  0.11011082680E+00  0.30623447561E+01  0.00000000000E+00 0. -1.
</event>
<event>
 7    1  0.5006721E-012  0.5052889E+02  0.7816164E-02  0.1300439E+00
        -11   -1    0    0    0    0  0.00000000000E+00  0.00000000000E+00  0.45593999997E+02  0.45594000000E+02  0.51100000000E-03 0. -1.
         11   -1    0    0    0    0 -0.00000000000E+00 -0.00000000000E+00 -0.45593999997E+02  0.45594000000E+02  0.51100000000E-03 0.  1.
    9900012    2    1    2    0    0  0.17768339837E+02 -0.22902897438E+02  0.28511521363E+02  0.50528887097E+02  0.30000082820E+02 0.  0.
        -12    1    1    2    0    0 -0.17768339837E+02  0.22902897438E+02 -0.28511521363E+02  0.40659112903E+02  0.00000000000E+00 0.  1.
         11    1    3    3    0    0  0.39711202308E+01 -0.24631999527E+02  0.19445524307E+02  0.31632793307E+02  0.51100000000E-03 0. -1.
        -11    1    3    3    0    0  0.79790487844E+01  0.36353019156E+01  0.10817508428E+01  0.88346377780E+01  0.51100000000E-03 0.  1.
         12    1    3    3    0    0  0.58181708221E+01 -0.19061998272E+01  0.79842462129E+01  0.10061456012E+02  0.00000000000E+00 0. -1.
</event>
<event>
 7    1  0.5006721E-012  0.5052886E+02  0.7816164E-02  0.1300439E+00
        -11   -1    0    0    0    0  0.00000000000E+00  0.00000000000E+00  0.45593999997E+02  0.45594000000E+02  0.51100000000E-03 0. -1.
         11   -1    0    0    0    0 -0.00000000000E+00 -0.00000000000E+00 -0.45593999997E+02  0.45594000000E+02  0.51100000000E-03 0.  1.
    9900012    2    1    2    0    0  0.15924461735E+02  0.13491432899E+01  0.37386587803E+02  0.50528860600E+02  0.30000002280E+02 0.  0.
        -12    1    1    2    0    0 -0.15924461735E+02 -0.13491432899E+01 -0.37386587803E+02  0.40659139400E+02  0.00000000000E+00 0.  1.
         11    1    3    3    0    0  0.49840213914E+01  0.37681869588E+01  0.12513802396E+02  0.13986956526E+02  0.51100000000E-03 0. -1.
        -11    1    3    3    0    0 -0.70523474108E+01 -0.48952930415E+01  0.87009751701E+01  0.12223193819E+02  0.51100000000E-03 0.  1.
        -12    1    3    3    0    0  0.17992787755E+02  0.24762493726E+01  0.16171810237E+02  0.24318710255E+02  0.00000000000E+00 0.  1.
</event>
<event>
 7    1  0.5006721E-012  0.5052886E+02  0.7816164E-02  0.1300439E+00
        -11   -1    0    0    0    0  0.00000000000E+00  0.00000000000E+00  0.45593999997E+02  0.45594000000E+02  0.51100000000E-03 0. -1.
         11   -1    0    0    0    0 -0.00000000000E+00 -0.00000000000E+00 -0.45593999997E+02  0.45594000000E+02  0.51100000000E-03 0.  1.
    9900012    2    1    2    0    0 -0.11232099821E+02 -0.18487626544E+02  0.34426926157E+02  0.50528860238E+02  0.30000001178E+02 0.  0.
        -12    1    1    2    0    0  0.11232099821E+02  0.18487626544E+02 -0.34426926157E+02  0.40659139762E+02  0.00000000000E+00 0.  1.
         11    1    3    3    0    0 -0.22616024410E+01 -0.75690881425E+01  0.29508921326E+02  0.30548033962E+02  0.51100000000E-03 0. -1.
        -11    1    3    3    0    0 -0.29963992646E+01  0.23044893202E+00 -0.36315059942E+01  0.47137406919E+01  0.51100000000E-03 0.  1.
        -12    1    3    3    0    0 -0.59740981150E+01 -0.11148987334E+02  0.85495108256E+01  0.15267085583E+02  0.00000000000E+00 0.  1.
</event>
<event>
 7    1  0.5006721E-012  0.5052873E+02  0.7816164E-02  0.1300439E+00
        -11   -1    0    0    0    0  0.00000000000E+00  0.00000000000E+00  0.45593999997E+02  0.45594000000E+02  0.51100000000E-03 0. -1.
         11   -1    0    0    0    0 -0.00000000000E+00 -0.00000000000E+00 -0.45593999997E+02  0.45594000000E+02  0.51100000000E-03 0.  1.
    9900012    2    1    2    0    0 -0.47687645233E-01  0.77116619857E+01 -0.39921220556E+02  0.50528734692E+02  0.29999619568E+02 0.  0.
         12    1    1    2    0    0  0.47687645233E-01 -0.77116619857E+01  0.39921220556E+02  0.40659265308E+02  0.00000000000E+00 0. -1.
         11    1    3    3    0    0  0.33357627145E+01 -0.27429934796E+01 -0.11095905141E+01  0.44589816647E+01  0.51100000000E-03 0. -1.
        -11    1    3    3    0    0 -0.71366235074E+01  0.10461263970E+02 -0.40138588369E+02  0.42088902522E+02  0.51100000000E-03 0.  1.
        -12    1    3    3    0    0  0.37531731477E+01 -0.66085051013E-02  0.13269583274E+01  0.39808505061E+01  0.00000000000E+00 0.  1.
</event>
<event>
 7    1  0.5006721E-012  0.5052888E+02  0.7816164E-02  0.1300439E+00
        -11   -1    0    0    0    0  0.00000000000E+00  0.00000000000E+00  0.45593999997E+02  0.45594000000E+02  0.51100000000E-03 0. -1.
         11   -1    0    0    0    0 -0.00000000000E+00 -0.00000000000E+00 -0.45593999997E+02  0.45594000000E+02  0.51100000000E-03 0.  1.
    9900012    2    1    2    0    0 -0.12207625616E+02 -0.57142295308E+01  0.38359941894E+02  0.50528884363E+02  0.30000074508E+02 0.  0.
        -12    1    1    2    0    0  0.12207625616E+02  0.57142295308E+01 -0.38359941894E+02  0.40659115637E+02  0.00000000000E+00 0.  1.
         11    1    3    3    0    0 -0.17129419625E+02 -0.39122800174E+01  0.36064657626E+02  0.40117109586E+02  0.51100000000E-03 0. -1.
        -11    1    3    3    0    0  0.67179076078E+01 -0.31480821425E+01  0.32652543897E+00  0.74261243543E+01  0.51100000000E-03 0.  1.
        -12    1    3    3    0    0 -0.17961135986E+01  0.13461326291E+01  0.19687588291E+01  0.29856504218E+01  0.00000000000E+00 0.  1.
</event>
<event>
 7    1  0.5006721E-012  0.5052887E+02  0.7816164E-02  0.1300439E+00
        -11   -1    0    0    0    0  0.00000000000E+00  0.00000000000E+00  0.45593999997E+02  0.45594000000E+02  0.51100000000E-03 0. -1.
         11   -1    0    0    0    0 -0.00000000000E+00 -0.00000000000E+00 -0.45593999997E+02  0.45594000000E+02  0.51100000000E-03 0.  1.
    9900012    2    1    2    0    0 -0.33578558585E+01 -0.36149621079E+01 -0.40358663782E+02  0.50528869546E+02  0.30000029473E+02 0.  0.
         12    1    1    2    0    0  0.33578558585E+01  0.36149621079E+01  0.40358663782E+02  0.40659130454E+02  0.00000000000E+00 0. -1.
         11    1    3    3    0    0  0.54713971983E+01  0.61419503081E+01 -0.25266718212E+02  0.26571917325E+02  0.51100000000E-03 0. -1.
        -11    1    3    3    0    0 -0.99182975552E+01 -0.12423125856E+01 -0.74883978656E+01  0.12489678531E+02  0.51100000000E-03 0.  1.
        -12    1    3    3    0    0  0.10890444984E+01 -0.85145998304E+01 -0.76035477040E+01  0.11467273690E+02  0.00000000000E+00 0.  1.
</event>
<event>
 7    1  0.5006721E-012  0.5052887E+02  0.7816164E-02  0.1300439E+00
        -11   -1    0    0    0    0  0.00000000000E+00  0.00000000000E+00  0.45593999997E+02  0.45594000000E+02  0.51100000000E-03 0. -1.
         11   -1    0    0    0    0 -0.00000000000E+00 -0.00000000000E+00 -0.45593999997E+02  0.45594000000E+02  0.51100000000E-03 0.  1.
    9900012    2    1    2    0    0 -0.86236797158E+00 -0.16305907567E+02  0.37236258209E+02  0.50528865411E+02  0.30000016904E+02 0.  0.
        -12    1    1    2    0    0  0.86236797158E+00  0.16305907567E+02 -0.37236258209E+02  0.40659134589E+02  0.00000000000E+00 0.  1.
         11    1    3    3    0    0  0.23614729483E+01 -0.67171180774E+01  0.40577328089E+00  0.71316815667E+01  0.51100000000E-03 0. -1.
        -11    1    3    3    0    0 -0.93158728810E+01 -0.20093390917E+01  0.30095485476E+02  0.31568357218E+02  0.51100000000E-03 0.  1.
        -12    1    3    3    0    0  0.60920319611E+01 -0.75794503974E+01  0.67349994522E+01  0.11828826627E+02  0.00000000000E+00 0.  1.
</event>
<event>
 7    1  0.5006721E-012  0.5052888E+02  0.7816164E-02  0.1300439E+00
        -11   -1    0    0    0    0  0.00000000000E+00  0.00000000000E+00  0.45593999997E+02  0.45594000000E+02  0.51100000000E-03 0. -1.
         11   -1    0    0    0    0 -0.00000000000E+00 -0.00000000000E+00 -0.45593999997E+02  0.45594000000E+02  0.51100000000E-03 0.  1.
    9900012    2    1    2    0    0 -0.21696716742E+00 -0.86353788273E+01 -0.39730930618E+02  0.50528884294E+02  0.30000074299E+02 0.  0.
         12    1    1    2    0    0  0.21696716742E+00  0.86353788273E+01  0.39730930618E+02  0.40659115706E+02  0.00000000000E+00 0. -1.
         11    1    3    3    0    0  0.64882221250E+01  0.30096601942E+01 -0.24053400254E+01  0.75459089397E+01  0.51100000000E-03 0. -1.
        -11    1    3    3    0    0 -0.40538641732E+01 -0.66693300206E+01 -0.36451406960E+02  0.37277591758E+02  0.51100000000E-03 0.  1.
        -12    1    3    3    0    0 -0.26513251192E+01 -0.49757090009E+01 -0.87418363259E+00  0.57053835956E+01  0.00000000000E+00 0.  1.
</event>
<event>
 7    1  0.5006721E-012  0.5052885E+02  0.7816164E-02  0.1300439E+00
        -11   -1    0    0    0    0  0.00000000000E+00  0.00000000000E+00  0.45593999997E+02  0.45594000000E+02  0.51100000000E-03 0. -1.
         11   -1    0    0    0    0 -0.00000000000E+00 -0.00000000000E+00 -0.45593999997E+02  0.45594000000E+02  0.51100000000E-03 0.  1.
    9900012    2    1    2    0    0 -0.17851123443E+02  0.15242653610E+02  0.33198871817E+02  0.50528853585E+02  0.29999980958E+02 0.  0.
        -12    1    1    2    0    0  0.17851123443E+02 -0.15242653610E+02 -0.33198871817E+02  0.40659146415E+02  0.00000000000E+00 0.  1.
         11    1    3    3    0    0 -0.43001372805E+01 -0.42104039970E+01  0.55899329326E+01  0.82137709306E+01  0.51100000000E-03 0. -1.
        -11    1    3    3    0    0 -0.74380983523E+01  0.23521392800E+02  0.20208800054E+02  0.31890074102E+02  0.51100000000E-03 0.  1.
        -12    1    3    3    0    0 -0.61128878099E+01 -0.40683351928E+01  0.74001388301E+01  0.10425008553E+02  0.00000000000E+00 0.  1.
</event>
<event>
 7    1  0.5006721E-012  0.5052881E+02  0.7816164E-02  0.1300439E+00
        -11   -1    0    0    0    0  0.00000000000E+00  0.00000000000E+00  0.45593999997E+02  0.45594000000E+02  0.51100000000E-03 0. -1.
         11   -1    0    0    0    0 -0.00000000000E+00 -0.00000000000E+00 -0.45593999997E+02  0.45594000000E+02  0.51100000000E-03 0.  1.
    9900012    2    1    2    0    0  0.16646021282E+02  0.19406451582E+02 -0.31614378960E+02  0.50528814758E+02  0.29999862937E+02 0.  0.
         12    1    1    2    0    0 -0.16646021282E+02 -0.19406451582E+02  0.31614378960E+02  0.40659185242E+02  0.00000000000E+00 0. -1.
         11    1    3    3    0    0 -0.36724611767E+01  0.10370661238E+02  0.12493088401E+00  0.11002417625E+02  0.51100000000E-03 0. -1.
        -11    1    3    3    0    0  0.49816246768E+00  0.10138056234E+01 -0.58060953259E+01  0.59149565409E+01  0.51100000000E-03 0.  1.
         12    1    3    3    0    0  0.19820319991E+02  0.80219847206E+01 -0.25933214518E+02  0.33611440592E+02  0.00000000000E+00 0. -1.
</event>
<event>
 7    1  0.5006721E-012  0.5052886E+02  0.7816164E-02  0.1300439E+00
        -11   -1    0    0    0    0  0.00000000000E+00  0.00000000000E+00  0.45593999997E+02  0.45594000000E+02  0.51100000000E-03 0. -1.
         11   -1    0    0    0    0 -0.00000000000E+00 -0.00000000000E+00 -0.45593999997E+02  0.45594000000E+02  0.51100000000E-03 0.  1.
    9900012    2    1    2    0    0 -0.16398020838E+02  0.12926219377E+02 -0.34888160474E+02  0.50528856181E+02  0.29999988848E+02 0.  0.
         12    1    1    2    0    0  0.16398020838E+02 -0.12926219377E+02  0.34888160474E+02  0.40659143819E+02  0.00000000000E+00 0. -1.
         11    1    3    3    0    0 -0.20126924250E+00  0.53620238270E+01 -0.12269650023E+02  0.13391643692E+02  0.51100000000E-03 0. -1.
        -11    1    3    3    0    0 -0.81491876036E+01  0.90206947256E+01  0.94652606671E+00  0.12193363104E+02  0.51100000000E-03 0.  1.
        -12    1    3    3    0    0 -0.80475639919E+01 -0.14564991752E+01 -0.23565036518E+02  0.24943849385E+02  0.00000000000E+00 0.  1.
</event>
<event>
 7    1  0.5006721E-012  0.5052883E+02  0.7816164E-02  0.1300439E+00
        -11   -1    0    0    0    0  0.00000000000E+00  0.00000000000E+00  0.45593999997E+02  0.45594000000E+02  0.51100000000E-03 0. -1.
         11   -1    0    0    0    0 -0.00000000000E+00 -0.00000000000E+00 -0.45593999997E+02  0.45594000000E+02  0.51100000000E-03 0.  1.
    9900012    2    1    2    0    0  0.70426219350E+00  0.21211003599E+02  0.34680908923E+02  0.50528830031E+02  0.29999909361E+02 0.  0.
        -12    1    1    2    0    0 -0.70426219350E+00 -0.21211003599E+02 -0.34680908923E+02  0.40659169969E+02  0.00000000000E+00 0.  1.
         11    1    3    3    0    0  0.71482871704E+01  0.20670656139E+02  0.23842949457E+02  0.32355220193E+02  0.51100000000E-03 0. -1.
        -11    1    3    3    0    0 -0.10366263943E+02 -0.55580856330E+00  0.66302511478E+01  0.12317815628E+02  0.51100000000E-03 0.  1.
         12    1    3    3    0    0  0.39222389663E+01  0.10961560232E+01  0.42077083181E+01  0.58557942096E+01  0.00000000000E+00 0. -1.
</event>
<event>
 7    1  0.5006721E-012  0.5052885E+02  0.7816164E-02  0.1300439E+00
        -11   -1    0    0    0    0  0.00000000000E+00  0.00000000000E+00  0.45593999997E+02  0.45594000000E+02  0.51100000000E-03 0. -1.
         11   -1    0    0    0    0 -0.00000000000E+00 -0.00000000000E+00 -0.45593999997E+02  0.45594000000E+02  0.51100000000E-03 0.  1.
    9900012    2    1    2    0    0  0.72249613505E+01  0.36593475064E+02 -0.16182818594E+02  0.50528854640E+02  0.29999984162E+02 0.  0.
         12    1    1    2    0    0 -0.72249613505E+01 -0.36593475064E+02  0.16182818594E+02  0.40659145360E+02  0.00000000000E+00 0. -1.
         11    1    3    3    0    0 -0.38232900234E+00 -0.25753656464E+01 -0.94531881371E+01  0.98051746489E+01  0.51100000000E-03 0. -1.
        -11    1    3    3    0    0  0.87213799008E+00  0.12492509927E+02 -0.36166146390E+01  0.13034697183E+02  0.51100000000E-03 0.  1.
         12    1    3    3    0    0  0.67351523627E+01  0.26676330784E+02 -0.31130158182E+01  0.27688982807E+02  0.00000000000E+00 0. -1.
</event>
<event>
 7    1  0.5006721E-012  0.5052890E+02  0.7816164E-02  0.1300439E+00
        -11   -1    0    0    0    0  0.00000000000E+00  0.00000000000E+00  0.45593999997E+02  0.45594000000E+02  0.51100000000E-03 0. -1.
         11   -1    0    0    0    0 -0.00000000000E+00 -0.00000000000E+00 -0.45593999997E+02  0.45594000000E+02  0.51100000000E-03 0.  1.
    9900012    2    1    2    0    0 -0.10307348613E+02  0.15524660913E+02 -0.36137317895E+02  0.50528901676E+02  0.30000127133E+02 0.  0.
         12    1    1    2    0    0  0.10307348613E+02 -0.15524660913E+02  0.36137317895E+02  0.40659098324E+02  0.00000000000E+00 0. -1.
         11    1    3    3    0    0 -0.95535001198E+01  0.38364243621E+00 -0.11368907586E+01  0.96285547678E+01  0.51100000000E-03 0. -1.
        -11    1    3    3    0    0  0.64142750664E+01  0.10741512388E+02 -0.23865697968E+02  0.26946141705E+02  0.51100000000E-03 0.  1.
        -12    1    3    3    0    0 -0.71681235599E+01  0.43995060889E+01 -0.11134729169E+02  0.13954205203E+02  0.00000000000E+00 0.  1.
</event>
<event>
 7    1  0.5006721E-012  0.5052887E+02  0.7816164E-02  0.1300439E+00
        -11   -1    0    0    0    0  0.00000000000E+00  0.00000000000E+00  0.45593999997E+02  0.45594000000E+02  0.51100000000E-03 0. -1.
         11   -1    0    0    0    0 -0.00000000000E+00 -0.00000000000E+00 -0.45593999997E+02  0.45594000000E+02  0.51100000000E-03 0.  1.
    9900012    2    1    2    0    0 -0.15392327967E+02 -0.24529774772E+02 -0.28539999961E+02  0.50528865622E+02  0.30000017544E+02 0.  0.
         12    1    1    2    0    0  0.15392327967E+02  0.24529774772E+02  0.28539999961E+02  0.40659134378E+02  0.00000000000E+00 0. -1.
         11    1    3    3    0    0 -0.44055253337E+01 -0.20915285847E+01  0.57879197801E+01  0.75685639938E+01  0.51100000000E-03 0. -1.
        -11    1    3    3    0    0 -0.30745870127E+01 -0.11503396578E+02 -0.20000136809E+02  0.23276311794E+02  0.51100000000E-03 0.  1.
         12    1    3    3    0    0 -0.79122156210E+01 -0.10934849610E+02 -0.14327782932E+02  0.19683989834E+02  0.00000000000E+00 0. -1.
</event>
<event>
 7    1  0.5006721E-012  0.5052886E+02  0.7816164E-02  0.1300439E+00
        -11   -1    0    0    0    0  0.00000000000E+00  0.00000000000E+00  0.45593999997E+02  0.45594000000E+02  0.51100000000E-03 0. -1.
         11   -1    0    0    0    0 -0.00000000000E+00 -0.00000000000E+00 -0.45593999997E+02  0.45594000000E+02  0.51100000000E-03 0.  1.
    9900012    2    1    2    0    0  0.10382678942E+02  0.43842061346E+01 -0.39065894850E+02  0.50528862947E+02  0.30000009414E+02 0.  0.
         12    1    1    2    0    0 -0.10382678942E+02 -0.43842061346E+01  0.39065894850E+02  0.40659137053E+02  0.00000000000E+00 0. -1.
         11    1    3    3    0    0 -0.36858029839E+01  0.25530092164E+00 -0.50111677205E-01  0.36949741052E+01  0.51100000000E-03 0. -1.
        -11    1    3    3    0    0  0.18383872693E+02  0.79687849644E+01 -0.28542300457E+02  0.34873073060E+02  0.51100000000E-03 0.  1.
        -12    1    3    3    0    0 -0.43153907665E+01 -0.38398797514E+01 -0.10473482716E+02  0.11960815782E+02  0.00000000000E+00 0.  1.
</event>
<event>
 7    1  0.5006721E-012  0.5052886E+02  0.7816164E-02  0.1300439E+00
        -11   -1    0    0    0    0  0.00000000000E+00  0.00000000000E+00  0.45593999997E+02  0.45594000000E+02  0.51100000000E-03 0. -1.
         11   -1    0    0    0    0 -0.00000000000E+00 -0.00000000000E+00 -0.45593999997E+02  0.45594000000E+02  0.51100000000E-03 0.  1.
    9900012    2    1    2    0    0 -0.77914672191E+01  0.46716725580E+01  0.39631223183E+02  0.50528864042E+02  0.30000012741E+02 0.  0.
        -12    1    1    2    0    0  0.77914672191E+01 -0.46716725580E+01 -0.39631223183E+02  0.40659135958E+02  0.00000000000E+00 0.  1.
         11    1    3    3    0    0  0.46157789516E-01 -0.11244091537E+02  0.11408167662E+02  0.16018052775E+02  0.51100000000E-03 0. -1.
        -11    1    3    3    0    0 -0.98459471536E+00  0.11848205219E+02  0.16622812486E+02  0.20436909964E+02  0.51100000000E-03 0.  1.
         12    1    3    3    0    0 -0.68530302932E+01  0.40675588766E+01  0.11600243035E+02  0.14073901303E+02  0.00000000000E+00 0. -1.
</event>
<event>
 7    1  0.5006721E-012  0.5052885E+02  0.7816164E-02  0.1300439E+00
        -11   -1    0    0    0    0  0.00000000000E+00  0.00000000000E+00  0.45593999997E+02  0.45594000000E+02  0.51100000000E-03 0. -1.
         11   -1    0    0    0    0 -0.00000000000E+00 -0.00000000000E+00 -0.45593999997E+02  0.45594000000E+02  0.51100000000E-03 0.  1.
    9900012    2    1    2    0    0  0.41419405387E+01  0.15525828172E+02 -0.37349152844E+02  0.50528853059E+02  0.29999979357E+02 0.  0.
         12    1    1    2    0    0 -0.41419405387E+01 -0.15525828172E+02  0.37349152844E+02  0.40659146941E+02  0.00000000000E+00 0. -1.
         11    1    3    3    0    0  0.51276300039E+01  0.12162135958E+02 -0.16627784654E+01  0.13303194090E+02  0.51100000000E-03 0. -1.
        -11    1    3    3    0    0  0.11539131228E+01  0.57246240582E+01 -0.31085250181E+02  0.31629031209E+02  0.51100000000E-03 0.  1.
        -12    1    3    3    0    0 -0.21396025880E+01 -0.23609318438E+01 -0.46011241970E+01  0.55966277598E+01  0.00000000000E+00 0.  1.
</event>
<event>
 7    1  0.5006721E-012  0.5052885E+02  0.7816164E-02  0.1300439E+00
        -11   -1    0    0    0    0  0.00000000000E+00  0.00000000000E+00  0.45593999997E+02  0.45594000000E+02  0.51100000000E-03 0. -1.
         11   -1    0    0    0    0 -0.00000000000E+00 -0.00000000000E+00 -0.45593999997E+02  0.45594000000E+02  0.51100000000E-03 0.  1.
    9900012    2    1    2    0    0 -0.73397997618E+01 -0.12688211143E+01  0.39971039224E+02  0.50528849195E+02  0.29999967612E+02 0.  0.
        -12    1    1    2    0    0  0.73397997618E+01  0.12688211143E+01 -0.39971039224E+02  0.40659150805E+02  0.00000000000E+00 0.  1.
         11    1    3    3    0    0  0.40569552668E+01  0.63604454878E+01  0.25172951946E+02  0.26279110769E+02  0.51100000000E-03 0. -1.
        -11    1    3    3    0    0 -0.10760945262E+02 -0.11121172422E+02  0.10625546826E+02  0.18771805044E+02  0.51100000000E-03 0.  1.
        -12    1    3    3    0    0 -0.63580976609E+00  0.34919058203E+01  0.41725404520E+01  0.54779333822E+01  0.00000000000E+00 0.  1.
</event>
<event>
 7    1  0.5006721E-012  0.5052885E+02  0.7816164E-02  0.1300439E+00
        -11   -1    0    0    0    0  0.00000000000E+00  0.00000000000E+00  0.45593999997E+02  0.45594000000E+02  0.51100000000E-03 0. -1.
         11   -1    0    0    0    0 -0.00000000000E+00 -0.00000000000E+00 -0.45593999997E+02  0.45594000000E+02  0.51100000000E-03 0.  1.
    9900012    2    1    2    0    0 -0.22692921984E+02 -0.11888150685E+01  0.33716232617E+02  0.50528851812E+02  0.29999975569E+02 0.  0.
        -12    1    1    2    0    0  0.22692921984E+02  0.11888150685E+01 -0.33716232617E+02  0.40659148188E+02  0.00000000000E+00 0.  1.
         11    1    3    3    0    0 -0.12135431953E+02 -0.14759581095E+02  0.12396455796E+02  0.22776875540E+02  0.51100000000E-03 0. -1.
        -11    1    3    3    0    0 -0.10505039466E+02  0.11110118293E+02  0.17958947309E+02  0.23586317461E+02  0.51100000000E-03 0.  1.
         12    1    3    3    0    0 -0.52450565280E-01  0.24606477330E+01  0.33608295119E+01  0.41656588118E+01  0.00000000000E+00 0. -1.
</event>
<event>
 7    1  0.5006721E-012  0.5052888E+02  0.7816164E-02  0.1300439E+00
        -11   -1    0    0    0    0  0.00000000000E+00  0.00000000000E+00  0.45593999997E+02  0.45594000000E+02  0.51100000000E-03 0. -1.
         11   -1    0    0    0    0 -0.00000000000E+00 -0.00000000000E+00 -0.45593999997E+02  0.45594000000E+02  0.51100000000E-03 0.  1.
    9900012    2    1    2    0    0 -0.13993126979E+02 -0.19409859937E+02  0.32872688518E+02  0.50528881517E+02  0.30000065858E+02 0.  0.
        -12    1    1    2    0    0  0.13993126979E+02  0.19409859937E+02 -0.32872688518E+02  0.40659118483E+02  0.00000000000E+00 0.  1.
         11    1    3    3    0    0 -0.93702425200E+01  0.27485130788E+01  0.58056439281E+01  0.11360513664E+02  0.51100000000E-03 0. -1.
        -11    1    3    3    0    0  0.28783470841E+00 -0.20733674841E+02  0.27014199637E+02  0.34054883696E+02  0.51100000000E-03 0.  1.
        -12    1    3    3    0    0 -0.49107191678E+01 -0.14246981745E+01  0.52844952873E-01  0.51134841568E+01  0.00000000000E+00 0.  1.
</event>
<event>
 7    1  0.5006721E-012  0.5052887E+02  0.7816164E-02  0.1300439E+00
        -11   -1    0    0    0    0  0.00000000000E+00  0.00000000000E+00  0.45593999997E+02  0.45594000000E+02  0.51100000000E-03 0. -1.
         11   -1    0    0    0    0 -0.00000000000E+00 -0.00000000000E+00 -0.45593999997E+02  0.45594000000E+02  0.51100000000E-03 0.  1.
    9900012    2    1    2    0    0 -0.37000924815E+02  0.13752519271E+02 -0.97449985533E+01  0.50528865476E+02  0.30000017101E+02 0.  0.
         12    1    1    2    0    0  0.37000924815E+02 -0.13752519271E+02  0.97449985533E+01  0.40659134524E+02  0.00000000000E+00 0. -1.
         11    1    3    3    0    0 -0.31124305472E+01  0.39765195095E+01 -0.64773457380E+01  0.82131564816E+01  0.51100000000E-03 0. -1.
        -11    1    3    3    0    0 -0.36155535193E+02  0.55632816461E+01 -0.55766153491E+01  0.37003668288E+02  0.51100000000E-03 0.  1.
         12    1    3    3    0    0  0.22670409258E+01  0.42127181154E+01  0.23089625338E+01  0.53120407060E+01  0.00000000000E+00 0. -1.
</event>
<event>
 7    1  0.5006721E-012  0.5052886E+02  0.7816164E-02  0.1300439E+00
        -11   -1    0    0    0    0  0.00000000000E+00  0.00000000000E+00  0.45593999997E+02  0.45594000000E+02  0.51100000000E-03 0. -1.
         11   -1    0    0    0    0 -0.00000000000E+00 -0.00000000000E+00 -0.45593999997E+02  0.45594000000E+02  0.51100000000E-03 0.  1.
    9900012    2    1    2    0    0 -0.30498665192E+02 -0.21231573173E+02  0.16499000448E+02  0.50528864573E+02  0.30000014356E+02 0.  0.
        -12    1    1    2    0    0  0.30498665192E+02  0.21231573173E+02 -0.16499000448E+02  0.40659135427E+02  0.00000000000E+00 0.  1.
         11    1    3    3    0    0 -0.15312340914E+02 -0.15152692486E+02  0.13838475141E+02  0.25604204114E+02  0.51100000000E-03 0. -1.
        -11    1    3    3    0    0 -0.66712740742E+01  0.66662028132E+01  0.15396792273E+01  0.95558762081E+01  0.51100000000E-03 0.  1.
        -12    1    3    3    0    0 -0.85150502039E+01 -0.12745083501E+02  0.11208460800E+01  0.15368784251E+02  0.00000000000E+00 0.  1.
</event>
<event>
 7    1  0.5006721E-012  0.5052886E+02  0.7816164E-02  0.1300439E+00
        -11   -1    0    0    0    0  0.00000000000E+00  0.00000000000E+00  0.45593999997E+02  0.45594000000E+02  0.51100000000E-03 0. -1.
         11   -1    0    0    0    0 -0.00000000000E+00 -0.00000000000E+00 -0.45593999997E+02  0.45594000000E+02  0.51100000000E-03 0.  1.
    9900012    2    1    2    0    0 -0.17869032685E+02  0.36462400873E+02  0.20873089018E+01  0.50528857547E+02  0.29999993001E+02 0.  0.
         12    1    1    2    0    0  0.17869032685E+02 -0.36462400873E+02 -0.20873089018E+01  0.40659142453E+02  0.00000000000E+00 0. -1.
         11    1    3    3    0    0 -0.19619420601E+02  0.11837527678E+02 -0.67024874806E+01  0.23874087730E+02  0.51100000000E-03 0. -1.
        -11    1    3    3    0    0 -0.24361687078E+00  0.21507285396E+01 -0.55373190911E+00  0.22341892756E+01  0.51100000000E-03 0.  1.
         12    1    3    3    0    0  0.19940047864E+01  0.22474144655E+02  0.93435282915E+01  0.24420580542E+02  0.00000000000E+00 0. -1.
</event>
<event>
 7    1  0.5006721E-012  0.5052888E+02  0.7816164E-02  0.1300439E+00
        -11   -1    0    0    0    0  0.00000000000E+00  0.00000000000E+00  0.45593999997E+02  0.45594000000E+02  0.51100000000E-03 0. -1.
         11   -1    0    0    0    0 -0.00000000000E+00 -0.00000000000E+00 -0.45593999997E+02  0.45594000000E+02  0.51100000000E-03 0.  1.
    9900012    2    1    2    0    0 -0.28764480217E+01  0.18502302736E+01  0.40515019827E+02  0.50528878799E+02  0.30000057596E+02 0.  0.
        -12    1    1    2    0    0  0.28764480217E+01 -0.18502302736E+01 -0.40515019827E+02  0.40659121201E+02  0.00000000000E+00 0.  1.
         11    1    3    3    0    0  0.10775677346E+01 -0.85046299725E+01  0.26775024561E+02  0.28113908012E+02  0.51100000000E-03 0. -1.
        -11    1    3    3    0    0 -0.58869349938E+01  0.55598493319E+01  0.39895760790E+00  0.81072249042E+01  0.51100000000E-03 0.  1.
        -12    1    3    3    0    0  0.19329192374E+01  0.47950109143E+01  0.13341037658E+02  0.14307745883E+02  0.00000000000E+00 0.  1.
</event>
<event>
 7    1  0.5006721E-012  0.5052886E+02  0.7816164E-02  0.1300439E+00
        -11   -1    0    0    0    0  0.00000000000E+00  0.00000000000E+00  0.45593999997E+02  0.45594000000E+02  0.51100000000E-03 0. -1.
         11   -1    0    0    0    0 -0.00000000000E+00 -0.00000000000E+00 -0.45593999997E+02  0.45594000000E+02  0.51100000000E-03 0.  1.
    9900012    2    1    2    0    0  0.21300166889E+02  0.14609428740E+02  0.31401165318E+02  0.50528859565E+02  0.29999999133E+02 0.  0.
        -12    1    1    2    0    0 -0.21300166889E+02 -0.14609428740E+02 -0.31401165318E+02  0.40659140435E+02  0.00000000000E+00 0.  1.
         11    1    3    3    0    0  0.14261382161E+01 -0.18489946106E+01  0.21980178496E+02  0.22103866139E+02  0.51100000000E-03 0.  1.
        -11    1    3    3    0    0  0.15025375709E+02  0.79116955036E+01  0.63591509034E+01  0.18132722946E+02  0.51100000000E-03 0. -1.
        -12    1    3    3    0    0  0.48486529637E+01  0.85467278469E+01  0.30618359183E+01  0.10292270480E+02  0.00000000000E+00 0.  1.
</event>
<event>
 7    1  0.5006721E-012  0.5052886E+02  0.7816164E-02  0.1300439E+00
        -11   -1    0    0    0    0  0.00000000000E+00  0.00000000000E+00  0.45593999997E+02  0.45594000000E+02  0.51100000000E-03 0.  1.
         11   -1    0    0    0    0 -0.00000000000E+00 -0.00000000000E+00 -0.45593999997E+02  0.45594000000E+02  0.51100000000E-03 0. -1.
    9900012    2    1    2    0    0  0.15827636945E+02 -0.28172740285E+02 -0.24676885070E+02  0.50528855355E+02  0.29999986338E+02 0.  0.
         12    1    1    2    0    0 -0.15827636945E+02  0.28172740285E+02  0.24676885070E+02  0.40659144645E+02  0.00000000000E+00 0. -1.
         11    1    3    3    0    0  0.97344327915E+01 -0.23900570657E+02 -0.29664401412E+02  0.39318865331E+02  0.51100000000E-03 0. -1.
        -11    1    3    3    0    0  0.33117591786E+01 -0.49947330997E+01  0.56767451390E+01  0.82547285376E+01  0.51100000000E-03 0.  1.
         12    1    3    3    0    0  0.27814449752E+01  0.72256347153E+00 -0.68922879669E+00  0.29552614867E+01  0.00000000000E+00 0. -1.
</event>
<event>
 7    1  0.5203021E-012  0.5052886E+02  0.7816164E-02  0.1300439E+00
        -11   -1    0    0    0    0  0.00000000000E+00  0.00000000000E+00  0.45593999997E+02  0.45594000000E+02  0.51100000000E-03 0. -1.
         11   -1    0    0    0    0 -0.00000000000E+00 -0.00000000000E+00 -0.45593999997E+02  0.45594000000E+02  0.51100000000E-03 0.  1.
    9900012    2    1    2    0    0  0.46522294789E+01 -0.27957208179E+02  0.29153337552E+02  0.50528858116E+02  0.29999994730E+02 0.  0.
        -12    1    1    2    0    0 -0.46522294789E+01  0.27957208179E+02 -0.29153337552E+02  0.40659141884E+02  0.00000000000E+00 0.  1.
         11    1    3    3    0    0  0.10835010625E+02 -0.24931110333E+02  0.20833155047E+02  0.34248767381E+02  0.51100000000E-03 0. -1.
        -11    1    3    3    0    0 -0.59848176524E+01 -0.58798439490E+01  0.10351245132E+01  0.84535253129E+01  0.51100000000E-03 0.  1.
         12    1    3    3    0    0 -0.19796349331E+00  0.28537461028E+01  0.72850579916E+01  0.78265654220E+01  0.00000000000E+00 0. -1.
</event>
<event>
 7    1  0.5006721E-012  0.5052886E+02  0.7816164E-02  0.1300439E+00
        -11   -1    0    0    0    0  0.00000000000E+00  0.00000000000E+00  0.45593999997E+02  0.45594000000E+02  0.51100000000E-03 0. -1.
         11   -1    0    0    0    0 -0.00000000000E+00 -0.00000000000E+00 -0.45593999997E+02  0.45594000000E+02  0.51100000000E-03 0.  1.
    9900012    2    1    2    0    0  0.53617722016E+01 -0.36244918231E+02  0.17627332376E+02  0.50528861477E+02  0.30000004946E+02 0.  0.
        -12    1    1    2    0    0 -0.53617722016E+01  0.36244918231E+02 -0.17627332376E+02  0.40659138523E+02  0.00000000000E+00 0.  1.
         11    1    3    3    0    0 -0.66763565200E+01 -0.79072751900E+01  0.13719162084E+02  0.17184706743E+02  0.51100000000E-03 0. -1.
        -11    1    3    3    0    0  0.94358778255E+01 -0.80882621884E+01  0.35500258711E+01  0.12925109652E+02  0.51100000000E-03 0.  1.
         12    1    3    3    0    0  0.26022508961E+01 -0.20249380853E+02  0.35814442178E+00  0.20419045082E+02  0.00000000000E+00 0. -1.
</event>
<event>
 7    1  0.5006721E-012  0.5052886E+02  0.7816164E-02  0.1300439E+00
        -11   -1    0    0    0    0  0.00000000000E+00  0.00000000000E+00  0.45593999997E+02  0.45594000000E+02  0.51100000000E-03 0. -1.
         11   -1    0    0    0    0 -0.00000000000E+00 -0.00000000000E+00 -0.45593999997E+02  0.45594000000E+02  0.51100000000E-03 0.  1.
    9900012    2    1    2    0    0 -0.55743272574E+01 -0.19937679972E+02 -0.34994018666E+02  0.50528861427E+02  0.30000004795E+02 0.  0.
         12    1    1    2    0    0  0.55743272574E+01  0.19937679972E+02  0.34994018666E+02  0.40659138573E+02  0.00000000000E+00 0. -1.
         11    1    3    3    0    0 -0.77601267378E+01 -0.13002414370E+02 -0.51429769504E+01  0.15991640273E+02  0.51100000000E-03 0. -1.
        -11    1    3    3    0    0  0.87573319453E+01 -0.15934231907E+01 -0.15151249174E+02  0.17572427609E+02  0.51100000000E-03 0.  1.
        -12    1    3    3    0    0 -0.65715324650E+01 -0.53418424116E+01 -0.14699792542E+02  0.16964793546E+02  0.00000000000E+00 0.  1.
</event>
<event>
 7    1  0.5006721E-012  0.5052886E+02  0.7816164E-02  0.1300439E+00
        -11   -1    0    0    0    0  0.00000000000E+00  0.00000000000E+00  0.45593999997E+02  0.45594000000E+02  0.51100000000E-03 0. -1.
         11   -1    0    0    0    0 -0.00000000000E+00 -0.00000000000E+00 -0.45593999997E+02  0.45594000000E+02  0.51100000000E-03 0.  1.
    9900012    2    1    2    0    0  0.26232768350E+01 -0.21144922359E+02 -0.34629121344E+02  0.50528863660E+02  0.30000011580E+02 0.  0.
         12    1    1    2    0    0 -0.26232768350E+01  0.21144922359E+02  0.34629121344E+02  0.40659136340E+02  0.00000000000E+00 0. -1.
         11    1    3    3    0    0  0.25776247095E+01  0.12618377323E+01 -0.18265701171E+02  0.18489786995E+02  0.51100000000E-03 0. -1.
        -11    1    3    3    0    0 -0.47990339006E+00 -0.24715486526E+01  0.32211313196E+01  0.40883428483E+01  0.51100000000E-03 0.  1.
        -12    1    3    3    0    0  0.52555551562E+00 -0.19935211439E+02 -0.19584551492E+02  0.27950733816E+02  0.00000000000E+00 0.  1.
</event>
<event>
 7    1  0.5006721E-012  0.5052886E+02  0.7816164E-02  0.1300439E+00
        -11   -1    0    0    0    0  0.00000000000E+00  0.00000000000E+00  0.45593999997E+02  0.45594000000E+02  0.51100000000E-03 0. -1.
         11   -1    0    0    0    0 -0.00000000000E+00 -0.00000000000E+00 -0.45593999997E+02  0.45594000000E+02  0.51100000000E-03 0.  1.
    9900012    2    1    2    0    0 -0.10357083436E+02 -0.13851985364E+02 -0.36796994970E+02  0.50528861856E+02  0.30000006098E+02 0.  0.
         12    1    1    2    0    0  0.10357083436E+02  0.13851985364E+02  0.36796994970E+02  0.40659138144E+02  0.00000000000E+00 0. -1.
         11    1    3    3    0    0 -0.38987987220E+01  0.89983710967E+01 -0.12624884005E+02  0.15986213131E+02  0.51100000000E-03 0. -1.
        -11    1    3    3    0    0 -0.40039744586E+01 -0.49420731295E+01 -0.85178375760E+01  0.10630590553E+02  0.51100000000E-03 0.  1.
         12    1    3    3    0    0 -0.24543102549E+01 -0.17908283331E+02 -0.15654273389E+02  0.23912058172E+02  0.00000000000E+00 0. -1.
</event>
<event>
 7    1  0.5006721E-012  0.5052886E+02  0.7816164E-02  0.1300439E+00
        -11   -1    0    0    0    0  0.00000000000E+00  0.00000000000E+00  0.45593999997E+02  0.45594000000E+02  0.51100000000E-03 0. -1.
         11   -1    0    0    0    0 -0.00000000000E+00 -0.00000000000E+00 -0.45593999997E+02  0.45594000000E+02  0.51100000000E-03 0.  1.
    9900012    2    1    2    0    0  0.22273782264E+02 -0.87429664657E+01  0.32872552892E+02  0.50528861143E+02  0.30000003929E+02 0.  0.
        -12    1    1    2    0    0 -0.22273782264E+02  0.87429664657E+01 -0.32872552892E+02  0.40659138857E+02  0.00000000000E+00 0.  1.
         11    1    3    3    0    0  0.77894344563E+01 -0.11244606074E+02  0.96957548997E+01  0.16766756342E+02  0.51100000000E-03 0. -1.
        -11    1    3    3    0    0  0.16055485689E+02  0.66228631832E+01  0.10395539259E+02  0.20241249324E+02  0.51100000000E-03 0.  1.
        -12    1    3    3    0    0 -0.15711378812E+01 -0.41212235749E+01  0.12781258733E+02  0.13520855476E+02  0.00000000000E+00 0.  1.
</event>
<event>
 7    1  0.5006721E-012  0.5052886E+02  0.7816164E-02  0.1300439E+00
        -11   -1    0    0    0    0  0.00000000000E+00  0.00000000000E+00  0.45593999997E+02  0.45594000000E+02  0.51100000000E-03 0. -1.
         11   -1    0    0    0    0 -0.00000000000E+00 -0.00000000000E+00 -0.45593999997E+02  0.45594000000E+02  0.51100000000E-03 0.  1.
    9900012    2    1    2    0    0 -0.21918826620E+02 -0.59277403226E+01  0.33728219057E+02  0.50528858021E+02  0.29999994440E+02 0.  0.
        -12    1    1    2    0    0  0.21918826620E+02  0.59277403226E+01 -0.33728219057E+02  0.40659141979E+02  0.00000000000E+00 0.  1.
         11    1    3    3    0    0 -0.61735045049E+01 -0.17971982140E+01 -0.22335382944E+01  0.68066712030E+01  0.51100000000E-03 0.  1.
        -11    1    3    3    0    0  0.64712902322E+00  0.51395846120E+01  0.13199150116E+02  0.14179269022E+02  0.51100000000E-03 0. -1.
         12    1    3    3    0    0 -0.16392451138E+02 -0.92701267205E+01  0.22762607236E+02  0.29542917796E+02  0.00000000000E+00 0. -1.
</event>
<event>
 7    1  0.5006721E-012  0.5052885E+02  0.7816164E-02  0.1300439E+00
        -11   -1    0    0    0    0  0.00000000000E+00  0.00000000000E+00  0.45593999997E+02  0.45594000000E+02  0.51100000000E-03 0. -1.
         11   -1    0    0    0    0 -0.00000000000E+00 -0.00000000000E+00 -0.45593999997E+02  0.45594000000E+02  0.51100000000E-03 0.  1.
    9900012    2    1    2    0    0  0.10460662822E+02 -0.44030979608E+01 -0.39042978014E+02  0.50528845181E+02  0.29999955413E+02 0.  0.
         12    1    1    2    0    0 -0.10460662822E+02  0.44030979608E+01  0.39042978014E+02  0.40659154819E+02  0.00000000000E+00 0. -1.
         11    1    3    3    0    0 -0.11471204270E+01 -0.48889221050E+00  0.19159203626E+01  0.22859684959E+01  0.51100000000E-03 0. -1.
        -11    1    3    3    0    0  0.97521829874E+01 -0.79014877181E+01 -0.41905001983E+02  0.43744345608E+02  0.51100000000E-03 0.  1.
        -12    1    3    3    0    0  0.18556002615E+01  0.39872819678E+01  0.94610360628E+00  0.44985310775E+01  0.00000000000E+00 0.  1.
</event>
<event>
 7    1  0.5006721E-012  0.5052886E+02  0.7816164E-02  0.1300439E+00
        -11   -1    0    0    0    0  0.00000000000E+00  0.00000000000E+00  0.45593999997E+02  0.45594000000E+02  0.51100000000E-03 0. -1.
         11   -1    0    0    0    0 -0.00000000000E+00 -0.00000000000E+00 -0.45593999997E+02  0.45594000000E+02  0.51100000000E-03 0.  1.
    9900012    2    1    2    0    0 -0.80242324397E+01 -0.10401427021E+02  0.38478410185E+02  0.50528855387E+02  0.29999986435E+02 0.  0.
        -12    1    1    2    0    0  0.80242324397E+01  0.10401427021E+02 -0.38478410185E+02  0.40659144613E+02  0.00000000000E+00 0.  1.
         11    1    3    3    0    0 -0.34154346095E+00 -0.30188504049E+01  0.17760157691E+02  0.18018138394E+02  0.51100000000E-03 0. -1.
        -11    1    3    3    0    0  0.39674320168E+01  0.27021950792E+01 -0.18832486672E+01  0.51564523519E+01  0.51100000000E-03 0.  1.
        -12    1    3    3    0    0 -0.11650120996E+02 -0.10084771695E+02  0.22601501160E+02  0.27354264641E+02  0.00000000000E+00 0.  1.
</event>
<event>
 7    1  0.5006721E-012  0.5052888E+02  0.7816164E-02  0.1300439E+00
        -11   -1    0    0    0    0  0.00000000000E+00  0.00000000000E+00  0.45593999997E+02  0.45594000000E+02  0.51100000000E-03 0. -1.
         11   -1    0    0    0    0 -0.00000000000E+00 -0.00000000000E+00 -0.45593999997E+02  0.45594000000E+02  0.51100000000E-03 0.  1.
    9900012    2    1    2    0    0  0.39264546147E+01 -0.34429629879E+02 -0.21268466784E+02  0.50528878775E+02  0.30000057526E+02 0.  0.
         12    1    1    2    0    0 -0.39264546147E+01  0.34429629879E+02  0.21268466784E+02  0.40659121225E+02  0.00000000000E+00 0. -1.
         11    1    3    3    0    0  0.16492758394E+00  0.65101323314E+00 -0.44329934161E+01  0.44835756073E+01  0.51100000000E-03 0. -1.
        -11    1    3    3    0    0 -0.40902564006E+01 -0.30517904448E+02 -0.51060727906E+01  0.31211290728E+02  0.51100000000E-03 0.  1.
        -12    1    3    3    0    0  0.78517834313E+01 -0.45627386639E+01 -0.11729400577E+02  0.14834012440E+02  0.00000000000E+00 0.  1.
</event>
<event>
 7    1  0.5006721E-012  0.5052886E+02  0.7816164E-02  0.1300439E+00
        -11   -1    0    0    0    0  0.00000000000E+00  0.00000000000E+00  0.45593999997E+02  0.45594000000E+02  0.51100000000E-03 0. -1.
         11   -1    0    0    0    0 -0.00000000000E+00 -0.00000000000E+00 -0.45593999997E+02  0.45594000000E+02  0.51100000000E-03 0.  1.
    9900012    2    1    2    0    0  0.84694622173E+01  0.37626442856E+02  0.12871851746E+02  0.50528861303E+02  0.30000004417E+02 0.  0.
        -12    1    1    2    0    0 -0.84694622173E+01 -0.37626442856E+02 -0.12871851746E+02  0.40659138697E+02  0.00000000000E+00 0.  1.
         11    1    3    3    0    0  0.11901321200E+02  0.37200303675E+02  0.54693401679E+01  0.39438784489E+02  0.51100000000E-03 0. -1.
        -11    1    3    3    0    0 -0.31306541887E+01 -0.11285650069E+01 -0.19086092231E+00  0.33333290832E+01  0.51100000000E-03 0.  1.
         12    1    3    3    0    0 -0.30120479421E+00  0.15547041871E+01  0.75933724999E+01  0.77567477309E+01  0.00000000000E+00 0. -1.
</event>
<event>
 7    1  0.5006721E-012  0.5052886E+02  0.7816164E-02  0.1300439E+00
        -11   -1    0    0    0    0  0.00000000000E+00  0.00000000000E+00  0.45593999997E+02  0.45594000000E+02  0.51100000000E-03 0. -1.
         11   -1    0    0    0    0 -0.00000000000E+00 -0.00000000000E+00 -0.45593999997E+02  0.45594000000E+02  0.51100000000E-03 0.  1.
    9900012    2    1    2    0    0  0.21730152546E+02  0.21528668802E+02  0.26785868511E+02  0.50528857585E+02  0.29999993116E+02 0.  0.
        -12    1    1    2    0    0 -0.21730152546E+02 -0.21528668802E+02 -0.26785868511E+02  0.40659142415E+02  0.00000000000E+00 0.  1.
         11    1    3    3    0    0  0.17398071555E+02  0.54486703396E+01  0.23109824835E+01  0.18377201708E+02  0.51100000000E-03 0. -1.
        -11    1    3    3    0    0  0.81262640169E-01  0.16537462405E+02  0.20192543909E+02  0.26100442452E+02  0.51100000000E-03 0.  1.
        -12    1    3    3    0    0  0.42508183505E+01 -0.45746394267E+00  0.42823421179E+01  0.60512134256E+01  0.00000000000E+00 0.  1.
</event>
<event>
 7    1  0.5006721E-012  0.5052885E+02  0.7816164E-02  0.1300439E+00
        -11   -1    0    0    0    0  0.00000000000E+00  0.00000000000E+00  0.45593999997E+02  0.45594000000E+02  0.51100000000E-03 0.  1.
         11   -1    0    0    0    0 -0.00000000000E+00 -0.00000000000E+00 -0.45593999997E+02  0.45594000000E+02  0.51100000000E-03 0. -1.
    9900012    2    1    2    0    0  0.36352391288E+02 -0.13907645007E+02 -0.11757854487E+02  0.50528854852E+02  0.29999984808E+02 0.  0.
         12    1    1    2    0    0 -0.36352391288E+02  0.13907645007E+02  0.11757854487E+02  0.40659145148E+02  0.00000000000E+00 0. -1.
         11    1    3    3    0    0  0.70929171318E+01 -0.27229461560E+01 -0.74441071354E+01  0.10636664915E+02  0.51100000000E-03 0. -1.
        -11    1    3    3    0    0  0.18875944387E+00  0.17519352266E+01  0.61493486753E+01  0.63968270695E+01  0.51100000000E-03 0.  1.
        -12    1    3    3    0    0  0.29070714713E+02 -0.12936634078E+02 -0.10463096027E+02  0.33495362868E+02  0.00000000000E+00 0.  1.
</event>
<event>
 7    1  0.5006721E-012  0.5052885E+02  0.7816164E-02  0.1300439E+00
        -11   -1    0    0    0    0  0.00000000000E+00  0.00000000000E+00  0.45593999997E+02  0.45594000000E+02  0.51100000000E-03 0. -1.
         11   -1    0    0    0    0 -0.00000000000E+00 -0.00000000000E+00 -0.45593999997E+02  0.45594000000E+02  0.51100000000E-03 0.  1.
    9900012    2    1    2    0    0  0.24043749367E+02  0.30871056127E+01  0.32642524062E+02  0.50528849962E+02  0.29999969944E+02 0.  0.
        -12    1    1    2    0    0 -0.24043749367E+02 -0.30871056127E+01 -0.32642524062E+02  0.40659150038E+02  0.00000000000E+00 0.  1.
         11    1    3    3    0    0  0.25055269717E+02 -0.14182281232E+01  0.35243719907E+02  0.43265433140E+02  0.51100000000E-03 0. -1.
        -11    1    3    3    0    0  0.94544706875E-01  0.53353432473E+01 -0.24518695586E+01  0.58725199754E+01  0.51100000000E-03 0.  1.
         12    1    3    3    0    0 -0.11060650567E+01 -0.83000951133E+00 -0.14932628656E+00  0.13908968468E+01  0.00000000000E+00 0. -1.
</event>
<event>
 7    1  0.5006721E-012  0.5052886E+02  0.7816164E-02  0.1300439E+00
        -11   -1    0    0    0    0  0.00000000000E+00  0.00000000000E+00  0.45593999997E+02  0.45594000000E+02  0.51100000000E-03 0. -1.
         11   -1    0    0    0    0 -0.00000000000E+00 -0.00000000000E+00 -0.45593999997E+02  0.45594000000E+02  0.51100000000E-03 0.  1.
    9900012    2    1    2    0    0  0.26734918066E+02 -0.16120296858E+01  0.30591032326E+02  0.50528859054E+02  0.29999997581E+02 0.  0.
        -12    1    1    2    0    0 -0.26734918066E+02  0.16120296858E+01 -0.30591032326E+02  0.40659140946E+02  0.00000000000E+00 0.  1.
         11    1    3    3    0    0  0.10825884292E+02 -0.10944138541E+02  0.37913729553E+01  0.15853972633E+02  0.51100000000E-03 0. -1.
        -11    1    3    3    0    0  0.16770100859E+02  0.10874792917E+02  0.22913725272E+02  0.30406187033E+02  0.51100000000E-03 0.  1.
        -12    1    3    3    0    0 -0.86106708521E+00 -0.15426840618E+01  0.38859340992E+01  0.42686993878E+01  0.00000000000E+00 0.  1.
</event>
<event>
 7    1  0.5006721E-012  0.5052886E+02  0.7816164E-02  0.1300439E+00
        -11   -1    0    0    0    0  0.00000000000E+00  0.00000000000E+00  0.45593999997E+02  0.45594000000E+02  0.51100000000E-03 0. -1.
         11   -1    0    0    0    0 -0.00000000000E+00 -0.00000000000E+00 -0.45593999997E+02  0.45594000000E+02  0.51100000000E-03 0.  1.
    9900012    2    1    2    0    0  0.66067404308E+01  0.34083786670E+02 -0.21161564919E+02  0.50528863725E+02  0.30000011777E+02 0.  0.
         12    1    1    2    0    0 -0.66067404308E+01 -0.34083786670E+02  0.21161564919E+02  0.40659136275E+02  0.00000000000E+00 0. -1.
         11    1    3    3    0    0  0.26652325366E+01  0.20046944279E+02 -0.21185209931E+02  0.29288164153E+02  0.51100000000E-03 0. -1.
        -11    1    3    3    0    0  0.17272178955E+00 -0.71448029294E+00  0.51297386810E+01  0.51821360559E+01  0.51100000000E-03 0.  1.
        -12    1    3    3    0    0  0.37687861046E+01  0.14751322684E+02 -0.51060936685E+01  0.16058563515E+02  0.00000000000E+00 0.  1.
</event>
<event>
 7    1  0.5006721E-012  0.5052886E+02  0.7816164E-02  0.1300439E+00
        -11   -1    0    0    0    0  0.00000000000E+00  0.00000000000E+00  0.45593999997E+02  0.45594000000E+02  0.51100000000E-03 0. -1.
         11   -1    0    0    0    0 -0.00000000000E+00 -0.00000000000E+00 -0.45593999997E+02  0.45594000000E+02  0.51100000000E-03 0.  1.
    9900012    2    1    2    0    0 -0.34145993449E+02  0.14159050864E+02 -0.16933354088E+02  0.50528855019E+02  0.29999985314E+02 0.  0.
         12    1    1    2    0    0  0.34145993449E+02 -0.14159050864E+02  0.16933354088E+02  0.40659144981E+02  0.00000000000E+00 0. -1.
         11    1    3    3    0    0 -0.19732712360E+02  0.19074555567E+02  0.25929899619E+00  0.27446053330E+02  0.51100000000E-03 0. -1.
        -11    1    3    3    0    0 -0.80582344064E+01 -0.15323775235E+01 -0.92023928690E+01  0.12327504103E+02  0.51100000000E-03 0.  1.
         12    1    3    3    0    0 -0.63550466826E+01 -0.33831271804E+01 -0.79902602151E+01  0.10755297586E+02  0.00000000000E+00 0. -1.
</event>
<event>
 7    1  0.5006721E-012  0.5052887E+02  0.7816164E-02  0.1300439E+00
        -11   -1    0    0    0    0  0.00000000000E+00  0.00000000000E+00  0.45593999997E+02  0.45594000000E+02  0.51100000000E-03 0. -1.
         11   -1    0    0    0    0 -0.00000000000E+00 -0.00000000000E+00 -0.45593999997E+02  0.45594000000E+02  0.51100000000E-03 0.  1.
    9900012    2    1    2    0    0 -0.25576269341E+01  0.38763918867E+02 -0.11999238837E+02  0.50528873175E+02  0.30000040503E+02 0.  0.
         12    1    1    2    0    0  0.25576269341E+01 -0.38763918867E+02  0.11999238837E+02  0.40659126825E+02  0.00000000000E+00 0. -1.
         11    1    3    3    0    0  0.41172685425E+01  0.24040252628E+01 -0.28377191520E+01  0.55483229864E+01  0.51100000000E-03 0. -1.
        -11    1    3    3    0    0 -0.13876077305E+02  0.12997712606E+02 -0.41870367497E+00  0.19017396441E+02  0.51100000000E-03 0.  1.
        -12    1    3    3    0    0  0.72011818285E+01  0.23362180999E+02 -0.87428160100E+01  0.25963153748E+02  0.00000000000E+00 0.  1.
</event>
<event>
 7    1  0.5006721E-012  0.5052886E+02  0.7816164E-02  0.1300439E+00
        -11   -1    0    0    0    0  0.00000000000E+00  0.00000000000E+00  0.45593999997E+02  0.45594000000E+02  0.51100000000E-03 0.  1.
         11   -1    0    0    0    0 -0.00000000000E+00 -0.00000000000E+00 -0.45593999997E+02  0.45594000000E+02  0.51100000000E-03 0. -1.
    9900012    2    1    2    0    0 -0.22653755679E+02  0.32931474812E+02 -0.74492381947E+01  0.50528857985E+02  0.29999994332E+02 0.  0.
         12    1    1    2    0    0  0.22653755679E+02 -0.32931474812E+02  0.74492381947E+01  0.40659142015E+02  0.00000000000E+00 0. -1.
         11    1    3    3    0    0  0.17136745180E+01  0.59452731916E+01  0.70848624782E+01  0.94062867420E+01  0.51100000000E-03 0. -1.
        -11    1    3    3    0    0 -0.20089620102E+02  0.24760463955E+02 -0.77749107456E+01  0.32819546744E+02  0.51100000000E-03 0.  1.
         12    1    3    3    0    0 -0.42778100946E+01  0.22257376657E+01 -0.67591899274E+01  0.83030244993E+01  0.00000000000E+00 0. -1.
</event>
<event>
 7    1  0.5006721E-012  0.5052886E+02  0.7816164E-02  0.1300439E+00
        -11   -1    0    0    0    0  0.00000000000E+00  0.00000000000E+00  0.45593999997E+02  0.45594000000E+02  0.51100000000E-03 0. -1.
         11   -1    0    0    0    0 -0.00000000000E+00 -0.00000000000E+00 -0.45593999997E+02  0.45594000000E+02  0.51100000000E-03 0.  1.
    9900012    2    1    2    0    0  0.25037270885E+02  0.17093183098E+01  0.31990291932E+02  0.50528862277E+02  0.30000007378E+02 0.  0.
        -12    1    1    2    0    0 -0.25037270885E+02 -0.17093183098E+01 -0.31990291932E+02  0.40659137723E+02  0.00000000000E+00 0.  1.
         11    1    3    3    0    0  0.56120973258E+01  0.68893893388E+01  0.51168234149E+01  0.10253838500E+02  0.51100000000E-03 0. -1.
        -11    1    3    3    0    0  0.96956686430E-01 -0.95233340063E+01  0.49726591587E+01  0.10743864787E+02  0.51100000000E-03 0.  1.
        -12    1    3    3    0    0  0.19328216873E+02  0.43432629772E+01  0.21900809358E+02  0.29531158991E+02  0.00000000000E+00 0.  1.
</event>
<event>
 7    1  0.5006721E-012  0.5052879E+02  0.7816164E-02  0.1300439E+00
        -11   -1    0    0    0    0  0.00000000000E+00  0.00000000000E+00  0.45593999997E+02  0.45594000000E+02  0.51100000000E-03 0. -1.
         11   -1    0    0    0    0 -0.00000000000E+00 -0.00000000000E+00 -0.45593999997E+02  0.45594000000E+02  0.51100000000E-03 0.  1.
    9900012    2    1    2    0    0 -0.25401393604E+02  0.62500007780E+01 -0.31126809932E+02  0.50528786981E+02  0.29999778507E+02 0.  0.
         12    1    1    2    0    0  0.25401393604E+02 -0.62500007780E+01  0.31126809932E+02  0.40659213019E+02  0.00000000000E+00 0. -1.
         11    1    3    3    0    0 -0.59308442506E+01 -0.17395470818E+01  0.26236804557E+01  0.67145094362E+01  0.51100000000E-03 0.  1.
        -11    1    3    3    0    0 -0.20886395682E+02  0.11556182997E+01 -0.24244587645E+02  0.32021508531E+02  0.51100000000E-03 0. -1.
         12    1    3    3    0    0  0.14158463287E+01  0.68339295601E+01 -0.95059027428E+01  0.11792769014E+02  0.00000000000E+00 0. -1.
</event>
<event>
 7    1  0.5006721E-012  0.5052886E+02  0.7816164E-02  0.1300439E+00
        -11   -1    0    0    0    0  0.00000000000E+00  0.00000000000E+00  0.45593999997E+02  0.45594000000E+02  0.51100000000E-03 0. -1.
         11   -1    0    0    0    0 -0.00000000000E+00 -0.00000000000E+00 -0.45593999997E+02  0.45594000000E+02  0.51100000000E-03 0.  1.
    9900012    2    1    2    0    0  0.75876953113E+00 -0.29482675799E+01  0.40545011243E+02  0.50528856507E+02  0.29999989837E+02 0.  0.
        -12    1    1    2    0    0 -0.75876953113E+00  0.29482675799E+01 -0.40545011243E+02  0.40659143493E+02  0.00000000000E+00 0.  1.
         11    1    3    3    0    0 -0.70274711948E+01  0.15905627465E+01  0.40480581203E+02  0.41116817679E+02  0.51100000000E-03 0. -1.
        -11    1    3    3    0    0  0.52496202111E+01 -0.19450925342E+01  0.94794269662E+00  0.56780712346E+01  0.51100000000E-03 0.  1.
         12    1    3    3    0    0  0.25366205148E+01 -0.25937377922E+01 -0.88351265673E+00  0.37339675930E+01  0.00000000000E+00 0. -1.
</event>
<event>
 7    1  0.5006721E-012  0.5052884E+02  0.7816164E-02  0.1300439E+00
        -11   -1    0    0    0    0  0.00000000000E+00  0.00000000000E+00  0.45593999997E+02  0.45594000000E+02  0.51100000000E-03 0. -1.
         11   -1    0    0    0    0 -0.00000000000E+00 -0.00000000000E+00 -0.45593999997E+02  0.45594000000E+02  0.51100000000E-03 0.  1.
    9900012    2    1    2    0    0  0.16743247301E+02 -0.34034441106E+02 -0.14645402493E+02  0.50528839584E+02  0.29999938398E+02 0.  0.
         12    1    1    2    0    0 -0.16743247301E+02  0.34034441106E+02  0.14645402493E+02  0.40659160416E+02  0.00000000000E+00 0. -1.
         11    1    3    3    0    0  0.10012780930E+02 -0.35229036856E+02 -0.77774124475E+01  0.37441006456E+02  0.51100000000E-03 0. -1.
        -11    1    3    3    0    0  0.51054440959E+01  0.12126734959E+01 -0.89933694500E+01  0.10412340311E+02  0.51100000000E-03 0.  1.
         12    1    3    3    0    0  0.16250222758E+01 -0.18077745418E-01  0.21253794044E+01  0.26754928172E+01  0.00000000000E+00 0. -1.
</event>
<event>
 7    1  0.5006721E-012  0.5052883E+02  0.7816164E-02  0.1300439E+00
        -11   -1    0    0    0    0  0.00000000000E+00  0.00000000000E+00  0.45593999997E+02  0.45594000000E+02  0.51100000000E-03 0. -1.
         11   -1    0    0    0    0 -0.00000000000E+00 -0.00000000000E+00 -0.45593999997E+02  0.45594000000E+02  0.51100000000E-03 0.  1.
    9900012    2    1    2    0    0 -0.39335515981E+02 -0.15351516543E+01  0.10174916075E+02  0.50528826063E+02  0.29999897302E+02 0.  0.
        -12    1    1    2    0    0  0.39335515981E+02  0.15351516543E+01 -0.10174916075E+02  0.40659173937E+02  0.00000000000E+00 0.  1.
         11    1    3    3    0    0 -0.32453592299E+02 -0.84247979207E+01  0.78610259136E+00  0.33538497740E+02  0.51100000000E-03 0. -1.
        -11    1    3    3    0    0 -0.70335593209E+01  0.61862964250E+01  0.20147613365E+01  0.95812568947E+01  0.51100000000E-03 0.  1.
         12    1    3    3    0    0  0.15163563914E+00  0.70334984150E+00  0.73740521470E+01  0.74090714285E+01  0.00000000000E+00 0. -1.
</event>
<event>
 7    1  0.5006721E-012  0.5052885E+02  0.7816164E-02  0.1300439E+00
        -11   -1    0    0    0    0  0.00000000000E+00  0.00000000000E+00  0.45593999997E+02  0.45594000000E+02  0.51100000000E-03 0.  1.
         11   -1    0    0    0    0 -0.00000000000E+00 -0.00000000000E+00 -0.45593999997E+02  0.45594000000E+02  0.51100000000E-03 0. -1.
    9900012    2    1    2    0    0  0.26350391349E+02 -0.28826604123E+02  0.11307090777E+02  0.50528849353E+02  0.29999968093E+02 0.  0.
         12    1    1    2    0    0 -0.26350391349E+02  0.28826604123E+02 -0.11307090777E+02  0.40659150647E+02  0.00000000000E+00 0. -1.
         11    1    3    3    0    0 -0.34879206983E+01 -0.77338768068E+01 -0.28457437597E+01  0.89485584911E+01  0.51100000000E-03 0. -1.
        -11    1    3    3    0    0  0.19313156709E+02 -0.15996302631E+02  0.15991716425E+02  0.29742473240E+02  0.51100000000E-03 0.  1.
         12    1    3    3    0    0  0.10525155337E+02 -0.50964246852E+01 -0.18388818877E+01  0.11837817622E+02  0.00000000000E+00 0. -1.
</event>
<event>
 7    1  0.5006721E-012  0.5052886E+02  0.7816164E-02  0.1300439E+00
        -11   -1    0    0    0    0  0.00000000000E+00  0.00000000000E+00  0.45593999997E+02  0.45594000000E+02  0.51100000000E-03 0. -1.
         11   -1    0    0    0    0 -0.00000000000E+00 -0.00000000000E+00 -0.45593999997E+02  0.45594000000E+02  0.51100000000E-03 0.  1.
    9900012    2    1    2    0    0  0.19269493642E+02  0.27402833422E+02 -0.23042061763E+02  0.50528864801E+02  0.30000015050E+02 0.  0.
         12    1    1    2    0    0 -0.19269493642E+02 -0.27402833422E+02  0.23042061763E+02  0.40659135199E+02  0.00000000000E+00 0. -1.
         11    1    3    3    0    0  0.14913493696E+02  0.13240068676E+02 -0.44197709085E+01  0.20426602457E+02  0.51100000000E-03 0. -1.
        -11    1    3    3    0    0 -0.33706144901E+01 -0.53967739963E+00 -0.11561021898E+02  0.12054439901E+02  0.51100000000E-03 0.  1.
        -12    1    3    3    0    0  0.77266144367E+01  0.14702442146E+02 -0.70612689568E+01  0.18047822444E+02  0.00000000000E+00 0.  1.
</event>
<event>
 7    1  0.5006721E-012  0.5052886E+02  0.7816164E-02  0.1300439E+00
        -11   -1    0    0    0    0  0.00000000000E+00  0.00000000000E+00  0.45593999997E+02  0.45594000000E+02  0.51100000000E-03 0. -1.
         11   -1    0    0    0    0 -0.00000000000E+00 -0.00000000000E+00 -0.45593999997E+02  0.45594000000E+02  0.51100000000E-03 0.  1.
    9900012    2    1    2    0    0 -0.23635902077E+01 -0.14751817953E+02 -0.37814856010E+02  0.50528855560E+02  0.29999986959E+02 0.  0.
         12    1    1    2    0    0  0.23635902077E+01  0.14751817953E+02  0.37814856010E+02  0.40659144440E+02  0.00000000000E+00 0. -1.
         11    1    3    3    0    0 -0.68201303109E+01 -0.14957077664E+02 -0.71174146223E+01  0.17913289505E+02  0.51100000000E-03 0. -1.
        -11    1    3    3    0    0  0.16003142491E+01 -0.45058342396E+01 -0.20223048189E+02  0.20780645471E+02  0.51100000000E-03 0.  1.
         12    1    3    3    0    0  0.28562258541E+01  0.47110939509E+01 -0.10474393198E+02  0.11834920584E+02  0.00000000000E+00 0. -1.
</event>
<event>
 7    1  0.5006721E-012  0.5052887E+02  0.7816164E-02  0.1300439E+00
        -11   -1    0    0    0    0  0.00000000000E+00  0.00000000000E+00  0.45593999997E+02  0.45594000000E+02  0.51100000000E-03 0. -1.
         11   -1    0    0    0    0 -0.00000000000E+00 -0.00000000000E+00 -0.45593999997E+02  0.45594000000E+02  0.51100000000E-03 0.  1.
    9900012    2    1    2    0    0 -0.14495097428E+02  0.81696188902E+00  0.37978805499E+02  0.50528868881E+02  0.30000027452E+02 0.  0.
        -12    1    1    2    0    0  0.14495097428E+02 -0.81696188902E+00 -0.37978805499E+02  0.40659131119E+02  0.00000000000E+00 0.  1.
         11    1    3    3    0    0 -0.18248057570E+02 -0.83161962412E+01  0.21217497588E+02  0.29194741464E+02  0.51100000000E-03 0. -1.
        -11    1    3    3    0    0 -0.54070817515E+00  0.78646167026E+01  0.14020286315E+02  0.16084557496E+02  0.51100000000E-03 0.  1.
        -12    1    3    3    0    0  0.42936683171E+01  0.12685414277E+01  0.27410215958E+01  0.52495699214E+01  0.00000000000E+00 0.  1.
</event>
<event>
 7    1  0.5006721E-012  0.5052887E+02  0.7816164E-02  0.1300439E+00
        -11   -1    0    0    0    0  0.00000000000E+00  0.00000000000E+00  0.45593999997E+02  0.45594000000E+02  0.51100000000E-03 0. -1.
         11   -1    0    0    0    0 -0.00000000000E+00 -0.00000000000E+00 -0.45593999997E+02  0.45594000000E+02  0.51100000000E-03 0.  1.
    9900012    2    1    2    0    0  0.20080767313E+02  0.77147253338E+01  0.34502331816E+02  0.50528866910E+02  0.30000021461E+02 0.  0.
        -12    1    1    2    0    0 -0.20080767313E+02 -0.77147253338E+01 -0.34502331816E+02  0.40659133090E+02  0.00000000000E+00 0.  1.
         11    1    3    3    0    0  0.89795383178E+01 -0.81267497248E+01  0.21493193257E+02  0.24670499106E+02  0.51100000000E-03 0. -1.
        -11    1    3    3    0    0  0.41279060427E+01  0.19998891286E+01 -0.12964102550E+01  0.47665338176E+01  0.51100000000E-03 0.  1.
         12    1    3    3    0    0  0.69733229525E+01  0.13841585930E+02  0.14305548814E+02  0.21091833987E+02  0.00000000000E+00 0. -1.
</event>
<event>
 7    1  0.5006721E-012  0.5052887E+02  0.7816164E-02  0.1300439E+00
        -11   -1    0    0    0    0  0.00000000000E+00  0.00000000000E+00  0.45593999997E+02  0.45594000000E+02  0.51100000000E-03 0.  1.
         11   -1    0    0    0    0 -0.00000000000E+00 -0.00000000000E+00 -0.45593999997E+02  0.45594000000E+02  0.51100000000E-03 0. -1.
    9900012    2    1    2    0    0  0.27901642503E+02 -0.18501409435E+02 -0.23072957409E+02  0.50528866106E+02  0.30000019016E+02 0.  0.
         12    1    1    2    0    0 -0.27901642503E+02  0.18501409435E+02  0.23072957409E+02  0.40659133894E+02  0.00000000000E+00 0. -1.
         11    1    3    3    0    0 -0.51054499342E+01 -0.64461378741E+01 -0.39680041107E+01  0.91303542871E+01  0.51100000000E-03 0. -1.
        -11    1    3    3    0    0  0.91178437664E+01 -0.76951097238E+01 -0.31419787922E+01  0.12337820699E+02  0.51100000000E-03 0.  1.
         12    1    3    3    0    0  0.23889248671E+02 -0.43601618366E+01 -0.15962974506E+02  0.29060691120E+02  0.00000000000E+00 0. -1.
</event>
<event>
 7    1  0.5006721E-012  0.5052886E+02  0.7816164E-02  0.1300439E+00
        -11   -1    0    0    0    0  0.00000000000E+00  0.00000000000E+00  0.45593999997E+02  0.45594000000E+02  0.51100000000E-03 0.  1.
         11   -1    0    0    0    0 -0.00000000000E+00 -0.00000000000E+00 -0.45593999997E+02  0.45594000000E+02  0.51100000000E-03 0. -1.
    9900012    2    1    2    0    0  0.72672199208E+00 -0.36292697115E+02 -0.18316060245E+02  0.50528855252E+02  0.29999986024E+02 0.  0.
         12    1    1    2    0    0 -0.72672199208E+00  0.36292697115E+02  0.18316060245E+02  0.40659144748E+02  0.00000000000E+00 0. -1.
         11    1    3    3    0    0  0.10172777287E+02 -0.53456999701E+01 -0.44755797862E+01  0.12332587749E+02  0.51100000000E-03 0. -1.
        -11    1    3    3    0    0  0.28297022392E+01 -0.18711701346E+01  0.67232846458E+00  0.34583982218E+01  0.51100000000E-03 0.  1.
         12    1    3    3    0    0 -0.12275757534E+02 -0.29075827010E+02 -0.14512808924E+02  0.34737869281E+02  0.00000000000E+00 0. -1.
</event>
<event>
 7    1  0.5006721E-012  0.5052885E+02  0.7816164E-02  0.1300439E+00
        -11   -1    0    0    0    0  0.00000000000E+00  0.00000000000E+00  0.45593999997E+02  0.45594000000E+02  0.51100000000E-03 0.  1.
         11   -1    0    0    0    0 -0.00000000000E+00 -0.00000000000E+00 -0.45593999997E+02  0.45594000000E+02  0.51100000000E-03 0. -1.
    9900012    2    1    2    0    0 -0.26835666304E+02 -0.26716398638E+02  0.14807004195E+02  0.50528852009E+02  0.29999976165E+02 0.  0.
        -12    1    1    2    0    0  0.26835666304E+02  0.26716398638E+02 -0.14807004195E+02  0.40659147991E+02  0.00000000000E+00 0.  1.
         11    1    3    3    0    0 -0.12316700554E+02 -0.56427103962E+01  0.11544103396E+02  0.17799090332E+02  0.51100000000E-03 0. -1.
        -11    1    3    3    0    0 -0.11001356108E+02 -0.44416912197E+01 -0.60803224066E+01  0.13331495713E+02  0.51100000000E-03 0.  1.
        -12    1    3    3    0    0 -0.35176096414E+01 -0.16631997022E+02  0.93432232056E+01  0.19398265964E+02  0.00000000000E+00 0.  1.
</event>
<event>
 7    1  0.5006721E-012  0.5052886E+02  0.7816164E-02  0.1300439E+00
        -11   -1    0    0    0    0  0.00000000000E+00  0.00000000000E+00  0.45593999997E+02  0.45594000000E+02  0.51100000000E-03 0. -1.
         11   -1    0    0    0    0 -0.00000000000E+00 -0.00000000000E+00 -0.45593999997E+02  0.45594000000E+02  0.51100000000E-03 0.  1.
    9900012    2    1    2    0    0  0.21169093282E+02  0.28056760709E+02  0.20441466580E+02  0.50528857267E+02  0.29999992148E+02 0.  0.
        -12    1    1    2    0    0 -0.21169093282E+02 -0.28056760709E+02 -0.20441466580E+02  0.40659142733E+02  0.00000000000E+00 0.  1.
         11    1    3    3    0    0  0.15827519790E+02  0.31569829076E+02  0.11424653997E+02  0.37117209079E+02  0.51100000000E-03 0. -1.
        -11    1    3    3    0    0  0.38976921932E+01 -0.59334386050E+01  0.67316793997E+01  0.97833126248E+01  0.51100000000E-03 0.  1.
        -12    1    3    3    0    0  0.14438812986E+01  0.24203702376E+01  0.22851331832E+01  0.36283355629E+01  0.00000000000E+00 0.  1.
</event>
<event>
 7    1  0.5006721E-012  0.5052888E+02  0.7816164E-02  0.1300439E+00
        -11   -1    0    0    0    0  0.00000000000E+00  0.00000000000E+00  0.45593999997E+02  0.45594000000E+02  0.51100000000E-03 0. -1.
         11   -1    0    0    0    0 -0.00000000000E+00 -0.00000000000E+00 -0.45593999997E+02  0.45594000000E+02  0.51100000000E-03 0.  1.
    9900012    2    1    2    0    0  0.21000577493E+02 -0.17875927134E+02 -0.29876266302E+02  0.50528876619E+02  0.30000050972E+02 0.  0.
         12    1    1    2    0    0 -0.21000577493E+02  0.17875927134E+02  0.29876266302E+02  0.40659123381E+02  0.00000000000E+00 0. -1.
         11    1    3    3    0    0  0.17383025032E+00  0.66407817214E+01 -0.71679169189E+00  0.66816157790E+01  0.51100000000E-03 0. -1.
        -11    1    3    3    0    0  0.91781545155E+01 -0.14359383043E+02 -0.12585821142E+02  0.21185686106E+02  0.51100000000E-03 0.  1.
         12    1    3    3    0    0  0.11648592727E+02 -0.10157325812E+02 -0.16573653468E+02  0.22661574735E+02  0.00000000000E+00 0. -1.
</event>
<event>
 7    1  0.5006721E-012  0.5052885E+02  0.7816164E-02  0.1300439E+00
        -11   -1    0    0    0    0  0.00000000000E+00  0.00000000000E+00  0.45593999997E+02  0.45594000000E+02  0.51100000000E-03 0. -1.
         11   -1    0    0    0    0 -0.00000000000E+00 -0.00000000000E+00 -0.45593999997E+02  0.45594000000E+02  0.51100000000E-03 0.  1.
    9900012    2    1    2    0    0 -0.13366390929E+02  0.15929564893E+02 -0.34939305437E+02  0.50528849633E+02  0.29999968944E+02 0.  0.
         12    1    1    2    0    0  0.13366390929E+02 -0.15929564893E+02  0.34939305437E+02  0.40659150367E+02  0.00000000000E+00 0. -1.
         11    1    3    3    0    0 -0.27754306006E+01  0.59682094298E+00  0.34586776355E+01  0.44745571294E+01  0.51100000000E-03 0. -1.
        -11    1    3    3    0    0 -0.11547056674E+02  0.27594560324E+01 -0.24884154276E+02  0.27571185134E+02  0.51100000000E-03 0.  1.
        -12    1    3    3    0    0  0.95609634473E+00  0.12573287918E+02 -0.13513828796E+02  0.18483107369E+02  0.00000000000E+00 0.  1.
</event>
<event>
 7    1  0.5006721E-012  0.5052887E+02  0.7816164E-02  0.1300439E+00
        -11   -1    0    0    0    0  0.00000000000E+00  0.00000000000E+00  0.45593999997E+02  0.45594000000E+02  0.51100000000E-03 0. -1.
         11   -1    0    0    0    0 -0.00000000000E+00 -0.00000000000E+00 -0.45593999997E+02  0.45594000000E+02  0.51100000000E-03 0.  1.
    9900012    2    1    2    0    0  0.52035725345E+01  0.32163648449E+02 -0.24322563915E+02  0.50528873545E+02  0.30000041629E+02 0.  0.
         12    1    1    2    0    0 -0.52035725345E+01 -0.32163648449E+02  0.24322563915E+02  0.40659126455E+02  0.00000000000E+00 0. -1.
         11    1    3    3    0    0  0.85348683975E+01  0.17330238061E+01  0.31695659668E+01  0.92678745543E+01  0.51100000000E-03 0. -1.
        -11    1    3    3    0    0  0.41092483756E+00  0.84459311544E+01 -0.80527373904E+01  0.11676865676E+02  0.51100000000E-03 0.  1.
         12    1    3    3    0    0 -0.37422207006E+01  0.21984693488E+02 -0.19439392491E+02  0.29584133315E+02  0.00000000000E+00 0. -1.
</event>
<event>
 7    1  0.5006721E-012  0.5052886E+02  0.7816164E-02  0.1300439E+00
        -11   -1    0    0    0    0  0.00000000000E+00  0.00000000000E+00  0.45593999997E+02  0.45594000000E+02  0.51100000000E-03 0. -1.
         11   -1    0    0    0    0 -0.00000000000E+00 -0.00000000000E+00 -0.45593999997E+02  0.45594000000E+02  0.51100000000E-03 0.  1.
    9900012    2    1    2    0    0 -0.24855740546E+02 -0.53851839778E+01 -0.31723142597E+02  0.50528858091E+02  0.29999994652E+02 0.  0.
         12    1    1    2    0    0  0.24855740546E+02  0.53851839778E+01  0.31723142597E+02  0.40659141909E+02  0.00000000000E+00 0. -1.
         11    1    3    3    0    0  0.38606216148E+00  0.17480550475E+01  0.79170290792E+00  0.19574305089E+01  0.51100000000E-03 0. -1.
        -11    1    3    3    0    0 -0.25190897307E+02  0.27073558823E+01 -0.27947856135E+02  0.37722589330E+02  0.51100000000E-03 0.  1.
        -12    1    3    3    0    0 -0.50905400778E-01 -0.98405949075E+01 -0.45669893704E+01  0.10848838251E+02  0.00000000000E+00 0.  1.
</event>
<event>
 7    1  0.5151038E-012  0.5052886E+02  0.7816164E-02  0.1300439E+00
        -11   -1    0    0    0    0  0.00000000000E+00  0.00000000000E+00  0.45593999997E+02  0.45594000000E+02  0.51100000000E-03 0.  1.
         11   -1    0    0    0    0 -0.00000000000E+00 -0.00000000000E+00 -0.45593999997E+02  0.45594000000E+02  0.51100000000E-03 0. -1.
    9900012    2    1    2    0    0 -0.15323140371E+02 -0.19739956645E+02  0.32073371400E+02  0.50528859919E+02  0.30000000210E+02 0.  0.
        -12    1    1    2    0    0  0.15323140371E+02  0.19739956645E+02 -0.32073371400E+02  0.40659140081E+02  0.00000000000E+00 0.  1.
         11    1    3    3    0    0 -0.20138702018E+02 -0.16391136102E+02  0.12117176420E+02  0.28654190380E+02  0.51100000000E-03 0. -1.
        -11    1    3    3    0    0  0.11193376153E+01  0.20807975746E+01  0.45555401133E+01  0.51318204595E+01  0.51100000000E-03 0.  1.
         12    1    3    3    0    0  0.36962240315E+01 -0.54296181182E+01  0.15400654866E+02  0.16742849080E+02  0.00000000000E+00 0. -1.
</event>
<event>
 7    1  0.5006721E-012  0.5052886E+02  0.7816164E-02  0.1300439E+00
        -11   -1    0    0    0    0  0.00000000000E+00  0.00000000000E+00  0.45593999997E+02  0.45594000000E+02  0.51100000000E-03 0. -1.
         11   -1    0    0    0    0 -0.00000000000E+00 -0.00000000000E+00 -0.45593999997E+02  0.45594000000E+02  0.51100000000E-03 0.  1.
    9900012    2    1    2    0    0 -0.29395329379E+02 -0.69573702270E+01 -0.27215351031E+02  0.50528859312E+02  0.29999998364E+02 0.  0.
         12    1    1    2    0    0  0.29395329379E+02  0.69573702270E+01  0.27215351031E+02  0.40659140688E+02  0.00000000000E+00 0. -1.
         11    1    3    3    0    0 -0.17899476853E+01  0.36808302109E+01 -0.61664042743E+01  0.74011462418E+01  0.51100000000E-03 0. -1.
        -11    1    3    3    0    0 -0.29350156479E+02 -0.11698108684E+02 -0.23903084742E+02  0.39618618004E+02  0.51100000000E-03 0.  1.
        -12    1    3    3    0    0  0.17447747860E+01  0.10599082460E+01  0.28541379848E+01  0.35090950657E+01  0.00000000000E+00 0.  1.
</event>
<event>
 7    1  0.5006721E-012  0.5052881E+02  0.7816164E-02  0.1300439E+00
        -11   -1    0    0    0    0  0.00000000000E+00  0.00000000000E+00  0.45593999997E+02  0.45594000000E+02  0.51100000000E-03 0. -1.
         11   -1    0    0    0    0 -0.00000000000E+00 -0.00000000000E+00 -0.45593999997E+02  0.45594000000E+02  0.51100000000E-03 0.  1.
    9900012    2    1    2    0    0  0.97095008401E+01  0.34632259269E+02  0.18960536645E+02  0.50528809913E+02  0.29999848212E+02 0.  0.
        -12    1    1    2    0    0 -0.97095008401E+01 -0.34632259269E+02 -0.18960536645E+02  0.40659190087E+02  0.00000000000E+00 0.  1.
         11    1    3    3    0    0 -0.11432905010E+01  0.20296198089E+02  0.17955976476E+02  0.27123050373E+02  0.51100000000E-03 0. -1.
        -11    1    3    3    0    0  0.23293711569E+01  0.15308007950E+01 -0.59147513862E+01  0.65386241123E+01  0.51100000000E-03 0.  1.
        -12    1    3    3    0    0  0.85234201842E+01  0.12805260385E+02  0.69193115552E+01  0.16867135428E+02  0.00000000000E+00 0.  1.
</event>
<event>
 7    1  0.5006721E-012  0.5052889E+02  0.7816164E-02  0.1300439E+00
        -11   -1    0    0    0    0  0.00000000000E+00  0.00000000000E+00  0.45593999997E+02  0.45594000000E+02  0.51100000000E-03 0. -1.
         11   -1    0    0    0    0 -0.00000000000E+00 -0.00000000000E+00 -0.45593999997E+02  0.45594000000E+02  0.51100000000E-03 0.  1.
    9900012    2    1    2    0    0  0.13790687526E+01 -0.78221613491E+01 -0.39875748277E+02  0.50528888605E+02  0.30000087404E+02 0.  0.
         12    1    1    2    0    0 -0.13790687526E+01  0.78221613491E+01  0.39875748277E+02  0.40659111395E+02  0.00000000000E+00 0. -1.
         11    1    3    3    0    0  0.60518149924E+01 -0.16560305462E+02 -0.19794271140E+02  0.26508137466E+02  0.51100000000E-03 0. -1.
        -11    1    3    3    0    0 -0.98054401626E-01  0.67607789502E+01 -0.16648220221E+02  0.17968889322E+02  0.51100000000E-03 0.  1.
         12    1    3    3    0    0 -0.45746918382E+01  0.19773651626E+01 -0.34332569150E+01  0.60518618164E+01  0.00000000000E+00 0. -1.
</event>
<event>
 7    1  0.5006721E-012  0.5052886E+02  0.7816164E-02  0.1300439E+00
        -11   -1    0    0    0    0  0.00000000000E+00  0.00000000000E+00  0.45593999997E+02  0.45594000000E+02  0.51100000000E-03 0. -1.
         11   -1    0    0    0    0 -0.00000000000E+00 -0.00000000000E+00 -0.45593999997E+02  0.45594000000E+02  0.51100000000E-03 0.  1.
    9900012    2    1    2    0    0 -0.55383438886E+00 -0.94938118900E+01  0.39531337135E+02  0.50528858194E+02  0.29999994965E+02 0.  0.
        -12    1    1    2    0    0  0.55383438886E+00  0.94938118900E+01 -0.39531337135E+02  0.40659141806E+02  0.00000000000E+00 0.  1.
         11    1    3    3    0    0  0.32346956241E-02 -0.37509560786E+01  0.47686937567E+01  0.60671346098E+01  0.51100000000E-03 0. -1.
        -11    1    3    3    0    0  0.12170669032E+02  0.16185394453E+01  0.20980550799E+02  0.24309018218E+02  0.51100000000E-03 0.  1.
        -12    1    3    3    0    0 -0.12727738117E+02 -0.73613952567E+01  0.13782092580E+02  0.20152705366E+02  0.00000000000E+00 0.  1.
</event>
<event>
 7    1  0.5006721E-012  0.5052880E+02  0.7816164E-02  0.1300439E+00
        -11   -1    0    0    0    0  0.00000000000E+00  0.00000000000E+00  0.45593999997E+02  0.45594000000E+02  0.51100000000E-03 0. -1.
         11   -1    0    0    0    0 -0.00000000000E+00 -0.00000000000E+00 -0.45593999997E+02  0.45594000000E+02  0.51100000000E-03 0.  1.
    9900012    2    1    2    0    0 -0.27806678496E+02 -0.24864396232E+02 -0.16177794216E+02  0.50528799385E+02  0.29999816210E+02 0.  0.
         12    1    1    2    0    0  0.27806678496E+02  0.24864396232E+02  0.16177794216E+02  0.40659200615E+02  0.00000000000E+00 0. -1.
         11    1    3    3    0    0 -0.85688045053E+01 -0.56637534033E+01  0.87583010842E+01  0.13498531454E+02  0.51100000000E-03 0. -1.
        -11    1    3    3    0    0 -0.13177704907E+02 -0.13315779400E+02 -0.15078270524E+02  0.24048204297E+02  0.51100000000E-03 0.  1.
         12    1    3    3    0    0 -0.60601690836E+01 -0.58848634281E+01 -0.98578247761E+01  0.12982063634E+02  0.00000000000E+00 0. -1.
</event>
<event>
 7    1  0.5006721E-012  0.5052886E+02  0.7816164E-02  0.1300439E+00
        -11   -1    0    0    0    0  0.00000000000E+00  0.00000000000E+00  0.45593999997E+02  0.45594000000E+02  0.51100000000E-03 0. -1.
         11   -1    0    0    0    0 -0.00000000000E+00 -0.00000000000E+00 -0.45593999997E+02  0.45594000000E+02  0.51100000000E-03 0.  1.
    9900012    2    1    2    0    0  0.17505701555E+01  0.13336278167E+02  0.38369844325E+02  0.50528858780E+02  0.29999996749E+02 0.  0.
        -12    1    1    2    0    0 -0.17505701555E+01 -0.13336278167E+02 -0.38369844325E+02  0.40659141220E+02  0.00000000000E+00 0.  1.
         11    1    3    3    0    0 -0.34636905491E+01  0.63678968610E+01  0.86010125664E+01  0.11248318989E+02  0.51100000000E-03 0. -1.
        -11    1    3    3    0    0  0.92727075826E+01 -0.39269966482E+01  0.24552433967E+02  0.26537264790E+02  0.51100000000E-03 0.  1.
        -12    1    3    3    0    0 -0.40584468781E+01  0.10895377955E+02  0.52163977914E+01  0.12743275001E+02  0.00000000000E+00 0.  1.
</event>
<event>
 7    1  0.5006721E-012  0.5052886E+02  0.7816164E-02  0.1300439E+00
        -11   -1    0    0    0    0  0.00000000000E+00  0.00000000000E+00  0.45593999997E+02  0.45594000000E+02  0.51100000000E-03 0.  1.
         11   -1    0    0    0    0 -0.00000000000E+00 -0.00000000000E+00 -0.45593999997E+02  0.45594000000E+02  0.51100000000E-03 0. -1.
    9900012    2    1    2    0    0  0.17147141178E+02  0.36753901652E+02 -0.28795871533E+01  0.50528858846E+02  0.29999996947E+02 0.  0.
        -12    1    1    2    0    0 -0.17147141178E+02 -0.36753901652E+02  0.28795871533E+01  0.40659141154E+02  0.00000000000E+00 0.  1.
         11    1    3    3    0    0  0.20974088923E+02  0.21920403958E+02 -0.20097760066E+01  0.30404863356E+02  0.51100000000E-03 0. -1.
        -11    1    3    3    0    0 -0.28979328630E+00  0.16280564979E+02 -0.75006174395E+00  0.16300410089E+02  0.51100000000E-03 0.  1.
        -12    1    3    3    0    0 -0.35371544592E+01 -0.14470672848E+01 -0.11974940272E+00  0.38235854004E+01  0.00000000000E+00 0.  1.
</event>
<event>
 7    1  0.5006721E-012  0.5052886E+02  0.7816164E-02  0.1300439E+00
        -11   -1    0    0    0    0  0.00000000000E+00  0.00000000000E+00  0.45593999997E+02  0.45594000000E+02  0.51100000000E-03 0. -1.
         11   -1    0    0    0    0 -0.00000000000E+00 -0.00000000000E+00 -0.45593999997E+02  0.45594000000E+02  0.51100000000E-03 0.  1.
    9900012    2    1    2    0    0  0.33622447438E+01  0.17180744308E+01  0.40483442652E+02  0.50528860825E+02  0.30000002965E+02 0.  0.
        -12    1    1    2    0    0 -0.33622447438E+01 -0.17180744308E+01 -0.40483442652E+02  0.40659139175E+02  0.00000000000E+00 0.  1.
         11    1    3    3    0    0 -0.49073219198E+01 -0.75422432371E+01  0.23549109834E+02  0.25209677025E+02  0.51100000000E-03 0. -1.
        -11    1    3    3    0    0 -0.85932436695E+00  0.96178380499E+01  0.79802571479E+01  0.12527000899E+02  0.51100000000E-03 0.  1.
        -12    1    3    3    0    0  0.91288910305E+01 -0.35752038197E+00  0.89540756705E+01  0.12792182901E+02  0.00000000000E+00 0.  1.
</event>
<event>
 7    1  0.5006721E-012  0.5052886E+02  0.7816164E-02  0.1300439E+00
        -11   -1    0    0    0    0  0.00000000000E+00  0.00000000000E+00  0.45593999997E+02  0.45594000000E+02  0.51100000000E-03 0. -1.
         11   -1    0    0    0    0 -0.00000000000E+00 -0.00000000000E+00 -0.45593999997E+02  0.45594000000E+02  0.51100000000E-03 0.  1.
    9900012    2    1    2    0    0  0.15124898840E+02 -0.21980180396E+02 -0.30680202632E+02  0.50528859223E+02  0.29999998095E+02 0.  0.
         12    1    1    2    0    0 -0.15124898840E+02  0.21980180396E+02  0.30680202632E+02  0.40659140777E+02  0.00000000000E+00 0. -1.
         11    1    3    3    0    0 -0.43944997752E+01 -0.37825946938E+01 -0.70346236036E+01  0.91162262146E+01  0.51100000000E-03 0. -1.
        -11    1    3    3    0    0  0.12546946576E+02  0.12309186071E+01 -0.48890793265E+01  0.13521986760E+02  0.51100000000E-03 0.  1.
        -12    1    3    3    0    0  0.69724520391E+01 -0.19428504310E+02 -0.18756499702E+02  0.27890646249E+02  0.00000000000E+00 0.  1.
</event>
<event>
 7    1  0.5006721E-012  0.5052886E+02  0.7816164E-02  0.1300439E+00
        -11   -1    0    0    0    0  0.00000000000E+00  0.00000000000E+00  0.45593999997E+02  0.45594000000E+02  0.51100000000E-03 0. -1.
         11   -1    0    0    0    0 -0.00000000000E+00 -0.00000000000E+00 -0.45593999997E+02  0.45594000000E+02  0.51100000000E-03 0.  1.
    9900012    2    1    2    0    0 -0.29041225607E+02 -0.22887367478E+02 -0.16909803179E+02  0.50528858120E+02  0.29999994743E+02 0.  0.
         12    1    1    2    0    0  0.29041225607E+02  0.22887367478E+02  0.16909803179E+02  0.40659141880E+02  0.00000000000E+00 0. -1.
         11    1    3    3    0    0  0.36412707900E+01  0.11318140818E+01  0.28793131304E+01  0.47781063661E+01  0.51100000000E-03 0. -1.
        -11    1    3    3    0    0 -0.98348798806E+01 -0.74389566645E+01 -0.99848726111E+01  0.15866966309E+02  0.51100000000E-03 0.  1.
         12    1    3    3    0    0 -0.22847616516E+02 -0.16580224895E+02 -0.98042436981E+01  0.29883785446E+02  0.00000000000E+00 0. -1.
</event>
<event>
 7    1  0.5006721E-012  0.5052886E+02  0.7816164E-02  0.1300439E+00
        -11   -1    0    0    0    0  0.00000000000E+00  0.00000000000E+00  0.45593999997E+02  0.45594000000E+02  0.51100000000E-03 0. -1.
         11   -1    0    0    0    0 -0.00000000000E+00 -0.00000000000E+00 -0.45593999997E+02  0.45594000000E+02  0.51100000000E-03 0.  1.
    9900012    2    1    2    0    0 -0.18045901925E+02  0.24532393992E+02  0.26938313597E+02  0.50528859936E+02  0.30000000263E+02 0.  0.
        -12    1    1    2    0    0  0.18045901925E+02 -0.24532393992E+02 -0.26938313597E+02  0.40659140064E+02  0.00000000000E+00 0.  1.
         11    1    3    3    0    0 -0.11629040455E+02  0.49121618341E+01  0.22356041890E+02  0.25674043800E+02  0.51100000000E-03 0. -1.
        -11    1    3    3    0    0 -0.91454580831E+01  0.13066035463E+02 -0.76472018478E+00  0.15967012353E+02  0.51100000000E-03 0.  1.
         12    1    3    3    0    0  0.27285966134E+01  0.65541966950E+01  0.53469918913E+01  0.88878037828E+01  0.00000000000E+00 0. -1.
</event>
<event>
 7    1  0.5006721E-012  0.5052885E+02  0.7816164E-02  0.1300439E+00
        -11   -1    0    0    0    0  0.00000000000E+00  0.00000000000E+00  0.45593999997E+02  0.45594000000E+02  0.51100000000E-03 0. -1.
         11   -1    0    0    0    0 -0.00000000000E+00 -0.00000000000E+00 -0.45593999997E+02  0.45594000000E+02  0.51100000000E-03 0.  1.
    9900012    2    1    2    0    0 -0.21332500856E+02 -0.65444461901E+01 -0.33989128907E+02  0.50528852781E+02  0.29999978513E+02 0.  0.
         12    1    1    2    0    0  0.21332500856E+02  0.65444461901E+01  0.33989128907E+02  0.40659147219E+02  0.00000000000E+00 0. -1.
         11    1    3    3    0    0 -0.55099113569E+01  0.10193997831E+02 -0.58782348941E+01  0.12993473772E+02  0.51100000000E-03 0. -1.
        -11    1    3    3    0    0 -0.11967434133E+02 -0.59345318157E+01 -0.14005658503E+02  0.19354498650E+02  0.51100000000E-03 0.  1.
         12    1    3    3    0    0 -0.38551553662E+01 -0.10803912206E+02 -0.14105235510E+02  0.18180880359E+02  0.00000000000E+00 0. -1.
</event>
<event>
 7    1  0.5006721E-012  0.5052887E+02  0.7816164E-02  0.1300439E+00
        -11   -1    0    0    0    0  0.00000000000E+00  0.00000000000E+00  0.45593999997E+02  0.45594000000E+02  0.51100000000E-03 0. -1.
         11   -1    0    0    0    0 -0.00000000000E+00 -0.00000000000E+00 -0.45593999997E+02  0.45594000000E+02  0.51100000000E-03 0.  1.
    9900012    2    1    2    0    0  0.40696501797E+01 -0.23698741201E+02  0.32786778465E+02  0.50528865365E+02  0.30000016764E+02 0.  0.
        -12    1    1    2    0    0 -0.40696501797E+01  0.23698741201E+02 -0.32786778465E+02  0.40659134635E+02  0.00000000000E+00 0.  1.
         11    1    3    3    0    0  0.18899437343E+01  0.39258791889E+00  0.20785375858E+02  0.20874814069E+02  0.51100000000E-03 0. -1.
        -11    1    3    3    0    0 -0.18853998633E+01 -0.12496120123E+02  0.23217696671E+00  0.12639685802E+02  0.51100000000E-03 0.  1.
        -12    1    3    3    0    0  0.40651063087E+01 -0.11595208998E+02  0.11769225641E+02  0.17014365495E+02  0.00000000000E+00 0.  1.
</event>
<event>
 7    1  0.5006721E-012  0.5052886E+02  0.7816164E-02  0.1300439E+00
        -11   -1    0    0    0    0  0.00000000000E+00  0.00000000000E+00  0.45593999997E+02  0.45594000000E+02  0.51100000000E-03 0. -1.
         11   -1    0    0    0    0 -0.00000000000E+00 -0.00000000000E+00 -0.45593999997E+02  0.45594000000E+02  0.51100000000E-03 0.  1.
    9900012    2    1    2    0    0 -0.30621384841E+02  0.26507538881E+02  0.35842575305E+01  0.50528859218E+02  0.29999998078E+02 0.  0.
         12    1    1    2    0    0  0.30621384841E+02 -0.26507538881E+02 -0.35842575305E+01  0.40659140782E+02  0.00000000000E+00 0. -1.
         11    1    3    3    0    0 -0.15275614498E+02  0.10620198967E+02 -0.84217791369E+01  0.20422031938E+02  0.51100000000E-03 0. -1.
        -11    1    3    3    0    0  0.86449245689E+00  0.98853835319E+01  0.68876656461E+01  0.12079242240E+02  0.51100000000E-03 0.  1.
        -12    1    3    3    0    0 -0.16210262800E+02  0.60019563820E+01  0.51183710213E+01  0.18027585039E+02  0.00000000000E+00 0.  1.
</event>
<event>
 7    1  0.5006721E-012  0.5052886E+02  0.7816164E-02  0.1300439E+00
        -11   -1    0    0    0    0  0.00000000000E+00  0.00000000000E+00  0.45593999997E+02  0.45594000000E+02  0.51100000000E-03 0. -1.
         11   -1    0    0    0    0 -0.00000000000E+00 -0.00000000000E+00 -0.45593999997E+02  0.45594000000E+02  0.51100000000E-03 0.  1.
    9900012    2    1    2    0    0 -0.13141239959E+02  0.24597004914E+02 -0.29588181617E+02  0.50528864128E+02  0.30000013005E+02 0.  0.
         12    1    1    2    0    0  0.13141239959E+02 -0.24597004914E+02  0.29588181617E+02  0.40659135872E+02  0.00000000000E+00 0. -1.
         11    1    3    3    0    0  0.33532174934E+01  0.10866245926E+01  0.88092429798E+00  0.36332971862E+01  0.51100000000E-03 0. -1.
        -11    1    3    3    0    0 -0.18576029087E+02  0.11460614026E+02 -0.25829290618E+02  0.33816664303E+02  0.51100000000E-03 0.  1.
        -12    1    3    3    0    0  0.20815716347E+01  0.12049766296E+02 -0.46398152971E+01  0.13078902639E+02  0.00000000000E+00 0.  1.
</event>
<event>
 7    1  0.5006721E-012  0.5052886E+02  0.7816164E-02  0.1300439E+00
        -11   -1    0    0    0    0  0.00000000000E+00  0.00000000000E+00  0.45593999997E+02  0.45594000000E+02  0.51100000000E-03 0. -1.
         11   -1    0    0    0    0 -0.00000000000E+00 -0.00000000000E+00 -0.45593999997E+02  0.45594000000E+02  0.51100000000E-03 0.  1.
    9900012    2    1    2    0    0  0.31876110596E+02 -0.66941545878E+00 -0.25231557514E+02  0.50528855415E+02  0.29999986521E+02 0.  0.
         12    1    1    2    0    0 -0.31876110596E+02  0.66941545878E+00  0.25231557514E+02  0.40659144585E+02  0.00000000000E+00 0. -1.
         11    1    3    3    0    0  0.47921421037E+01 -0.77346324173E+00  0.14760344325E+01  0.50736130357E+01  0.51100000000E-03 0. -1.
        -11    1    3    3    0    0  0.12048874654E+02 -0.88585891318E+01 -0.23201717292E+02  0.27603798061E+02  0.51100000000E-03 0.  1.
        -12    1    3    3    0    0  0.15035093838E+02  0.89626369148E+01 -0.35058746546E+01  0.17851444319E+02  0.00000000000E+00 0.  1.
</event>
<event>
 7    1  0.5006721E-012  0.5052886E+02  0.7816164E-02  0.1300439E+00
        -11   -1    0    0    0    0  0.00000000000E+00  0.00000000000E+00  0.45593999997E+02  0.45594000000E+02  0.51100000000E-03 0. -1.
         11   -1    0    0    0    0 -0.00000000000E+00 -0.00000000000E+00 -0.45593999997E+02  0.45594000000E+02  0.51100000000E-03 0.  1.
    9900012    2    1    2    0    0 -0.12309495686E+02 -0.34420534605E+02 -0.17800816897E+02  0.50528856271E+02  0.29999989122E+02 0.  0.
         12    1    1    2    0    0  0.12309495686E+02  0.34420534605E+02  0.17800816897E+02  0.40659143729E+02  0.00000000000E+00 0. -1.
         11    1    3    3    0    0  0.47144098213E+01 -0.44835709164E+01  0.35253431413E+01  0.73997373366E+01  0.51100000000E-03 0. -1.
        -11    1    3    3    0    0 -0.16066331908E+02 -0.29900728705E+02 -0.15659172040E+02  0.37381683580E+02  0.51100000000E-03 0.  1.
        -12    1    3    3    0    0 -0.95757359935E+00 -0.36234983990E-01 -0.56669879988E+01  0.57474353542E+01  0.00000000000E+00 0.  1.
</event>
<event>
 7    1  0.5006721E-012  0.5052885E+02  0.7816164E-02  0.1300439E+00
        -11   -1    0    0    0    0  0.00000000000E+00  0.00000000000E+00  0.45593999997E+02  0.45594000000E+02  0.51100000000E-03 0. -1.
         11   -1    0    0    0    0 -0.00000000000E+00 -0.00000000000E+00 -0.45593999997E+02  0.45594000000E+02  0.51100000000E-03 0.  1.
    9900012    2    1    2    0    0 -0.11402253058E+02 -0.15405461886E+02 -0.35858426233E+02  0.50528851427E+02  0.29999974399E+02 0.  0.
         12    1    1    2    0    0  0.11402253058E+02  0.15405461886E+02  0.35858426233E+02  0.40659148573E+02  0.00000000000E+00 0. -1.
         11    1    3    3    0    0  0.39142298788E+01 -0.15541205251E+02 -0.14524500238E+02  0.21628947354E+02  0.51100000000E-03 0. -1.
        -11    1    3    3    0    0 -0.63113337316E+01  0.48567653628E+01 -0.14821307281E+02  0.16825345555E+02  0.51100000000E-03 0.  1.
         12    1    3    3    0    0 -0.90051492047E+01 -0.47210219982E+01 -0.65126187136E+01  0.12074558518E+02  0.00000000000E+00 0. -1.
</event>
<event>
 7    1  0.5006721E-012  0.5052886E+02  0.7816164E-02  0.1300439E+00
        -11   -1    0    0    0    0  0.00000000000E+00  0.00000000000E+00  0.45593999997E+02  0.45594000000E+02  0.51100000000E-03 0. -1.
         11   -1    0    0    0    0 -0.00000000000E+00 -0.00000000000E+00 -0.45593999997E+02  0.45594000000E+02  0.51100000000E-03 0.  1.
    9900012    2    1    2    0    0  0.29761639224E+02 -0.92033057564E+01 -0.26128709357E+02  0.50528862543E+02  0.30000008184E+02 0.  0.
         12    1    1    2    0    0 -0.29761639224E+02  0.92033057564E+01  0.26128709357E+02  0.40659137457E+02  0.00000000000E+00 0. -1.
         11    1    3    3    0    0  0.10141125121E+02  0.61923530951E+01 -0.12907899135E+02  0.17544273023E+02  0.51100000000E-03 0. -1.
        -11    1    3    3    0    0  0.17020466216E+02 -0.15199731937E+02 -0.16955918480E+02  0.28429408944E+02  0.51100000000E-03 0.  1.
        -12    1    3    3    0    0  0.26000478869E+01 -0.19592691469E+00  0.37351082582E+01  0.45551805749E+01  0.00000000000E+00 0.  1.
</event>
<event>
 7    1  0.5006721E-012  0.5052887E+02  0.7816164E-02  0.1300439E+00
        -11   -1    0    0    0    0  0.00000000000E+00  0.00000000000E+00  0.45593999997E+02  0.45594000000E+02  0.51100000000E-03 0. -1.
         11   -1    0    0    0    0 -0.00000000000E+00 -0.00000000000E+00 -0.45593999997E+02  0.45594000000E+02  0.51100000000E-03 0.  1.
    9900012    2    1    2    0    0  0.74448135951E+01 -0.38029886896E+02 -0.12307191794E+02  0.50528874128E+02  0.30000043400E+02 0.  0.
         12    1    1    2    0    0 -0.74448135951E+01  0.38029886896E+02  0.12307191794E+02  0.40659125872E+02  0.00000000000E+00 0. -1.
         11    1    3    3    0    0 -0.56448287312E+01 -0.28577456603E+02 -0.17305275205E+01  0.29180984271E+02  0.51100000000E-03 0.  1.
        -11    1    3    3    0    0  0.90622112872E+01 -0.17042444549E+01 -0.80938164350E+01  0.12269392296E+02  0.51100000000E-03 0. -1.
         12    1    3    3    0    0  0.40274310391E+01 -0.77481858388E+01 -0.24828478386E+01  0.90784975605E+01  0.00000000000E+00 0. -1.
</event>
<event>
 7    1  0.5006721E-012  0.5052886E+02  0.7816164E-02  0.1300439E+00
        -11   -1    0    0    0    0  0.00000000000E+00  0.00000000000E+00  0.45593999997E+02  0.45594000000E+02  0.51100000000E-03 0. -1.
         11   -1    0    0    0    0 -0.00000000000E+00 -0.00000000000E+00 -0.45593999997E+02  0.45594000000E+02  0.51100000000E-03 0.  1.
    9900012    2    1    2    0    0 -0.21481269998E+00 -0.15323125116E+02 -0.37660607337E+02  0.50528860157E+02  0.30000000933E+02 0.  0.
         12    1    1    2    0    0  0.21481269998E+00  0.15323125116E+02  0.37660607337E+02  0.40659139843E+02  0.00000000000E+00 0. -1.
         11    1    3    3    0    0 -0.15685950934E+01  0.17010365192E+01  0.36323887149E+01  0.43067695369E+01  0.51100000000E-03 0. -1.
        -11    1    3    3    0    0  0.65090007622E+01 -0.74464969910E+01 -0.20004687904E+02  0.22316024439E+02  0.51100000000E-03 0.  1.
         12    1    3    3    0    0 -0.51552183688E+01 -0.95776646443E+01 -0.21288308148E+02  0.23906066181E+02  0.00000000000E+00 0. -1.
</event>
<event>
 7    1  0.5006721E-012  0.5052892E+02  0.7816164E-02  0.1300439E+00
        -11   -1    0    0    0    0  0.00000000000E+00  0.00000000000E+00  0.45593999997E+02  0.45594000000E+02  0.51100000000E-03 0. -1.
         11   -1    0    0    0    0 -0.00000000000E+00 -0.00000000000E+00 -0.45593999997E+02  0.45594000000E+02  0.51100000000E-03 0.  1.
    9900012    2    1    2    0    0  0.19693001677E+02  0.13186964790E+02  0.33037104219E+02  0.50528922163E+02  0.30000189405E+02 0.  0.
        -12    1    1    2    0    0 -0.19693001677E+02 -0.13186964790E+02 -0.33037104219E+02  0.40659077837E+02  0.00000000000E+00 0.  1.
         11    1    3    3    0    0  0.40897181129E+01  0.69689075497E+01 -0.87741708310E+00  0.81278119859E+01  0.51100000000E-03 0.  1.
        -11    1    3    3    0    0  0.71722445425E+00 -0.48752467088E+01  0.15451763085E+02  0.16218490191E+02  0.51100000000E-03 0. -1.
        -12    1    3    3    0    0  0.14886059110E+02  0.11093303949E+02  0.18462758217E+02  0.26182619986E+02  0.00000000000E+00 0.  1.
</event>
<event>
 7    1  0.5006721E-012  0.5052886E+02  0.7816164E-02  0.1300439E+00
        -11   -1    0    0    0    0  0.00000000000E+00  0.00000000000E+00  0.45593999997E+02  0.45594000000E+02  0.51100000000E-03 0. -1.
         11   -1    0    0    0    0 -0.00000000000E+00 -0.00000000000E+00 -0.45593999997E+02  0.45594000000E+02  0.51100000000E-03 0.  1.
    9900012    2    1    2    0    0  0.15353607634E+02 -0.20106969486E+02  0.31829895273E+02  0.50528859301E+02  0.29999998331E+02 0.  0.
        -12    1    1    2    0    0 -0.15353607634E+02  0.20106969486E+02 -0.31829895273E+02  0.40659140699E+02  0.00000000000E+00 0.  1.
         11    1    3    3    0    0  0.17387268108E+02 -0.94525801484E+01  0.26902897494E+02  0.33398117574E+02  0.51100000000E-03 0. -1.
        -11    1    3    3    0    0  0.26207457231E+01 -0.88948915636E+01 -0.10742470376E+01  0.93349564022E+01  0.51100000000E-03 0.  1.
         12    1    3    3    0    0 -0.46544061971E+01 -0.17594977744E+01  0.60012448171E+01  0.77957853242E+01  0.00000000000E+00 0. -1.
</event>
<event>
 7    1  0.5006721E-012  0.5052886E+02  0.7816164E-02  0.1300439E+00
        -11   -1    0    0    0    0  0.00000000000E+00  0.00000000000E+00  0.45593999997E+02  0.45594000000E+02  0.51100000000E-03 0. -1.
         11   -1    0    0    0    0 -0.00000000000E+00 -0.00000000000E+00 -0.45593999997E+02  0.45594000000E+02  0.51100000000E-03 0.  1.
    9900012    2    1    2    0    0  0.33770917025E+02 -0.15131024892E+02  0.16844678927E+02  0.50528856390E+02  0.29999989482E+02 0.  0.
        -12    1    1    2    0    0 -0.33770917025E+02  0.15131024892E+02 -0.16844678927E+02  0.40659143610E+02  0.00000000000E+00 0.  1.
         11    1    3    3    0    0  0.17666411309E+02 -0.19347006859E+02  0.10354422816E+02  0.28171312271E+02  0.51100000000E-03 0. -1.
        -11    1    3    3    0    0  0.67218705336E+01  0.49144802598E+01 -0.31352763861E+01  0.88975062783E+01  0.51100000000E-03 0.  1.
         12    1    3    3    0    0  0.93826351817E+01 -0.69849829299E+00  0.96255324970E+01  0.13460037841E+02  0.00000000000E+00 0. -1.
</event>
<event>
 7    1  0.5006721E-012  0.5052885E+02  0.7816164E-02  0.1300439E+00
        -11   -1    0    0    0    0  0.00000000000E+00  0.00000000000E+00  0.45593999997E+02  0.45594000000E+02  0.51100000000E-03 0. -1.
         11   -1    0    0    0    0 -0.00000000000E+00 -0.00000000000E+00 -0.45593999997E+02  0.45594000000E+02  0.51100000000E-03 0.  1.
    9900012    2    1    2    0    0 -0.15802385353E+01 -0.18486748314E+02  0.36178855467E+02  0.50528848509E+02  0.29999965529E+02 0.  0.
        -12    1    1    2    0    0  0.15802385353E+01  0.18486748314E+02 -0.36178855467E+02  0.40659151491E+02  0.00000000000E+00 0.  1.
         11    1    3    3    0    0 -0.24455864557E+01 -0.17716519360E+02  0.24286755986E+02  0.30161274309E+02  0.51100000000E-03 0. -1.
        -11    1    3    3    0    0 -0.29042134855E+01 -0.26935370792E+01 -0.29468683918E+01  0.49369658239E+01  0.51100000000E-03 0.  1.
        -12    1    3    3    0    0  0.37695614058E+01  0.19233081253E+01  0.14838967873E+02  0.15430608376E+02  0.00000000000E+00 0.  1.
</event>
<event>
 7    1  0.5006721E-012  0.5052885E+02  0.7816164E-02  0.1300439E+00
        -11   -1    0    0    0    0  0.00000000000E+00  0.00000000000E+00  0.45593999997E+02  0.45594000000E+02  0.51100000000E-03 0. -1.
         11   -1    0    0    0    0 -0.00000000000E+00 -0.00000000000E+00 -0.45593999997E+02  0.45594000000E+02  0.51100000000E-03 0.  1.
    9900012    2    1    2    0    0  0.23566349210E+02 -0.22450131810E+01 -0.33056823882E+02  0.50528849684E+02  0.29999969098E+02 0.  0.
         12    1    1    2    0    0 -0.23566349210E+02  0.22450131810E+01  0.33056823882E+02  0.40659150316E+02  0.00000000000E+00 0. -1.
         11    1    3    3    0    0  0.70868933713E+01 -0.89820215020E+01 -0.10030853165E+01  0.11485075025E+02  0.51100000000E-03 0.  1.
        -11    1    3    3    0    0  0.64012856630E+01  0.70386194030E+01 -0.24970834715E+02  0.26721923730E+02  0.51100000000E-03 0. -1.
        -12    1    3    3    0    0  0.10078170176E+02 -0.30161108200E+00 -0.70829038510E+01  0.12321850928E+02  0.00000000000E+00 0.  1.
</event>
<event>
 7    1  0.5006721E-012  0.5052885E+02  0.7816164E-02  0.1300439E+00
        -11   -1    0    0    0    0  0.00000000000E+00  0.00000000000E+00  0.45593999997E+02  0.45594000000E+02  0.51100000000E-03 0. -1.
         11   -1    0    0    0    0 -0.00000000000E+00 -0.00000000000E+00 -0.45593999997E+02  0.45594000000E+02  0.51100000000E-03 0.  1.
    9900012    2    1    2    0    0  0.43072554667E+01  0.31922798723E+01  0.40304138945E+02  0.50528847075E+02  0.29999961170E+02 0.  0.
        -12    1    1    2    0    0 -0.43072554667E+01 -0.31922798723E+01 -0.40304138945E+02  0.40659152925E+02  0.00000000000E+00 0.  1.
         11    1    3    3    0    0  0.74146562650E+00 -0.13263118507E+00  0.56732832392E+01  0.57230678207E+01  0.51100000000E-03 0. -1.
        -11    1    3    3    0    0  0.14387871799E+02  0.29702356289E+01  0.29210661760E+02  0.32697032210E+02  0.51100000000E-03 0.  1.
        -12    1    3    3    0    0 -0.10822081959E+02  0.35467542845E+00  0.54201939454E+01  0.12108747045E+02  0.00000000000E+00 0.  1.
</event>
<event>
 7    1  0.5006721E-012  0.5052887E+02  0.7816164E-02  0.1300439E+00
        -11   -1    0    0    0    0  0.00000000000E+00  0.00000000000E+00  0.45593999997E+02  0.45594000000E+02  0.51100000000E-03 0. -1.
         11   -1    0    0    0    0 -0.00000000000E+00 -0.00000000000E+00 -0.45593999997E+02  0.45594000000E+02  0.51100000000E-03 0.  1.
    9900012    2    1    2    0    0 -0.11500145375E+02  0.54405417238E+01  0.38617504826E+02  0.50528874125E+02  0.30000043390E+02 0.  0.
        -12    1    1    2    0    0  0.11500145375E+02 -0.54405417238E+01 -0.38617504826E+02  0.40659125875E+02  0.00000000000E+00 0.  1.
         11    1    3    3    0    0 -0.17535882176E+02  0.86406080024E+01  0.13674039477E+02  0.23856794131E+02  0.51100000000E-03 0. -1.
        -11    1    3    3    0    0 -0.35393959591E+00 -0.15245921522E+01  0.10559399806E+01  0.18880317720E+01  0.51100000000E-03 0.  1.
         12    1    3    3    0    0  0.63896763967E+01 -0.16754741264E+01  0.23887525369E+02  0.24784048222E+02  0.00000000000E+00 0. -1.
</event>
<event>
 7    1  0.5006721E-012  0.5052884E+02  0.7816164E-02  0.1300439E+00
        -11   -1    0    0    0    0  0.00000000000E+00  0.00000000000E+00  0.45593999997E+02  0.45594000000E+02  0.51100000000E-03 0. -1.
         11   -1    0    0    0    0 -0.00000000000E+00 -0.00000000000E+00 -0.45593999997E+02  0.45594000000E+02  0.51100000000E-03 0.  1.
    9900012    2    1    2    0    0  0.11465155036E+02 -0.27199387779E+02  0.27962669513E+02  0.50528839140E+02  0.29999937050E+02 0.  0.
        -12    1    1    2    0    0 -0.11465155036E+02  0.27199387779E+02 -0.27962669513E+02  0.40659160860E+02  0.00000000000E+00 0.  1.
         11    1    3    3    0    0 -0.35379013096E+01 -0.36003582729E+01  0.39409123714E+01  0.64039141117E+01  0.51100000000E-03 0. -1.
        -11    1    3    3    0    0  0.15654402628E+02 -0.19268408108E+02  0.59486102631E+01  0.25528764894E+02  0.51100000000E-03 0.  1.
        -12    1    3    3    0    0 -0.65134628216E+00 -0.43306213976E+01  0.18073146878E+02  0.18596160135E+02  0.00000000000E+00 0.  1.
</event>
<event>
 7    1  0.5006721E-012  0.5052886E+02  0.7816164E-02  0.1300439E+00
        -11   -1    0    0    0    0  0.00000000000E+00  0.00000000000E+00  0.45593999997E+02  0.45594000000E+02  0.51100000000E-03 0. -1.
         11   -1    0    0    0    0 -0.00000000000E+00 -0.00000000000E+00 -0.45593999997E+02  0.45594000000E+02  0.51100000000E-03 0.  1.
    9900012    2    1    2    0    0  0.26993547560E+02  0.23496372216E+02 -0.19298573502E+02  0.50528855194E+02  0.29999985846E+02 0.  0.
         12    1    1    2    0    0 -0.26993547560E+02 -0.23496372216E+02  0.19298573502E+02  0.40659144806E+02  0.00000000000E+00 0. -1.
         11    1    3    3    0    0  0.18309702530E+02  0.21666266507E+02 -0.13844813908E+01  0.28400512321E+02  0.51100000000E-03 0. -1.
        -11    1    3    3    0    0  0.95784311299E+01  0.40283612967E+01 -0.16005890396E+02  0.19083043920E+02  0.51100000000E-03 0.  1.
         12    1    3    3    0    0 -0.89458610029E+00 -0.21982555879E+01 -0.19082017156E+01  0.30452989522E+01  0.00000000000E+00 0. -1.
</event>
<event>
 7    1  0.5006721E-012  0.5052886E+02  0.7816164E-02  0.1300439E+00
        -11   -1    0    0    0    0  0.00000000000E+00  0.00000000000E+00  0.45593999997E+02  0.45594000000E+02  0.51100000000E-03 0.  1.
         11   -1    0    0    0    0 -0.00000000000E+00 -0.00000000000E+00 -0.45593999997E+02  0.45594000000E+02  0.51100000000E-03 0. -1.
    9900012    2    1    2    0    0 -0.18335781542E+01  0.39762211729E+02 -0.82927802696E+01  0.50528859638E+02  0.29999999354E+02 0.  0.
         12    1    1    2    0    0  0.18335781542E+01 -0.39762211729E+02  0.82927802696E+01  0.40659140362E+02  0.00000000000E+00 0. -1.
         11    1    3    3    0    0  0.82267960861E+01  0.69563874531E+01  0.72529823930E+00  0.10798034915E+02  0.51100000000E-03 0. -1.
        -11    1    3    3    0    0 -0.70235453897E+01  0.33430794725E+02 -0.48005545829E+01  0.34496283138E+02  0.51100000000E-03 0.  1.
         12    1    3    3    0    0 -0.30368288506E+01 -0.62497044905E+00 -0.42175239260E+01  0.52345415842E+01  0.00000000000E+00 0. -1.
</event>
<event>
 7    1  0.5006721E-012  0.5052886E+02  0.7816164E-02  0.1300439E+00
        -11   -1    0    0    0    0  0.00000000000E+00  0.00000000000E+00  0.45593999997E+02  0.45594000000E+02  0.51100000000E-03 0. -1.
         11   -1    0    0    0    0 -0.00000000000E+00 -0.00000000000E+00 -0.45593999997E+02  0.45594000000E+02  0.51100000000E-03 0.  1.
    9900012    2    1    2    0    0 -0.26215604273E+02  0.51304730103E+01 -0.30652666695E+02  0.50528860361E+02  0.30000001552E+02 0.  0.
         12    1    1    2    0    0  0.26215604273E+02 -0.51304730103E+01  0.30652666695E+02  0.40659139639E+02  0.00000000000E+00 0. -1.
         11    1    3    3    0    0 -0.33827056975E+01  0.39246209695E+01  0.50240934605E+01  0.72171228999E+01  0.51100000000E-03 0. -1.
        -11    1    3    3    0    0 -0.22376629363E+02  0.26194750647E+01 -0.35120456616E+02  0.41725551698E+02  0.51100000000E-03 0.  1.
        -12    1    3    3    0    0 -0.45626921218E+00 -0.14136230240E+01 -0.55630353919E+00  0.15861857633E+01  0.00000000000E+00 0.  1.
</event>
<event>
 7    1  0.5006721E-012  0.5052886E+02  0.7816164E-02  0.1300439E+00
        -11   -1    0    0    0    0  0.00000000000E+00  0.00000000000E+00  0.45593999997E+02  0.45594000000E+02  0.51100000000E-03 0. -1.
         11   -1    0    0    0    0 -0.00000000000E+00 -0.00000000000E+00 -0.45593999997E+02  0.45594000000E+02  0.51100000000E-03 0.  1.
    9900012    2    1    2    0    0  0.25028210908E+02 -0.29985527612E+02 -0.11296993907E+02  0.50528864756E+02  0.30000014913E+02 0.  0.
         12    1    1    2    0    0 -0.25028210908E+02  0.29985527612E+02  0.11296993907E+02  0.40659135244E+02  0.00000000000E+00 0. -1.
         11    1    3    3    0    0 -0.59509616055E+00 -0.15745997781E+01  0.25029966332E+01  0.30163713811E+01  0.51100000000E-03 0. -1.
        -11    1    3    3    0    0  0.21458815124E+02 -0.25692380677E+02 -0.20435778657E+02  0.39219895729E+02  0.51100000000E-03 0.  1.
        -12    1    3    3    0    0  0.41644919442E+01 -0.27185471564E+01  0.66357881166E+01  0.82925976463E+01  0.00000000000E+00 0.  1.
</event>
<event>
 7    1  0.5006721E-012  0.5052886E+02  0.7816164E-02  0.1300439E+00
        -11   -1    0    0    0    0  0.00000000000E+00  0.00000000000E+00  0.45593999997E+02  0.45594000000E+02  0.51100000000E-03 0. -1.
         11   -1    0    0    0    0 -0.00000000000E+00 -0.00000000000E+00 -0.45593999997E+02  0.45594000000E+02  0.51100000000E-03 0.  1.
    9900012    2    1    2    0    0  0.21463501956E+02 -0.48633960190E+01  0.34188173455E+02  0.50528859069E+02  0.29999997626E+02 0.  0.
        -12    1    1    2    0    0 -0.21463501956E+02  0.48633960190E+01 -0.34188173455E+02  0.40659140931E+02  0.00000000000E+00 0.  1.
         11    1    3    3    0    0  0.12805863595E+02 -0.73604548858E+01  0.62144640497E+01  0.16024543744E+02  0.51100000000E-03 0. -1.
        -11    1    3    3    0    0 -0.43640903663E+01  0.35778257385E+01  0.15273376148E+02  0.16282571694E+02  0.51100000000E-03 0.  1.
        -12    1    3    3    0    0  0.13021728728E+02 -0.10807668717E+01  0.12700333257E+02  0.18221743630E+02  0.00000000000E+00 0.  1.
</event>
<event>
 7    1  0.5006721E-012  0.5052886E+02  0.7816164E-02  0.1300439E+00
        -11   -1    0    0    0    0  0.00000000000E+00  0.00000000000E+00  0.45593999997E+02  0.45594000000E+02  0.51100000000E-03 0. -1.
         11   -1    0    0    0    0 -0.00000000000E+00 -0.00000000000E+00 -0.45593999997E+02  0.45594000000E+02  0.51100000000E-03 0.  1.
    9900012    2    1    2    0    0  0.21593250810E+02  0.13909352421E+02  0.31518684122E+02  0.50528855714E+02  0.29999987428E+02 0.  0.
        -12    1    1    2    0    0 -0.21593250810E+02 -0.13909352421E+02 -0.31518684122E+02  0.40659144286E+02  0.00000000000E+00 0.  1.
         11    1    3    3    0    0  0.10551723258E+02  0.22471328080E+02  0.21638815810E+02  0.32932321499E+02  0.51100000000E-03 0. -1.
        -11    1    3    3    0    0  0.20109061081E+01 -0.33623251266E+01  0.41392975904E+01  0.56993647396E+01  0.51100000000E-03 0.  1.
         12    1    3    3    0    0  0.90306214439E+01 -0.51996505326E+01  0.57405707218E+01  0.11897169476E+02  0.00000000000E+00 0. -1.
</event>
<event>
 7    1  0.5006721E-012  0.5052888E+02  0.7816164E-02  0.1300439E+00
        -11   -1    0    0    0    0  0.00000000000E+00  0.00000000000E+00  0.45593999997E+02  0.45594000000E+02  0.51100000000E-03 0. -1.
         11   -1    0    0    0    0 -0.00000000000E+00 -0.00000000000E+00 -0.45593999997E+02  0.45594000000E+02  0.51100000000E-03 0.  1.
    9900012    2    1    2    0    0  0.10131576477E+02  0.26538438107E+02 -0.29089972330E+02  0.50528880122E+02  0.30000061619E+02 0.  0.
         12    1    1    2    0    0 -0.10131576477E+02 -0.26538438107E+02  0.29089972330E+02  0.40659119878E+02  0.00000000000E+00 0. -1.
         11    1    3    3    0    0 -0.26322219923E+01  0.51954014590E+01 -0.12398260967E+02  0.13698089801E+02  0.51100000000E-03 0. -1.
        -11    1    3    3    0    0  0.79394882630E+01  0.44663579825E+01  0.37814992313E+01  0.98632430875E+01  0.51100000000E-03 0.  1.
        -12    1    3    3    0    0  0.48243102063E+01  0.16876678665E+02 -0.20473210595E+02  0.26967547234E+02  0.00000000000E+00 0.  1.
</event>
<event>
 7    1  0.5006721E-012  0.5052886E+02  0.7816164E-02  0.1300439E+00
        -11   -1    0    0    0    0  0.00000000000E+00  0.00000000000E+00  0.45593999997E+02  0.45594000000E+02  0.51100000000E-03 0. -1.
         11   -1    0    0    0    0 -0.00000000000E+00 -0.00000000000E+00 -0.45593999997E+02  0.45594000000E+02  0.51100000000E-03 0.  1.
    9900012    2    1    2    0    0 -0.30166963380E+02  0.13949609807E+02 -0.23420687787E+02  0.50528856997E+02  0.29999991328E+02 0.  0.
         12    1    1    2    0    0  0.30166963380E+02 -0.13949609807E+02  0.23420687787E+02  0.40659143003E+02  0.00000000000E+00 0. -1.
         11    1    3    3    0    0 -0.45431996733E+01  0.96556075761E+01  0.31767004197E+01  0.11133860371E+02  0.51100000000E-03 0. -1.
        -11    1    3    3    0    0 -0.15231647989E+01 -0.28815162479E+01 -0.62459729307E+01  0.70452356244E+01  0.51100000000E-03 0.  1.
         12    1    3    3    0    0 -0.24100598908E+02  0.71755184783E+01 -0.20351415276E+02  0.32349761002E+02  0.00000000000E+00 0. -1.
</event>
<event>
 7    1  0.6505201E-012  0.5052886E+02  0.7816164E-02  0.1300439E+00
        -11   -1    0    0    0    0  0.00000000000E+00  0.00000000000E+00  0.45593999997E+02  0.45594000000E+02  0.51100000000E-03 0. -1.
         11   -1    0    0    0    0 -0.00000000000E+00 -0.00000000000E+00 -0.45593999997E+02  0.45594000000E+02  0.51100000000E-03 0.  1.
    9900012    2    1    2    0    0  0.20817657652E+02 -0.51377596352E+01  0.34545533886E+02  0.50528863811E+02  0.30000012039E+02 0.  0.
        -12    1    1    2    0    0 -0.20817657652E+02  0.51377596352E+01 -0.34545533886E+02  0.40659136189E+02  0.00000000000E+00 0.  1.
         11    1    3    3    0    0  0.58398314824E+01 -0.12921229981E+02  0.21988872718E+02  0.26164333349E+02  0.51100000000E-03 0. -1.
        -11    1    3    3    0    0  0.95632886364E+01  0.37785317518E+01  0.19174999017E+00  0.10284481516E+02  0.51100000000E-03 0.  1.
         12    1    3    3    0    0  0.54145375336E+01  0.40049385943E+01  0.12364911178E+02  0.14080048945E+02  0.00000000000E+00 0. -1.
</event>
<event>
 7    1  0.5006721E-012  0.5052885E+02  0.7816164E-02  0.1300439E+00
        -11   -1    0    0    0    0  0.00000000000E+00  0.00000000000E+00  0.45593999997E+02  0.45594000000E+02  0.51100000000E-03 0. -1.
         11   -1    0    0    0    0 -0.00000000000E+00 -0.00000000000E+00 -0.45593999997E+02  0.45594000000E+02  0.51100000000E-03 0.  1.
    9900012    2    1    2    0    0 -0.11022068043E+02 -0.41509573244E+01 -0.38915932851E+02  0.50528852686E+02  0.29999978223E+02 0.  0.
         12    1    1    2    0    0  0.11022068043E+02  0.41509573244E+01  0.38915932851E+02  0.40659147314E+02  0.00000000000E+00 0. -1.
         11    1    3    3    0    0  0.87399237909E+01  0.32536492733E+01 -0.16941562156E+02  0.19338795982E+02  0.51100000000E-03 0. -1.
        -11    1    3    3    0    0 -0.12151442644E+02 -0.68798695369E+01 -0.17342001251E+02  0.22265111067E+02  0.51100000000E-03 0.  1.
         12    1    3    3    0    0 -0.76105491905E+01 -0.52473706078E+00 -0.46323694442E+01  0.89249456375E+01  0.00000000000E+00 0. -1.
</event>
<event>
 7    1  0.5006721E-012  0.5052884E+02  0.7816164E-02  0.1300439E+00
        -11   -1    0    0    0    0  0.00000000000E+00  0.00000000000E+00  0.45593999997E+02  0.45594000000E+02  0.51100000000E-03 0. -1.
         11   -1    0    0    0    0 -0.00000000000E+00 -0.00000000000E+00 -0.45593999997E+02  0.45594000000E+02  0.51100000000E-03 0.  1.
    9900012    2    1    2    0    0  0.47032211812E+01 -0.23163238707E+02 -0.33083395853E+02  0.50528843613E+02  0.29999950647E+02 0.  0.
         12    1    1    2    0    0 -0.47032211812E+01  0.23163238707E+02  0.33083395853E+02  0.40659156387E+02  0.00000000000E+00 0. -1.
         11    1    3    3    0    0 -0.10502342585E+02 -0.17188994777E+02 -0.11050623737E+02  0.22975574562E+02  0.51100000000E-03 0. -1.
        -11    1    3    3    0    0  0.14477334493E+02 -0.62314012237E+01 -0.21205656035E+02  0.26421646871E+02  0.51100000000E-03 0.  1.
         12    1    3    3    0    0  0.72822927327E+00  0.25715729322E+00 -0.82711608088E+00  0.11316221804E+01  0.00000000000E+00 0. -1.
</event>
<event>
 7    1  0.5006721E-012  0.5052886E+02  0.7816164E-02  0.1300439E+00
        -11   -1    0    0    0    0  0.00000000000E+00  0.00000000000E+00  0.45593999997E+02  0.45594000000E+02  0.51100000000E-03 0. -1.
         11   -1    0    0    0    0 -0.00000000000E+00 -0.00000000000E+00 -0.45593999997E+02  0.45594000000E+02  0.51100000000E-03 0.  1.
    9900012    2    1    2    0    0  0.28892671831E+02  0.18111424772E+02  0.22143963990E+02  0.50528864077E+02  0.30000012848E+02 0.  0.
        -12    1    1    2    0    0 -0.28892671831E+02 -0.18111424772E+02 -0.22143963990E+02  0.40659135923E+02  0.00000000000E+00 0.  1.
         11    1    3    3    0    0  0.78629004095E+01 -0.49174458226E+01 -0.24995964987E+01  0.96049184893E+01  0.51100000000E-03 0. -1.
        -11    1    3    3    0    0 -0.97648888475E-01  0.11010702964E+01 -0.69892168441E+00  0.13078160747E+01  0.51100000000E-03 0.  1.
         12    1    3    3    0    0  0.21127420310E+02  0.21927800298E+02  0.25342482173E+02  0.39616129513E+02  0.00000000000E+00 0. -1.
</event>
<event>
 7    1  0.5006721E-012  0.5052886E+02  0.7816164E-02  0.1300439E+00
        -11   -1    0    0    0    0  0.00000000000E+00  0.00000000000E+00  0.45593999997E+02  0.45594000000E+02  0.51100000000E-03 0. -1.
         11   -1    0    0    0    0 -0.00000000000E+00 -0.00000000000E+00 -0.45593999997E+02  0.45594000000E+02  0.51100000000E-03 0.  1.
    9900012    2    1    2    0    0  0.13765761519E+02  0.11057982691E+02  0.36625002331E+02  0.50528856292E+02  0.29999989184E+02 0.  0.
        -12    1    1    2    0    0 -0.13765761519E+02 -0.11057982691E+02 -0.36625002331E+02  0.40659143708E+02  0.00000000000E+00 0.  1.
         11    1    3    3    0    0  0.10624079298E+01  0.24500737476E+01  0.15488817571E+01  0.30871681096E+01  0.51100000000E-03 0. -1.
        -11    1    3    3    0    0  0.94527834705E+00  0.64652738532E+01 -0.32482953156E+01  0.72968993325E+01  0.51100000000E-03 0.  1.
        -12    1    3    3    0    0  0.11758075242E+02  0.21426350903E+01  0.38324415889E+02  0.40144788849E+02  0.00000000000E+00 0.  1.
</event>
<event>
 7    1  0.5006721E-012  0.5052884E+02  0.7816164E-02  0.1300439E+00
        -11   -1    0    0    0    0  0.00000000000E+00  0.00000000000E+00  0.45593999997E+02  0.45594000000E+02  0.51100000000E-03 0. -1.
         11   -1    0    0    0    0 -0.00000000000E+00 -0.00000000000E+00 -0.45593999997E+02  0.45594000000E+02  0.51100000000E-03 0.  1.
    9900012    2    1    2    0    0 -0.52865102338E+01  0.75218774842E+01 -0.39606073622E+02  0.50528844831E+02  0.29999954347E+02 0.  0.
         12    1    1    2    0    0  0.52865102338E+01 -0.75218774842E+01  0.39606073622E+02  0.40659155169E+02  0.00000000000E+00 0. -1.
         11    1    3    3    0    0 -0.84995064450E+01  0.31008894944E+01  0.10431318891E+01  0.91074282794E+01  0.51100000000E-03 0. -1.
        -11    1    3    3    0    0  0.32480205375E+01  0.47765789652E+01 -0.21312062801E+02  0.22080972921E+02  0.51100000000E-03 0.  1.
         12    1    3    3    0    0 -0.35024326211E-01 -0.35559097549E+00 -0.19337142710E+02  0.19340443631E+02  0.00000000000E+00 0. -1.
</event>
<event>
 7    1  0.5006721E-012  0.5052886E+02  0.7816164E-02  0.1300439E+00
        -11   -1    0    0    0    0  0.00000000000E+00  0.00000000000E+00  0.45593999997E+02  0.45594000000E+02  0.51100000000E-03 0. -1.
         11   -1    0    0    0    0 -0.00000000000E+00 -0.00000000000E+00 -0.45593999997E+02  0.45594000000E+02  0.51100000000E-03 0.  1.
    9900012    2    1    2    0    0  0.13332663397E+02  0.32964182327E+02  0.19717206427E+02  0.50528862539E+02  0.30000008174E+02 0.  0.
        -12    1    1    2    0    0 -0.13332663397E+02 -0.32964182327E+02 -0.19717206427E+02  0.40659137461E+02  0.00000000000E+00 0.  1.
         11    1    3    3    0    0  0.14108507464E+02  0.25263428294E+01  0.56939711435E+01  0.15422506236E+02  0.51100000000E-03 0. -1.
        -11    1    3    3    0    0 -0.22986340090E+01  0.29652709855E+02  0.14805395319E+02  0.33222983774E+02  0.51100000000E-03 0.  1.
        -12    1    3    3    0    0  0.15227899417E+01  0.78512964257E+00 -0.78216003483E+00  0.18833725288E+01  0.00000000000E+00 0.  1.
</event>
<event>
 7    1  0.5006721E-012  0.5052886E+02  0.7816164E-02  0.1300439E+00
        -11   -1    0    0    0    0  0.00000000000E+00  0.00000000000E+00  0.45593999997E+02  0.45594000000E+02  0.51100000000E-03 0. -1.
         11   -1    0    0    0    0 -0.00000000000E+00 -0.00000000000E+00 -0.45593999997E+02  0.45594000000E+02  0.51100000000E-03 0.  1.
    9900012    2    1    2    0    0  0.13172595413E+02  0.12020732955E+02  0.36539713554E+02  0.50528856412E+02  0.29999989550E+02 0.  0.
        -12    1    1    2    0    0 -0.13172595413E+02 -0.12020732955E+02 -0.36539713554E+02  0.40659143588E+02  0.00000000000E+00 0.  1.
         11    1    3    3    0    0  0.86593522175E+01  0.61109807409E+01  0.37320180432E+02  0.38795931929E+02  0.51100000000E-03 0. -1.
        -11    1    3    3    0    0  0.51407376853E+01  0.40226596832E+01 -0.42107641894E+01  0.77678510667E+01  0.51100000000E-03 0.  1.
        -12    1    3    3    0    0 -0.62749448980E+00  0.18870925310E+01  0.34302973113E+01  0.39650734166E+01  0.00000000000E+00 0.  1.
</event>
<event>
 7    1  0.5006721E-012  0.5052886E+02  0.7816164E-02  0.1300439E+00
        -11   -1    0    0    0    0  0.00000000000E+00  0.00000000000E+00  0.45593999997E+02  0.45594000000E+02  0.51100000000E-03 0. -1.
         11   -1    0    0    0    0 -0.00000000000E+00 -0.00000000000E+00 -0.45593999997E+02  0.45594000000E+02  0.51100000000E-03 0.  1.
    9900012    2    1    2    0    0 -0.13685940234E+02  0.11172006835E+02 -0.36620306239E+02  0.50528861718E+02  0.30000005677E+02 0.  0.
         12    1    1    2    0    0  0.13685940234E+02 -0.11172006835E+02  0.36620306239E+02  0.40659138282E+02  0.00000000000E+00 0. -1.
         11    1    3    3    0    0  0.25175494225E+01 -0.35626036376E+01 -0.43281155959E+01  0.61451431754E+01  0.51100000000E-03 0. -1.
        -11    1    3    3    0    0 -0.21049791658E+02  0.14546656191E+02 -0.27589736945E+02  0.37628347295E+02  0.51100000000E-03 0.  1.
        -12    1    3    3    0    0  0.48463020016E+01  0.18795428186E+00 -0.47024536982E+01  0.67553712471E+01  0.00000000000E+00 0.  1.
</event>
<event>
 7    1  0.5006721E-012  0.5052886E+02  0.7816164E-02  0.1300439E+00
        -11   -1    0    0    0    0  0.00000000000E+00  0.00000000000E+00  0.45593999997E+02  0.45594000000E+02  0.51100000000E-03 0. -1.
         11   -1    0    0    0    0 -0.00000000000E+00 -0.00000000000E+00 -0.45593999997E+02  0.45594000000E+02  0.51100000000E-03 0.  1.
    9900012    2    1    2    0    0  0.10959003146E+02 -0.56025993270E+01 -0.38751477407E+02  0.50528857481E+02  0.29999992799E+02 0.  0.
         12    1    1    2    0    0 -0.10959003146E+02  0.56025993270E+01  0.38751477407E+02  0.40659142519E+02  0.00000000000E+00 0. -1.
         11    1    3    3    0    0 -0.89016491094E+00 -0.35014482284E+01 -0.63873199784E+01  0.73382824988E+01  0.51100000000E-03 0. -1.
        -11    1    3    3    0    0  0.18048949928E+02  0.42672198948E+01 -0.27169144695E+02  0.32895838382E+02  0.51100000000E-03 0.  1.
        -12    1    3    3    0    0 -0.61997818714E+01 -0.63683709934E+01 -0.51950127336E+01  0.10294736600E+02  0.00000000000E+00 0.  1.
</event>
<event>
 7    1  0.5006721E-012  0.5052885E+02  0.7816164E-02  0.1300439E+00
        -11   -1    0    0    0    0  0.00000000000E+00  0.00000000000E+00  0.45593999997E+02  0.45594000000E+02  0.51100000000E-03 0. -1.
         11   -1    0    0    0    0 -0.00000000000E+00 -0.00000000000E+00 -0.45593999997E+02  0.45594000000E+02  0.51100000000E-03 0.  1.
    9900012    2    1    2    0    0  0.21670376165E+02 -0.54480431135E+01  0.33968808972E+02  0.50528851461E+02  0.29999974501E+02 0.  0.
        -12    1    1    2    0    0 -0.21670376165E+02  0.54480431135E+01 -0.33968808972E+02  0.40659148539E+02  0.00000000000E+00 0.  1.
         11    1    3    3    0    0  0.86965510478E+01 -0.92396478541E+01  0.53793025399E+01  0.13781799181E+02  0.51100000000E-03 0. -1.
        -11    1    3    3    0    0 -0.20884059163E+01  0.73165541644E+01  0.98988099784E+01  0.12485184955E+02  0.51100000000E-03 0.  1.
        -12    1    3    3    0    0  0.15062231034E+02 -0.35249494238E+01  0.18690696454E+02  0.24261867325E+02  0.00000000000E+00 0.  1.
</event>
<event>
 7    1  0.5006721E-012  0.5052886E+02  0.7816164E-02  0.1300439E+00
        -11   -1    0    0    0    0  0.00000000000E+00  0.00000000000E+00  0.45593999997E+02  0.45594000000E+02  0.51100000000E-03 0. -1.
         11   -1    0    0    0    0 -0.00000000000E+00 -0.00000000000E+00 -0.45593999997E+02  0.45594000000E+02  0.51100000000E-03 0.  1.
    9900012    2    1    2    0    0 -0.15742493477E+02  0.13362686134E+02 -0.35025395274E+02  0.50528858400E+02  0.29999995592E+02 0.  0.
         12    1    1    2    0    0  0.15742493477E+02 -0.13362686134E+02  0.35025395274E+02  0.40659141600E+02  0.00000000000E+00 0. -1.
         11    1    3    3    0    0 -0.14378073555E+02  0.12847810736E+02 -0.17257684800E+02  0.25877073343E+02  0.51100000000E-03 0. -1.
        -11    1    3    3    0    0 -0.14033588859E+01 -0.26043209560E+01 -0.20373506519E+02  0.20587172509E+02  0.51100000000E-03 0.  1.
        -12    1    3    3    0    0  0.38938963517E-01  0.31191963532E+01  0.26057960453E+01  0.40646125476E+01  0.00000000000E+00 0.  1.
</event>
<event>
 7    1  0.5006721E-012  0.5052886E+02  0.7816164E-02  0.1300439E+00
        -11   -1    0    0    0    0  0.00000000000E+00  0.00000000000E+00  0.45593999997E+02  0.45594000000E+02  0.51100000000E-03 0.  1.
         11   -1    0    0    0    0 -0.00000000000E+00 -0.00000000000E+00 -0.45593999997E+02  0.45594000000E+02  0.51100000000E-03 0. -1.
    9900012    2    1    2    0    0  0.16899584972E+02 -0.30435227766E+02  0.21006344493E+02  0.50528861170E+02  0.30000004014E+02 0.  0.
        -12    1    1    2    0    0 -0.16899584972E+02  0.30435227766E+02 -0.21006344493E+02  0.40659138830E+02  0.00000000000E+00 0.  1.
         11    1    3    3    0    0  0.28051386357E+01 -0.15488877566E+01 -0.40331320909E+01  0.51511174294E+01  0.51100000000E-03 0. -1.
        -11    1    3    3    0    0  0.21782546399E+00 -0.83703140749E+01  0.17642295114E+02  0.19528445478E+02  0.51100000000E-03 0.  1.
        -12    1    3    3    0    0  0.13876620872E+02 -0.20516025934E+02  0.73971814703E+01  0.25849298263E+02  0.00000000000E+00 0.  1.
</event>
<event>
 7    1  0.5006721E-012  0.5052887E+02  0.7816164E-02  0.1300439E+00
        -11   -1    0    0    0    0  0.00000000000E+00  0.00000000000E+00  0.45593999997E+02  0.45594000000E+02  0.51100000000E-03 0. -1.
         11   -1    0    0    0    0 -0.00000000000E+00 -0.00000000000E+00 -0.45593999997E+02  0.45594000000E+02  0.51100000000E-03 0.  1.
    9900012    2    1    2    0    0  0.26927823992E+02 -0.57966234523E+01 -0.29907461547E+02  0.50528870588E+02  0.30000032640E+02 0.  0.
         12    1    1    2    0    0 -0.26927823992E+02  0.57966234523E+01  0.29907461547E+02  0.40659129412E+02  0.00000000000E+00 0. -1.
         11    1    3    3    0    0 -0.52678630045E+01 -0.19176732788E+01 -0.40910013183E+01  0.69400391559E+01  0.51100000000E-03 0. -1.
        -11    1    3    3    0    0  0.20958804418E+02 -0.81910468293E+01 -0.20465414347E+02  0.30417066187E+02  0.51100000000E-03 0.  1.
         12    1    3    3    0    0  0.11236882578E+02  0.43120966557E+01 -0.53510458814E+01  0.13171765245E+02  0.00000000000E+00 0. -1.
</event>
<event>
 7    1  0.5006721E-012  0.5052886E+02  0.7816164E-02  0.1300439E+00
        -11   -1    0    0    0    0  0.00000000000E+00  0.00000000000E+00  0.45593999997E+02  0.45594000000E+02  0.51100000000E-03 0. -1.
         11   -1    0    0    0    0 -0.00000000000E+00 -0.00000000000E+00 -0.45593999997E+02  0.45594000000E+02  0.51100000000E-03 0.  1.
    9900012    2    1    2    0    0  0.25503797121E+02 -0.11688339788E+02 -0.29429655795E+02  0.50528860870E+02  0.30000003101E+02 0.  0.
         12    1    1    2    0    0 -0.25503797121E+02  0.11688339788E+02  0.29429655795E+02  0.40659139130E+02  0.00000000000E+00 0. -1.
         11    1    3    3    0    0  0.27532808166E+01 -0.91301688680E+01  0.86994863933E+00  0.95758733131E+01  0.51100000000E-03 0. -1.
        -11    1    3    3    0    0  0.19838046250E+02 -0.48102226029E+01 -0.31085308500E+02  0.37188475706E+02  0.51100000000E-03 0.  1.
         12    1    3    3    0    0  0.29124700539E+01  0.22520516826E+01  0.78570406640E+00  0.37645118510E+01  0.00000000000E+00 0. -1.
</event>
<event>
 7    1  0.5006721E-012  0.5052886E+02  0.7816164E-02  0.1300439E+00
        -11   -1    0    0    0    0  0.00000000000E+00  0.00000000000E+00  0.45593999997E+02  0.45594000000E+02  0.51100000000E-03 0. -1.
         11   -1    0    0    0    0 -0.00000000000E+00 -0.00000000000E+00 -0.45593999997E+02  0.45594000000E+02  0.51100000000E-03 0.  1.
    9900012    2    1    2    0    0 -0.31225475516E+01 -0.23193092304E+02 -0.33248994301E+02  0.50528862578E+02  0.30000008293E+02 0.  0.
         12    1    1    2    0    0  0.31225475516E+01  0.23193092304E+02  0.33248994301E+02  0.40659137422E+02  0.00000000000E+00 0. -1.
         11    1    3    3    0    0  0.12323407265E+01  0.20777061026E+01 -0.94216626137E+01  0.97264203580E+01  0.51100000000E-03 0. -1.
        -11    1    3    3    0    0 -0.15838637021E+01 -0.25878158088E+02 -0.11872566699E+02  0.28515706734E+02  0.51100000000E-03 0.  1.
        -12    1    3    3    0    0 -0.27710245760E+01  0.60735968144E+00 -0.11954764988E+02  0.12286735486E+02  0.00000000000E+00 0.  1.
</event>
<event>
 7    1  0.5006721E-012  0.5052886E+02  0.7816164E-02  0.1300439E+00
        -11   -1    0    0    0    0  0.00000000000E+00  0.00000000000E+00  0.45593999997E+02  0.45594000000E+02  0.51100000000E-03 0. -1.
         11   -1    0    0    0    0 -0.00000000000E+00 -0.00000000000E+00 -0.45593999997E+02  0.45594000000E+02  0.51100000000E-03 0.  1.
    9900012    2    1    2    0    0  0.23115788796E+01  0.10626364538E+02  0.39177838691E+02  0.50528855092E+02  0.29999985537E+02 0.  0.
        -12    1    1    2    0    0 -0.23115788796E+01 -0.10626364538E+02 -0.39177838691E+02  0.40659144908E+02  0.00000000000E+00 0.  1.
         11    1    3    3    0    0  0.82337013534E+01 -0.61583736940E+01  0.19739437591E+02  0.22256792248E+02  0.51100000000E-03 0. -1.
        -11    1    3    3    0    0 -0.54571985280E+01  0.14165994433E+02  0.20413300812E+02  0.25439325155E+02  0.51100000000E-03 0.  1.
         12    1    3    3    0    0 -0.46492394569E+00  0.26187437993E+01 -0.97489971216E+00  0.28327376883E+01  0.00000000000E+00 0. -1.
</event>
<event>
 7    1  0.5006721E-012  0.5052886E+02  0.7816164E-02  0.1300439E+00
        -11   -1    0    0    0    0  0.00000000000E+00  0.00000000000E+00  0.45593999997E+02  0.45594000000E+02  0.51100000000E-03 0. -1.
         11   -1    0    0    0    0 -0.00000000000E+00 -0.00000000000E+00 -0.45593999997E+02  0.45594000000E+02  0.51100000000E-03 0.  1.
    9900012    2    1    2    0    0  0.11916280455E+02 -0.16071049794E+02  0.35396178819E+02  0.50528857654E+02  0.29999993325E+02 0.  0.
        -12    1    1    2    0    0 -0.11916280455E+02  0.16071049794E+02 -0.35396178819E+02  0.40659142346E+02  0.00000000000E+00 0.  1.
         11    1    3    3    0    0  0.23999408109E+00 -0.88648748747E+00  0.82811646232E+01  0.83319352495E+01  0.51100000000E-03 0. -1.
        -11    1    3    3    0    0 -0.23476473704E+01 -0.14172282123E+02  0.36174445425E+01  0.14813876401E+02  0.51100000000E-03 0.  1.
        -12    1    3    3    0    0  0.14023933744E+02 -0.10122801835E+01  0.23497569653E+02  0.27383046003E+02  0.00000000000E+00 0.  1.
</event>
<event>
 7    1  0.5006721E-012  0.5052886E+02  0.7816164E-02  0.1300439E+00
        -11   -1    0    0    0    0  0.00000000000E+00  0.00000000000E+00  0.45593999997E+02  0.45594000000E+02  0.51100000000E-03 0. -1.
         11   -1    0    0    0    0 -0.00000000000E+00 -0.00000000000E+00 -0.45593999997E+02  0.45594000000E+02  0.51100000000E-03 0.  1.
    9900012    2    1    2    0    0  0.28243470114E+00 -0.24804754630E+01  0.40582424110E+02  0.50528859889E+02  0.30000000119E+02 0.  0.
        -12    1    1    2    0    0 -0.28243470114E+00  0.24804754630E+01 -0.40582424110E+02  0.40659140111E+02  0.00000000000E+00 0.  1.
         11    1    3    3    0    0 -0.10773256298E+02  0.36703639281E+01  0.15238523615E+02  0.19019653647E+02  0.51100000000E-03 0. -1.
        -11    1    3    3    0    0  0.83021935613E+01 -0.23323300334E+00  0.23195886285E+02  0.24637977928E+02  0.51100000000E-03 0.  1.
        -12    1    3    3    0    0  0.27534974374E+01 -0.59176063877E+01  0.21480142099E+01  0.68712283140E+01  0.00000000000E+00 0.  1.
</event>
<event>
 7    1  0.5006721E-012  0.5052885E+02  0.7816164E-02  0.1300439E+00
        -11   -1    0    0    0    0  0.00000000000E+00  0.00000000000E+00  0.45593999997E+02  0.45594000000E+02  0.51100000000E-03 0. -1.
         11   -1    0    0    0    0 -0.00000000000E+00 -0.00000000000E+00 -0.45593999997E+02  0.45594000000E+02  0.51100000000E-03 0.  1.
    9900012    2    1    2    0    0  0.28619256174E+02  0.23923968892E+02  0.16178638150E+02  0.50528850428E+02  0.29999971362E+02 0.  0.
        -12    1    1    2    0    0 -0.28619256174E+02 -0.23923968892E+02 -0.16178638150E+02  0.40659149572E+02  0.00000000000E+00 0.  1.
         11    1    3    3    0    0  0.14768466883E+02  0.20196239784E+02  0.27953029488E+00  0.25021467841E+02  0.51100000000E-03 0. -1.
        -11    1    3    3    0    0  0.11100205797E+02 -0.21855810907E+01  0.15200240907E+02  0.18948315422E+02  0.51100000000E-03 0.  1.
        -12    1    3    3    0    0  0.27505834942E+01  0.59133101986E+01  0.69886694778E+00  0.65590671649E+01  0.00000000000E+00 0.  1.
</event>
<event>
 7    1  0.5006721E-012  0.5052885E+02  0.7816164E-02  0.1300439E+00
        -11   -1    0    0    0    0  0.00000000000E+00  0.00000000000E+00  0.45593999997E+02  0.45594000000E+02  0.51100000000E-03 0. -1.
         11   -1    0    0    0    0 -0.00000000000E+00 -0.00000000000E+00 -0.45593999997E+02  0.45594000000E+02  0.51100000000E-03 0.  1.
    9900012    2    1    2    0    0 -0.21899737566E+02  0.10520680409E+02 -0.32601884304E+02  0.50528854879E+02  0.29999984892E+02 0.  0.
         12    1    1    2    0    0  0.21899737566E+02 -0.10520680409E+02  0.32601884304E+02  0.40659145121E+02  0.00000000000E+00 0. -1.
         11    1    3    3    0    0  0.14231253055E+01 -0.17041012966E+01  0.64723574585E+00  0.23126091836E+01  0.51100000000E-03 0. -1.
        -11    1    3    3    0    0 -0.24202227441E+02  0.17004054871E+02 -0.31046420205E+02  0.42880833749E+02  0.51100000000E-03 0.  1.
        -12    1    3    3    0    0  0.87936456944E+00 -0.47792731655E+01 -0.22026998445E+01  0.53354119467E+01  0.00000000000E+00 0.  1.
</event>
<event>
 7    1  0.5006721E-012  0.5052886E+02  0.7816164E-02  0.1300439E+00
        -11   -1    0    0    0    0  0.00000000000E+00  0.00000000000E+00  0.45593999997E+02  0.45594000000E+02  0.51100000000E-03 0. -1.
         11   -1    0    0    0    0 -0.00000000000E+00 -0.00000000000E+00 -0.45593999997E+02  0.45594000000E+02  0.51100000000E-03 0.  1.
    9900012    2    1    2    0    0 -0.25482153006E+01  0.31541687176E+02 -0.25530260216E+02  0.50528860587E+02  0.30000002240E+02 0.  0.
         12    1    1    2    0    0  0.25482153006E+01 -0.31541687176E+02  0.25530260216E+02  0.40659139413E+02  0.00000000000E+00 0. -1.
         11    1    3    3    0    0  0.82459474340E+01  0.19591665074E+02 -0.14718020349E+02  0.25854382853E+02  0.51100000000E-03 0.  1.
        -11    1    3    3    0    0 -0.96048691380E+00 -0.14316897462E+01  0.27418862577E+01  0.32388595450E+01  0.51100000000E-03 0. -1.
         12    1    3    3    0    0 -0.98336758209E+01  0.13381711848E+02 -0.13554126124E+02  0.21435618188E+02  0.00000000000E+00 0. -1.
</event>
<event>
 7    1  0.5006721E-012  0.5052886E+02  0.7816164E-02  0.1300439E+00
        -11   -1    0    0    0    0  0.00000000000E+00  0.00000000000E+00  0.45593999997E+02  0.45594000000E+02  0.51100000000E-03 0. -1.
         11   -1    0    0    0    0 -0.00000000000E+00 -0.00000000000E+00 -0.45593999997E+02  0.45594000000E+02  0.51100000000E-03 0.  1.
    9900012    2    1    2    0    0  0.19687916287E+02 -0.21542973177E+02 -0.28309927824E+02  0.50528858907E+02  0.29999997134E+02 0.  0.
         12    1    1    2    0    0 -0.19687916287E+02  0.21542973177E+02  0.28309927824E+02  0.40659141093E+02  0.00000000000E+00 0. -1.
         11    1    3    3    0    0  0.18164527772E+01 -0.10411089572E+02 -0.25733988832E+02  0.27819569878E+02  0.51100000000E-03 0. -1.
        -11    1    3    3    0    0  0.10951066609E+02 -0.68022552430E+01 -0.55304136003E+01  0.14027901166E+02  0.51100000000E-03 0.  1.
         12    1    3    3    0    0  0.69203969010E+01 -0.43296283619E+01  0.29544746080E+01  0.86813878631E+01  0.00000000000E+00 0. -1.
</event>
<event>
 7    1  0.5006721E-012  0.5052886E+02  0.7816164E-02  0.1300439E+00
        -11   -1    0    0    0    0  0.00000000000E+00  0.00000000000E+00  0.45593999997E+02  0.45594000000E+02  0.51100000000E-03 0. -1.
         11   -1    0    0    0    0 -0.00000000000E+00 -0.00000000000E+00 -0.45593999997E+02  0.45594000000E+02  0.51100000000E-03 0.  1.
    9900012    2    1    2    0    0 -0.25871259220E+02 -0.25502254747E+02 -0.18261397918E+02  0.50528859518E+02  0.29999998991E+02 0.  0.
         12    1    1    2    0    0  0.25871259220E+02  0.25502254747E+02  0.18261397918E+02  0.40659140482E+02  0.00000000000E+00 0. -1.
         11    1    3    3    0    0 -0.85104996206E+01 -0.38927920861E+01  0.43439222374E+01  0.10317562439E+02  0.51100000000E-03 0. -1.
        -11    1    3    3    0    0 -0.47439230524E+01 -0.94613148047E+01 -0.19830524052E+02  0.22478233209E+02  0.51100000000E-03 0.  1.
        -12    1    3    3    0    0 -0.12616836547E+02 -0.12148147856E+02 -0.27747961030E+01  0.17733063870E+02  0.00000000000E+00 0.  1.
</event>
<event>
 7    1  0.5006721E-012  0.5052886E+02  0.7816164E-02  0.1300439E+00
        -11   -1    0    0    0    0  0.00000000000E+00  0.00000000000E+00  0.45593999997E+02  0.45594000000E+02  0.51100000000E-03 0. -1.
         11   -1    0    0    0    0 -0.00000000000E+00 -0.00000000000E+00 -0.45593999997E+02  0.45594000000E+02  0.51100000000E-03 0.  1.
    9900012    2    1    2    0    0 -0.13982290631E+02  0.13530051324E+01 -0.38155344438E+02  0.50528863470E+02  0.30000011002E+02 0.  0.
         12    1    1    2    0    0  0.13982290631E+02 -0.13530051324E+01  0.38155344438E+02  0.40659136530E+02  0.00000000000E+00 0. -1.
         11    1    3    3    0    0 -0.20848221375E+01  0.17531762983E+01 -0.16345938528E+00  0.27288879987E+01  0.51100000000E-03 0. -1.
        -11    1    3    3    0    0 -0.11087853885E+02 -0.88559495907E+01 -0.36518512072E+02  0.39178694097E+02  0.51100000000E-03 0.  1.
        -12    1    3    3    0    0 -0.80961460903E+00  0.84557784248E+01 -0.14733729807E+01  0.86212813737E+01  0.00000000000E+00 0.  1.
</event>
<event>
 7    1  0.5006721E-012  0.5052885E+02  0.7816164E-02  0.1300439E+00
        -11   -1    0    0    0    0  0.00000000000E+00  0.00000000000E+00  0.45593999997E+02  0.45594000000E+02  0.51100000000E-03 0. -1.
         11   -1    0    0    0    0 -0.00000000000E+00 -0.00000000000E+00 -0.45593999997E+02  0.45594000000E+02  0.51100000000E-03 0.  1.
    9900012    2    1    2    0    0 -0.13491574591E+02 -0.35543336948E+02  0.14415797097E+02  0.50528848603E+02  0.29999965814E+02 0.  0.
        -12    1    1    2    0    0  0.13491574591E+02  0.35543336948E+02 -0.14415797097E+02  0.40659151397E+02  0.00000000000E+00 0.  1.
         11    1    3    3    0    0  0.45420216580E+00 -0.11176722108E+02  0.94453172034E+01  0.14640335857E+02  0.51100000000E-03 0. -1.
        -11    1    3    3    0    0 -0.13765146260E+02 -0.39153397633E+01 -0.16158206772E+01  0.14402083660E+02  0.51100000000E-03 0.  1.
        -12    1    3    3    0    0 -0.18063049743E+00 -0.20451275077E+02  0.65863005708E+01  0.21486429086E+02  0.00000000000E+00 0.  1.
</event>
<event>
 7    1  0.5006721E-012  0.5052885E+02  0.7816164E-02  0.1300439E+00
        -11   -1    0    0    0    0  0.00000000000E+00  0.00000000000E+00  0.45593999997E+02  0.45594000000E+02  0.51100000000E-03 0.  1.
         11   -1    0    0    0    0 -0.00000000000E+00 -0.00000000000E+00 -0.45593999997E+02  0.45594000000E+02  0.51100000000E-03 0. -1.
    9900012    2    1    2    0    0  0.12628781432E+02  0.38583354627E+02  0.22371691892E+01  0.50528852189E+02  0.29999976713E+02 0.  0.
         12    1    1    2    0    0 -0.12628781432E+02 -0.38583354627E+02 -0.22371691892E+01  0.40659147811E+02  0.00000000000E+00 0. -1.
         11    1    3    3    0    0  0.23547961841E+01  0.99348004644E+01 -0.79315953192E+01  0.12928864216E+02  0.51100000000E-03 0. -1.
        -11    1    3    3    0    0  0.69472326515E+01  0.31226512274E+02  0.89521595705E+01  0.33218974571E+02  0.51100000000E-03 0.  1.
        -12    1    3    3    0    0  0.33267525962E+01 -0.25779581107E+01  0.12166049379E+01  0.43810134024E+01  0.00000000000E+00 0.  1.
</event>
<event>
 7    1  0.5006721E-012  0.5052886E+02  0.7816164E-02  0.1300439E+00
        -11   -1    0    0    0    0  0.00000000000E+00  0.00000000000E+00  0.45593999997E+02  0.45594000000E+02  0.51100000000E-03 0. -1.
         11   -1    0    0    0    0 -0.00000000000E+00 -0.00000000000E+00 -0.45593999997E+02  0.45594000000E+02  0.51100000000E-03 0.  1.
    9900012    2    1    2    0    0 -0.32268107806E+02 -0.22653459942E+02 -0.99375959050E+01  0.50528857841E+02  0.29999993894E+02 0.  0.
         12    1    1    2    0    0  0.32268107806E+02  0.22653459942E+02  0.99375959050E+01  0.40659142159E+02  0.00000000000E+00 0. -1.
         11    1    3    3    0    0 -0.17073251915E+02  0.35837222330E+01 -0.46241062278E+01  0.18047752067E+02  0.51100000000E-03 0. -1.
        -11    1    3    3    0    0 -0.12454030210E+02 -0.11406908948E+02 -0.17074051593E+01  0.16974559578E+02  0.51100000000E-03 0.  1.
         12    1    3    3    0    0 -0.27408256810E+01 -0.14830273227E+02 -0.36060845179E+01  0.15506546197E+02  0.00000000000E+00 0. -1.
</event>
<event>
 7    1  0.5006721E-012  0.5052886E+02  0.7816164E-02  0.1300439E+00
        -11   -1    0    0    0    0  0.00000000000E+00  0.00000000000E+00  0.45593999997E+02  0.45594000000E+02  0.51100000000E-03 0. -1.
         11   -1    0    0    0    0 -0.00000000000E+00 -0.00000000000E+00 -0.45593999997E+02  0.45594000000E+02  0.51100000000E-03 0.  1.
    9900012    2    1    2    0    0 -0.57407923527E+01  0.17763210077E+02 -0.36120314167E+02  0.50528862963E+02  0.30000009463E+02 0.  0.
         12    1    1    2    0    0  0.57407923527E+01 -0.17763210077E+02  0.36120314167E+02  0.40659137037E+02  0.00000000000E+00 0. -1.
         11    1    3    3    0    0  0.74508490362E+00 -0.20304725217E+01 -0.22270678829E+02  0.22375457670E+02  0.51100000000E-03 0. -1.
        -11    1    3    3    0    0 -0.10008561509E+01  0.18910669320E+02 -0.11160337798E+02  0.21981088853E+02  0.51100000000E-03 0.  1.
         12    1    3    3    0    0 -0.54850211054E+01  0.88301327874E+00 -0.26892975400E+01  0.61723164400E+01  0.00000000000E+00 0. -1.
</event>
<event>
 7    1  0.5006721E-012  0.5052885E+02  0.7816164E-02  0.1300439E+00
        -11   -1    0    0    0    0  0.00000000000E+00  0.00000000000E+00  0.45593999997E+02  0.45594000000E+02  0.51100000000E-03 0. -1.
         11   -1    0    0    0    0 -0.00000000000E+00 -0.00000000000E+00 -0.45593999997E+02  0.45594000000E+02  0.51100000000E-03 0.  1.
    9900012    2    1    2    0    0  0.45961478062E+01  0.24727491901E+01  0.40322786171E+02  0.50528854069E+02  0.29999982429E+02 0.  0.
        -12    1    1    2    0    0 -0.45961478062E+01 -0.24727491901E+01 -0.40322786171E+02  0.40659145931E+02  0.00000000000E+00 0.  1.
         11    1    3    3    0    0  0.49654369077E+01  0.36957554556E+01  0.30218311348E+02  0.30845753566E+02  0.51100000000E-03 0. -1.
        -11    1    3    3    0    0  0.73081639075E+01  0.73338829910E+00  0.68807310704E+00  0.73770294129E+01  0.51100000000E-03 0.  1.
        -12    1    3    3    0    0 -0.76774530090E+01 -0.19563945646E+01  0.94164017157E+01  0.12306071090E+02  0.00000000000E+00 0.  1.
</event>
<event>
 7    1  0.5006721E-012  0.5052879E+02  0.7816164E-02  0.1300439E+00
        -11   -1    0    0    0    0  0.00000000000E+00  0.00000000000E+00  0.45593999997E+02  0.45594000000E+02  0.51100000000E-03 0. -1.
         11   -1    0    0    0    0 -0.00000000000E+00 -0.00000000000E+00 -0.45593999997E+02  0.45594000000E+02  0.51100000000E-03 0.  1.
    9900012    2    1    2    0    0  0.31314363218E+02 -0.72364438391E+01  0.24904125951E+02  0.50528794984E+02  0.29999802832E+02 0.  0.
        -12    1    1    2    0    0 -0.31314363218E+02  0.72364438391E+01 -0.24904125951E+02  0.40659205016E+02  0.00000000000E+00 0.  1.
         11    1    3    3    0    0  0.19764656559E+02  0.19109768323E+01  0.14199194652E+02  0.24411280392E+02  0.51100000000E-03 0. -1.
        -11    1    3    3    0    0  0.27501463810E+01 -0.62221257110E+01 -0.46073843918E+01  0.82162123071E+01  0.51100000000E-03 0.  1.
        -12    1    3    3    0    0  0.87995602774E+01 -0.29252949604E+01  0.15312315690E+02  0.17901302284E+02  0.00000000000E+00 0.  1.
</event>
<event>
 7    1  0.5006721E-012  0.5052886E+02  0.7816164E-02  0.1300439E+00
        -11   -1    0    0    0    0  0.00000000000E+00  0.00000000000E+00  0.45593999997E+02  0.45594000000E+02  0.51100000000E-03 0. -1.
         11   -1    0    0    0    0 -0.00000000000E+00 -0.00000000000E+00 -0.45593999997E+02  0.45594000000E+02  0.51100000000E-03 0.  1.
    9900012    2    1    2    0    0 -0.17492065605E+02  0.27971937212E+01 -0.36597395764E+02  0.50528855536E+02  0.29999986889E+02 0.  0.
         12    1    1    2    0    0  0.17492065605E+02 -0.27971937212E+01  0.36597395764E+02  0.40659144464E+02  0.00000000000E+00 0. -1.
         11    1    3    3    0    0 -0.59508617875E+01  0.21663804357E+01  0.32359820586E+01  0.71117888291E+01  0.51100000000E-03 0. -1.
        -11    1    3    3    0    0 -0.77531006509E+01 -0.56576039350E+01 -0.18259512650E+02  0.20628350745E+02  0.51100000000E-03 0.  1.
         12    1    3    3    0    0 -0.37881031662E+01  0.62884172205E+01 -0.21573865172E+02  0.22788715962E+02  0.00000000000E+00 0. -1.
</event>
<event>
 7    1  0.5006721E-012  0.5052885E+02  0.7816164E-02  0.1300439E+00
        -11   -1    0    0    0    0  0.00000000000E+00  0.00000000000E+00  0.45593999997E+02  0.45594000000E+02  0.51100000000E-03 0. -1.
         11   -1    0    0    0    0 -0.00000000000E+00 -0.00000000000E+00 -0.45593999997E+02  0.45594000000E+02  0.51100000000E-03 0.  1.
    9900012    2    1    2    0    0 -0.26152054930E+02  0.30823806302E+02 -0.43737050799E+01  0.50528852098E+02  0.29999976436E+02 0.  0.
         12    1    1    2    0    0  0.26152054930E+02 -0.30823806302E+02  0.43737050799E+01  0.40659147902E+02  0.00000000000E+00 0. -1.
         11    1    3    3    0    0  0.25005676902E+01  0.10660460952E+02 -0.33138452873E+01  0.11440272607E+02  0.51100000000E-03 0. -1.
        -11    1    3    3    0    0 -0.28144669579E+02  0.22469460376E+02 -0.28483511837E+01  0.36126336377E+02  0.51100000000E-03 0.  1.
        -12    1    3    3    0    0 -0.50795304144E+00 -0.23061150260E+01  0.17884913911E+01  0.29622431132E+01  0.00000000000E+00 0.  1.
</event>
<event>
 7    1  0.5006721E-012  0.5052886E+02  0.7816164E-02  0.1300439E+00
        -11   -1    0    0    0    0  0.00000000000E+00  0.00000000000E+00  0.45593999997E+02  0.45594000000E+02  0.51100000000E-03 0. -1.
         11   -1    0    0    0    0 -0.00000000000E+00 -0.00000000000E+00 -0.45593999997E+02  0.45594000000E+02  0.51100000000E-03 0.  1.
    9900012    2    1    2    0    0  0.18209990165E+02 -0.12198527789E+02 -0.34245554660E+02  0.50528857904E+02  0.29999994086E+02 0.  0.
         12    1    1    2    0    0 -0.18209990165E+02  0.12198527789E+02  0.34245554660E+02  0.40659142096E+02  0.00000000000E+00 0. -1.
         11    1    3    3    0    0  0.60404703392E+01  0.63784550172E+01 -0.18322475740E+02  0.20319574007E+02  0.51100000000E-03 0. -1.
        -11    1    3    3    0    0  0.11173629783E+02 -0.67727163969E+01 -0.11972378519E+02  0.17721668589E+02  0.51100000000E-03 0.  1.
         12    1    3    3    0    0  0.99589004242E+00 -0.11804266409E+02 -0.39507004011E+01  0.12487615309E+02  0.00000000000E+00 0. -1.
</event>
<event>
 7    1  0.5006721E-012  0.5052886E+02  0.7816164E-02  0.1300439E+00
        -11   -1    0    0    0    0  0.00000000000E+00  0.00000000000E+00  0.45593999997E+02  0.45594000000E+02  0.51100000000E-03 0. -1.
         11   -1    0    0    0    0 -0.00000000000E+00 -0.00000000000E+00 -0.45593999997E+02  0.45594000000E+02  0.51100000000E-03 0.  1.
    9900012    2    1    2    0    0 -0.70984894321E+01  0.18518486886E+01 -0.39991847397E+02  0.50528858912E+02  0.29999997150E+02 0.  0.
         12    1    1    2    0    0  0.70984894321E+01 -0.18518486886E+01  0.39991847397E+02  0.40659141088E+02  0.00000000000E+00 0. -1.
         11    1    3    3    0    0 -0.44943160075E+01 -0.72095230520E+01 -0.90062309079E+01  0.12380965004E+02  0.51100000000E-03 0. -1.
        -11    1    3    3    0    0  0.65961639366E+01  0.70508134630E+01 -0.58099669907E+01  0.11268498829E+02  0.51100000000E-03 0.  1.
        -12    1    3    3    0    0 -0.92003373612E+01  0.20105582776E+01 -0.25175649498E+02  0.26879395079E+02  0.00000000000E+00 0.  1.
</event>
<event>
 7    1  0.5006721E-012  0.5052885E+02  0.7816164E-02  0.1300439E+00
        -11   -1    0    0    0    0  0.00000000000E+00  0.00000000000E+00  0.45593999997E+02  0.45594000000E+02  0.51100000000E-03 0. -1.
         11   -1    0    0    0    0 -0.00000000000E+00 -0.00000000000E+00 -0.45593999997E+02  0.45594000000E+02  0.51100000000E-03 0.  1.
    9900012    2    1    2    0    0  0.80741884956E+01  0.29053556787E+02 -0.27273886656E+02  0.50528848814E+02  0.29999966456E+02 0.  0.
         12    1    1    2    0    0 -0.80741884956E+01 -0.29053556787E+02  0.27273886656E+02  0.40659151186E+02  0.00000000000E+00 0. -1.
         11    1    3    3    0    0 -0.10016841377E+01 -0.47547474789E+01 -0.34303583325E+01  0.59479705153E+01  0.51100000000E-03 0. -1.
        -11    1    3    3    0    0 -0.23854037953E-01  0.24275878928E+02 -0.13144167711E+02  0.27605941603E+02  0.51100000000E-03 0.  1.
        -12    1    3    3    0    0  0.90997266712E+01  0.95324253381E+01 -0.10699360612E+02  0.16974936696E+02  0.00000000000E+00 0.  1.
</event>
<event>
 7    1  0.5006721E-012  0.5052887E+02  0.7816164E-02  0.1300439E+00
        -11   -1    0    0    0    0  0.00000000000E+00  0.00000000000E+00  0.45593999997E+02  0.45594000000E+02  0.51100000000E-03 0. -1.
         11   -1    0    0    0    0 -0.00000000000E+00 -0.00000000000E+00 -0.45593999997E+02  0.45594000000E+02  0.51100000000E-03 0.  1.
    9900012    2    1    2    0    0  0.41882774425E+01 -0.27232665129E+02 -0.29899923266E+02  0.50528866595E+02  0.30000020501E+02 0.  0.
         12    1    1    2    0    0 -0.41882774425E+01  0.27232665129E+02  0.29899923266E+02  0.40659133405E+02  0.00000000000E+00 0. -1.
         11    1    3    3    0    0 -0.19843101339E+01 -0.92126007109E+00  0.17515241242E+01  0.28025067074E+01  0.51100000000E-03 0. -1.
        -11    1    3    3    0    0  0.10595869040E+02 -0.27379189153E+02 -0.20858665088E+02  0.36013557849E+02  0.51100000000E-03 0.  1.
        -12    1    3    3    0    0 -0.44232814631E+01  0.10677840955E+01 -0.10792782302E+02  0.11712802039E+02  0.00000000000E+00 0.  1.
</event>
<event>
 7    1  0.5006721E-012  0.5052883E+02  0.7816164E-02  0.1300439E+00
        -11   -1    0    0    0    0  0.00000000000E+00  0.00000000000E+00  0.45593999997E+02  0.45594000000E+02  0.51100000000E-03 0. -1.
         11   -1    0    0    0    0 -0.00000000000E+00 -0.00000000000E+00 -0.45593999997E+02  0.45594000000E+02  0.51100000000E-03 0.  1.
    9900012    2    1    2    0    0  0.65894590484E+01 -0.61053705495E+01  0.39654401783E+02  0.50528830052E+02  0.29999909425E+02 0.  0.
        -12    1    1    2    0    0 -0.65894590484E+01  0.61053705495E+01 -0.39654401783E+02  0.40659169948E+02  0.00000000000E+00 0.  1.
         11    1    3    3    0    0 -0.22536352985E+01 -0.20919603640E+01  0.20999018084E+02  0.21222957640E+02  0.51100000000E-03 0. -1.
        -11    1    3    3    0    0  0.10782608942E+02 -0.56068232673E+00  0.59191526574E+00  0.10813389118E+02  0.51100000000E-03 0.  1.
        -12    1    3    3    0    0 -0.19395145951E+01 -0.34527278588E+01  0.18063468433E+02  0.18492483294E+02  0.00000000000E+00 0.  1.
</event>
<event>
 7    1  0.5006721E-012  0.5052885E+02  0.7816164E-02  0.1300439E+00
        -11   -1    0    0    0    0  0.00000000000E+00  0.00000000000E+00  0.45593999997E+02  0.45594000000E+02  0.51100000000E-03 0.  1.
         11   -1    0    0    0    0 -0.00000000000E+00 -0.00000000000E+00 -0.45593999997E+02  0.45594000000E+02  0.51100000000E-03 0. -1.
    9900012    2    1    2    0    0  0.15210322486E+02 -0.37676988217E+02  0.15022595541E+01  0.50528854227E+02  0.29999982909E+02 0.  0.
        -12    1    1    2    0    0 -0.15210322486E+02  0.37676988217E+02 -0.15022595541E+01  0.40659145773E+02  0.00000000000E+00 0.  1.
         11    1    3    3    0    0  0.72953430823E+01 -0.14298557020E+02 -0.76247191400E+01  0.17770962432E+02  0.51100000000E-03 0. -1.
        -11    1    3    3    0    0  0.21193594522E+01 -0.79373254167E+01  0.13402265198E+02  0.15719845163E+02  0.51100000000E-03 0.  1.
        -12    1    3    3    0    0  0.57956199512E+01 -0.15441105780E+02 -0.42752865039E+01  0.17038046632E+02  0.00000000000E+00 0.  1.
</event>
<event>
 7    1  0.5006721E-012  0.5052886E+02  0.7816164E-02  0.1300439E+00
        -11   -1    0    0    0    0  0.00000000000E+00  0.00000000000E+00  0.45593999997E+02  0.45594000000E+02  0.51100000000E-03 0. -1.
         11   -1    0    0    0    0 -0.00000000000E+00 -0.00000000000E+00 -0.45593999997E+02  0.45594000000E+02  0.51100000000E-03 0.  1.
    9900012    2    1    2    0    0  0.14120209229E+02  0.23763217884E+02 -0.29817694672E+02  0.50528858981E+02  0.29999997359E+02 0.  0.
         12    1    1    2    0    0 -0.14120209229E+02 -0.23763217884E+02  0.29817694672E+02  0.40659141019E+02  0.00000000000E+00 0. -1.
         11    1    3    3    0    0  0.66389182336E-01 -0.11027590155E+01 -0.19621647127E+02  0.19652722998E+02  0.51100000000E-03 0. -1.
        -11    1    3    3    0    0  0.47992573671E+01  0.45436558841E+01 -0.82883396526E+00  0.66606790999E+01  0.51100000000E-03 0.  1.
         12    1    3    3    0    0  0.92545626795E+01  0.20322321015E+02 -0.93672135791E+01  0.24215456884E+02  0.00000000000E+00 0. -1.
</event>
<event>
 7    1  0.5006721E-012  0.5052891E+02  0.7816164E-02  0.1300439E+00
        -11   -1    0    0    0    0  0.00000000000E+00  0.00000000000E+00  0.45593999997E+02  0.45594000000E+02  0.51100000000E-03 0. -1.
         11   -1    0    0    0    0 -0.00000000000E+00 -0.00000000000E+00 -0.45593999997E+02  0.45594000000E+02  0.51100000000E-03 0.  1.
    9900012    2    1    2    0    0 -0.12956978685E+02  0.39354603862E+01  0.38337849255E+02  0.50528907160E+02  0.30000143802E+02 0.  0.
        -12    1    1    2    0    0  0.12956978685E+02 -0.39354603862E+01 -0.38337849255E+02  0.40659092840E+02  0.00000000000E+00 0.  1.
         11    1    3    3    0    0  0.71078524446E+00 -0.92405267621E+00  0.62705176695E+01  0.63779684161E+01  0.51100000000E-03 0. -1.
        -11    1    3    3    0    0 -0.40842572412E+01  0.10840398720E+02  0.16469554126E+01  0.11700763394E+02  0.51100000000E-03 0.  1.
        -12    1    3    3    0    0 -0.95835066881E+01 -0.59808856573E+01  0.30420376173E+02  0.32450175349E+02  0.00000000000E+00 0.  1.
</event>
<event>
 7    1  0.5490432E-012  0.5052887E+02  0.7816164E-02  0.1300439E+00
        -11   -1    0    0    0    0  0.00000000000E+00  0.00000000000E+00  0.45593999997E+02  0.45594000000E+02  0.51100000000E-03 0. -1.
         11   -1    0    0    0    0 -0.00000000000E+00 -0.00000000000E+00 -0.45593999997E+02  0.45594000000E+02  0.51100000000E-03 0.  1.
    9900012    2    1    2    0    0  0.22600571027E+01  0.99179779207E+01  0.39366112790E+02  0.50528868426E+02  0.30000026069E+02 0.  0.
        -12    1    1    2    0    0 -0.22600571027E+01 -0.99179779207E+01 -0.39366112790E+02  0.40659131574E+02  0.00000000000E+00 0.  1.
         11    1    3    3    0    0 -0.47644012091E+01  0.14482161026E+02  0.27902227767E+02  0.31795704450E+02  0.51100000000E-03 0. -1.
        -11    1    3    3    0    0 -0.28793870502E+01 -0.39523211193E+01  0.39686070460E+01  0.62977419891E+01  0.51100000000E-03 0.  1.
         12    1    3    3    0    0  0.99038453620E+01 -0.61186198612E+00  0.74952779773E+01  0.12435421987E+02  0.00000000000E+00 0. -1.
</event>
<event>
 7    1  0.5006721E-012  0.5052886E+02  0.7816164E-02  0.1300439E+00
        -11   -1    0    0    0    0  0.00000000000E+00  0.00000000000E+00  0.45593999997E+02  0.45594000000E+02  0.51100000000E-03 0. -1.
         11   -1    0    0    0    0 -0.00000000000E+00 -0.00000000000E+00 -0.45593999997E+02  0.45594000000E+02  0.51100000000E-03 0.  1.
    9900012    2    1    2    0    0  0.17486948416E+02  0.31186857970E+02 -0.19358515617E+02  0.50528860783E+02  0.30000002837E+02 0.  0.
         12    1    1    2    0    0 -0.17486948416E+02 -0.31186857970E+02  0.19358515617E+02  0.40659139217E+02  0.00000000000E+00 0. -1.
         11    1    3    3    0    0  0.13364579553E+01  0.15772390478E+02  0.39386548357E+01  0.16311573297E+02  0.51100000000E-03 0. -1.
        -11    1    3    3    0    0  0.13696058932E+02  0.12003172765E+02 -0.23818037186E+02  0.29982613000E+02  0.51100000000E-03 0.  1.
        -12    1    3    3    0    0  0.24544315291E+01  0.34112947273E+01  0.52086673297E+00  0.42346744858E+01  0.00000000000E+00 0.  1.
</event>
<event>
 7    1  0.5006721E-012  0.5052886E+02  0.7816164E-02  0.1300439E+00
        -11   -1    0    0    0    0  0.00000000000E+00  0.00000000000E+00  0.45593999997E+02  0.45594000000E+02  0.51100000000E-03 0. -1.
         11   -1    0    0    0    0 -0.00000000000E+00 -0.00000000000E+00 -0.45593999997E+02  0.45594000000E+02  0.51100000000E-03 0.  1.
    9900012    2    1    2    0    0  0.89995862296E+01  0.11373767465E+02  0.37984346343E+02  0.50528859505E+02  0.29999998951E+02 0.  0.
        -12    1    1    2    0    0 -0.89995862296E+01 -0.11373767465E+02 -0.37984346343E+02  0.40659140495E+02  0.00000000000E+00 0.  1.
         11    1    3    3    0    0  0.96114909046E+01  0.11642233128E+02  0.20902388875E+02  0.25784340414E+02  0.51100000000E-03 0. -1.
        -11    1    3    3    0    0 -0.75666302519E+01 -0.39280932372E+01  0.38494564155E+01  0.93542570419E+01  0.51100000000E-03 0.  1.
        -12    1    3    3    0    0  0.69547255769E+01  0.36596275743E+01  0.13232501052E+02  0.15390262049E+02  0.00000000000E+00 0.  1.
</event>
<event>
 7    1  0.5006721E-012  0.5052886E+02  0.7816164E-02  0.1300439E+00
        -11   -1    0    0    0    0  0.00000000000E+00  0.00000000000E+00  0.45593999997E+02  0.45594000000E+02  0.51100000000E-03 0. -1.
         11   -1    0    0    0    0 -0.00000000000E+00 -0.00000000000E+00 -0.45593999997E+02  0.45594000000E+02  0.51100000000E-03 0.  1.
    9900012    2    1    2    0    0  0.40601607074E+02 -0.19402239837E+01  0.95432427195E+00  0.50528859565E+02  0.29999999134E+02 0.  0.
        -12    1    1    2    0    0 -0.40601607074E+02  0.19402239837E+01 -0.95432427195E+00  0.40659140435E+02  0.00000000000E+00 0.  1.
         11    1    3    3    0    0  0.33639062158E+01  0.89350442720E+01  0.22006972565E+01  0.97976502207E+01  0.51100000000E-03 0. -1.
        -11    1    3    3    0    0  0.25450342196E+02 -0.13099956115E+02 -0.21312698586E+01  0.28703154523E+02  0.51100000000E-03 0.  1.
         12    1    3    3    0    0  0.11787358662E+02  0.22246878597E+01  0.88489687410E+00  0.12028054821E+02  0.00000000000E+00 0. -1.
</event>
<event>
 7    1  0.5006721E-012  0.5052886E+02  0.7816164E-02  0.1300439E+00
        -11   -1    0    0    0    0  0.00000000000E+00  0.00000000000E+00  0.45593999997E+02  0.45594000000E+02  0.51100000000E-03 0. -1.
         11   -1    0    0    0    0 -0.00000000000E+00 -0.00000000000E+00 -0.45593999997E+02  0.45594000000E+02  0.51100000000E-03 0.  1.
    9900012    2    1    2    0    0 -0.17564507016E+02  0.12903808551E+02 -0.34324119551E+02  0.50528863698E+02  0.30000011696E+02 0.  0.
         12    1    1    2    0    0  0.17564507016E+02 -0.12903808551E+02  0.34324119551E+02  0.40659136302E+02  0.00000000000E+00 0. -1.
         11    1    3    3    0    0  0.25364815077E+01  0.10969196059E+02 -0.10688781841E+02  0.15524402021E+02  0.51100000000E-03 0. -1.
        -11    1    3    3    0    0 -0.14949530810E+02  0.44151462799E+01 -0.64089014997E+01  0.16853961161E+02  0.51100000000E-03 0.  1.
        -12    1    3    3    0    0 -0.51514577136E+01 -0.24805337874E+01 -0.17226436211E+02  0.18150500516E+02  0.00000000000E+00 0.  1.
</event>
<event>
 7    1  0.5006721E-012  0.5052880E+02  0.7816164E-02  0.1300439E+00
        -11   -1    0    0    0    0  0.00000000000E+00  0.00000000000E+00  0.45593999997E+02  0.45594000000E+02  0.51100000000E-03 0. -1.
         11   -1    0    0    0    0 -0.00000000000E+00 -0.00000000000E+00 -0.45593999997E+02  0.45594000000E+02  0.51100000000E-03 0.  1.
    9900012    2    1    2    0    0 -0.18748372673E+02  0.19527722286E+02 -0.30337062547E+02  0.50528797111E+02  0.29999809299E+02 0.  0.
         12    1    1    2    0    0  0.18748372673E+02 -0.19527722286E+02  0.30337062547E+02  0.40659202889E+02  0.00000000000E+00 0. -1.
         11    1    3    3    0    0  0.50928029495E+01  0.41818625222E+01 -0.12646104988E+02  0.14260034631E+02  0.51100000000E-03 0. -1.
        -11    1    3    3    0    0 -0.54127998902E+01  0.87543433057E+01 -0.64187465621E+00  0.10312561888E+02  0.51100000000E-03 0.  1.
         12    1    3    3    0    0 -0.18428375733E+02  0.65915164586E+01 -0.17049082902E+02  0.25956200592E+02  0.00000000000E+00 0. -1.
</event>
<event>
 7    1  0.5006721E-012  0.5052886E+02  0.7816164E-02  0.1300439E+00
        -11   -1    0    0    0    0  0.00000000000E+00  0.00000000000E+00  0.45593999997E+02  0.45594000000E+02  0.51100000000E-03 0. -1.
         11   -1    0    0    0    0 -0.00000000000E+00 -0.00000000000E+00 -0.45593999997E+02  0.45594000000E+02  0.51100000000E-03 0.  1.
    9900012    2    1    2    0    0 -0.36767820231E+01 -0.12789966112E+02 -0.38419575443E+02  0.50528859128E+02  0.29999997807E+02 0.  0.
         12    1    1    2    0    0  0.36767820231E+01  0.12789966112E+02  0.38419575443E+02  0.40659140872E+02  0.00000000000E+00 0. -1.
         11    1    3    3    0    0  0.39485545167E+01 -0.93487770335E+01 -0.11694209838E+02  0.15483709465E+02  0.51100000000E-03 0. -1.
        -11    1    3    3    0    0  0.28232467288E+00  0.74119957180E+01 -0.16744245503E+02  0.18313578173E+02  0.51100000000E-03 0.  1.
        -12    1    3    3    0    0 -0.79076612127E+01 -0.10853184796E+02 -0.99811201018E+01  0.16731571491E+02  0.00000000000E+00 0.  1.
</event>
<event>
 7    1  0.5244825E-012  0.5052882E+02  0.7816164E-02  0.1300439E+00
        -11   -1    0    0    0    0  0.00000000000E+00  0.00000000000E+00  0.45593999997E+02  0.45594000000E+02  0.51100000000E-03 0. -1.
         11   -1    0    0    0    0 -0.00000000000E+00 -0.00000000000E+00 -0.45593999997E+02  0.45594000000E+02  0.51100000000E-03 0.  1.
    9900012    2    1    2    0    0 -0.17808338759E+02 -0.19691302597E+02  0.30794228977E+02  0.50528820648E+02  0.29999880841E+02 0.  0.
        -12    1    1    2    0    0  0.17808338759E+02  0.19691302597E+02 -0.30794228977E+02  0.40659179352E+02  0.00000000000E+00 0.  1.
         11    1    3    3    0    0 -0.22129779220E+02 -0.14731402718E+02  0.24333492336E+02  0.36039703160E+02  0.51100000000E-03 0. -1.
        -11    1    3    3    0    0  0.52766433598E+01 -0.81079075853E+01  0.50029843223E+01  0.10890866951E+02  0.51100000000E-03 0.  1.
         12    1    3    3    0    0 -0.95520289911E+00  0.31480077066E+01  0.14577523190E+01  0.35982505364E+01  0.00000000000E+00 0. -1.
</event>
<event>
 7    1  0.5006721E-012  0.5052885E+02  0.7816164E-02  0.1300439E+00
        -11   -1    0    0    0    0  0.00000000000E+00  0.00000000000E+00  0.45593999997E+02  0.45594000000E+02  0.51100000000E-03 0. -1.
         11   -1    0    0    0    0 -0.00000000000E+00 -0.00000000000E+00 -0.45593999997E+02  0.45594000000E+02  0.51100000000E-03 0.  1.
    9900012    2    1    2    0    0  0.10291691456E+01 -0.28766882224E+02 -0.28715387137E+02  0.50528853914E+02  0.29999981957E+02 0.  0.
         12    1    1    2    0    0 -0.10291691456E+01  0.28766882224E+02  0.28715387137E+02  0.40659146086E+02  0.00000000000E+00 0. -1.
         11    1    3    3    0    0 -0.15191381159E+00 -0.59477501212E+01  0.56025287851E+01  0.81723398338E+01  0.51100000000E-03 0. -1.
        -11    1    3    3    0    0  0.54120588310E+01 -0.10887863171E+02 -0.17366454625E+02  0.21199756879E+02  0.51100000000E-03 0.  1.
         12    1    3    3    0    0 -0.42309758738E+01 -0.11931268931E+02 -0.16951461297E+02  0.21156757201E+02  0.00000000000E+00 0. -1.
</event>
<event>
 7    1  0.5006721E-012  0.5052886E+02  0.7816164E-02  0.1300439E+00
        -11   -1    0    0    0    0  0.00000000000E+00  0.00000000000E+00  0.45593999997E+02  0.45594000000E+02  0.51100000000E-03 0. -1.
         11   -1    0    0    0    0 -0.00000000000E+00 -0.00000000000E+00 -0.45593999997E+02  0.45594000000E+02  0.51100000000E-03 0.  1.
    9900012    2    1    2    0    0 -0.36137112070E+02  0.57109400075E+01  0.17738659884E+02  0.50528858850E+02  0.29999996962E+02 0.  0.
        -12    1    1    2    0    0  0.36137112070E+02 -0.57109400075E+01 -0.17738659884E+02  0.40659141150E+02  0.00000000000E+00 0.  1.
         11    1    3    3    0    0 -0.12382679084E+02  0.10542505050E+02 -0.10394706410E+01  0.16295878420E+02  0.51100000000E-03 0. -1.
        -11    1    3    3    0    0 -0.14933294044E+02 -0.68626857275E+01  0.40187874704E+01  0.16918935528E+02  0.51100000000E-03 0.  1.
         12    1    3    3    0    0 -0.88211389426E+01  0.20311206848E+01  0.14759343054E+02  0.17314044902E+02  0.00000000000E+00 0. -1.
</event>
<event>
 7    1  0.5006721E-012  0.5052884E+02  0.7816164E-02  0.1300439E+00
        -11   -1    0    0    0    0  0.00000000000E+00  0.00000000000E+00  0.45593999997E+02  0.45594000000E+02  0.51100000000E-03 0. -1.
         11   -1    0    0    0    0 -0.00000000000E+00 -0.00000000000E+00 -0.45593999997E+02  0.45594000000E+02  0.51100000000E-03 0.  1.
    9900012    2    1    2    0    0  0.70413681655E+01 -0.12359662922E+02 -0.38089693890E+02  0.50528844650E+02  0.29999953797E+02 0.  0.
         12    1    1    2    0    0 -0.70413681655E+01  0.12359662922E+02  0.38089693890E+02  0.40659155350E+02  0.00000000000E+00 0. -1.
         11    1    3    3    0    0 -0.92770856907E+01 -0.10265486051E+02 -0.24188785745E+02  0.27866501016E+02  0.51100000000E-03 0. -1.
        -11    1    3    3    0    0  0.13821344767E+02  0.88959099855E+00 -0.12030036942E+02  0.18345101046E+02  0.51100000000E-03 0.  1.
         12    1    3    3    0    0  0.24971090896E+01 -0.29837678698E+01 -0.18708712019E+01  0.43172425876E+01  0.00000000000E+00 0. -1.
</event>
<event>
 7    1  0.5006721E-012  0.5052887E+02  0.7816164E-02  0.1300439E+00
        -11   -1    0    0    0    0  0.00000000000E+00  0.00000000000E+00  0.45593999997E+02  0.45594000000E+02  0.51100000000E-03 0. -1.
         11   -1    0    0    0    0 -0.00000000000E+00 -0.00000000000E+00 -0.45593999997E+02  0.45594000000E+02  0.51100000000E-03 0.  1.
    9900012    2    1    2    0    0 -0.48386062887E+01  0.12778085469E+02 -0.38294564439E+02  0.50528865175E+02  0.30000016187E+02 0.  0.
         12    1    1    2    0    0  0.48386062887E+01 -0.12778085469E+02  0.38294564439E+02  0.40659134825E+02  0.00000000000E+00 0. -1.
         11    1    3    3    0    0  0.22402267387E+01 -0.69689895018E+01 -0.54640966178E+01  0.91346473729E+01  0.51100000000E-03 0. -1.
        -11    1    3    3    0    0 -0.77010952757E+01  0.89382802804E+01 -0.78574299540E+01  0.14175292892E+02  0.51100000000E-03 0.  1.
         12    1    3    3    0    0  0.62226224834E+00  0.10808794691E+02 -0.24973037868E+02  0.27218924911E+02  0.00000000000E+00 0. -1.
</event>
<event>
 7    1  0.5006721E-012  0.5052886E+02  0.7816164E-02  0.1300439E+00
        -11   -1    0    0    0    0  0.00000000000E+00  0.00000000000E+00  0.45593999997E+02  0.45594000000E+02  0.51100000000E-03 0. -1.
         11   -1    0    0    0    0 -0.00000000000E+00 -0.00000000000E+00 -0.45593999997E+02  0.45594000000E+02  0.51100000000E-03 0.  1.
    9900012    2    1    2    0    0 -0.32360206957E+02  0.24524067384E+02 -0.21337130358E+01  0.50528860724E+02  0.30000002657E+02 0.  0.
         12    1    1    2    0    0  0.32360206957E+02 -0.24524067384E+02  0.21337130358E+01  0.40659139276E+02  0.00000000000E+00 0. -1.
         11    1    3    3    0    0 -0.19741380331E+02 -0.25425633279E+00  0.42777458122E+01  0.20201134947E+02  0.51100000000E-03 0. -1.
        -11    1    3    3    0    0 -0.85134006571E+01  0.23713572442E+02 -0.67170691777E+01  0.26075477509E+02  0.51100000000E-03 0.  1.
        -12    1    3    3    0    0 -0.41054259689E+01  0.10647512743E+01  0.30561032976E+00  0.42522482684E+01  0.00000000000E+00 0.  1.
</event>
<event>
 7    1  0.5006721E-012  0.5052886E+02  0.7816164E-02  0.1300439E+00
        -11   -1    0    0    0    0  0.00000000000E+00  0.00000000000E+00  0.45593999997E+02  0.45594000000E+02  0.51100000000E-03 0. -1.
         11   -1    0    0    0    0 -0.00000000000E+00 -0.00000000000E+00 -0.45593999997E+02  0.45594000000E+02  0.51100000000E-03 0.  1.
    9900012    2    1    2    0    0  0.14084789533E+02 -0.35676426933E+02 -0.13489869812E+02  0.50528864219E+02  0.30000013281E+02 0.  0.
         12    1    1    2    0    0 -0.14084789533E+02  0.35676426933E+02  0.13489869812E+02  0.40659135781E+02  0.00000000000E+00 0. -1.
         11    1    3    3    0    0  0.14103023956E+02 -0.84236355903E+01  0.24941199819E+01  0.16615461354E+02  0.51100000000E-03 0.  1.
        -11    1    3    3    0    0 -0.51634845250E+01 -0.84712704820E+01 -0.84552677792E+01  0.13035165879E+02  0.51100000000E-03 0. -1.
         12    1    3    3    0    0  0.51452501019E+01 -0.18781520861E+02 -0.75287220151E+01  0.20878236986E+02  0.00000000000E+00 0. -1.
</event>
<event>
 7    1  0.6292787E-012  0.5052887E+02  0.7816164E-02  0.1300439E+00
        -11   -1    0    0    0    0  0.00000000000E+00  0.00000000000E+00  0.45593999997E+02  0.45594000000E+02  0.51100000000E-03 0. -1.
         11   -1    0    0    0    0 -0.00000000000E+00 -0.00000000000E+00 -0.45593999997E+02  0.45594000000E+02  0.51100000000E-03 0.  1.
    9900012    2    1    2    0    0 -0.18739526465E+02 -0.15915036319E+02  0.32383746144E+02  0.50528865141E+02  0.30000016082E+02 0.  0.
        -12    1    1    2    0    0  0.18739526465E+02  0.15915036319E+02 -0.32383746144E+02  0.40659134859E+02  0.00000000000E+00 0.  1.
         11    1    3    3    0    0 -0.17760961593E+01 -0.13532525212E+02  0.23089604343E+02  0.26821886308E+02  0.51100000000E-03 0. -1.
        -11    1    3    3    0    0 -0.11730914921E+02 -0.73742610986E+01  0.31314529937E+01  0.14205635844E+02  0.51100000000E-03 0.  1.
         12    1    3    3    0    0 -0.52325153849E+01  0.49917499917E+01  0.61626888078E+01  0.95013429879E+01  0.00000000000E+00 0. -1.
</event>
<event>
 7    1  0.5006721E-012  0.5052885E+02  0.7816164E-02  0.1300439E+00
        -11   -1    0    0    0    0  0.00000000000E+00  0.00000000000E+00  0.45593999997E+02  0.45594000000E+02  0.51100000000E-03 0.  1.
         11   -1    0    0    0    0 -0.00000000000E+00 -0.00000000000E+00 -0.45593999997E+02  0.45594000000E+02  0.51100000000E-03 0. -1.
    9900012    2    1    2    0    0  0.22787554386E+02 -0.33578880471E+02 -0.25203691330E+01  0.50528854545E+02  0.29999983875E+02 0.  0.
         12    1    1    2    0    0 -0.22787554386E+02  0.33578880471E+02  0.25203691330E+01  0.40659145455E+02  0.00000000000E+00 0. -1.
         11    1    3    3    0    0  0.22586699258E+01 -0.53339367751E+01 -0.57829545942E+01  0.81850495084E+01  0.51100000000E-03 0. -1.
        -11    1    3    3    0    0  0.21667560699E+02 -0.10024784260E+02  0.32019026692E+01  0.24087998403E+02  0.51100000000E-03 0.  1.
        -12    1    3    3    0    0 -0.11386762393E+01 -0.18220159435E+02  0.60682792118E-01  0.18255806633E+02  0.00000000000E+00 0.  1.
</event>
<event>
 7    1  0.5006721E-012  0.5052888E+02  0.7816164E-02  0.1300439E+00
        -11   -1    0    0    0    0  0.00000000000E+00  0.00000000000E+00  0.45593999997E+02  0.45594000000E+02  0.51100000000E-03 0. -1.
         11   -1    0    0    0    0 -0.00000000000E+00 -0.00000000000E+00 -0.45593999997E+02  0.45594000000E+02  0.51100000000E-03 0.  1.
    9900012    2    1    2    0    0 -0.37389740210E+02 -0.14230478727E+01 -0.15910563439E+02  0.50528883345E+02  0.30000071416E+02 0.  0.
         12    1    1    2    0    0  0.37389740210E+02  0.14230478727E+01  0.15910563439E+02  0.40659116655E+02  0.00000000000E+00 0. -1.
         11    1    3    3    0    0 -0.19250932268E+02 -0.75054480008E+00 -0.60700658050E+01  0.20199193297E+02  0.51100000000E-03 0. -1.
        -11    1    3    3    0    0 -0.59723979984E+01 -0.79544469197E+01  0.38061006726E+01  0.10650312964E+02  0.51100000000E-03 0.  1.
        -12    1    3    3    0    0 -0.12166409943E+02  0.72819438471E+01 -0.13646598306E+02  0.19679377084E+02  0.00000000000E+00 0.  1.
</event>
<event>
 7    1  0.5006721E-012  0.5052886E+02  0.7816164E-02  0.1300439E+00
        -11   -1    0    0    0    0  0.00000000000E+00  0.00000000000E+00  0.45593999997E+02  0.45594000000E+02  0.51100000000E-03 0. -1.
         11   -1    0    0    0    0 -0.00000000000E+00 -0.00000000000E+00 -0.45593999997E+02  0.45594000000E+02  0.51100000000E-03 0.  1.
    9900012    2    1    2    0    0 -0.23892381448E+01  0.32846180321E+02  0.23845029141E+02  0.50528862831E+02  0.30000009061E+02 0.  0.
        -12    1    1    2    0    0  0.23892381448E+01 -0.32846180321E+02 -0.23845029141E+02  0.40659137169E+02  0.00000000000E+00 0.  1.
         11    1    3    3    0    0 -0.52437958098E+01  0.21381437166E+02  0.14070388022E+02  0.26127362461E+02  0.51100000000E-03 0. -1.
        -11    1    3    3    0    0  0.29025458684E+01 -0.35488160657E+01 -0.23051789103E+01  0.51315414893E+01  0.51100000000E-03 0.  1.
         12    1    3    3    0    0 -0.47988203360E-01  0.15013559221E+02  0.12079820029E+02  0.19269958881E+02  0.00000000000E+00 0. -1.
</event>
<event>
 7    1  0.5006721E-012  0.5052887E+02  0.7816164E-02  0.1300439E+00
        -11   -1    0    0    0    0  0.00000000000E+00  0.00000000000E+00  0.45593999997E+02  0.45594000000E+02  0.51100000000E-03 0. -1.
         11   -1    0    0    0    0 -0.00000000000E+00 -0.00000000000E+00 -0.45593999997E+02  0.45594000000E+02  0.51100000000E-03 0.  1.
    9900012    2    1    2    0    0 -0.25967169776E+02 -0.82237841665E+01 -0.30186759865E+02  0.50528868143E+02  0.30000025208E+02 0.  0.
         12    1    1    2    0    0  0.25967169776E+02  0.82237841665E+01  0.30186759865E+02  0.40659131857E+02  0.00000000000E+00 0. -1.
         11    1    3    3    0    0  0.49136340348E+01 -0.64940749302E+01 -0.66059112472E+01  0.10485936882E+02  0.51100000000E-03 0. -1.
        -11    1    3    3    0    0 -0.95691745266E+01  0.34914685690E+01 -0.97832842114E+01  0.14123459354E+02  0.51100000000E-03 0.  1.
         12    1    3    3    0    0 -0.21311629284E+02 -0.52211778054E+01 -0.13797564407E+02  0.25919471908E+02  0.00000000000E+00 0. -1.
</event>
<event>
 7    1  0.5006721E-012  0.5052886E+02  0.7816164E-02  0.1300439E+00
        -11   -1    0    0    0    0  0.00000000000E+00  0.00000000000E+00  0.45593999997E+02  0.45594000000E+02  0.51100000000E-03 0. -1.
         11   -1    0    0    0    0 -0.00000000000E+00 -0.00000000000E+00 -0.45593999997E+02  0.45594000000E+02  0.51100000000E-03 0.  1.
    9900012    2    1    2    0    0 -0.16555323438E+02  0.22509603040E+01  0.37067779343E+02  0.50528858078E+02  0.29999994614E+02 0.  0.
        -12    1    1    2    0    0  0.16555323438E+02 -0.22509603040E+01 -0.37067779343E+02  0.40659141922E+02  0.00000000000E+00 0.  1.
         11    1    3    3    0    0 -0.52698859772E+01 -0.45292116580E+01  0.25610199649E+02  0.26536159911E+02  0.51100000000E-03 0. -1.
        -11    1    3    3    0    0 -0.97509658889E+01  0.18861177128E+01 -0.15116724759E+01  0.10046090271E+02  0.51100000000E-03 0.  1.
        -12    1    3    3    0    0 -0.15344715720E+01  0.48940542492E+01  0.12969252169E+02  0.13946607897E+02  0.00000000000E+00 0.  1.
</event>
<event>
 7    1  0.5006721E-012  0.5052886E+02  0.7816164E-02  0.1300439E+00
        -11   -1    0    0    0    0  0.00000000000E+00  0.00000000000E+00  0.45593999997E+02  0.45594000000E+02  0.51100000000E-03 0. -1.
         11   -1    0    0    0    0 -0.00000000000E+00 -0.00000000000E+00 -0.45593999997E+02  0.45594000000E+02  0.51100000000E-03 0.  1.
    9900012    2    1    2    0    0  0.28979031792E+02 -0.17285833362E+01 -0.28467408189E+02  0.50528860647E+02  0.30000002422E+02 0.  0.
         12    1    1    2    0    0 -0.28979031792E+02  0.17285833362E+01  0.28467408189E+02  0.40659139353E+02  0.00000000000E+00 0. -1.
         11    1    3    3    0    0 -0.31671712785E+01 -0.26565308086E+01 -0.25333843647E+01  0.48483158359E+01  0.51100000000E-03 0. -1.
        -11    1    3    3    0    0  0.30240499175E+02 -0.70968236987E+00 -0.13727344402E+02  0.33217938287E+02  0.51100000000E-03 0.  1.
         12    1    3    3    0    0  0.19057038948E+01  0.16376298423E+01 -0.12206679423E+02  0.12462606524E+02  0.00000000000E+00 0. -1.
</event>
<event>
 7    1  0.5006721E-012  0.5052886E+02  0.7816164E-02  0.1300439E+00
        -11   -1    0    0    0    0  0.00000000000E+00  0.00000000000E+00  0.45593999997E+02  0.45594000000E+02  0.51100000000E-03 0. -1.
         11   -1    0    0    0    0 -0.00000000000E+00 -0.00000000000E+00 -0.45593999997E+02  0.45594000000E+02  0.51100000000E-03 0.  1.
    9900012    2    1    2    0    0 -0.74275315225E+01 -0.34159246669E+02 -0.20763996621E+02  0.50528856954E+02  0.29999991198E+02 0.  0.
         12    1    1    2    0    0  0.74275315225E+01  0.34159246669E+02  0.20763996621E+02  0.40659143046E+02  0.00000000000E+00 0. -1.
         11    1    3    3    0    0 -0.82518038044E+01 -0.41181736460E+01 -0.93206741226E+01  0.13112077889E+02  0.51100000000E-03 0. -1.
        -11    1    3    3    0    0  0.33662973522E+01 -0.30266660308E+02 -0.14250810861E+02  0.33622734787E+02  0.51100000000E-03 0.  1.
        -12    1    3    3    0    0 -0.25420250703E+01  0.22558728485E+00  0.28074883628E+01  0.37940442787E+01  0.00000000000E+00 0.  1.
</event>
<event>
 7    1  0.5006721E-012  0.5052885E+02  0.7816164E-02  0.1300439E+00
        -11   -1    0    0    0    0  0.00000000000E+00  0.00000000000E+00  0.45593999997E+02  0.45594000000E+02  0.51100000000E-03 0. -1.
         11   -1    0    0    0    0 -0.00000000000E+00 -0.00000000000E+00 -0.45593999997E+02  0.45594000000E+02  0.51100000000E-03 0.  1.
    9900012    2    1    2    0    0  0.25845446719E+01  0.33187490378E+02 -0.23346877439E+02  0.50528854966E+02  0.29999985155E+02 0.  0.
         12    1    1    2    0    0 -0.25845446719E+01 -0.33187490378E+02  0.23346877439E+02  0.40659145034E+02  0.00000000000E+00 0. -1.
         11    1    3    3    0    0  0.32397027326E+01  0.28986906244E+02 -0.31674653761E+01  0.29338869177E+02  0.51100000000E-03 0. -1.
        -11    1    3    3    0    0  0.78628418021E+00  0.47539970076E+01 -0.13492162766E+02  0.14326799598E+02  0.51100000000E-03 0.  1.
         12    1    3    3    0    0 -0.14414422409E+01 -0.55341287357E+00 -0.66872492971E+01  0.68631861918E+01  0.00000000000E+00 0. -1.
</event>
<event>
 7    1  0.5473635E-012  0.5052884E+02  0.7816164E-02  0.1300439E+00
        -11   -1    0    0    0    0  0.00000000000E+00  0.00000000000E+00  0.45593999997E+02  0.45594000000E+02  0.51100000000E-03 0. -1.
         11   -1    0    0    0    0 -0.00000000000E+00 -0.00000000000E+00 -0.45593999997E+02  0.45594000000E+02  0.51100000000E-03 0.  1.
    9900012    2    1    2    0    0 -0.75699793739E+01 -0.75775341296E+00  0.39941066591E+02  0.50528836477E+02  0.29999928955E+02 0.  0.
        -12    1    1    2    0    0  0.75699793739E+01  0.75775341296E+00 -0.39941066591E+02  0.40659163523E+02  0.00000000000E+00 0.  1.
         11    1    3    3    0    0  0.16385019668E+01  0.12158563063E+02  0.25399856078E+02  0.28207588225E+02  0.51100000000E-03 0. -1.
        -11    1    3    3    0    0 -0.65934811241E+00 -0.48537064498E+01  0.25124528944E+01  0.55050545902E+01  0.51100000000E-03 0.  1.
         12    1    3    3    0    0 -0.85491332283E+01 -0.80626100265E+01  0.12028757619E+02  0.16816193661E+02  0.00000000000E+00 0. -1.
</event>
<event>
 7    1  0.5006721E-012  0.5052889E+02  0.7816164E-02  0.1300439E+00
        -11   -1    0    0    0    0  0.00000000000E+00  0.00000000000E+00  0.45593999997E+02  0.45594000000E+02  0.51100000000E-03 0.  1.
         11   -1    0    0    0    0 -0.00000000000E+00 -0.00000000000E+00 -0.45593999997E+02  0.45594000000E+02  0.51100000000E-03 0. -1.
    9900012    2    1    2    0    0  0.40516340624E+02 -0.33855408480E+01 -0.35737478984E+00  0.50528887108E+02  0.30000082854E+02 0.  0.
        -12    1    1    2    0    0 -0.40516340624E+02  0.33855408480E+01  0.35737478984E+00  0.40659112892E+02  0.00000000000E+00 0.  1.
         11    1    3    3    0    0 -0.19457606243E+00 -0.12925049063E+01  0.81661310613E+01  0.82700740957E+01  0.51100000000E-03 0. -1.
        -11    1    3    3    0    0  0.13194013238E+02  0.23163837790E+01 -0.12294352830E+01  0.13452105059E+02  0.51100000000E-03 0.  1.
         12    1    3    3    0    0  0.27516903448E+02 -0.44094197208E+01 -0.72940705681E+01  0.28806707953E+02  0.00000000000E+00 0. -1.
</event>
<event>
 7    1  0.5006721E-012  0.5052886E+02  0.7816164E-02  0.1300439E+00
        -11   -1    0    0    0    0  0.00000000000E+00  0.00000000000E+00  0.45593999997E+02  0.45594000000E+02  0.51100000000E-03 0. -1.
         11   -1    0    0    0    0 -0.00000000000E+00 -0.00000000000E+00 -0.45593999997E+02  0.45594000000E+02  0.51100000000E-03 0.  1.
    9900012    2    1    2    0    0 -0.32628764359E+02 -0.22970017796E+02 -0.78043544250E+01  0.50528856758E+02  0.29999990603E+02 0.  0.
         12    1    1    2    0    0  0.32628764359E+02  0.22970017796E+02  0.78043544250E+01  0.40659143242E+02  0.00000000000E+00 0. -1.
         11    1    3    3    0    0  0.47959322850E+01 -0.21600893494E+01  0.25487365303E+01  0.58449132279E+01  0.51100000000E-03 0. -1.
        -11    1    3    3    0    0 -0.86081800859E+01 -0.50892762651E+01 -0.57546592246E+01  0.11537660090E+02  0.51100000000E-03 0.  1.
         12    1    3    3    0    0 -0.28816516558E+02 -0.15720652181E+02 -0.45984317307E+01  0.33146283441E+02  0.00000000000E+00 0. -1.
</event>
<event>
 7    1  0.5006721E-012  0.5052887E+02  0.7816164E-02  0.1300439E+00
        -11   -1    0    0    0    0  0.00000000000E+00  0.00000000000E+00  0.45593999997E+02  0.45594000000E+02  0.51100000000E-03 0. -1.
         11   -1    0    0    0    0 -0.00000000000E+00 -0.00000000000E+00 -0.45593999997E+02  0.45594000000E+02  0.51100000000E-03 0.  1.
    9900012    2    1    2    0    0 -0.36701425025E+02 -0.49576346931E+00 -0.17490707957E+02  0.50528865170E+02  0.30000016170E+02 0.  0.
         12    1    1    2    0    0  0.36701425025E+02  0.49576346931E+00  0.17490707957E+02  0.40659134830E+02  0.00000000000E+00 0. -1.
         11    1    3    3    0    0 -0.95488481068E+01 -0.11118057389E+02  0.62120772716E+00  0.14668933143E+02  0.51100000000E-03 0. -1.
        -11    1    3    3    0    0 -0.23335697187E+02  0.11043087025E+02 -0.18828865563E+02  0.31953571207E+02  0.51100000000E-03 0.  1.
        -12    1    3    3    0    0 -0.38168797313E+01 -0.42079310530E+00  0.71694987844E+00  0.39063608191E+01  0.00000000000E+00 0.  1.
</event>
<event>
 7    1  0.5006721E-012  0.5052886E+02  0.7816164E-02  0.1300439E+00
        -11   -1    0    0    0    0  0.00000000000E+00  0.00000000000E+00  0.45593999997E+02  0.45594000000E+02  0.51100000000E-03 0. -1.
         11   -1    0    0    0    0 -0.00000000000E+00 -0.00000000000E+00 -0.45593999997E+02  0.45594000000E+02  0.51100000000E-03 0.  1.
    9900012    2    1    2    0    0 -0.12246092969E+02  0.63191030375E+01 -0.38252682577E+02  0.50528861045E+02  0.30000003634E+02 0.  0.
         12    1    1    2    0    0  0.12246092969E+02 -0.63191030375E+01  0.38252682577E+02  0.40659138955E+02  0.00000000000E+00 0. -1.
         11    1    3    3    0    0  0.18373849548E+01 -0.92191857919E+01 -0.14326413748E+02  0.17135212321E+02  0.51100000000E-03 0. -1.
        -11    1    3    3    0    0 -0.97589996999E+01  0.11119035066E+02 -0.22691752141E+02  0.27088496294E+02  0.51100000000E-03 0.  1.
         12    1    3    3    0    0 -0.43244782234E+01  0.44192537629E+01 -0.12345166878E+01  0.63051524310E+01  0.00000000000E+00 0. -1.
</event>
<event>
 7    1  0.5006721E-012  0.5052886E+02  0.7816164E-02  0.1300439E+00
        -11   -1    0    0    0    0  0.00000000000E+00  0.00000000000E+00  0.45593999997E+02  0.45594000000E+02  0.51100000000E-03 0. -1.
         11   -1    0    0    0    0 -0.00000000000E+00 -0.00000000000E+00 -0.45593999997E+02  0.45594000000E+02  0.51100000000E-03 0.  1.
    9900012    2    1    2    0    0 -0.20534087976E+02  0.31547532912E+02  0.15371069259E+02  0.50528863609E+02  0.30000011426E+02 0.  0.
        -12    1    1    2    0    0  0.20534087976E+02 -0.31547532912E+02 -0.15371069259E+02  0.40659136391E+02  0.00000000000E+00 0.  1.
         11    1    3    3    0    0  0.29634414411E+01  0.32969477491E+00  0.46533126890E+01  0.55266629228E+01  0.51100000000E-03 0. -1.
        -11    1    3    3    0    0 -0.25035503404E+02  0.20655233275E+02  0.48351344916E+01  0.32814533642E+02  0.51100000000E-03 0.  1.
         12    1    3    3    0    0  0.15379739864E+01  0.10562604863E+02  0.58826220788E+01  0.12187667045E+02  0.00000000000E+00 0. -1.
</event>
<event>
 7    1  0.5006721E-012  0.5052886E+02  0.7816164E-02  0.1300439E+00
        -11   -1    0    0    0    0  0.00000000000E+00  0.00000000000E+00  0.45593999997E+02  0.45594000000E+02  0.51100000000E-03 0.  1.
         11   -1    0    0    0    0 -0.00000000000E+00 -0.00000000000E+00 -0.45593999997E+02  0.45594000000E+02  0.51100000000E-03 0. -1.
    9900012    2    1    2    0    0 -0.20268632458E+02  0.32921312598E+02 -0.12591079238E+02  0.50528861282E+02  0.30000004353E+02 0.  0.
         12    1    1    2    0    0  0.20268632458E+02 -0.32921312598E+02  0.12591079238E+02  0.40659138718E+02  0.00000000000E+00 0. -1.
         11    1    3    3    0    0 -0.87223859860E+01  0.20711040044E+00 -0.47438275674E+01  0.99311032749E+01  0.51100000000E-03 0. -1.
        -11    1    3    3    0    0 -0.13609858380E+02  0.22258511198E+02  0.18952011845E+01  0.26158389738E+02  0.51100000000E-03 0.  1.
         12    1    3    3    0    0  0.20636119083E+01  0.10455691000E+02 -0.97424528548E+01  0.14439368270E+02  0.00000000000E+00 0. -1.
</event>
<event>
 7    1  0.5147084E-012  0.5052885E+02  0.7816164E-02  0.1300439E+00
        -11   -1    0    0    0    0  0.00000000000E+00  0.00000000000E+00  0.45593999997E+02  0.45594000000E+02  0.51100000000E-03 0. -1.
         11   -1    0    0    0    0 -0.00000000000E+00 -0.00000000000E+00 -0.45593999997E+02  0.45594000000E+02  0.51100000000E-03 0.  1.
    9900012    2    1    2    0    0 -0.27090346866E+02  0.21640584777E+02  0.21235927811E+02  0.50528850565E+02  0.29999971776E+02 0.  0.
        -12    1    1    2    0    0  0.27090346866E+02 -0.21640584777E+02 -0.21235927811E+02  0.40659149435E+02  0.00000000000E+00 0.  1.
         11    1    3    3    0    0 -0.13813368426E+02  0.18592689598E+02  0.90582584671E+01  0.24870651388E+02  0.51100000000E-03 0. -1.
        -11    1    3    3    0    0 -0.11336558943E+02 -0.53148138191E+01  0.25843511710E+01  0.12784509605E+02  0.51100000000E-03 0.  1.
         12    1    3    3    0    0 -0.19404194967E+01  0.83627089987E+01  0.95933181730E+01  0.12873689572E+02  0.00000000000E+00 0. -1.
</event>
<event>
 7    1  0.5006721E-012  0.5052884E+02  0.7816164E-02  0.1300439E+00
        -11   -1    0    0    0    0  0.00000000000E+00  0.00000000000E+00  0.45593999997E+02  0.45594000000E+02  0.51100000000E-03 0. -1.
         11   -1    0    0    0    0 -0.00000000000E+00 -0.00000000000E+00 -0.45593999997E+02  0.45594000000E+02  0.51100000000E-03 0.  1.
    9900012    2    1    2    0    0  0.13309546804E+01 -0.37172599581E+02 -0.16419306855E+02  0.50528840668E+02  0.29999941695E+02 0.  0.
         12    1    1    2    0    0 -0.13309546804E+01  0.37172599581E+02  0.16419306855E+02  0.40659159332E+02  0.00000000000E+00 0. -1.
         11    1    3    3    0    0 -0.41628560799E+01  0.11279201762E+01 -0.51007420779E+01  0.66797563334E+01  0.51100000000E-03 0. -1.
        -11    1    3    3    0    0  0.76493271869E+01 -0.37191199643E+02 -0.13781337716E+02  0.40393351022E+02  0.51100000000E-03 0.  1.
        -12    1    3    3    0    0 -0.21555164265E+01 -0.11093201148E+01  0.24627729392E+01  0.34557333132E+01  0.00000000000E+00 0.  1.
</event>
<event>
 7    1  0.5006721E-012  0.5052885E+02  0.7816164E-02  0.1300439E+00
        -11   -1    0    0    0    0  0.00000000000E+00  0.00000000000E+00  0.45593999997E+02  0.45594000000E+02  0.51100000000E-03 0. -1.
         11   -1    0    0    0    0 -0.00000000000E+00 -0.00000000000E+00 -0.45593999997E+02  0.45594000000E+02  0.51100000000E-03 0.  1.
    9900012    2    1    2    0    0  0.10496087960E+02  0.20051823673E+02 -0.33777553299E+02  0.50528848485E+02  0.29999965456E+02 0.  0.
         12    1    1    2    0    0 -0.10496087960E+02 -0.20051823673E+02  0.33777553299E+02  0.40659151515E+02  0.00000000000E+00 0. -1.
         11    1    3    3    0    0  0.57674319075E+01  0.21065481966E+02 -0.11797506079E+02  0.24823354954E+02  0.51100000000E-03 0. -1.
        -11    1    3    3    0    0 -0.16757173451E+01  0.27902624063E+01 -0.15482646677E+02  0.15821060057E+02  0.51100000000E-03 0.  1.
         12    1    3    3    0    0  0.64043733972E+01 -0.38039206994E+01 -0.64974005426E+01  0.98844334743E+01  0.00000000000E+00 0. -1.
</event>
<event>
 7    1  0.7243078E-012  0.5052886E+02  0.7816164E-02  0.1300439E+00
        -11   -1    0    0    0    0  0.00000000000E+00  0.00000000000E+00  0.45593999997E+02  0.45594000000E+02  0.51100000000E-03 0. -1.
         11   -1    0    0    0    0 -0.00000000000E+00 -0.00000000000E+00 -0.45593999997E+02  0.45594000000E+02  0.51100000000E-03 0.  1.
    9900012    2    1    2    0    0 -0.15839510786E+02 -0.15039970692E+02  0.34293953552E+02  0.50528855019E+02  0.29999985315E+02 0.  0.
        -12    1    1    2    0    0  0.15839510786E+02  0.15039970692E+02 -0.34293953552E+02  0.40659144981E+02  0.00000000000E+00 0.  1.
         11    1    3    3    0    0 -0.12656728236E+02 -0.12464022632E+02  0.62957540971E+01  0.18846250283E+02  0.51100000000E-03 0. -1.
        -11    1    3    3    0    0  0.72771073958E+00  0.56037678253E+01  0.89127751301E+01  0.10553167181E+02  0.51100000000E-03 0.  1.
         12    1    3    3    0    0 -0.39104932893E+01 -0.81797158850E+01  0.19085424325E+02  0.21129437555E+02  0.00000000000E+00 0. -1.
</event>
<event>
 7    1  0.5006721E-012  0.5052887E+02  0.7816164E-02  0.1300439E+00
        -11   -1    0    0    0    0  0.00000000000E+00  0.00000000000E+00  0.45593999997E+02  0.45594000000E+02  0.51100000000E-03 0. -1.
         11   -1    0    0    0    0 -0.00000000000E+00 -0.00000000000E+00 -0.45593999997E+02  0.45594000000E+02  0.51100000000E-03 0.  1.
    9900012    2    1    2    0    0  0.14472994568E+02  0.14458574454E+02  0.35137542208E+02  0.50528870404E+02  0.30000032081E+02 0.  0.
        -12    1    1    2    0    0 -0.14472994568E+02 -0.14458574454E+02 -0.35137542208E+02  0.40659129596E+02  0.00000000000E+00 0.  1.
         11    1    3    3    0    0 -0.21266342747E+01  0.44703259673E+01 -0.21331541336E+01  0.53904298911E+01  0.51100000000E-03 0. -1.
        -11    1    3    3    0    0  0.15132169974E+02  0.43187008833E+01  0.35791487648E+02  0.39098137216E+02  0.51100000000E-03 0.  1.
         12    1    3    3    0    0  0.14674588688E+01  0.56695476039E+01  0.14792086944E+01  0.60403032975E+01  0.00000000000E+00 0. -1.
</event>
<event>
 7    1  0.5006721E-012  0.5052883E+02  0.7816164E-02  0.1300439E+00
        -11   -1    0    0    0    0  0.00000000000E+00  0.00000000000E+00  0.45593999997E+02  0.45594000000E+02  0.51100000000E-03 0. -1.
         11   -1    0    0    0    0 -0.00000000000E+00 -0.00000000000E+00 -0.45593999997E+02  0.45594000000E+02  0.51100000000E-03 0.  1.
    9900012    2    1    2    0    0 -0.39814455371E+01 -0.10006853825E+02  0.39206871982E+02  0.50528833228E+02  0.29999919078E+02 0.  0.
        -12    1    1    2    0    0  0.39814455371E+01  0.10006853825E+02 -0.39206871982E+02  0.40659166772E+02  0.00000000000E+00 0.  1.
         11    1    3    3    0    0  0.13034407444E+01 -0.99713215537E+01  0.24867180482E+02  0.26823550784E+02  0.51100000000E-03 0. -1.
        -11    1    3    3    0    0 -0.99197434612E+01 -0.28097375556E+01  0.23782789763E+01  0.10580744143E+02  0.51100000000E-03 0.  1.
        -12    1    3    3    0    0  0.46348571797E+01  0.27742052844E+01  0.11961412524E+02  0.13124538300E+02  0.00000000000E+00 0.  1.
</event>
<event>
 7    1  0.5006721E-012  0.5052886E+02  0.7816164E-02  0.1300439E+00
        -11   -1    0    0    0    0  0.00000000000E+00  0.00000000000E+00  0.45593999997E+02  0.45594000000E+02  0.51100000000E-03 0. -1.
         11   -1    0    0    0    0 -0.00000000000E+00 -0.00000000000E+00 -0.45593999997E+02  0.45594000000E+02  0.51100000000E-03 0.  1.
    9900012    2    1    2    0    0 -0.11606528896E+02  0.38598405014E+02  0.53495374878E+01  0.50528856699E+02  0.29999990424E+02 0.  0.
         12    1    1    2    0    0  0.11606528896E+02 -0.38598405014E+02 -0.53495374878E+01  0.40659143301E+02  0.00000000000E+00 0. -1.
         11    1    3    3    0    0  0.89356620573E+01  0.14029148265E+02 -0.39545712946E+01  0.17096832801E+02  0.51100000000E-03 0. -1.
        -11    1    3    3    0    0 -0.56504209440E+01  0.78813971906E+01  0.19851229748E+01  0.98987065825E+01  0.51100000000E-03 0.  1.
         12    1    3    3    0    0 -0.14891770009E+02  0.16687859558E+02  0.73189858076E+01  0.23533317315E+02  0.00000000000E+00 0. -1.
</event>
<event>
 7    1  0.5006721E-012  0.5052886E+02  0.7816164E-02  0.1300439E+00
        -11   -1    0    0    0    0  0.00000000000E+00  0.00000000000E+00  0.45593999997E+02  0.45594000000E+02  0.51100000000E-03 0. -1.
         11   -1    0    0    0    0 -0.00000000000E+00 -0.00000000000E+00 -0.45593999997E+02  0.45594000000E+02  0.51100000000E-03 0.  1.
    9900012    2    1    2    0    0  0.19445402387E+02  0.14444047780E+02  0.32655957121E+02  0.50528859260E+02  0.29999998206E+02 0.  0.
        -12    1    1    2    0    0 -0.19445402387E+02 -0.14444047780E+02 -0.32655957121E+02  0.40659140740E+02  0.00000000000E+00 0.  1.
         11    1    3    3    0    0 -0.53493100397E+01  0.11311905817E+01  0.11008304160E+02  0.12291357564E+02  0.51100000000E-03 0.  1.
        -11    1    3    3    0    0  0.23499818636E+02  0.68873870126E+01  0.14165193639E+02  0.28290109347E+02  0.51100000000E-03 0. -1.
         12    1    3    3    0    0  0.12948937910E+01  0.64254701855E+01  0.74824593219E+01  0.99473923487E+01  0.00000000000E+00 0. -1.
</event>
<event>
 7    1  0.5006721E-012  0.5052891E+02  0.7816164E-02  0.1300439E+00
        -11   -1    0    0    0    0  0.00000000000E+00  0.00000000000E+00  0.45593999997E+02  0.45594000000E+02  0.51100000000E-03 0. -1.
         11   -1    0    0    0    0 -0.00000000000E+00 -0.00000000000E+00 -0.45593999997E+02  0.45594000000E+02  0.51100000000E-03 0.  1.
    9900012    2    1    2    0    0  0.14808083483E+02  0.33178048202E+01 -0.37721011957E+02  0.50528906204E+02  0.30000140896E+02 0.  0.
         12    1    1    2    0    0 -0.14808083483E+02 -0.33178048202E+01  0.37721011957E+02  0.40659093796E+02  0.00000000000E+00 0. -1.
         11    1    3    3    0    0  0.80992045703E+01  0.37555418819E+01  0.86535432045E+00  0.89693950665E+01  0.51100000000E-03 0. -1.
        -11    1    3    3    0    0  0.10732552161E+02 -0.23356963393E+01 -0.27036535801E+02  0.29182484843E+02  0.51100000000E-03 0.  1.
        -12    1    3    3    0    0 -0.40236732483E+01  0.18979592776E+01 -0.11549830477E+02  0.12377026294E+02  0.00000000000E+00 0.  1.
</event>
<event>
 7    1  0.5006721E-012  0.5052886E+02  0.7816164E-02  0.1300439E+00
        -11   -1    0    0    0    0  0.00000000000E+00  0.00000000000E+00  0.45593999997E+02  0.45594000000E+02  0.51100000000E-03 0.  1.
         11   -1    0    0    0    0 -0.00000000000E+00 -0.00000000000E+00 -0.45593999997E+02  0.45594000000E+02  0.51100000000E-03 0. -1.
    9900012    2    1    2    0    0 -0.93434937278E+01  0.38413716299E+02 -0.95000581174E+01  0.50528861062E+02  0.30000003684E+02 0.  0.
        -12    1    1    2    0    0  0.93434937278E+01 -0.38413716299E+02  0.95000581174E+01  0.40659138938E+02  0.00000000000E+00 0.  1.
         11    1    3    3    0    0 -0.64101429620E+00  0.12200701686E+02 -0.11997690352E+02  0.17123451609E+02  0.51100000000E-03 0. -1.
        -11    1    3    3    0    0 -0.34344598692E+01  0.13516384249E+02  0.10538747073E+02  0.17480084321E+02  0.51100000000E-03 0.  1.
        -12    1    3    3    0    0 -0.52680195623E+01  0.12696630364E+02 -0.80411148385E+01  0.15925325132E+02  0.00000000000E+00 0.  1.
</event>
<event>
 7    1  0.5006721E-012  0.5052885E+02  0.7816164E-02  0.1300439E+00
        -11   -1    0    0    0    0  0.00000000000E+00  0.00000000000E+00  0.45593999997E+02  0.45594000000E+02  0.51100000000E-03 0. -1.
         11   -1    0    0    0    0 -0.00000000000E+00 -0.00000000000E+00 -0.45593999997E+02  0.45594000000E+02  0.51100000000E-03 0.  1.
    9900012    2    1    2    0    0  0.20243965878E+02 -0.15821321890E+02 -0.31512446994E+02  0.50528847324E+02  0.29999961925E+02 0.  0.
         12    1    1    2    0    0 -0.20243965878E+02  0.15821321890E+02  0.31512446994E+02  0.40659152676E+02  0.00000000000E+00 0. -1.
         11    1    3    3    0    0  0.10788737132E+02  0.33137103705E+01 -0.32268525947E+01  0.11738402926E+02  0.51100000000E-03 0. -1.
        -11    1    3    3    0    0  0.97197546941E+01 -0.13001696745E+02 -0.28329951875E+02  0.32651246884E+02  0.51100000000E-03 0.  1.
        -12    1    3    3    0    0 -0.26452594842E+00 -0.61333355158E+01  0.44357475805E-01  0.61391975137E+01  0.00000000000E+00 0.  1.
</event>
<event>
 7    1  0.5006721E-012  0.5052887E+02  0.7816164E-02  0.1300439E+00
        -11   -1    0    0    0    0  0.00000000000E+00  0.00000000000E+00  0.45593999997E+02  0.45594000000E+02  0.51100000000E-03 0.  1.
         11   -1    0    0    0    0 -0.00000000000E+00 -0.00000000000E+00 -0.45593999997E+02  0.45594000000E+02  0.51100000000E-03 0. -1.
    9900012    2    1    2    0    0  0.33246183654E+01 -0.25094014398E+02 -0.31818274721E+02  0.50528865084E+02  0.30000015911E+02 0.  0.
         12    1    1    2    0    0 -0.33246183654E+01  0.25094014398E+02  0.31818274721E+02  0.40659134916E+02  0.00000000000E+00 0. -1.
         11    1    3    3    0    0 -0.25254126440E+01  0.11712252729E+01 -0.14374385885E+02  0.14641463298E+02  0.51100000000E-03 0. -1.
        -11    1    3    3    0    0  0.23865079890E+01 -0.27555865503E+02 -0.15637034227E+02  0.31773227468E+02  0.51100000000E-03 0.  1.
         12    1    3    3    0    0  0.34635230204E+01  0.12906258327E+01 -0.18068546084E+01  0.41141743192E+01  0.00000000000E+00 0. -1.
</event>
<event>
 7    1  0.5006721E-012  0.5052887E+02  0.7816164E-02  0.1300439E+00
        -11   -1    0    0    0    0  0.00000000000E+00  0.00000000000E+00  0.45593999997E+02  0.45594000000E+02  0.51100000000E-03 0. -1.
         11   -1    0    0    0    0 -0.00000000000E+00 -0.00000000000E+00 -0.45593999997E+02  0.45594000000E+02  0.51100000000E-03 0.  1.
    9900012    2    1    2    0    0  0.28289242730E+02 -0.22101399851E+02  0.19089576448E+02  0.50528867464E+02  0.30000023144E+02 0.  0.
        -12    1    1    2    0    0 -0.28289242730E+02  0.22101399851E+02 -0.19089576448E+02  0.40659132536E+02  0.00000000000E+00 0.  1.
         11    1    3    3    0    0  0.15961508116E+02 -0.16127725434E+01  0.13068844313E+01  0.16095922583E+02  0.51100000000E-03 0. -1.
        -11    1    3    3    0    0  0.10100555949E+02 -0.23172606058E+02  0.17848764958E+02  0.30944616863E+02  0.51100000000E-03 0.  1.
        -12    1    3    3    0    0  0.22271786642E+01  0.26839787499E+01 -0.66072940941E-01  0.34883280187E+01  0.00000000000E+00 0.  1.
</event>
<event>
 7    1  0.5006721E-012  0.5052887E+02  0.7816164E-02  0.1300439E+00
        -11   -1    0    0    0    0  0.00000000000E+00  0.00000000000E+00  0.45593999997E+02  0.45594000000E+02  0.51100000000E-03 0. -1.
         11   -1    0    0    0    0 -0.00000000000E+00 -0.00000000000E+00 -0.45593999997E+02  0.45594000000E+02  0.51100000000E-03 0.  1.
    9900012    2    1    2    0    0  0.23670785920E+02 -0.11908781499E+02  0.30838931890E+02  0.50528869378E+02  0.30000028960E+02 0.  0.
        -12    1    1    2    0    0 -0.23670785920E+02  0.11908781499E+02 -0.30838931890E+02  0.40659130622E+02  0.00000000000E+00 0.  1.
         11    1    3    3    0    0  0.16319641091E+02 -0.15487344980E+02  0.29259651149E+02  0.36909561437E+02  0.51100000000E-03 0. -1.
        -11    1    3    3    0    0  0.92883238593E+01  0.51431459207E+01 -0.96853586586E-01  0.10617640555E+02  0.51100000000E-03 0.  1.
        -12    1    3    3    0    0 -0.19371790308E+01 -0.15645824402E+01  0.16761343280E+01  0.30016673858E+01  0.00000000000E+00 0.  1.
</event>
<event>
 7    1  0.5006721E-012  0.5052888E+02  0.7816164E-02  0.1300439E+00
        -11   -1    0    0    0    0  0.00000000000E+00  0.00000000000E+00  0.45593999997E+02  0.45594000000E+02  0.51100000000E-03 0. -1.
         11   -1    0    0    0    0 -0.00000000000E+00 -0.00000000000E+00 -0.45593999997E+02  0.45594000000E+02  0.51100000000E-03 0.  1.
    9900012    2    1    2    0    0 -0.83164864939E+01  0.27685342303E+02  0.28592343728E+02  0.50528877458E+02  0.30000053520E+02 0.  0.
        -12    1    1    2    0    0  0.83164864939E+01 -0.27685342303E+02 -0.28592343728E+02  0.40659122542E+02  0.00000000000E+00 0.  1.
         11    1    3    3    0    0  0.16652011855E+01 -0.39542748728E+00 -0.41476615350E+01  0.44869092209E+01  0.51100000000E-03 0. -1.
        -11    1    3    3    0    0 -0.40460233648E+01  0.40645630850E+01  0.13611638109E+02  0.14770500005E+02  0.51100000000E-03 0.  1.
         12    1    3    3    0    0 -0.59356643147E+01  0.24016206706E+02  0.19128367154E+02  0.31271468232E+02  0.00000000000E+00 0. -1.
</event>
<event>
 7    1  0.5006721E-012  0.5052886E+02  0.7816164E-02  0.1300439E+00
        -11   -1    0    0    0    0  0.00000000000E+00  0.00000000000E+00  0.45593999997E+02  0.45594000000E+02  0.51100000000E-03 0. -1.
         11   -1    0    0    0    0 -0.00000000000E+00 -0.00000000000E+00 -0.45593999997E+02  0.45594000000E+02  0.51100000000E-03 0.  1.
    9900012    2    1    2    0    0  0.32228329758E+02  0.18378421882E+01  0.24720901087E+02  0.50528857689E+02  0.29999993433E+02 0.  0.
        -12    1    1    2    0    0 -0.32228329758E+02 -0.18378421882E+01 -0.24720901087E+02  0.40659142311E+02  0.00000000000E+00 0.  1.
         11    1    3    3    0    0  0.15557945534E+02 -0.12628817034E+02  0.14262247223E+02  0.24595698507E+02  0.51100000000E-03 0. -1.
        -11    1    3    3    0    0  0.15806368097E+02  0.15512499210E+02  0.89034762346E+01  0.23869453146E+02  0.51100000000E-03 0.  1.
        -12    1    3    3    0    0  0.86401612674E+00 -0.10458399876E+01  0.15551776295E+01  0.20637060368E+01  0.00000000000E+00 0.  1.
</event>
<event>
 7    1  0.5006721E-012  0.5052899E+02  0.7816164E-02  0.1300438E+00
        -11   -1    0    0    0    0  0.00000000000E+00  0.00000000000E+00  0.45593999997E+02  0.45594000000E+02  0.51100000000E-03 0. -1.
         11   -1    0    0    0    0 -0.00000000000E+00 -0.00000000000E+00 -0.45593999997E+02  0.45594000000E+02  0.51100000000E-03 0.  1.
    9900012    2    1    2    0    0  0.31177508927E+02 -0.14269135520E+01  0.26059196113E+02  0.50528993037E+02  0.30000404831E+02 0.  0.
        -12    1    1    2    0    0 -0.31177508927E+02  0.14269135520E+01 -0.26059196113E+02  0.40659006963E+02  0.00000000000E+00 0.  1.
         11    1    3    3    0    0  0.17791477203E+02  0.24344629902E+01  0.24953370235E+02  0.30743031039E+02  0.51100000000E-03 0. -1.
        -11    1    3    3    0    0  0.31495572730E+01 -0.22503796054E+00 -0.60174583316E+01  0.67955984382E+01  0.51100000000E-03 0.  1.
        -12    1    3    3    0    0  0.10236474452E+02 -0.36363385816E+01  0.71232842092E+01  0.12990363559E+02  0.00000000000E+00 0.  1.
</event>
<event>
 7    1  0.5006721E-012  0.5052886E+02  0.7816164E-02  0.1300439E+00
        -11   -1    0    0    0    0  0.00000000000E+00  0.00000000000E+00  0.45593999997E+02  0.45594000000E+02  0.51100000000E-03 0. -1.
         11   -1    0    0    0    0 -0.00000000000E+00 -0.00000000000E+00 -0.45593999997E+02  0.45594000000E+02  0.51100000000E-03 0.  1.
    9900012    2    1    2    0    0  0.27818821967E+02  0.42206672304E+01 -0.29350721845E+02  0.50528858834E+02  0.29999996912E+02 0.  0.
         12    1    1    2    0    0 -0.27818821967E+02 -0.42206672304E+01  0.29350721845E+02  0.40659141166E+02  0.00000000000E+00 0. -1.
         11    1    3    3    0    0  0.61222106912E+01  0.10195885337E+02 -0.19888179207E+02  0.23172768803E+02  0.51100000000E-03 0.  1.
        -11    1    3    3    0    0  0.21228299711E+02 -0.16401305056E+01 -0.82079403120E+01  0.22818874230E+02  0.51100000000E-03 0. -1.
        -12    1    3    3    0    0  0.46831156521E+00 -0.43350876015E+01 -0.12546023267E+01  0.45372158019E+01  0.00000000000E+00 0.  1.
</event>
<event>
 7    1  0.5006721E-012  0.5052885E+02  0.7816164E-02  0.1300439E+00
        -11   -1    0    0    0    0  0.00000000000E+00  0.00000000000E+00  0.45593999997E+02  0.45594000000E+02  0.51100000000E-03 0. -1.
         11   -1    0    0    0    0 -0.00000000000E+00 -0.00000000000E+00 -0.45593999997E+02  0.45594000000E+02  0.51100000000E-03 0.  1.
    9900012    2    1    2    0    0  0.29954214616E+02 -0.25121465827E+02  0.11172424308E+02  0.50528854861E+02  0.29999984834E+02 0.  0.
        -12    1    1    2    0    0 -0.29954214616E+02  0.25121465827E+02 -0.11172424308E+02  0.40659145139E+02  0.00000000000E+00 0.  1.
         11    1    3    3    0    0 -0.25342181698E+01  0.36278476663E+01 -0.58183933554E+00  0.44634154742E+01  0.51100000000E-03 0. -1.
        -11    1    3    3    0    0  0.10935783616E+02 -0.41076734542E+01  0.46047524515E+01  0.12556595474E+02  0.51100000000E-03 0.  1.
         12    1    3    3    0    0  0.21552649169E+02 -0.24641640039E+02  0.71495111921E+01  0.33508843912E+02  0.00000000000E+00 0. -1.
</event>
<event>
 7    1  0.5006721E-012  0.5052881E+02  0.7816164E-02  0.1300439E+00
        -11   -1    0    0    0    0  0.00000000000E+00  0.00000000000E+00  0.45593999997E+02  0.45594000000E+02  0.51100000000E-03 0. -1.
         11   -1    0    0    0    0 -0.00000000000E+00 -0.00000000000E+00 -0.45593999997E+02  0.45594000000E+02  0.51100000000E-03 0.  1.
    9900012    2    1    2    0    0 -0.28793327075E+02 -0.24043646930E+02 -0.15684927275E+02  0.50528811797E+02  0.29999853937E+02 0.  0.
         12    1    1    2    0    0  0.28793327075E+02  0.24043646930E+02  0.15684927275E+02  0.40659188203E+02  0.00000000000E+00 0. -1.
         11    1    3    3    0    0 -0.82154928800E+01 -0.17338822629E+02  0.21101441207E+01  0.19302378141E+02  0.51100000000E-03 0. -1.
        -11    1    3    3    0    0 -0.17425514667E+02 -0.71252239283E+01 -0.71857948046E+01  0.20150757422E+02  0.51100000000E-03 0.  1.
         12    1    3    3    0    0 -0.31523195277E+01  0.42039962740E+00 -0.10609276591E+02  0.11075676234E+02  0.00000000000E+00 0. -1.
</event>
<event>
 7    1  0.5006721E-012  0.5052885E+02  0.7816164E-02  0.1300439E+00
        -11   -1    0    0    0    0  0.00000000000E+00  0.00000000000E+00  0.45593999997E+02  0.45594000000E+02  0.51100000000E-03 0.  1.
         11   -1    0    0    0    0 -0.00000000000E+00 -0.00000000000E+00 -0.45593999997E+02  0.45594000000E+02  0.51100000000E-03 0. -1.
    9900012    2    1    2    0    0  0.26700959666E+02 -0.30253999905E+02 -0.49920316229E+01  0.50528854202E+02  0.29999982831E+02 0.  0.
        -12    1    1    2    0    0 -0.26700959666E+02  0.30253999905E+02  0.49920316229E+01  0.40659145798E+02  0.00000000000E+00 0.  1.
         11    1    3    3    0    0  0.18801859050E+02 -0.23508528388E+02 -0.13205093535E+02  0.32871496866E+02  0.51100000000E-03 0. -1.
        -11    1    3    3    0    0  0.86890822471E+01 -0.93491729963E+01  0.57958270970E+01  0.14017802895E+02  0.51100000000E-03 0.  1.
         12    1    3    3    0    0 -0.78998163141E+00  0.26037014789E+01  0.24172348154E+01  0.36395544401E+01  0.00000000000E+00 0. -1.
</event>
<event>
 7    1  0.5006721E-012  0.5052885E+02  0.7816164E-02  0.1300439E+00
        -11   -1    0    0    0    0  0.00000000000E+00  0.00000000000E+00  0.45593999997E+02  0.45594000000E+02  0.51100000000E-03 0. -1.
         11   -1    0    0    0    0 -0.00000000000E+00 -0.00000000000E+00 -0.45593999997E+02  0.45594000000E+02  0.51100000000E-03 0.  1.
    9900012    2    1    2    0    0 -0.11950083217E+02  0.84729497561E+01 -0.37928498698E+02  0.50528851215E+02  0.29999973752E+02 0.  0.
         12    1    1    2    0    0  0.11950083217E+02 -0.84729497561E+01  0.37928498698E+02  0.40659148785E+02  0.00000000000E+00 0. -1.
         11    1    3    3    0    0 -0.12734947250E+02  0.27950664804E+01 -0.23282983132E+02  0.26684987950E+02  0.51100000000E-03 0. -1.
        -11    1    3    3    0    0  0.10475329597E+01 -0.53111117177E+01  0.14574968889E+00  0.54153925262E+01  0.51100000000E-03 0.  1.
        -12    1    3    3    0    0 -0.26266892663E+00  0.10988994993E+02 -0.14791265255E+02  0.18428470739E+02  0.00000000000E+00 0.  1.
</event>
<event>
 7    1  0.5006721E-012  0.5052881E+02  0.7816164E-02  0.1300439E+00
        -11   -1    0    0    0    0  0.00000000000E+00  0.00000000000E+00  0.45593999997E+02  0.45594000000E+02  0.51100000000E-03 0.  1.
         11   -1    0    0    0    0 -0.00000000000E+00 -0.00000000000E+00 -0.45593999997E+02  0.45594000000E+02  0.51100000000E-03 0. -1.
    9900012    2    1    2    0    0 -0.28521776825E+02  0.28969655380E+02  0.66132184486E+00  0.50528806296E+02  0.29999837216E+02 0.  0.
        -12    1    1    2    0    0  0.28521776825E+02 -0.28969655380E+02 -0.66132184486E+00  0.40659193704E+02  0.00000000000E+00 0.  1.
         11    1    3    3    0    0 -0.17757809001E+02  0.31615591887E+02  0.59826913921E+01  0.36751571769E+02  0.51100000000E-03 0. -1.
        -11    1    3    3    0    0 -0.31859725434E+01  0.10740061595E+01  0.66633126180E+00  0.34275221209E+01  0.51100000000E-03 0.  1.
         12    1    3    3    0    0 -0.75779952802E+01 -0.37199426665E+01 -0.59877008090E+01  0.10349712406E+02  0.00000000000E+00 0. -1.
</event>
<event>
 7    1  0.5006721E-012  0.5052887E+02  0.7816164E-02  0.1300439E+00
        -11   -1    0    0    0    0  0.00000000000E+00  0.00000000000E+00  0.45593999997E+02  0.45594000000E+02  0.51100000000E-03 0. -1.
         11   -1    0    0    0    0 -0.00000000000E+00 -0.00000000000E+00 -0.45593999997E+02  0.45594000000E+02  0.51100000000E-03 0.  1.
    9900012    2    1    2    0    0  0.37439427512E+02  0.12372372630E+01  0.15808967966E+02  0.50528868718E+02  0.30000026955E+02 0.  0.
        -12    1    1    2    0    0 -0.37439427512E+02 -0.12372372630E+01 -0.15808967966E+02  0.40659131282E+02  0.00000000000E+00 0.  1.
         11    1    3    3    0    0  0.39999200774E+02  0.39339606422E+01  0.11018405557E+02  0.41675140914E+02  0.51100000000E-03 0. -1.
        -11    1    3    3    0    0 -0.59787813607E+00 -0.27796320504E+01 -0.77912549118E+00  0.29480246596E+01  0.51100000000E-03 0.  1.
         12    1    3    3    0    0 -0.19618951258E+01  0.82908671206E-01  0.55696878997E+01  0.59057031446E+01  0.00000000000E+00 0. -1.
</event>
<event>
 7    1  0.5006721E-012  0.5052886E+02  0.7816164E-02  0.1300439E+00
        -11   -1    0    0    0    0  0.00000000000E+00  0.00000000000E+00  0.45593999997E+02  0.45594000000E+02  0.51100000000E-03 0. -1.
         11   -1    0    0    0    0 -0.00000000000E+00 -0.00000000000E+00 -0.45593999997E+02  0.45594000000E+02  0.51100000000E-03 0.  1.
    9900012    2    1    2    0    0  0.27918421706E+02 -0.13613993511E+02  0.26237123393E+02  0.50528859161E+02  0.29999997905E+02 0.  0.
        -12    1    1    2    0    0 -0.27918421706E+02  0.13613993511E+02 -0.26237123393E+02  0.40659140839E+02  0.00000000000E+00 0.  1.
         11    1    3    3    0    0  0.13180925322E+01 -0.27876112220E+01  0.20117397824E+02  0.20352342365E+02  0.51100000000E-03 0. -1.
        -11    1    3    3    0    0  0.44120652649E+01 -0.37954522960E+01 -0.84563019115E+00  0.58810601693E+01  0.51100000000E-03 0.  1.
         12    1    3    3    0    0  0.22188263909E+02 -0.70309299933E+01  0.69653557598E+01  0.24295456627E+02  0.00000000000E+00 0. -1.
</event>
<event>
 7    1  0.5006721E-012  0.5052886E+02  0.7816164E-02  0.1300439E+00
        -11   -1    0    0    0    0  0.00000000000E+00  0.00000000000E+00  0.45593999997E+02  0.45594000000E+02  0.51100000000E-03 0. -1.
         11   -1    0    0    0    0 -0.00000000000E+00 -0.00000000000E+00 -0.45593999997E+02  0.45594000000E+02  0.51100000000E-03 0.  1.
    9900012    2    1    2    0    0 -0.33880393114E+02  0.17805364687E+02  0.13720551428E+02  0.50528861044E+02  0.30000003629E+02 0.  0.
        -12    1    1    2    0    0  0.33880393114E+02 -0.17805364687E+02 -0.13720551428E+02  0.40659138956E+02  0.00000000000E+00 0.  1.
         11    1    3    3    0    0 -0.20369426072E+02 -0.46863207166E+01  0.63307375542E+01  0.21839261860E+02  0.51100000000E-03 0. -1.
        -11    1    3    3    0    0 -0.69790619812E+01  0.76176719450E+01 -0.10472083528E+01  0.10384261052E+02  0.51100000000E-03 0.  1.
         12    1    3    3    0    0 -0.65319050609E+01  0.14874013458E+02  0.84370222265E+01  0.18305338132E+02  0.00000000000E+00 0. -1.
</event>
<event>
 7    1  0.5006721E-012  0.5052886E+02  0.7816164E-02  0.1300439E+00
        -11   -1    0    0    0    0  0.00000000000E+00  0.00000000000E+00  0.45593999997E+02  0.45594000000E+02  0.51100000000E-03 0. -1.
         11   -1    0    0    0    0 -0.00000000000E+00 -0.00000000000E+00 -0.45593999997E+02  0.45594000000E+02  0.51100000000E-03 0.  1.
    9900012    2    1    2    0    0  0.42948508683E-01  0.21989402928E+02  0.34199851995E+02  0.50528861271E+02  0.30000004320E+02 0.  0.
        -12    1    1    2    0    0 -0.42948508683E-01 -0.21989402928E+02 -0.34199851995E+02  0.40659138729E+02  0.00000000000E+00 0.  1.
         11    1    3    3    0    0  0.76874333989E+01  0.14646900706E+01  0.25222774709E+02  0.26408905951E+02  0.51100000000E-03 0. -1.
        -11    1    3    3    0    0 -0.69697964845E+01  0.13542311202E+02  0.48656098249E+01  0.15988946649E+02  0.51100000000E-03 0.  1.
         12    1    3    3    0    0 -0.67468840572E+00  0.69824016554E+01  0.41114674613E+01  0.81310086710E+01  0.00000000000E+00 0. -1.
</event>
<event>
 7    1  0.5006721E-012  0.5052887E+02  0.7816164E-02  0.1300439E+00
        -11   -1    0    0    0    0  0.00000000000E+00  0.00000000000E+00  0.45593999997E+02  0.45594000000E+02  0.51100000000E-03 0. -1.
         11   -1    0    0    0    0 -0.00000000000E+00 -0.00000000000E+00 -0.45593999997E+02  0.45594000000E+02  0.51100000000E-03 0.  1.
    9900012    2    1    2    0    0  0.21443472897E+02  0.31756905180E+01  0.34398502041E+02  0.50528874545E+02  0.30000044666E+02 0.  0.
        -12    1    1    2    0    0 -0.21443472897E+02 -0.31756905180E+01 -0.34398502041E+02  0.40659125455E+02  0.00000000000E+00 0.  1.
         11    1    3    3    0    0  0.14424476524E+02  0.44431309758E+01  0.15356268562E+02  0.21531881485E+02  0.51100000000E-03 0. -1.
        -11    1    3    3    0    0  0.80844658379E+01 -0.78066050531E+01  0.29871983419E+01  0.11628629521E+02  0.51100000000E-03 0.  1.
        -12    1    3    3    0    0 -0.10654694651E+01  0.65391645953E+01  0.16055035137E+02  0.17368363539E+02  0.00000000000E+00 0.  1.
</event>
<event>
 7    1  0.5006721E-012  0.5052886E+02  0.7816164E-02  0.1300439E+00
        -11   -1    0    0    0    0  0.00000000000E+00  0.00000000000E+00  0.45593999997E+02  0.45594000000E+02  0.51100000000E-03 0. -1.
         11   -1    0    0    0    0 -0.00000000000E+00 -0.00000000000E+00 -0.45593999997E+02  0.45594000000E+02  0.51100000000E-03 0.  1.
    9900012    2    1    2    0    0  0.20024478501E+02 -0.82781862666E+01 -0.34404319931E+02  0.50528864040E+02  0.30000012736E+02 0.  0.
         12    1    1    2    0    0 -0.20024478501E+02  0.82781862666E+01  0.34404319931E+02  0.40659135960E+02  0.00000000000E+00 0. -1.
         11    1    3    3    0    0  0.16178650234E+02 -0.98785085053E+01 -0.13451491186E+02  0.23243843681E+02  0.51100000000E-03 0. -1.
        -11    1    3    3    0    0 -0.37605483645E+01  0.63462074621E+01 -0.47698626063E+01  0.87845126614E+01  0.51100000000E-03 0.  1.
        -12    1    3    3    0    0  0.76063766310E+01 -0.47458852233E+01 -0.16182966139E+02  0.18500507697E+02  0.00000000000E+00 0.  1.
</event>
<event>
 7    1  0.5006721E-012  0.5052886E+02  0.7816164E-02  0.1300439E+00
        -11   -1    0    0    0    0  0.00000000000E+00  0.00000000000E+00  0.45593999997E+02  0.45594000000E+02  0.51100000000E-03 0. -1.
         11   -1    0    0    0    0 -0.00000000000E+00 -0.00000000000E+00 -0.45593999997E+02  0.45594000000E+02  0.51100000000E-03 0.  1.
    9900012    2    1    2    0    0 -0.26180338256E+02 -0.28051903304E+01 -0.30982033087E+02  0.50528861074E+02  0.30000003720E+02 0.  0.
         12    1    1    2    0    0  0.26180338256E+02  0.28051903304E+01  0.30982033087E+02  0.40659138926E+02  0.00000000000E+00 0. -1.
         11    1    3    3    0    0 -0.66002515154E+01 -0.10992398840E+02 -0.14573839228E+01  0.12904267530E+02  0.51100000000E-03 0. -1.
        -11    1    3    3    0    0 -0.13311257539E+02  0.84131694300E+01 -0.26087432806E+02  0.30471710615E+02  0.51100000000E-03 0.  1.
         12    1    3    3    0    0 -0.62688292019E+01 -0.22596091998E+00 -0.34372163584E+01  0.71528829289E+01  0.00000000000E+00 0. -1.
</event>
<event>
 7    1  0.5006721E-012  0.5052883E+02  0.7816164E-02  0.1300439E+00
        -11   -1    0    0    0    0  0.00000000000E+00  0.00000000000E+00  0.45593999997E+02  0.45594000000E+02  0.51100000000E-03 0. -1.
         11   -1    0    0    0    0 -0.00000000000E+00 -0.00000000000E+00 -0.45593999997E+02  0.45594000000E+02  0.51100000000E-03 0.  1.
    9900012    2    1    2    0    0 -0.59302171527E+01 -0.27524911973E+02 -0.29332237414E+02  0.50528826296E+02  0.29999898008E+02 0.  0.
         12    1    1    2    0    0  0.59302171527E+01  0.27524911973E+02  0.29332237414E+02  0.40659173704E+02  0.00000000000E+00 0. -1.
         11    1    3    3    0    0  0.59587443487E+00 -0.18428057439E+01 -0.58889628763E+00  0.20243019662E+01  0.51100000000E-03 0.  1.
        -11    1    3    3    0    0  0.17290253831E+01 -0.12561928850E+02  0.31306302525E+01  0.13061103753E+02  0.51100000000E-03 0. -1.
        -12    1    3    3    0    0 -0.82551169707E+01 -0.13120177379E+02 -0.31873971379E+02  0.35443420576E+02  0.00000000000E+00 0.  1.
</event>
<event>
 7    1  0.5006721E-012  0.5052886E+02  0.7816164E-02  0.1300439E+00
        -11   -1    0    0    0    0  0.00000000000E+00  0.00000000000E+00  0.45593999997E+02  0.45594000000E+02  0.51100000000E-03 0. -1.
         11   -1    0    0    0    0 -0.00000000000E+00 -0.00000000000E+00 -0.45593999997E+02  0.45594000000E+02  0.51100000000E-03 0.  1.
    9900012    2    1    2    0    0  0.14476476509E+02 -0.35015536362E+02  0.14748204140E+02  0.50528859771E+02  0.29999999759E+02 0.  0.
        -12    1    1    2    0    0 -0.14476476509E+02  0.35015536362E+02 -0.14748204140E+02  0.40659140229E+02  0.00000000000E+00 0.  1.
         11    1    3    3    0    0  0.16850032231E+02 -0.24883833946E+02  0.65963706173E+00  0.30059339636E+02  0.51100000000E-03 0. -1.
        -11    1    3    3    0    0 -0.33548859529E+01 -0.11442608394E+02  0.14507614892E+02  0.18779228864E+02  0.51100000000E-03 0.  1.
        -12    1    3    3    0    0  0.98133023108E+00  0.13109059788E+01 -0.41904781329E+00  0.16902912700E+01  0.00000000000E+00 0.  1.
</event>
<event>
 7    1  0.5006721E-012  0.5052887E+02  0.7816164E-02  0.1300439E+00
        -11   -1    0    0    0    0  0.00000000000E+00  0.00000000000E+00  0.45593999997E+02  0.45594000000E+02  0.51100000000E-03 0. -1.
         11   -1    0    0    0    0 -0.00000000000E+00 -0.00000000000E+00 -0.45593999997E+02  0.45594000000E+02  0.51100000000E-03 0.  1.
    9900012    2    1    2    0    0  0.82076082222E+01 -0.39323910164E+02 -0.62793411843E+01  0.50528869795E+02  0.30000030229E+02 0.  0.
         12    1    1    2    0    0 -0.82076082222E+01  0.39323910164E+02  0.62793411843E+01  0.40659130205E+02  0.00000000000E+00 0. -1.
         11    1    3    3    0    0 -0.30089144928E+01 -0.38802555897E+00 -0.72006343079E+01  0.78136588713E+01  0.51100000000E-03 0. -1.
        -11    1    3    3    0    0  0.81395264213E+01 -0.33373673288E+02  0.56225608572E+01  0.34809009608E+02  0.51100000000E-03 0.  1.
         12    1    3    3    0    0  0.30769962938E+01 -0.55622113176E+01 -0.47012677336E+01  0.79062013152E+01  0.00000000000E+00 0. -1.
</event>
<event>
 7    1  0.5006721E-012  0.5052886E+02  0.7816164E-02  0.1300439E+00
        -11   -1    0    0    0    0  0.00000000000E+00  0.00000000000E+00  0.45593999997E+02  0.45594000000E+02  0.51100000000E-03 0. -1.
         11   -1    0    0    0    0 -0.00000000000E+00 -0.00000000000E+00 -0.45593999997E+02  0.45594000000E+02  0.51100000000E-03 0.  1.
    9900012    2    1    2    0    0 -0.55000788062E+01 -0.15577813212E+02  0.37151673864E+02  0.50528855860E+02  0.29999987871E+02 0.  0.
        -12    1    1    2    0    0  0.55000788062E+01  0.15577813212E+02 -0.37151673864E+02  0.40659144140E+02  0.00000000000E+00 0.  1.
         11    1    3    3    0    0 -0.73075039291E+01 -0.49496064013E+01  0.24252641291E+02  0.25808696733E+02  0.51100000000E-03 0. -1.
        -11    1    3    3    0    0 -0.19197411881E+01  0.92330910398E+00 -0.36325379900E+01  0.42110851856E+01  0.51100000000E-03 0.  1.
        -12    1    3    3    0    0  0.37271663110E+01 -0.11551515915E+02  0.16531570563E+02  0.20509073941E+02  0.00000000000E+00 0.  1.
</event>
<event>
 7    1  0.6299105E-012  0.5052883E+02  0.7816164E-02  0.1300439E+00
        -11   -1    0    0    0    0  0.00000000000E+00  0.00000000000E+00  0.45593999997E+02  0.45594000000E+02  0.51100000000E-03 0. -1.
         11   -1    0    0    0    0 -0.00000000000E+00 -0.00000000000E+00 -0.45593999997E+02  0.45594000000E+02  0.51100000000E-03 0.  1.
    9900012    2    1    2    0    0  0.19450831351E+02 -0.28478115884E+02  0.21536709622E+02  0.50528833925E+02  0.29999921199E+02 0.  0.
        -12    1    1    2    0    0 -0.19450831351E+02  0.28478115884E+02 -0.21536709622E+02  0.40659166075E+02  0.00000000000E+00 0.  1.
         11    1    3    3    0    0  0.16741278766E+02 -0.88856461637E+01  0.18600491037E+02  0.26555665865E+02  0.51100000000E-03 0. -1.
        -11    1    3    3    0    0  0.12752960501E+01 -0.84520626465E+01 -0.52885650020E+01  0.10051500537E+02  0.51100000000E-03 0.  1.
         12    1    3    3    0    0  0.14342565352E+01 -0.11140407074E+02  0.82247835870E+01  0.13921667524E+02  0.00000000000E+00 0. -1.
</event>
<event>
 7    1  0.5006721E-012  0.5052886E+02  0.7816164E-02  0.1300439E+00
        -11   -1    0    0    0    0  0.00000000000E+00  0.00000000000E+00  0.45593999997E+02  0.45594000000E+02  0.51100000000E-03 0. -1.
         11   -1    0    0    0    0 -0.00000000000E+00 -0.00000000000E+00 -0.45593999997E+02  0.45594000000E+02  0.51100000000E-03 0.  1.
    9900012    2    1    2    0    0 -0.15406561477E+02 -0.35169471679E+02 -0.13375785461E+02  0.50528861895E+02  0.30000006217E+02 0.  0.
         12    1    1    2    0    0  0.15406561477E+02  0.35169471679E+02  0.13375785461E+02  0.40659138105E+02  0.00000000000E+00 0. -1.
         11    1    3    3    0    0 -0.13461173555E+01  0.20986006571E+01 -0.71612871324E+01  0.75828879925E+01  0.51100000000E-03 0. -1.
        -11    1    3    3    0    0 -0.26868653428E+01 -0.26305725112E+02 -0.61541797856E+01  0.27149297378E+02  0.51100000000E-03 0.  1.
         12    1    3    3    0    0 -0.11373578779E+02 -0.10962347224E+02 -0.60318542596E-01  0.15796676525E+02  0.00000000000E+00 0. -1.
</event>
<event>
 7    1  0.5006721E-012  0.5052878E+02  0.7816164E-02  0.1300439E+00
        -11   -1    0    0    0    0  0.00000000000E+00  0.00000000000E+00  0.45593999997E+02  0.45594000000E+02  0.51100000000E-03 0. -1.
         11   -1    0    0    0    0 -0.00000000000E+00 -0.00000000000E+00 -0.45593999997E+02  0.45594000000E+02  0.51100000000E-03 0.  1.
    9900012    2    1    2    0    0 -0.26059375551E+02 -0.42366471184E+01  0.30921380994E+02  0.50528781666E+02  0.29999762352E+02 0.  0.
        -12    1    1    2    0    0  0.26059375551E+02  0.42366471184E+01 -0.30921380994E+02  0.40659218334E+02  0.00000000000E+00 0.  1.
         11    1    3    3    0    0 -0.91937834412E+01 -0.13663294583E+02  0.13486357435E+02  0.21285983885E+02  0.51100000000E-03 0. -1.
        -11    1    3    3    0    0 -0.95659813787E+01  0.20501051547E+01  0.10386307672E+01  0.98381748823E+01  0.51100000000E-03 0.  1.
         12    1    3    3    0    0 -0.72996107312E+01  0.73765423097E+01  0.16396392792E+02  0.19404622899E+02  0.00000000000E+00 0. -1.
</event>
<event>
 7    1  0.5006721E-012  0.5052886E+02  0.7816164E-02  0.1300439E+00
        -11   -1    0    0    0    0  0.00000000000E+00  0.00000000000E+00  0.45593999997E+02  0.45594000000E+02  0.51100000000E-03 0. -1.
         11   -1    0    0    0    0 -0.00000000000E+00 -0.00000000000E+00 -0.45593999997E+02  0.45594000000E+02  0.51100000000E-03 0.  1.
    9900012    2    1    2    0    0 -0.18503869178E+02 -0.13281433892E+02 -0.33680502442E+02  0.50528857049E+02  0.29999991485E+02 0.  0.
         12    1    1    2    0    0  0.18503869178E+02  0.13281433892E+02  0.33680502442E+02  0.40659142951E+02  0.00000000000E+00 0. -1.
         11    1    3    3    0    0 -0.16281826238E+02 -0.97868822556E+01 -0.30864508444E+01  0.19245963447E+02  0.51100000000E-03 0. -1.
        -11    1    3    3    0    0 -0.95908435870E+00 -0.67122006193E+00 -0.23675954699E+02  0.23704877353E+02  0.51100000000E-03 0.  1.
         12    1    3    3    0    0 -0.12629585813E+01 -0.28233315749E+01 -0.69180968988E+01  0.75780162484E+01  0.00000000000E+00 0. -1.
</event>
<event>
 7    1  0.5006721E-012  0.5052886E+02  0.7816164E-02  0.1300439E+00
        -11   -1    0    0    0    0  0.00000000000E+00  0.00000000000E+00  0.45593999997E+02  0.45594000000E+02  0.51100000000E-03 0. -1.
         11   -1    0    0    0    0 -0.00000000000E+00 -0.00000000000E+00 -0.45593999997E+02  0.45594000000E+02  0.51100000000E-03 0.  1.
    9900012    2    1    2    0    0 -0.31976561753E+02 -0.16579973410E+02  0.18861865767E+02  0.50528855887E+02  0.29999987954E+02 0.  0.
        -12    1    1    2    0    0  0.31976561753E+02  0.16579973410E+02 -0.18861865767E+02  0.40659144113E+02  0.00000000000E+00 0.  1.
         11    1    3    3    0    0 -0.85149261464E+01 -0.17023344460E+02  0.83806188601E+01  0.20797427644E+02  0.51100000000E-03 0. -1.
        -11    1    3    3    0    0 -0.22787408900E+02  0.47722427884E+01  0.99479815414E+01  0.25318029991E+02  0.51100000000E-03 0.  1.
         12    1    3    3    0    0 -0.67422670664E+00 -0.43288717384E+01  0.53326536525E+00  0.44133982518E+01  0.00000000000E+00 0. -1.
</event>
<event>
 7    1  0.5006721E-012  0.5052886E+02  0.7816164E-02  0.1300439E+00
        -11   -1    0    0    0    0  0.00000000000E+00  0.00000000000E+00  0.45593999997E+02  0.45594000000E+02  0.51100000000E-03 0. -1.
         11   -1    0    0    0    0 -0.00000000000E+00 -0.00000000000E+00 -0.45593999997E+02  0.45594000000E+02  0.51100000000E-03 0.  1.
    9900012    2    1    2    0    0  0.93335308206E+01  0.51680119480E+01 -0.39234454518E+02  0.50528861219E+02  0.30000004160E+02 0.  0.
         12    1    1    2    0    0 -0.93335308206E+01 -0.51680119480E+01  0.39234454518E+02  0.40659138781E+02  0.00000000000E+00 0. -1.
         11    1    3    3    0    0 -0.48510087711E+01  0.17537789861E+01 -0.26394211545E+02  0.26893538819E+02  0.51100000000E-03 0. -1.
        -11    1    3    3    0    0  0.24171087804E+01  0.50468461658E+00  0.28739786195E+01  0.37890466855E+01  0.51100000000E-03 0.  1.
        -12    1    3    3    0    0  0.11767430811E+02  0.29095483453E+01 -0.15714221593E+02  0.19846275714E+02  0.00000000000E+00 0.  1.
</event>
<event>
 7    1  0.5006721E-012  0.5052885E+02  0.7816164E-02  0.1300439E+00
        -11   -1    0    0    0    0  0.00000000000E+00  0.00000000000E+00  0.45593999997E+02  0.45594000000E+02  0.51100000000E-03 0. -1.
         11   -1    0    0    0    0 -0.00000000000E+00 -0.00000000000E+00 -0.45593999997E+02  0.45594000000E+02  0.51100000000E-03 0.  1.
    9900012    2    1    2    0    0 -0.21387491378E+02 -0.89506351628E+01  0.33401015473E+02  0.50528849839E+02  0.29999969569E+02 0.  0.
        -12    1    1    2    0    0  0.21387491378E+02  0.89506351628E+01 -0.33401015473E+02  0.40659150161E+02  0.00000000000E+00 0.  1.
         11    1    3    3    0    0 -0.14001695756E+02 -0.16723644096E+01  0.16126909804E+02  0.21422453334E+02  0.51100000000E-03 0. -1.
        -11    1    3    3    0    0  0.24396823795E+01  0.36316259855E+01 -0.20547974376E+01  0.48335235783E+01  0.51100000000E-03 0.  1.
        -12    1    3    3    0    0 -0.98254780011E+01 -0.10909896739E+02  0.19328903106E+02  0.24272872926E+02  0.00000000000E+00 0.  1.
</event>
<event>
 7    1  0.5006721E-012  0.5052886E+02  0.7816164E-02  0.1300439E+00
        -11   -1    0    0    0    0  0.00000000000E+00  0.00000000000E+00  0.45593999997E+02  0.45594000000E+02  0.51100000000E-03 0. -1.
         11   -1    0    0    0    0 -0.00000000000E+00 -0.00000000000E+00 -0.45593999997E+02  0.45594000000E+02  0.51100000000E-03 0.  1.
    9900012    2    1    2    0    0 -0.42350603281E+01 -0.17115971208E+02  0.36637050448E+02  0.50528859922E+02  0.30000000219E+02 0.  0.
        -12    1    1    2    0    0  0.42350603281E+01  0.17115971208E+02 -0.36637050448E+02  0.40659140078E+02  0.00000000000E+00 0.  1.
         11    1    3    3    0    0  0.25226419515E+01  0.49016551336E+01  0.54175799995E+01  0.77291732272E+01  0.51100000000E-03 0. -1.
        -11    1    3    3    0    0  0.17310494408E+01 -0.20274302839E+02  0.19156688889E+02  0.27946781876E+02  0.51100000000E-03 0.  1.
        -12    1    3    3    0    0 -0.84887517204E+01 -0.17433235020E+01  0.12062781559E+02  0.14852904818E+02  0.00000000000E+00 0.  1.
</event>
<event>
 7    1  0.5006721E-012  0.5052885E+02  0.7816164E-02  0.1300439E+00
        -11   -1    0    0    0    0  0.00000000000E+00  0.00000000000E+00  0.45593999997E+02  0.45594000000E+02  0.51100000000E-03 0. -1.
         11   -1    0    0    0    0 -0.00000000000E+00 -0.00000000000E+00 -0.45593999997E+02  0.45594000000E+02  0.51100000000E-03 0.  1.
    9900012    2    1    2    0    0 -0.31045665379E+01 -0.24335184559E+02  0.32424174263E+02  0.50528848293E+02  0.29999964872E+02 0.  0.
        -12    1    1    2    0    0  0.31045665379E+01  0.24335184559E+02 -0.32424174263E+02  0.40659151707E+02  0.00000000000E+00 0.  1.
         11    1    3    3    0    0 -0.77461716423E+01 -0.12809652587E+02  0.31470754086E+02  0.34849659073E+02  0.51100000000E-03 0. -1.
        -11    1    3    3    0    0 -0.20162706587E+01 -0.13221411676E-01  0.12584285275E+01  0.23767971716E+01  0.51100000000E-03 0.  1.
         12    1    3    3    0    0  0.66578757632E+01 -0.11512310560E+02 -0.30500835087E+00  0.13302392048E+02  0.00000000000E+00 0. -1.
</event>
<event>
 7    1  0.5006721E-012  0.5052887E+02  0.7816164E-02  0.1300439E+00
        -11   -1    0    0    0    0  0.00000000000E+00  0.00000000000E+00  0.45593999997E+02  0.45594000000E+02  0.51100000000E-03 0. -1.
         11   -1    0    0    0    0 -0.00000000000E+00 -0.00000000000E+00 -0.45593999997E+02  0.45594000000E+02  0.51100000000E-03 0.  1.
    9900012    2    1    2    0    0 -0.26127927958E+02 -0.19121709941E+02  0.24593833003E+02  0.50528867788E+02  0.30000024127E+02 0.  0.
        -12    1    1    2    0    0  0.26127927958E+02  0.19121709941E+02 -0.24593833003E+02  0.40659132212E+02  0.00000000000E+00 0.  1.
         11    1    3    3    0    0 -0.82449924196E+01 -0.13464875489E+02 -0.17932210331E+01  0.15890198673E+02  0.51100000000E-03 0. -1.
        -11    1    3    3    0    0 -0.51367122491E+01 -0.18717830119E+01  0.18247183407E+02  0.19048598030E+02  0.51100000000E-03 0.  1.
        -12    1    3    3    0    0 -0.12746223289E+02 -0.37850514406E+01  0.81398706294E+01  0.15590071084E+02  0.00000000000E+00 0.  1.
</event>
<event>
 7    1  0.5006721E-012  0.5052886E+02  0.7816164E-02  0.1300439E+00
        -11   -1    0    0    0    0  0.00000000000E+00  0.00000000000E+00  0.45593999997E+02  0.45594000000E+02  0.51100000000E-03 0. -1.
         11   -1    0    0    0    0 -0.00000000000E+00 -0.00000000000E+00 -0.45593999997E+02  0.45594000000E+02  0.51100000000E-03 0.  1.
    9900012    2    1    2    0    0 -0.14257566878E+02  0.25082078675E+02  0.28649203746E+02  0.50528858848E+02  0.29999996955E+02 0.  0.
        -12    1    1    2    0    0  0.14257566878E+02 -0.25082078675E+02 -0.28649203746E+02  0.40659141152E+02  0.00000000000E+00 0.  1.
         11    1    3    3    0    0 -0.48042540657E+01  0.18507165286E+02  0.73397146993E+01  0.20480904184E+02  0.51100000000E-03 0. -1.
        -11    1    3    3    0    0 -0.47399517139E+01 -0.56569528129E+01  0.11544770882E+02  0.13702189327E+02  0.51100000000E-03 0.  1.
        -12    1    3    3    0    0 -0.47133610983E+01  0.12231866202E+02  0.97647181639E+01  0.16345765337E+02  0.00000000000E+00 0.  1.
</event>
<event>
 7    1  0.5006721E-012  0.5052886E+02  0.7816164E-02  0.1300439E+00
        -11   -1    0    0    0    0  0.00000000000E+00  0.00000000000E+00  0.45593999997E+02  0.45594000000E+02  0.51100000000E-03 0. -1.
         11   -1    0    0    0    0 -0.00000000000E+00 -0.00000000000E+00 -0.45593999997E+02  0.45594000000E+02  0.51100000000E-03 0.  1.
    9900012    2    1    2    0    0  0.35789636197E+02 -0.76000650572E+00  0.19279271382E+02  0.50528856206E+02  0.29999988925E+02 0.  0.
        -12    1    1    2    0    0 -0.35789636197E+02  0.76000650572E+00 -0.19279271382E+02  0.40659143794E+02  0.00000000000E+00 0.  1.
         11    1    3    3    0    0  0.23413737201E+02  0.93582876384E+01  0.10956365406E+02  0.27492227636E+02  0.51100000000E-03 0. -1.
        -11    1    3    3    0    0  0.12474430681E+02 -0.60572871519E+01  0.10293013446E+00  0.13867687021E+02  0.51100000000E-03 0.  1.
         12    1    3    3    0    0 -0.98531684584E-01 -0.40610069922E+01  0.82199758423E+01  0.91689415491E+01  0.00000000000E+00 0. -1.
</event>
<event>
 7    1  0.5006721E-012  0.5052886E+02  0.7816164E-02  0.1300439E+00
        -11   -1    0    0    0    0  0.00000000000E+00  0.00000000000E+00  0.45593999997E+02  0.45594000000E+02  0.51100000000E-03 0. -1.
         11   -1    0    0    0    0 -0.00000000000E+00 -0.00000000000E+00 -0.45593999997E+02  0.45594000000E+02  0.51100000000E-03 0.  1.
    9900012    2    1    2    0    0  0.98878377664E+01 -0.79915266712E+01 -0.38620357848E+02  0.50528857430E+02  0.29999992643E+02 0.  0.
         12    1    1    2    0    0 -0.98878377664E+01  0.79915266712E+01  0.38620357848E+02  0.40659142570E+02  0.00000000000E+00 0. -1.
         11    1    3    3    0    0  0.72431957931E+01  0.40938646196E+00  0.20901012660E+01  0.75498348417E+01  0.51100000000E-03 0. -1.
        -11    1    3    3    0    0  0.46890951110E+00 -0.10099573332E+02 -0.36987254189E+02  0.38344207259E+02  0.51100000000E-03 0.  1.
        -12    1    3    3    0    0  0.21757324622E+01  0.16986601988E+01 -0.37232049256E+01  0.46348153292E+01  0.00000000000E+00 0.  1.
</event>
<event>
 7    1  0.5880468E-012  0.5052886E+02  0.7816164E-02  0.1300439E+00
        -11   -1    0    0    0    0  0.00000000000E+00  0.00000000000E+00  0.45593999997E+02  0.45594000000E+02  0.51100000000E-03 0. -1.
         11   -1    0    0    0    0 -0.00000000000E+00 -0.00000000000E+00 -0.45593999997E+02  0.45594000000E+02  0.51100000000E-03 0.  1.
    9900012    2    1    2    0    0 -0.25418125780E+02 -0.72427923232E+01  0.30897036531E+02  0.50528855577E+02  0.29999987012E+02 0.  0.
        -12    1    1    2    0    0  0.25418125780E+02  0.72427923232E+01 -0.30897036531E+02  0.40659144423E+02  0.00000000000E+00 0.  1.
         11    1    3    3    0    0 -0.89166491078E+01 -0.26108029949E+01  0.28142412911E+02  0.29636435823E+02  0.51100000000E-03 0. -1.
        -11    1    3    3    0    0 -0.53565565734E+01 -0.65874205123E+01 -0.18272220906E+01  0.86847883197E+01  0.51100000000E-03 0.  1.
         12    1    3    3    0    0 -0.11144920098E+02  0.19554311839E+01  0.45818457115E+01  0.12207631434E+02  0.00000000000E+00 0. -1.
</event>
<event>
 7    1  0.5006721E-012  0.5052885E+02  0.7816164E-02  0.1300439E+00
        -11   -1    0    0    0    0  0.00000000000E+00  0.00000000000E+00  0.45593999997E+02  0.45594000000E+02  0.51100000000E-03 0. -1.
         11   -1    0    0    0    0 -0.00000000000E+00 -0.00000000000E+00 -0.45593999997E+02  0.45594000000E+02  0.51100000000E-03 0.  1.
    9900012    2    1    2    0    0  0.13398385196E+02  0.25794439054E+02  0.28430565612E+02  0.50528845152E+02  0.29999955323E+02 0.  0.
        -12    1    1    2    0    0 -0.13398385196E+02 -0.25794439054E+02 -0.28430565612E+02  0.40659154848E+02  0.00000000000E+00 0.  1.
         11    1    3    3    0    0  0.12594233046E+02 -0.12795885633E+01  0.12926104643E+02  0.18092435834E+02  0.51100000000E-03 0.  1.
        -11    1    3    3    0    0 -0.22642703496E+01  0.18752788370E+02  0.13830080933E+02  0.23410790904E+02  0.51100000000E-03 0. -1.
         12    1    3    3    0    0  0.30684225001E+01  0.83212392476E+01  0.16743800357E+01  0.90256184142E+01  0.00000000000E+00 0. -1.
</event>
<event>
 7    1  0.5006721E-012  0.5052885E+02  0.7816164E-02  0.1300439E+00
        -11   -1    0    0    0    0  0.00000000000E+00  0.00000000000E+00  0.45593999997E+02  0.45594000000E+02  0.51100000000E-03 0. -1.
         11   -1    0    0    0    0 -0.00000000000E+00 -0.00000000000E+00 -0.45593999997E+02  0.45594000000E+02  0.51100000000E-03 0.  1.
    9900012    2    1    2    0    0  0.37237187216E+01 -0.20200088218E+02  0.35089265579E+02  0.50528853379E+02  0.29999980330E+02 0.  0.
        -12    1    1    2    0    0 -0.37237187216E+01  0.20200088218E+02 -0.35089265579E+02  0.40659146621E+02  0.00000000000E+00 0.  1.
         11    1    3    3    0    0 -0.98907829986E+01 -0.46642560402E+01  0.71503076971E+01  0.13065595017E+02  0.51100000000E-03 0. -1.
        -11    1    3    3    0    0  0.41067553371E+01 -0.55597594784E+01  0.20849794219E+02  0.21965661476E+02  0.51100000000E-03 0.  1.
         12    1    3    3    0    0  0.95077463831E+01 -0.99760726989E+01  0.70891636632E+01  0.15497596885E+02  0.00000000000E+00 0. -1.
</event>
<event>
 7    1  0.5006721E-012  0.5052885E+02  0.7816164E-02  0.1300439E+00
        -11   -1    0    0    0    0  0.00000000000E+00  0.00000000000E+00  0.45593999997E+02  0.45594000000E+02  0.51100000000E-03 0. -1.
         11   -1    0    0    0    0 -0.00000000000E+00 -0.00000000000E+00 -0.45593999997E+02  0.45594000000E+02  0.51100000000E-03 0.  1.
    9900012    2    1    2    0    0  0.15496870565E+02 -0.20016504434E+02 -0.31817490595E+02  0.50528853982E+02  0.29999982165E+02 0.  0.
         12    1    1    2    0    0 -0.15496870565E+02  0.20016504434E+02  0.31817490595E+02  0.40659146018E+02  0.00000000000E+00 0. -1.
         11    1    3    3    0    0  0.37273013259E+01 -0.11234066913E+02 -0.61406402176E+01  0.13334335271E+02  0.51100000000E-03 0. -1.
        -11    1    3    3    0    0  0.83278693612E+01  0.68183616516E+01 -0.83153624379E+01  0.13601055711E+02  0.51100000000E-03 0.  1.
        -12    1    3    3    0    0  0.34416998784E+01 -0.15600799173E+02 -0.17361487940E+02  0.23593463001E+02  0.00000000000E+00 0.  1.
</event>
<event>
 7    1  0.5006721E-012  0.5052886E+02  0.7816164E-02  0.1300439E+00
        -11   -1    0    0    0    0  0.00000000000E+00  0.00000000000E+00  0.45593999997E+02  0.45594000000E+02  0.51100000000E-03 0. -1.
         11   -1    0    0    0    0 -0.00000000000E+00 -0.00000000000E+00 -0.45593999997E+02  0.45594000000E+02  0.51100000000E-03 0.  1.
    9900012    2    1    2    0    0 -0.34069892315E+02  0.21089905663E+02 -0.69010251580E+01  0.50528857960E+02  0.29999994255E+02 0.  0.
         12    1    1    2    0    0  0.34069892315E+02 -0.21089905663E+02  0.69010251580E+01  0.40659142040E+02  0.00000000000E+00 0. -1.
         11    1    3    3    0    0 -0.13230433624E+02  0.59068465880E+01  0.22510599250E+01  0.14662962918E+02  0.51100000000E-03 0. -1.
        -11    1    3    3    0    0 -0.20883812092E+01 -0.59674464387E+01 -0.68504507475E+00  0.63593270154E+01  0.51100000000E-03 0.  1.
        -12    1    3    3    0    0 -0.18751077482E+02  0.21150505513E+02 -0.84670400083E+01  0.29506568026E+02  0.00000000000E+00 0.  1.
</event>
<event>
 7    1  0.5006721E-012  0.5052886E+02  0.7816164E-02  0.1300439E+00
        -11   -1    0    0    0    0  0.00000000000E+00  0.00000000000E+00  0.45593999997E+02  0.45594000000E+02  0.51100000000E-03 0. -1.
         11   -1    0    0    0    0 -0.00000000000E+00 -0.00000000000E+00 -0.45593999997E+02  0.45594000000E+02  0.51100000000E-03 0.  1.
    9900012    2    1    2    0    0  0.20490379313E+02  0.36903589203E+00 -0.35116578764E+02  0.50528856674E+02  0.29999990347E+02 0.  0.
         12    1    1    2    0    0 -0.20490379313E+02 -0.36903589203E+00  0.35116578764E+02  0.40659143326E+02  0.00000000000E+00 0. -1.
         11    1    3    3    0    0  0.49315941789E+01  0.33644218212E+01  0.47485719931E+01  0.76281643645E+01  0.51100000000E-03 0. -1.
        -11    1    3    3    0    0  0.88118435976E+01 -0.15496145281E+01 -0.22068330559E+02  0.23813044885E+02  0.51100000000E-03 0.  1.
         12    1    3    3    0    0  0.67469415366E+01 -0.14457714011E+01 -0.17796820198E+02  0.19087647424E+02  0.00000000000E+00 0. -1.
</event>
<event>
 7    1  0.5006721E-012  0.5052886E+02  0.7816164E-02  0.1300439E+00
        -11   -1    0    0    0    0  0.00000000000E+00  0.00000000000E+00  0.45593999997E+02  0.45594000000E+02  0.51100000000E-03 0. -1.
         11   -1    0    0    0    0 -0.00000000000E+00 -0.00000000000E+00 -0.45593999997E+02  0.45594000000E+02  0.51100000000E-03 0.  1.
    9900012    2    1    2    0    0  0.28967102722E+02 -0.27984451571E+02  0.55626849686E+01  0.50528855470E+02  0.29999986688E+02 0.  0.
        -12    1    1    2    0    0 -0.28967102722E+02  0.27984451571E+02 -0.55626849686E+01  0.40659144530E+02  0.00000000000E+00 0.  1.
         11    1    3    3    0    0 -0.40145865892E+01 -0.42672654350E+01  0.14291515316E+01  0.60306661437E+01  0.51100000000E-03 0. -1.
        -11    1    3    3    0    0  0.19175576643E+02 -0.17701285424E+02 -0.54336203422E+01  0.26656377764E+02  0.51100000000E-03 0.  1.
         12    1    3    3    0    0  0.13806112668E+02 -0.60159007122E+01  0.95671537792E+01  0.17841811562E+02  0.00000000000E+00 0. -1.
</event>
<event>
 7    1  0.5006721E-012  0.5052887E+02  0.7816164E-02  0.1300439E+00
        -11   -1    0    0    0    0  0.00000000000E+00  0.00000000000E+00  0.45593999997E+02  0.45594000000E+02  0.51100000000E-03 0.  1.
         11   -1    0    0    0    0 -0.00000000000E+00 -0.00000000000E+00 -0.45593999997E+02  0.45594000000E+02  0.51100000000E-03 0. -1.
    9900012    2    1    2    0    0  0.25122349095E+02  0.31621891563E+02 -0.46998630162E+01  0.50528866187E+02  0.30000019261E+02 0.  0.
         12    1    1    2    0    0 -0.25122349095E+02 -0.31621891563E+02  0.46998630162E+01  0.40659133813E+02  0.00000000000E+00 0. -1.
         11    1    3    3    0    0  0.65109711562E+01 -0.53076209668E+00 -0.79933083345E+01  0.10323150304E+02  0.51100000000E-03 0. -1.
        -11    1    3    3    0    0  0.84326684450E+01  0.18258742008E+02 -0.55235076280E+01  0.20856670242E+02  0.51100000000E-03 0.  1.
         12    1    3    3    0    0  0.10178709494E+02  0.13893911652E+02  0.88169529463E+01  0.19349045641E+02  0.00000000000E+00 0. -1.
</event>
<event>
 7    1  0.5006721E-012  0.5052886E+02  0.7816164E-02  0.1300439E+00
        -11   -1    0    0    0    0  0.00000000000E+00  0.00000000000E+00  0.45593999997E+02  0.45594000000E+02  0.51100000000E-03 0. -1.
         11   -1    0    0    0    0 -0.00000000000E+00 -0.00000000000E+00 -0.45593999997E+02  0.45594000000E+02  0.51100000000E-03 0.  1.
    9900012    2    1    2    0    0  0.28644951086E+02  0.51796885572E+00 -0.28850726279E+02  0.50528856855E+02  0.29999990896E+02 0.  0.
         12    1    1    2    0    0 -0.28644951086E+02 -0.51796885572E+00  0.28850726279E+02  0.40659143145E+02  0.00000000000E+00 0. -1.
         11    1    3    3    0    0  0.19868164036E+02 -0.57683928304E+01 -0.56548739754E+01  0.21447514960E+02  0.51100000000E-03 0. -1.
        -11    1    3    3    0    0  0.94678214361E+01 -0.88969199763E+00 -0.17408548136E+02  0.19836550684E+02  0.51100000000E-03 0.  1.
         12    1    3    3    0    0 -0.69103438623E+00  0.71760536837E+01 -0.57873041682E+01  0.92447912107E+01  0.00000000000E+00 0. -1.
</event>
<event>
 7    1  0.5006721E-012  0.5052886E+02  0.7816164E-02  0.1300439E+00
        -11   -1    0    0    0    0  0.00000000000E+00  0.00000000000E+00  0.45593999997E+02  0.45594000000E+02  0.51100000000E-03 0. -1.
         11   -1    0    0    0    0 -0.00000000000E+00 -0.00000000000E+00 -0.45593999997E+02  0.45594000000E+02  0.51100000000E-03 0.  1.
    9900012    2    1    2    0    0  0.44028743231E+01 -0.18727188556E+02  0.35820002286E+02  0.50528862561E+02  0.30000008242E+02 0.  0.
        -12    1    1    2    0    0 -0.44028743231E+01  0.18727188556E+02 -0.35820002286E+02  0.40659137439E+02  0.00000000000E+00 0.  1.
         11    1    3    3    0    0  0.63782447541E+01 -0.55529915459E+01  0.10449231027E+02  0.13442624393E+02  0.51100000000E-03 0. -1.
        -11    1    3    3    0    0 -0.31566485184E+01  0.59166000918E+01  0.22372823690E+01  0.70693719080E+01  0.51100000000E-03 0.  1.
        -12    1    3    3    0    0  0.11812780874E+01 -0.19090797102E+02  0.23133488889E+02  0.30016866260E+02  0.00000000000E+00 0.  1.
</event>
<event>
 7    1  0.5006721E-012  0.5052886E+02  0.7816164E-02  0.1300439E+00
        -11   -1    0    0    0    0  0.00000000000E+00  0.00000000000E+00  0.45593999997E+02  0.45594000000E+02  0.51100000000E-03 0. -1.
         11   -1    0    0    0    0 -0.00000000000E+00 -0.00000000000E+00 -0.45593999997E+02  0.45594000000E+02  0.51100000000E-03 0.  1.
    9900012    2    1    2    0    0 -0.22082100441E+02  0.33179778068E+02  0.80404247075E+01  0.50528864962E+02  0.30000015539E+02 0.  0.
         12    1    1    2    0    0  0.22082100441E+02 -0.33179778068E+02 -0.80404247075E+01  0.40659135038E+02  0.00000000000E+00 0. -1.
         11    1    3    3    0    0  0.32383054663E+01  0.87468063083E+01  0.74214437884E+01  0.11919356990E+02  0.51100000000E-03 0. -1.
        -11    1    3    3    0    0 -0.11770412924E+02  0.18206262143E+02 -0.56956363694E+01  0.22415416024E+02  0.51100000000E-03 0.  1.
        -12    1    3    3    0    0 -0.13549992984E+02  0.62267096166E+01  0.63146172885E+01  0.16194091948E+02  0.00000000000E+00 0.  1.
</event>
<event>
 7    1  0.5006721E-012  0.5052885E+02  0.7816164E-02  0.1300439E+00
        -11   -1    0    0    0    0  0.00000000000E+00  0.00000000000E+00  0.45593999997E+02  0.45594000000E+02  0.51100000000E-03 0. -1.
         11   -1    0    0    0    0 -0.00000000000E+00 -0.00000000000E+00 -0.45593999997E+02  0.45594000000E+02  0.51100000000E-03 0.  1.
    9900012    2    1    2    0    0 -0.14890519159E+02  0.11944809080E+02 -0.35899305903E+02  0.50528853562E+02  0.29999980886E+02 0.  0.
         12    1    1    2    0    0  0.14890519159E+02 -0.11944809080E+02  0.35899305903E+02  0.40659146438E+02  0.00000000000E+00 0. -1.
         11    1    3    3    0    0 -0.64537879790E+01 -0.72075659377E+01 -0.78857246222E+01  0.12481387707E+02  0.51100000000E-03 0. -1.
        -11    1    3    3    0    0 -0.90730734166E+01  0.13623551454E+02 -0.99712921751E+01  0.19166337244E+02  0.51100000000E-03 0.  1.
        -12    1    3    3    0    0  0.63634223616E+00  0.55288235638E+01 -0.18042289105E+02  0.18881128610E+02  0.00000000000E+00 0.  1.
</event>
<event>
 7    1  0.5006721E-012  0.5052887E+02  0.7816164E-02  0.1300439E+00
        -11   -1    0    0    0    0  0.00000000000E+00  0.00000000000E+00  0.45593999997E+02  0.45594000000E+02  0.51100000000E-03 0. -1.
         11   -1    0    0    0    0 -0.00000000000E+00 -0.00000000000E+00 -0.45593999997E+02  0.45594000000E+02  0.51100000000E-03 0.  1.
    9900012    2    1    2    0    0  0.13747369705E+02  0.26758945954E+02 -0.27352033312E+02  0.50528867094E+02  0.30000022020E+02 0.  0.
         12    1    1    2    0    0 -0.13747369705E+02 -0.26758945954E+02  0.27352033312E+02  0.40659132906E+02  0.00000000000E+00 0. -1.
         11    1    3    3    0    0  0.10346305791E+02  0.49226047527E+01 -0.27498317096E+01  0.11783024050E+02  0.51100000000E-03 0. -1.
        -11    1    3    3    0    0 -0.11160523463E+01  0.23198204252E+02 -0.24859944261E+02  0.34020862456E+02  0.51100000000E-03 0.  1.
        -12    1    3    3    0    0  0.45171162605E+01 -0.13618630507E+01  0.25774265863E+00  0.47249805881E+01  0.00000000000E+00 0.  1.
</event>
<event>
 7    1  0.5006721E-012  0.5052892E+02  0.7816164E-02  0.1300439E+00
        -11   -1    0    0    0    0  0.00000000000E+00  0.00000000000E+00  0.45593999997E+02  0.45594000000E+02  0.51100000000E-03 0. -1.
         11   -1    0    0    0    0 -0.00000000000E+00 -0.00000000000E+00 -0.45593999997E+02  0.45594000000E+02  0.51100000000E-03 0.  1.
    9900012    2    1    2    0    0  0.13258073017E+01 -0.18966405173E+02 -0.35939929295E+02  0.50528919736E+02  0.30000182028E+02 0.  0.
         12    1    1    2    0    0 -0.13258073017E+01  0.18966405173E+02  0.35939929295E+02  0.40659080264E+02  0.00000000000E+00 0. -1.
         11    1    3    3    0    0  0.18199203380E+01 -0.47803360706E+01  0.84985496697E+00  0.51851689182E+01  0.51100000000E-03 0. -1.
        -11    1    3    3    0    0 -0.83549660973E+01 -0.16338175386E+02 -0.25052129045E+02  0.31053994966E+02  0.51100000000E-03 0.  1.
        -12    1    3    3    0    0  0.78608530610E+01  0.21521062828E+01 -0.11737655217E+02  0.14289755851E+02  0.00000000000E+00 0.  1.
</event>
<event>
 7    1  0.5006721E-012  0.5052887E+02  0.7816164E-02  0.1300439E+00
        -11   -1    0    0    0    0  0.00000000000E+00  0.00000000000E+00  0.45593999997E+02  0.45594000000E+02  0.51100000000E-03 0. -1.
         11   -1    0    0    0    0 -0.00000000000E+00 -0.00000000000E+00 -0.45593999997E+02  0.45594000000E+02  0.51100000000E-03 0.  1.
    9900012    2    1    2    0    0 -0.10815452645E+02  0.42328405602E+01 -0.38965039237E+02  0.50528865260E+02  0.30000016443E+02 0.  0.
         12    1    1    2    0    0  0.10815452645E+02 -0.42328405602E+01  0.38965039237E+02  0.40659134740E+02  0.00000000000E+00 0. -1.
         11    1    3    3    0    0 -0.14188519194E+01 -0.12123052109E+02 -0.11917878229E+02  0.17059230784E+02  0.51100000000E-03 0. -1.
        -11    1    3    3    0    0 -0.99245398389E+01  0.13207405558E+02 -0.22820391081E+02  0.28172722657E+02  0.51100000000E-03 0.  1.
         12    1    3    3    0    0  0.52793911375E+00  0.31484871111E+01 -0.42267699270E+01  0.52969118185E+01  0.00000000000E+00 0. -1.
</event>
<event>
 7    1  0.5006721E-012  0.5052888E+02  0.7816164E-02  0.1300439E+00
        -11   -1    0    0    0    0  0.00000000000E+00  0.00000000000E+00  0.45593999997E+02  0.45594000000E+02  0.51100000000E-03 0. -1.
         11   -1    0    0    0    0 -0.00000000000E+00 -0.00000000000E+00 -0.45593999997E+02  0.45594000000E+02  0.51100000000E-03 0.  1.
    9900012    2    1    2    0    0  0.16311197797E+02 -0.19509301300E+02 -0.31725323516E+02  0.50528878477E+02  0.30000056618E+02 0.  0.
         12    1    1    2    0    0 -0.16311197797E+02  0.19509301300E+02  0.31725323516E+02  0.40659121523E+02  0.00000000000E+00 0. -1.
         11    1    3    3    0    0  0.17805612370E+02 -0.12346062717E+02 -0.91628995154E+01  0.23524961727E+02  0.51100000000E-03 0. -1.
        -11    1    3    3    0    0 -0.40207173837E+01  0.24083343763E+00 -0.11226939095E+01  0.41814603788E+01  0.51100000000E-03 0.  1.
         12    1    3    3    0    0  0.25263028107E+01 -0.74040720211E+01 -0.21439730092E+02  0.22822456371E+02  0.00000000000E+00 0. -1.
</event>
<event>
 7    1  0.5006721E-012  0.5052886E+02  0.7816164E-02  0.1300439E+00
        -11   -1    0    0    0    0  0.00000000000E+00  0.00000000000E+00  0.45593999997E+02  0.45594000000E+02  0.51100000000E-03 0. -1.
         11   -1    0    0    0    0 -0.00000000000E+00 -0.00000000000E+00 -0.45593999997E+02  0.45594000000E+02  0.51100000000E-03 0.  1.
    9900012    2    1    2    0    0 -0.36565485271E+01  0.11439899432E+02 -0.38844870611E+02  0.50528860574E+02  0.30000002199E+02 0.  0.
         12    1    1    2    0    0  0.36565485271E+01 -0.11439899432E+02  0.38844870611E+02  0.40659139426E+02  0.00000000000E+00 0. -1.
         11    1    3    3    0    0 -0.38122262236E+01  0.72220754270E+01 -0.86815881604E+01  0.11918951946E+02  0.51100000000E-03 0. -1.
        -11    1    3    3    0    0  0.11576779219E+02  0.47779270302E+00 -0.10916303998E+02  0.15919038796E+02  0.51100000000E-03 0.  1.
        -12    1    3    3    0    0 -0.11421101523E+02  0.37400313018E+01 -0.19246978453E+02  0.22690869831E+02  0.00000000000E+00 0.  1.
</event>
<event>
 7    1  0.5006721E-012  0.5052886E+02  0.7816164E-02  0.1300439E+00
        -11   -1    0    0    0    0  0.00000000000E+00  0.00000000000E+00  0.45593999997E+02  0.45594000000E+02  0.51100000000E-03 0. -1.
         11   -1    0    0    0    0 -0.00000000000E+00 -0.00000000000E+00 -0.45593999997E+02  0.45594000000E+02  0.51100000000E-03 0.  1.
    9900012    2    1    2    0    0  0.11182065785E+02 -0.67972512371E+01 -0.38495769231E+02  0.50528862426E+02  0.30000007829E+02 0.  0.
         12    1    1    2    0    0 -0.11182065785E+02  0.67972512371E+01  0.38495769231E+02  0.40659137574E+02  0.00000000000E+00 0. -1.
         11    1    3    3    0    0  0.14140823153E+02  0.44775923675E+01 -0.90749415977E+01  0.17388682472E+02  0.51100000000E-03 0. -1.
        -11    1    3    3    0    0 -0.39537877945E+00 -0.10833087143E+02 -0.28304938901E+02  0.30309761923E+02  0.51100000000E-03 0.  1.
        -12    1    3    3    0    0 -0.25633785887E+01 -0.44175646204E+00 -0.11158887328E+01  0.28304180300E+01  0.00000000000E+00 0.  1.
</event>
<event>
 7    1  0.5006721E-012  0.5052887E+02  0.7816164E-02  0.1300439E+00
        -11   -1    0    0    0    0  0.00000000000E+00  0.00000000000E+00  0.45593999997E+02  0.45594000000E+02  0.51100000000E-03 0. -1.
         11   -1    0    0    0    0 -0.00000000000E+00 -0.00000000000E+00 -0.45593999997E+02  0.45594000000E+02  0.51100000000E-03 0.  1.
    9900012    2    1    2    0    0  0.25213694566E+02  0.17216154586E+01  0.31850753909E+02  0.50528869684E+02  0.30000029893E+02 0.  0.
        -12    1    1    2    0    0 -0.25213694566E+02 -0.17216154586E+01 -0.31850753909E+02  0.40659130316E+02  0.00000000000E+00 0.  1.
         11    1    3    3    0    0  0.24474545018E+02  0.99703741603E+01  0.18005322288E+02  0.31978169831E+02  0.51100000000E-03 0. -1.
        -11    1    3    3    0    0 -0.41749627616E+01 -0.44468506726E+01  0.75435307873E+01  0.97010129350E+01  0.51100000000E-03 0.  1.
         12    1    3    3    0    0  0.49141123092E+01 -0.38019080292E+01  0.63019008332E+01  0.88496869188E+01  0.00000000000E+00 0. -1.
</event>
<event>
 7    1  0.5006721E-012  0.5052885E+02  0.7816164E-02  0.1300439E+00
        -11   -1    0    0    0    0  0.00000000000E+00  0.00000000000E+00  0.45593999997E+02  0.45594000000E+02  0.51100000000E-03 0. -1.
         11   -1    0    0    0    0 -0.00000000000E+00 -0.00000000000E+00 -0.45593999997E+02  0.45594000000E+02  0.51100000000E-03 0.  1.
    9900012    2    1    2    0    0  0.22144746797E+02  0.11531329967E+02 -0.32090570723E+02  0.50528854524E+02  0.29999983810E+02 0.  0.
         12    1    1    2    0    0 -0.22144746797E+02 -0.11531329967E+02  0.32090570723E+02  0.40659145476E+02  0.00000000000E+00 0. -1.
         11    1    3    3    0    0  0.56074569783E+01  0.13007945550E+02 -0.64865017313E+01  0.15579631773E+02  0.51100000000E-03 0. -1.
        -11    1    3    3    0    0  0.62235511600E+01 -0.83849410166E+01 -0.16610423511E+02  0.19620040631E+02  0.51100000000E-03 0.  1.
         12    1    3    3    0    0  0.10313738659E+02  0.69083254329E+01 -0.89936454806E+01  0.15329182119E+02  0.00000000000E+00 0. -1.
</event>
<event>
 7    1  0.5006721E-012  0.5052887E+02  0.7816164E-02  0.1300439E+00
        -11   -1    0    0    0    0  0.00000000000E+00  0.00000000000E+00  0.45593999997E+02  0.45594000000E+02  0.51100000000E-03 0. -1.
         11   -1    0    0    0    0 -0.00000000000E+00 -0.00000000000E+00 -0.45593999997E+02  0.45594000000E+02  0.51100000000E-03 0.  1.
    9900012    2    1    2    0    0  0.24284523301E+02  0.49989018975E+00  0.32606399300E+02  0.50528865264E+02  0.30000016455E+02 0.  0.
        -12    1    1    2    0    0 -0.24284523301E+02 -0.49989018975E+00 -0.32606399300E+02  0.40659134736E+02  0.00000000000E+00 0.  1.
         11    1    3    3    0    0  0.28723355146E+02 -0.50624150001E+01  0.24683664074E+02  0.38209193251E+02  0.51100000000E-03 0. -1.
        -11    1    3    3    0    0 -0.27130865891E+01  0.11088551259E+01  0.68124483234E+01  0.74161884382E+01  0.51100000000E-03 0.  1.
         12    1    3    3    0    0 -0.17257452559E+01  0.44534500640E+01  0.11102869035E+01  0.49034835749E+01  0.00000000000E+00 0. -1.
</event>
<event>
 7    1  0.5006721E-012  0.5052886E+02  0.7816164E-02  0.1300439E+00
        -11   -1    0    0    0    0  0.00000000000E+00  0.00000000000E+00  0.45593999997E+02  0.45594000000E+02  0.51100000000E-03 0. -1.
         11   -1    0    0    0    0 -0.00000000000E+00 -0.00000000000E+00 -0.45593999997E+02  0.45594000000E+02  0.51100000000E-03 0.  1.
    9900012    2    1    2    0    0 -0.35702488528E+02 -0.97984065129E+01  0.16807419508E+02  0.50528858250E+02  0.29999995138E+02 0.  0.
        -12    1    1    2    0    0  0.35702488528E+02  0.97984065129E+01 -0.16807419508E+02  0.40659141750E+02  0.00000000000E+00 0.  1.
         11    1    3    3    0    0 -0.17479262140E+02 -0.11092167892E+02  0.19473252002E+02  0.28421265582E+02  0.51100000000E-03 0.  1.
        -11    1    3    3    0    0 -0.13277892370E+02  0.44214984983E+01  0.26016747680E+01  0.14234492847E+02  0.51100000000E-03 0. -1.
        -12    1    3    3    0    0 -0.49453340183E+01 -0.31277371193E+01 -0.52675072618E+01  0.78730998211E+01  0.00000000000E+00 0.  1.
</event>
<event>
 7    1  0.5006721E-012  0.5052885E+02  0.7816164E-02  0.1300439E+00
        -11   -1    0    0    0    0  0.00000000000E+00  0.00000000000E+00  0.45593999997E+02  0.45594000000E+02  0.51100000000E-03 0. -1.
         11   -1    0    0    0    0 -0.00000000000E+00 -0.00000000000E+00 -0.45593999997E+02  0.45594000000E+02  0.51100000000E-03 0.  1.
    9900012    2    1    2    0    0 -0.15537397166E+02  0.34911456863E+01 -0.37410792582E+02  0.50528853298E+02  0.29999980086E+02 0.  0.
         12    1    1    2    0    0  0.15537397166E+02 -0.34911456863E+01  0.37410792582E+02  0.40659146702E+02  0.00000000000E+00 0. -1.
         11    1    3    3    0    0 -0.32818821750E+01  0.70759436224E+01 -0.21320112068E+02  0.22702134429E+02  0.51100000000E-03 0. -1.
        -11    1    3    3    0    0 -0.11987599977E+02 -0.10207697052E+02 -0.13392625492E+02  0.20670318095E+02  0.51100000000E-03 0.  1.
        -12    1    3    3    0    0 -0.26791501474E+00  0.66228991159E+01 -0.26980550216E+01  0.71564007751E+01  0.00000000000E+00 0.  1.
</event>
<event>
 7    1  0.5006721E-012  0.5052886E+02  0.7816164E-02  0.1300439E+00
        -11   -1    0    0    0    0  0.00000000000E+00  0.00000000000E+00  0.45593999997E+02  0.45594000000E+02  0.51100000000E-03 0. -1.
         11   -1    0    0    0    0 -0.00000000000E+00 -0.00000000000E+00 -0.45593999997E+02  0.45594000000E+02  0.51100000000E-03 0.  1.
    9900012    2    1    2    0    0  0.21562815693E+02 -0.30792354999E+02 -0.15493277328E+02  0.50528858477E+02  0.29999995827E+02 0.  0.
         12    1    1    2    0    0 -0.21562815693E+02  0.30792354999E+02  0.15493277328E+02  0.40659141523E+02  0.00000000000E+00 0. -1.
         11    1    3    3    0    0  0.19414582787E+02 -0.23613694950E+02 -0.10760659860E+02  0.32408708936E+02  0.51100000000E-03 0. -1.
        -11    1    3    3    0    0 -0.17115551911E+01  0.22588416398E+01 -0.71068469799E+01  0.76510823406E+01  0.51100000000E-03 0.  1.
        -12    1    3    3    0    0  0.38597880967E+01 -0.94375016889E+01  0.23742295118E+01  0.10469067201E+02  0.00000000000E+00 0.  1.
</event>
<event>
 7    1  0.5006721E-012  0.5052886E+02  0.7816164E-02  0.1300439E+00
        -11   -1    0    0    0    0  0.00000000000E+00  0.00000000000E+00  0.45593999997E+02  0.45594000000E+02  0.51100000000E-03 0. -1.
         11   -1    0    0    0    0 -0.00000000000E+00 -0.00000000000E+00 -0.45593999997E+02  0.45594000000E+02  0.51100000000E-03 0.  1.
    9900012    2    1    2    0    0  0.33927462500E+02 -0.97938125559E+01 -0.20153761568E+02  0.50528861034E+02  0.30000003600E+02 0.  0.
         12    1    1    2    0    0 -0.33927462500E+02  0.97938125559E+01  0.20153761568E+02  0.40659138966E+02  0.00000000000E+00 0. -1.
         11    1    3    3    0    0  0.25651427757E+02 -0.12302978389E+02 -0.16040873846E+02  0.32659893711E+02  0.51100000000E-03 0. -1.
        -11    1    3    3    0    0  0.92198067301E+00  0.27113454986E+01  0.52387311390E+01  0.59704059311E+01  0.51100000000E-03 0.  1.
        -12    1    3    3    0    0  0.73540540705E+01 -0.20217966539E+00 -0.93516188610E+01  0.11898561393E+02  0.00000000000E+00 0.  1.
</event>
<event>
 7    1  0.5006721E-012  0.5052886E+02  0.7816164E-02  0.1300439E+00
        -11   -1    0    0    0    0  0.00000000000E+00  0.00000000000E+00  0.45593999997E+02  0.45594000000E+02  0.51100000000E-03 0. -1.
         11   -1    0    0    0    0 -0.00000000000E+00 -0.00000000000E+00 -0.45593999997E+02  0.45594000000E+02  0.51100000000E-03 0.  1.
    9900012    2    1    2    0    0 -0.24373651962E+01 -0.14583311444E+02  0.37875483360E+02  0.50528856360E+02  0.29999989391E+02 0.  0.
        -12    1    1    2    0    0  0.24373651962E+01  0.14583311444E+02 -0.37875483360E+02  0.40659143640E+02  0.00000000000E+00 0.  1.
         11    1    3    3    0    0 -0.92013341371E+00 -0.16666986040E+02  0.28850163284E+02  0.33331171461E+02  0.51100000000E-03 0. -1.
        -11    1    3    3    0    0 -0.48491797587E+01  0.63765068280E+01  0.85905459639E+01  0.11746142511E+02  0.51100000000E-03 0.  1.
        -12    1    3    3    0    0  0.33319479762E+01 -0.42928322317E+01  0.43477411247E+00  0.54515423886E+01  0.00000000000E+00 0.  1.
</event>
<event>
 7    1  0.5796038E-012  0.5052884E+02  0.7816164E-02  0.1300439E+00
        -11   -1    0    0    0    0  0.00000000000E+00  0.00000000000E+00  0.45593999997E+02  0.45594000000E+02  0.51100000000E-03 0. -1.
         11   -1    0    0    0    0 -0.00000000000E+00 -0.00000000000E+00 -0.45593999997E+02  0.45594000000E+02  0.51100000000E-03 0.  1.
    9900012    2    1    2    0    0  0.86114280668E+01 -0.30078650130E+02  0.25967007768E+02  0.50528838923E+02  0.29999936392E+02 0.  0.
        -12    1    1    2    0    0 -0.86114280668E+01  0.30078650130E+02 -0.25967007768E+02  0.40659161077E+02  0.00000000000E+00 0.  1.
         11    1    3    3    0    0  0.13857622401E+02 -0.12683034451E+02  0.16420979580E+02  0.24950784199E+02  0.51100000000E-03 0. -1.
        -11    1    3    3    0    0 -0.12879187826E+01 -0.17662534063E+02  0.30555164230E+01  0.17971088592E+02  0.51100000000E-03 0.  1.
         12    1    3    3    0    0 -0.39582755517E+01  0.26691838397E+00  0.64905117648E+01  0.76069661322E+01  0.00000000000E+00 0. -1.
</event>
<event>
 7    1  0.5006721E-012  0.5052887E+02  0.7816164E-02  0.1300439E+00
        -11   -1    0    0    0    0  0.00000000000E+00  0.00000000000E+00  0.45593999997E+02  0.45594000000E+02  0.51100000000E-03 0. -1.
         11   -1    0    0    0    0 -0.00000000000E+00 -0.00000000000E+00 -0.45593999997E+02  0.45594000000E+02  0.51100000000E-03 0.  1.
    9900012    2    1    2    0    0 -0.17872624981E+02  0.79458860450E+01 -0.35645435120E+02  0.50528869739E+02  0.30000030058E+02 0.  0.
         12    1    1    2    0    0  0.17872624981E+02 -0.79458860450E+01  0.35645435120E+02  0.40659130261E+02  0.00000000000E+00 0. -1.
         11    1    3    3    0    0  0.17574479198E+00  0.11066039473E+02 -0.22792855399E+02  0.25337765753E+02  0.51100000000E-03 0. -1.
        -11    1    3    3    0    0 -0.97130204499E+01 -0.24000269015E+01 -0.13495834285E+02  0.16800013056E+02  0.51100000000E-03 0.  1.
         12    1    3    3    0    0 -0.83353493226E+01 -0.72012652644E+00  0.64325456460E+00  0.83910909290E+01  0.00000000000E+00 0. -1.
</event>
<event>
 7    1  0.5006721E-012  0.5052887E+02  0.7816164E-02  0.1300439E+00
        -11   -1    0    0    0    0  0.00000000000E+00  0.00000000000E+00  0.45593999997E+02  0.45594000000E+02  0.51100000000E-03 0. -1.
         11   -1    0    0    0    0 -0.00000000000E+00 -0.00000000000E+00 -0.45593999997E+02  0.45594000000E+02  0.51100000000E-03 0.  1.
    9900012    2    1    2    0    0 -0.14205637236E+02  0.34763737617E+02 -0.15583558688E+02  0.50528869613E+02  0.30000029676E+02 0.  0.
         12    1    1    2    0    0  0.14205637236E+02 -0.34763737617E+02  0.15583558688E+02  0.40659130387E+02  0.00000000000E+00 0. -1.
         11    1    3    3    0    0  0.68990857635E+01  0.84983443892E+01  0.22957185962E+01  0.11184344677E+02  0.51100000000E-03 0. -1.
        -11    1    3    3    0    0 -0.18236238187E+02  0.22149421422E+02 -0.18719821316E+02  0.34257684728E+02  0.51100000000E-03 0.  1.
         12    1    3    3    0    0 -0.28684848133E+01  0.41159718063E+01  0.84054403176E+00  0.50868402082E+01  0.00000000000E+00 0. -1.
</event>
<event>
 7    1  0.5006721E-012  0.5052886E+02  0.7816164E-02  0.1300439E+00
        -11   -1    0    0    0    0  0.00000000000E+00  0.00000000000E+00  0.45593999997E+02  0.45594000000E+02  0.51100000000E-03 0. -1.
         11   -1    0    0    0    0 -0.00000000000E+00 -0.00000000000E+00 -0.45593999997E+02  0.45594000000E+02  0.51100000000E-03 0.  1.
    9900012    2    1    2    0    0 -0.20139436647E+02 -0.34928560889E+02 -0.52501794407E+01  0.50528860088E+02  0.30000000724E+02 0.  0.
        -12    1    1    2    0    0  0.20139436647E+02  0.34928560889E+02  0.52501794407E+01  0.40659139912E+02  0.00000000000E+00 0.  1.
         11    1    3    3    0    0 -0.10916971409E+02 -0.11590637355E+02  0.39779772444E+01  0.16411808013E+02  0.51100000000E-03 0. -1.
        -11    1    3    3    0    0 -0.27676050073E+01 -0.15062367811E+02 -0.15582307590E+02  0.21848177765E+02  0.51100000000E-03 0.  1.
        -12    1    3    3    0    0 -0.64548602311E+01 -0.82755557231E+01  0.63541509050E+01  0.12268874311E+02  0.00000000000E+00 0.  1.
</event>
<event>
 7    1  0.5006721E-012  0.5052886E+02  0.7816164E-02  0.1300439E+00
        -11   -1    0    0    0    0  0.00000000000E+00  0.00000000000E+00  0.45593999997E+02  0.45594000000E+02  0.51100000000E-03 0. -1.
         11   -1    0    0    0    0 -0.00000000000E+00 -0.00000000000E+00 -0.45593999997E+02  0.45594000000E+02  0.51100000000E-03 0.  1.
    9900012    2    1    2    0    0 -0.66191498466E+01  0.31501238284E+02  0.24839979686E+02  0.50528858975E+02  0.29999997340E+02 0.  0.
        -12    1    1    2    0    0  0.66191498466E+01 -0.31501238284E+02 -0.24839979686E+02  0.40659141025E+02  0.00000000000E+00 0.  1.
         11    1    3    3    0    0 -0.16057551426E+02  0.13436450842E+02  0.48478180240E+01  0.21491498525E+02  0.51100000000E-03 0. -1.
        -11    1    3    3    0    0  0.31587691191E+01  0.29983921731E+01  0.66806768655E+01  0.79749370915E+01  0.51100000000E-03 0.  1.
         12    1    3    3    0    0  0.62796324598E+01  0.15066395269E+02  0.13311484796E+02  0.21062423358E+02  0.00000000000E+00 0. -1.
</event>
<event>
 7    1  0.5006721E-012  0.5052886E+02  0.7816164E-02  0.1300439E+00
        -11   -1    0    0    0    0  0.00000000000E+00  0.00000000000E+00  0.45593999997E+02  0.45594000000E+02  0.51100000000E-03 0. -1.
         11   -1    0    0    0    0 -0.00000000000E+00 -0.00000000000E+00 -0.45593999997E+02  0.45594000000E+02  0.51100000000E-03 0.  1.
    9900012    2    1    2    0    0 -0.11711450748E+02  0.83288528478E+01  0.38034687640E+02  0.50528864099E+02  0.30000012915E+02 0.  0.
        -12    1    1    2    0    0  0.11711450748E+02 -0.83288528478E+01 -0.38034687640E+02  0.40659135901E+02  0.00000000000E+00 0.  1.
         11    1    3    3    0    0 -0.75053515088E+01  0.14331419596E+01  0.14350291702E+02  0.16257769507E+02  0.51100000000E-03 0. -1.
        -11    1    3    3    0    0  0.24576826474E+01  0.76618417562E+01 -0.15206325342E+01  0.81887939684E+01  0.51100000000E-03 0.  1.
        -12    1    3    3    0    0 -0.66637818864E+01 -0.76613086795E+00  0.25205028472E+02  0.26082300624E+02  0.00000000000E+00 0.  1.
</event>
<event>
 7    1  0.5006721E-012  0.5052885E+02  0.7816164E-02  0.1300439E+00
        -11   -1    0    0    0    0  0.00000000000E+00  0.00000000000E+00  0.45593999997E+02  0.45594000000E+02  0.51100000000E-03 0.  1.
         11   -1    0    0    0    0 -0.00000000000E+00 -0.00000000000E+00 -0.45593999997E+02  0.45594000000E+02  0.51100000000E-03 0. -1.
    9900012    2    1    2    0    0  0.33332062570E+02 -0.14583282732E+02  0.18151255506E+02  0.50528848424E+02  0.29999965270E+02 0.  0.
        -12    1    1    2    0    0 -0.33332062570E+02  0.14583282732E+02 -0.18151255506E+02  0.40659151576E+02  0.00000000000E+00 0.  1.
         11    1    3    3    0    0  0.14514134814E+02 -0.74819322596E+01  0.15518748569E+02  0.22527116485E+02  0.51100000000E-03 0. -1.
        -11    1    3    3    0    0  0.54900322336E+01  0.10635149374E+01 -0.75144315453E+01  0.93668671207E+01  0.51100000000E-03 0.  1.
        -12    1    3    3    0    0  0.13327895523E+02 -0.81648654102E+01  0.10146938482E+02  0.18634864818E+02  0.00000000000E+00 0.  1.
</event>
<event>
 7    1  0.5006721E-012  0.5052887E+02  0.7816164E-02  0.1300439E+00
        -11   -1    0    0    0    0  0.00000000000E+00  0.00000000000E+00  0.45593999997E+02  0.45594000000E+02  0.51100000000E-03 0. -1.
         11   -1    0    0    0    0 -0.00000000000E+00 -0.00000000000E+00 -0.45593999997E+02  0.45594000000E+02  0.51100000000E-03 0.  1.
    9900012    2    1    2    0    0  0.19474701881E+02 -0.59840659325E+01  0.35186530574E+02  0.50528868279E+02  0.30000025622E+02 0.  0.
        -12    1    1    2    0    0 -0.19474701881E+02  0.59840659325E+01 -0.35186530574E+02  0.40659131721E+02  0.00000000000E+00 0.  1.
         11    1    3    3    0    0  0.91732895793E+01  0.50145547352E+01  0.11795235826E+02  0.15761427262E+02  0.51100000000E-03 0. -1.
        -11    1    3    3    0    0  0.12947586167E+02 -0.14999808459E+02  0.22330672491E+02  0.29854533584E+02  0.51100000000E-03 0.  1.
        -12    1    3    3    0    0 -0.26461738658E+01  0.40011877914E+01  0.10606222576E+01  0.49129074329E+01  0.00000000000E+00 0.  1.
</event>
<event>
 7    1  0.5006721E-012  0.5052887E+02  0.7816164E-02  0.1300439E+00
        -11   -1    0    0    0    0  0.00000000000E+00  0.00000000000E+00  0.45593999997E+02  0.45594000000E+02  0.51100000000E-03 0. -1.
         11   -1    0    0    0    0 -0.00000000000E+00 -0.00000000000E+00 -0.45593999997E+02  0.45594000000E+02  0.51100000000E-03 0.  1.
    9900012    2    1    2    0    0  0.86889749101E+01 -0.39332564307E+02  0.55332015304E+01  0.50528865490E+02  0.30000017143E+02 0.  0.
        -12    1    1    2    0    0 -0.86889749101E+01  0.39332564307E+02 -0.55332015304E+01  0.40659134510E+02  0.00000000000E+00 0.  1.
         11    1    3    3    0    0 -0.91584289472E+01 -0.13335616668E+02  0.36633395226E+01  0.16587210417E+02  0.51100000000E-03 0. -1.
        -11    1    3    3    0    0  0.10013722292E+02 -0.20610925206E+02  0.58275331518E+01  0.23644132779E+02  0.51100000000E-03 0.  1.
         12    1    3    3    0    0  0.78336815652E+01 -0.53860224331E+01 -0.39576711440E+01  0.10297522294E+02  0.00000000000E+00 0. -1.
</event>
<event>
 7    1  0.5006721E-012  0.5052886E+02  0.7816164E-02  0.1300439E+00
        -11   -1    0    0    0    0  0.00000000000E+00  0.00000000000E+00  0.45593999997E+02  0.45594000000E+02  0.51100000000E-03 0. -1.
         11   -1    0    0    0    0 -0.00000000000E+00 -0.00000000000E+00 -0.45593999997E+02  0.45594000000E+02  0.51100000000E-03 0.  1.
    9900012    2    1    2    0    0  0.12382210855E+02 -0.30297779230E+02 -0.24122420025E+02  0.50528859333E+02  0.29999998428E+02 0.  0.
         12    1    1    2    0    0 -0.12382210855E+02  0.30297779230E+02  0.24122420025E+02  0.40659140667E+02  0.00000000000E+00 0. -1.
         11    1    3    3    0    0 -0.69296021501E+01 -0.60753814471E+00 -0.85967469407E+01  0.11058596058E+02  0.51100000000E-03 0. -1.
        -11    1    3    3    0    0  0.14537532555E+02 -0.15558853434E+02 -0.10403750920E+02  0.23699278606E+02  0.51100000000E-03 0.  1.
         12    1    3    3    0    0  0.47742804504E+01 -0.14131387651E+02 -0.51219221634E+01  0.15770984668E+02  0.00000000000E+00 0. -1.
</event>
<event>
 7    1  0.5006721E-012  0.5052886E+02  0.7816164E-02  0.1300439E+00
        -11   -1    0    0    0    0  0.00000000000E+00  0.00000000000E+00  0.45593999997E+02  0.45594000000E+02  0.51100000000E-03 0. -1.
         11   -1    0    0    0    0 -0.00000000000E+00 -0.00000000000E+00 -0.45593999997E+02  0.45594000000E+02  0.51100000000E-03 0.  1.
    9900012    2    1    2    0    0  0.33243177874E+02  0.12450900624E+02  0.19825025211E+02  0.50528862944E+02  0.30000009405E+02 0.  0.
        -12    1    1    2    0    0 -0.33243177874E+02 -0.12450900624E+02 -0.19825025211E+02  0.40659137056E+02  0.00000000000E+00 0.  1.
         11    1    3    3    0    0 -0.20316770643E+01 -0.29117513590E+01  0.74907010190E+01  0.82895482198E+01  0.51100000000E-03 0. -1.
        -11    1    3    3    0    0  0.50824250796E+01  0.53836281699E+01 -0.15123232979E+01  0.75565613199E+01  0.51100000000E-03 0.  1.
         12    1    3    3    0    0  0.30192429858E+02  0.99790238133E+01  0.13846647490E+02  0.34682753405E+02  0.00000000000E+00 0. -1.
</event>
<event>
 7    1  0.5006721E-012  0.5052886E+02  0.7816164E-02  0.1300439E+00
        -11   -1    0    0    0    0  0.00000000000E+00  0.00000000000E+00  0.45593999997E+02  0.45594000000E+02  0.51100000000E-03 0. -1.
         11   -1    0    0    0    0 -0.00000000000E+00 -0.00000000000E+00 -0.45593999997E+02  0.45594000000E+02  0.51100000000E-03 0.  1.
    9900012    2    1    2    0    0  0.70666361198E+01  0.78461985012E+01  0.39264047841E+02  0.50528860440E+02  0.30000001792E+02 0.  0.
        -12    1    1    2    0    0 -0.70666361198E+01 -0.78461985012E+01 -0.39264047841E+02  0.40659139560E+02  0.00000000000E+00 0.  1.
         11    1    3    3    0    0 -0.72707838698E+01 -0.41075202208E+01  0.33196610182E+01  0.89864436782E+01  0.51100000000E-03 0. -1.
        -11    1    3    3    0    0  0.14662326828E+02  0.87046856901E+01  0.26151291391E+02  0.31219311694E+02  0.51100000000E-03 0.  1.
         12    1    3    3    0    0 -0.32490683867E+00  0.32490330319E+01  0.97930954317E+01  0.10323105067E+02  0.00000000000E+00 0. -1.
</event>
<event>
 7    1  0.5006721E-012  0.5052884E+02  0.7816164E-02  0.1300439E+00
        -11   -1    0    0    0    0  0.00000000000E+00  0.00000000000E+00  0.45593999997E+02  0.45594000000E+02  0.51100000000E-03 0.  1.
         11   -1    0    0    0    0 -0.00000000000E+00 -0.00000000000E+00 -0.45593999997E+02  0.45594000000E+02  0.51100000000E-03 0. -1.
    9900012    2    1    2    0    0  0.27380464471E+02 -0.28932836132E+02  0.81467046362E+01  0.50528835747E+02  0.29999926737E+02 0.  0.
        -12    1    1    2    0    0 -0.27380464471E+02  0.28932836132E+02 -0.81467046362E+01  0.40659164253E+02  0.00000000000E+00 0.  1.
         11    1    3    3    0    0  0.17052320316E+02 -0.26639708671E+02  0.11370941352E+02  0.33611813603E+02  0.51100000000E-03 0.  1.
        -11    1    3    3    0    0  0.87692895592E-01 -0.72197766767E+00 -0.61173054199E+01  0.61603869730E+01  0.51100000000E-03 0. -1.
         12    1    3    3    0    0  0.10240451259E+02 -0.15711497941E+01  0.28930687043E+01  0.10756635171E+02  0.00000000000E+00 0. -1.
</event>
<event>
 7    1  0.5006721E-012  0.5052887E+02  0.7816164E-02  0.1300439E+00
        -11   -1    0    0    0    0  0.00000000000E+00  0.00000000000E+00  0.45593999997E+02  0.45594000000E+02  0.51100000000E-03 0.  1.
         11   -1    0    0    0    0 -0.00000000000E+00 -0.00000000000E+00 -0.45593999997E+02  0.45594000000E+02  0.51100000000E-03 0. -1.
    9900012    2    1    2    0    0  0.38539015658E+02  0.12880874326E+02  0.14115003890E+01  0.50528868374E+02  0.30000025908E+02 0.  0.
        -12    1    1    2    0    0 -0.38539015658E+02 -0.12880874326E+02 -0.14115003890E+01  0.40659131626E+02  0.00000000000E+00 0.  1.
         11    1    3    3    0    0  0.94599969431E+01  0.15327249016E+02 -0.27468770344E+01  0.18219808953E+02  0.51100000000E-03 0. -1.
        -11    1    3    3    0    0  0.23872769910E+02 -0.64336357204E+01  0.61078081007E+01  0.25467746893E+02  0.51100000000E-03 0.  1.
         12    1    3    3    0    0  0.52062488051E+01  0.39872610303E+01 -0.19494306773E+01  0.68413125282E+01  0.00000000000E+00 0. -1.
</event>
<event>
 7    1  0.5006721E-012  0.5052886E+02  0.7816164E-02  0.1300439E+00
        -11   -1    0    0    0    0  0.00000000000E+00  0.00000000000E+00  0.45593999997E+02  0.45594000000E+02  0.51100000000E-03 0. -1.
         11   -1    0    0    0    0 -0.00000000000E+00 -0.00000000000E+00 -0.45593999997E+02  0.45594000000E+02  0.51100000000E-03 0.  1.
    9900012    2    1    2    0    0 -0.11024383849E+02 -0.11241637732E+01  0.39119878198E+02  0.50528860146E+02  0.30000000901E+02 0.  0.
        -12    1    1    2    0    0  0.11024383849E+02  0.11241637732E+01 -0.39119878198E+02  0.40659139854E+02  0.00000000000E+00 0.  1.
         11    1    3    3    0    0 -0.17149311044E+01  0.10263864850E+02  0.11391573322E+02  0.15429058733E+02  0.51100000000E-03 0. -1.
        -11    1    3    3    0    0 -0.80136278028E+01 -0.13258323616E+02  0.13078441536E+02  0.20274294289E+02  0.51100000000E-03 0.  1.
        -12    1    3    3    0    0 -0.12958249417E+01  0.18702949923E+01  0.14649863339E+02  0.14825507124E+02  0.00000000000E+00 0.  1.
</event>
<event>
 7    1  0.5006721E-012  0.5052885E+02  0.7816164E-02  0.1300439E+00
        -11   -1    0    0    0    0  0.00000000000E+00  0.00000000000E+00  0.45593999997E+02  0.45594000000E+02  0.51100000000E-03 0. -1.
         11   -1    0    0    0    0 -0.00000000000E+00 -0.00000000000E+00 -0.45593999997E+02  0.45594000000E+02  0.51100000000E-03 0.  1.
    9900012    2    1    2    0    0 -0.14801343743E+02  0.87563874226E+01  0.36843077044E+02  0.50528850681E+02  0.29999972129E+02 0.  0.
        -12    1    1    2    0    0  0.14801343743E+02 -0.87563874226E+01 -0.36843077044E+02  0.40659149319E+02  0.00000000000E+00 0.  1.
         11    1    3    3    0    0  0.23853320330E+01  0.67428947264E+01  0.17572705457E+02  0.18972517375E+02  0.51100000000E-03 0. -1.
        -11    1    3    3    0    0 -0.70484138515E+01  0.76060980433E+01  0.16914242587E+01  0.10506844510E+02  0.51100000000E-03 0.  1.
        -12    1    3    3    0    0 -0.10138261924E+02 -0.55926053471E+01  0.17578947328E+02  0.21049488796E+02  0.00000000000E+00 0.  1.
</event>
<event>
 7    1  0.5006721E-012  0.5052887E+02  0.7816164E-02  0.1300439E+00
        -11   -1    0    0    0    0  0.00000000000E+00  0.00000000000E+00  0.45593999997E+02  0.45594000000E+02  0.51100000000E-03 0. -1.
         11   -1    0    0    0    0 -0.00000000000E+00 -0.00000000000E+00 -0.45593999997E+02  0.45594000000E+02  0.51100000000E-03 0.  1.
    9900012    2    1    2    0    0  0.11370923445E+02 -0.23027487678E+02 -0.31521452104E+02  0.50528867797E+02  0.30000024155E+02 0.  0.
         12    1    1    2    0    0 -0.11370923445E+02  0.23027487678E+02  0.31521452104E+02  0.40659132203E+02  0.00000000000E+00 0. -1.
         11    1    3    3    0    0 -0.50219112285E+00  0.55484310707E+01 -0.96445114846E+01  0.11137947985E+02  0.51100000000E-03 0. -1.
        -11    1    3    3    0    0 -0.17544239292E+01 -0.59120307754E+01 -0.27429430355E+01  0.67493590785E+01  0.51100000000E-03 0.  1.
         12    1    3    3    0    0  0.13627538497E+02 -0.22663887973E+02 -0.19133997584E+02  0.32641560734E+02  0.00000000000E+00 0. -1.
</event>
<event>
 7    1  0.5006721E-012  0.5052885E+02  0.7816164E-02  0.1300439E+00
        -11   -1    0    0    0    0  0.00000000000E+00  0.00000000000E+00  0.45593999997E+02  0.45594000000E+02  0.51100000000E-03 0. -1.
         11   -1    0    0    0    0 -0.00000000000E+00 -0.00000000000E+00 -0.45593999997E+02  0.45594000000E+02  0.51100000000E-03 0.  1.
    9900012    2    1    2    0    0  0.21295998352E+02 -0.17624717400E-01 -0.34635913108E+02  0.50528851789E+02  0.29999975497E+02 0.  0.
         12    1    1    2    0    0 -0.21295998352E+02  0.17624717400E-01  0.34635913108E+02  0.40659148211E+02  0.00000000000E+00 0. -1.
         11    1    3    3    0    0  0.35972871162E+01  0.49945135608E+01  0.25469786511E+01  0.66612867237E+01  0.51100000000E-03 0. -1.
        -11    1    3    3    0    0  0.12912280544E+02 -0.98417472082E+01 -0.23168881047E+02  0.28291059121E+02  0.51100000000E-03 0.  1.
        -12    1    3    3    0    0  0.47864306920E+01  0.48296089300E+01 -0.14014010712E+02  0.15576505944E+02  0.00000000000E+00 0.  1.
</event>
<event>
 7    1  0.5006721E-012  0.5052887E+02  0.7816164E-02  0.1300439E+00
        -11   -1    0    0    0    0  0.00000000000E+00  0.00000000000E+00  0.45593999997E+02  0.45594000000E+02  0.51100000000E-03 0. -1.
         11   -1    0    0    0    0 -0.00000000000E+00 -0.00000000000E+00 -0.45593999997E+02  0.45594000000E+02  0.51100000000E-03 0.  1.
    9900012    2    1    2    0    0 -0.17229190245E+02 -0.27614415448E+02 -0.24367267418E+02  0.50528872384E+02  0.30000038098E+02 0.  0.
         12    1    1    2    0    0  0.17229190245E+02  0.27614415448E+02  0.24367267418E+02  0.40659127616E+02  0.00000000000E+00 0. -1.
         11    1    3    3    0    0  0.44446339329E+01 -0.11371051918E+01  0.67591228130E+00  0.46373092077E+01  0.51100000000E-03 0. -1.
        -11    1    3    3    0    0 -0.79487142072E+01 -0.12411757993E+01 -0.11744348135E+02  0.14235599330E+02  0.51100000000E-03 0.  1.
         12    1    3    3    0    0 -0.13725109971E+02 -0.25236134457E+02 -0.13298831565E+02  0.31655963846E+02  0.00000000000E+00 0. -1.
</event>
<event>
 7    1  0.5006721E-012  0.5052887E+02  0.7816164E-02  0.1300439E+00
        -11   -1    0    0    0    0  0.00000000000E+00  0.00000000000E+00  0.45593999997E+02  0.45594000000E+02  0.51100000000E-03 0. -1.
         11   -1    0    0    0    0 -0.00000000000E+00 -0.00000000000E+00 -0.45593999997E+02  0.45594000000E+02  0.51100000000E-03 0.  1.
    9900012    2    1    2    0    0 -0.23349244866E+02 -0.10989156198E+02 -0.31419991592E+02  0.50528872349E+02  0.30000037991E+02 0.  0.
         12    1    1    2    0    0  0.23349244866E+02  0.10989156198E+02  0.31419991592E+02  0.40659127651E+02  0.00000000000E+00 0. -1.
         11    1    3    3    0    0 -0.90901600496E+01 -0.10268194152E+00  0.29923201027E+01  0.95705555307E+01  0.51100000000E-03 0. -1.
        -11    1    3    3    0    0 -0.12640551132E+02 -0.20960006235E+01 -0.24231209886E+02  0.27410368191E+02  0.51100000000E-03 0.  1.
         12    1    3    3    0    0 -0.16185336836E+01 -0.87904736328E+01 -0.10181101808E+02  0.13547948627E+02  0.00000000000E+00 0. -1.
</event>
<event>
 7    1  0.5006721E-012  0.5052886E+02  0.7816164E-02  0.1300439E+00
        -11   -1    0    0    0    0  0.00000000000E+00  0.00000000000E+00  0.45593999997E+02  0.45594000000E+02  0.51100000000E-03 0. -1.
         11   -1    0    0    0    0 -0.00000000000E+00 -0.00000000000E+00 -0.45593999997E+02  0.45594000000E+02  0.51100000000E-03 0.  1.
    9900012    2    1    2    0    0  0.80667569960E+01  0.23597342589E+02  0.32113215740E+02  0.50528858705E+02  0.29999996518E+02 0.  0.
        -12    1    1    2    0    0 -0.80667569960E+01 -0.23597342589E+02 -0.32113215740E+02  0.40659141295E+02  0.00000000000E+00 0.  1.
         11    1    3    3    0    0  0.11248538204E+02  0.25218695992E+02  0.12804833923E+02  0.30438068456E+02  0.51100000000E-03 0. -1.
        -11    1    3    3    0    0 -0.31918696633E+01 -0.22720927312E+01  0.97140074180E+01  0.10474367652E+02  0.51100000000E-03 0.  1.
         12    1    3    3    0    0  0.10088455753E-01  0.65073932828E+00  0.95943743989E+01  0.96164225966E+01  0.00000000000E+00 0. -1.
</event>
<event>
 7    1  0.5006721E-012  0.5052887E+02  0.7816164E-02  0.1300439E+00
        -11   -1    0    0    0    0  0.00000000000E+00  0.00000000000E+00  0.45593999997E+02  0.45594000000E+02  0.51100000000E-03 0. -1.
         11   -1    0    0    0    0 -0.00000000000E+00 -0.00000000000E+00 -0.45593999997E+02  0.45594000000E+02  0.51100000000E-03 0.  1.
    9900012    2    1    2    0    0  0.10734881632E+02  0.22348229338E+02 -0.32225514678E+02  0.50528870220E+02  0.30000031521E+02 0.  0.
         12    1    1    2    0    0 -0.10734881632E+02 -0.22348229338E+02  0.32225514678E+02  0.40659129780E+02  0.00000000000E+00 0. -1.
         11    1    3    3    0    0  0.25503572739E+01  0.97600319442E+00  0.46632770965E+01  0.54039853812E+01  0.51100000000E-03 0. -1.
        -11    1    3    3    0    0  0.10564261615E+02  0.18469991682E+02 -0.25938232888E+02  0.33549011040E+02  0.51100000000E-03 0.  1.
         12    1    3    3    0    0 -0.23797372563E+01  0.29022344621E+01 -0.10950558886E+02  0.11575873799E+02  0.00000000000E+00 0. -1.
</event>
<event>
 7    1  0.5006721E-012  0.5052886E+02  0.7816164E-02  0.1300439E+00
        -11   -1    0    0    0    0  0.00000000000E+00  0.00000000000E+00  0.45593999997E+02  0.45594000000E+02  0.51100000000E-03 0. -1.
         11   -1    0    0    0    0 -0.00000000000E+00 -0.00000000000E+00 -0.45593999997E+02  0.45594000000E+02  0.51100000000E-03 0.  1.
    9900012    2    1    2    0    0  0.25003139788E+02  0.19118132898E+02 -0.25739185627E+02  0.50528859804E+02  0.29999999861E+02 0.  0.
         12    1    1    2    0    0 -0.25003139788E+02 -0.19118132898E+02  0.25739185627E+02  0.40659140196E+02  0.00000000000E+00 0. -1.
         11    1    3    3    0    0 -0.22692068720E+01  0.12640219210E+01 -0.13235700259E+02  0.13488173073E+02  0.51100000000E-03 0. -1.
        -11    1    3    3    0    0  0.19258422552E+02  0.95530376353E+01 -0.22681944454E+01  0.21616939505E+02  0.51100000000E-03 0.  1.
         12    1    3    3    0    0  0.80139241074E+01  0.83010733414E+01 -0.10235290922E+02  0.15423747226E+02  0.00000000000E+00 0. -1.
</event>
<event>
 7    1  0.5006721E-012  0.5052887E+02  0.7816164E-02  0.1300439E+00
        -11   -1    0    0    0    0  0.00000000000E+00  0.00000000000E+00  0.45593999997E+02  0.45594000000E+02  0.51100000000E-03 0. -1.
         11   -1    0    0    0    0 -0.00000000000E+00 -0.00000000000E+00 -0.45593999997E+02  0.45594000000E+02  0.51100000000E-03 0.  1.
    9900012    2    1    2    0    0  0.19827757695E+02 -0.31564360693E+02 -0.16239338072E+02  0.50528868895E+02  0.30000027494E+02 0.  0.
         12    1    1    2    0    0 -0.19827757695E+02  0.31564360693E+02  0.16239338072E+02  0.40659131105E+02  0.00000000000E+00 0. -1.
         11    1    3    3    0    0 -0.34551392799E+01 -0.83845325661E+01 -0.12659748782E+02  0.15572655948E+02  0.51100000000E-03 0. -1.
        -11    1    3    3    0    0  0.13787842557E+02 -0.17957758853E+02 -0.68208789093E+01  0.23645508977E+02  0.51100000000E-03 0.  1.
         12    1    3    3    0    0  0.94950544185E+01 -0.52220692736E+01  0.32412896196E+01  0.11310703970E+02  0.00000000000E+00 0. -1.
</event>
<event>
 7    1  0.5006721E-012  0.5052886E+02  0.7816164E-02  0.1300439E+00
        -11   -1    0    0    0    0  0.00000000000E+00  0.00000000000E+00  0.45593999997E+02  0.45594000000E+02  0.51100000000E-03 0. -1.
         11   -1    0    0    0    0 -0.00000000000E+00 -0.00000000000E+00 -0.45593999997E+02  0.45594000000E+02  0.51100000000E-03 0.  1.
    9900012    2    1    2    0    0 -0.87957475321E+01  0.18838853973E+02  0.34941347571E+02  0.50528863711E+02  0.30000011736E+02 0.  0.
        -12    1    1    2    0    0  0.87957475321E+01 -0.18838853973E+02 -0.34941347571E+02  0.40659136289E+02  0.00000000000E+00 0.  1.
         11    1    3    3    0    0 -0.76497996217E+01  0.20459881826E+02  0.17850140619E+02  0.28209107021E+02  0.51100000000E-03 0. -1.
        -11    1    3    3    0    0 -0.43481787793E+01 -0.56132257566E+01  0.15352077971E+02  0.16914528086E+02  0.51100000000E-03 0.  1.
        -12    1    3    3    0    0  0.32022308689E+01  0.39921979038E+01  0.17391289814E+01  0.54052286034E+01  0.00000000000E+00 0.  1.
</event>
<event>
 7    1  0.5006721E-012  0.5052884E+02  0.7816164E-02  0.1300439E+00
        -11   -1    0    0    0    0  0.00000000000E+00  0.00000000000E+00  0.45593999997E+02  0.45594000000E+02  0.51100000000E-03 0. -1.
         11   -1    0    0    0    0 -0.00000000000E+00 -0.00000000000E+00 -0.45593999997E+02  0.45594000000E+02  0.51100000000E-03 0.  1.
    9900012    2    1    2    0    0 -0.16712249222E+02  0.31193761751E+02 -0.20020414019E+02  0.50528843298E+02  0.29999949688E+02 0.  0.
         12    1    1    2    0    0  0.16712249222E+02 -0.31193761751E+02  0.20020414019E+02  0.40659156702E+02  0.00000000000E+00 0. -1.
         11    1    3    3    0    0 -0.57045556436E+01  0.12561266267E+01  0.33376133972E+01  0.67275160828E+01  0.51100000000E-03 0. -1.
        -11    1    3    3    0    0 -0.53758408226E+01  0.28482289073E+02 -0.24404735180E+02  0.37891048479E+02  0.51100000000E-03 0.  1.
        -12    1    3    3    0    0 -0.56318527560E+01  0.14553460515E+01  0.10467077641E+01  0.59102787361E+01  0.00000000000E+00 0.  1.
</event>
<event>
 7    1  0.5006721E-012  0.5052884E+02  0.7816164E-02  0.1300439E+00
        -11   -1    0    0    0    0  0.00000000000E+00  0.00000000000E+00  0.45593999997E+02  0.45594000000E+02  0.51100000000E-03 0. -1.
         11   -1    0    0    0    0 -0.00000000000E+00 -0.00000000000E+00 -0.45593999997E+02  0.45594000000E+02  0.51100000000E-03 0.  1.
    9900012    2    1    2    0    0 -0.11739238885E+02 -0.20886837912E+01 -0.38871520099E+02  0.50528838617E+02  0.29999935460E+02 0.  0.
         12    1    1    2    0    0  0.11739238885E+02  0.20886837912E+01  0.38871520099E+02  0.40659161383E+02  0.00000000000E+00 0. -1.
         11    1    3    3    0    0 -0.13187719770E+02 -0.38486571564E+01 -0.27251291903E+02  0.30518208094E+02  0.51100000000E-03 0.  1.
        -11    1    3    3    0    0  0.36658778088E+01  0.68540515311E+01 -0.75756170316E+00  0.78096467587E+01  0.51100000000E-03 0. -1.
         12    1    3    3    0    0 -0.22173969239E+01 -0.50940781658E+01 -0.10862666493E+02  0.12200983764E+02  0.00000000000E+00 0. -1.
</event>
<event>
 7    1  0.5006721E-012  0.5052886E+02  0.7816164E-02  0.1300439E+00
        -11   -1    0    0    0    0  0.00000000000E+00  0.00000000000E+00  0.45593999997E+02  0.45594000000E+02  0.51100000000E-03 0. -1.
         11   -1    0    0    0    0 -0.00000000000E+00 -0.00000000000E+00 -0.45593999997E+02  0.45594000000E+02  0.51100000000E-03 0.  1.
    9900012    2    1    2    0    0  0.58154174782E+01  0.12225268964E+02  0.38339139471E+02  0.50528857153E+02  0.29999991801E+02 0.  0.
        -12    1    1    2    0    0 -0.58154174782E+01 -0.12225268964E+02 -0.38339139471E+02  0.40659142847E+02  0.00000000000E+00 0.  1.
         11    1    3    3    0    0  0.45182949547E+01 -0.22255882709E+01 -0.19003377091E+01  0.53832625906E+01  0.51100000000E-03 0. -1.
        -11    1    3    3    0    0  0.27928818365E+01  0.16619835464E+02  0.28464091673E+02  0.33079051299E+02  0.51100000000E-03 0.  1.
         12    1    3    3    0    0 -0.14957593130E+01 -0.21689782291E+01  0.11775385507E+02  0.12066543263E+02  0.00000000000E+00 0. -1.
</event>
<event>
 7    1  0.5006721E-012  0.5052886E+02  0.7816164E-02  0.1300439E+00
        -11   -1    0    0    0    0  0.00000000000E+00  0.00000000000E+00  0.45593999997E+02  0.45594000000E+02  0.51100000000E-03 0. -1.
         11   -1    0    0    0    0 -0.00000000000E+00 -0.00000000000E+00 -0.45593999997E+02  0.45594000000E+02  0.51100000000E-03 0.  1.
    9900012    2    1    2    0    0 -0.18184907770E+02  0.42962066811E+01 -0.36111185674E+02  0.50528855970E+02  0.29999988205E+02 0.  0.
         12    1    1    2    0    0  0.18184907770E+02 -0.42962066811E+01  0.36111185674E+02  0.40659144030E+02  0.00000000000E+00 0. -1.
         11    1    3    3    0    0 -0.16484390739E+02 -0.16020790623E+00 -0.13418860074E+02  0.21256213457E+02  0.51100000000E-03 0. -1.
        -11    1    3    3    0    0  0.27243717766E+01  0.14379190885E+01 -0.23634157053E+02  0.23834076293E+02  0.51100000000E-03 0.  1.
         12    1    3    3    0    0 -0.44248888081E+01  0.30184954988E+01  0.94183145171E+00  0.54385662194E+01  0.00000000000E+00 0. -1.
</event>
<event>
 7    1  0.5006721E-012  0.5052886E+02  0.7816164E-02  0.1300439E+00
        -11   -1    0    0    0    0  0.00000000000E+00  0.00000000000E+00  0.45593999997E+02  0.45594000000E+02  0.51100000000E-03 0. -1.
         11   -1    0    0    0    0 -0.00000000000E+00 -0.00000000000E+00 -0.45593999997E+02  0.45594000000E+02  0.51100000000E-03 0.  1.
    9900012    2    1    2    0    0  0.22489394707E+02 -0.26510356407E+02  0.21085398286E+02  0.50528857215E+02  0.29999991990E+02 0.  0.
        -12    1    1    2    0    0 -0.22489394707E+02  0.26510356407E+02 -0.21085398286E+02  0.40659142785E+02  0.00000000000E+00 0.  1.
         11    1    3    3    0    0  0.25062547169E+02 -0.20583742996E+02  0.10353608406E+02  0.34044367429E+02  0.51100000000E-03 0. -1.
        -11    1    3    3    0    0 -0.53951110865E+01 -0.52284987029E+01  0.27678795117E+01  0.80065960042E+01  0.51100000000E-03 0.  1.
        -12    1    3    3    0    0  0.28219586243E+01 -0.69811470808E+00  0.79639103683E+01  0.84778937819E+01  0.00000000000E+00 0.  1.
</event>
<event>
 7    1  0.5006721E-012  0.5052885E+02  0.7816164E-02  0.1300439E+00
        -11   -1    0    0    0    0  0.00000000000E+00  0.00000000000E+00  0.45593999997E+02  0.45594000000E+02  0.51100000000E-03 0. -1.
         11   -1    0    0    0    0 -0.00000000000E+00 -0.00000000000E+00 -0.45593999997E+02  0.45594000000E+02  0.51100000000E-03 0.  1.
    9900012    2    1    2    0    0 -0.16679223226E+02  0.26559782170E+02 -0.25875622404E+02  0.50528851568E+02  0.29999974827E+02 0.  0.
         12    1    1    2    0    0  0.16679223226E+02 -0.26559782170E+02  0.25875622404E+02  0.40659148432E+02  0.00000000000E+00 0. -1.
         11    1    3    3    0    0 -0.40691042500E+01 -0.55844058468E+01 -0.78711298165E+01  0.10473675711E+02  0.51100000000E-03 0. -1.
        -11    1    3    3    0    0 -0.80961248387E+00  0.11260563922E+02 -0.89842628660E+01  0.14428192947E+02  0.51100000000E-03 0.  1.
         12    1    3    3    0    0 -0.11800506492E+02  0.20883624095E+02 -0.90202297218E+01  0.25626982910E+02  0.00000000000E+00 0. -1.
</event>
<event>
 7    1  0.5006721E-012  0.5052886E+02  0.7816164E-02  0.1300439E+00
        -11   -1    0    0    0    0  0.00000000000E+00  0.00000000000E+00  0.45593999997E+02  0.45594000000E+02  0.51100000000E-03 0. -1.
         11   -1    0    0    0    0 -0.00000000000E+00 -0.00000000000E+00 -0.45593999997E+02  0.45594000000E+02  0.51100000000E-03 0.  1.
    9900012    2    1    2    0    0 -0.23681286805E+02  0.17978435541E+02  0.27733344771E+02  0.50528857099E+02  0.29999991639E+02 0.  0.
        -12    1    1    2    0    0  0.23681286805E+02 -0.17978435541E+02 -0.27733344771E+02  0.40659142901E+02  0.00000000000E+00 0.  1.
         11    1    3    3    0    0 -0.39640266346E+01  0.48357592265E+01  0.49991160569E+01  0.80055753115E+01  0.51100000000E-03 0. -1.
        -11    1    3    3    0    0  0.61971864913E+01  0.57635907534E+01  0.87218124109E+01  0.12152946588E+02  0.51100000000E-03 0.  1.
        -12    1    3    3    0    0 -0.25914446662E+02  0.73790855608E+01  0.14012416303E+02  0.30370335200E+02  0.00000000000E+00 0.  1.
</event>
<event>
 7    1  0.5006721E-012  0.5052887E+02  0.7816164E-02  0.1300439E+00
        -11   -1    0    0    0    0  0.00000000000E+00  0.00000000000E+00  0.45593999997E+02  0.45594000000E+02  0.51100000000E-03 0. -1.
         11   -1    0    0    0    0 -0.00000000000E+00 -0.00000000000E+00 -0.45593999997E+02  0.45594000000E+02  0.51100000000E-03 0.  1.
    9900012    2    1    2    0    0 -0.23042036220E+02 -0.20449071199E+02  0.26534221889E+02  0.50528869693E+02  0.30000029919E+02 0.  0.
        -12    1    1    2    0    0  0.23042036220E+02  0.20449071199E+02 -0.26534221889E+02  0.40659130307E+02  0.00000000000E+00 0.  1.
         11    1    3    3    0    0 -0.43128623580E+01 -0.12694817386E+02  0.24029543481E+02  0.27516869923E+02  0.51100000000E-03 0. -1.
        -11    1    3    3    0    0 -0.18489164991E+02 -0.37525789912E+01  0.21093648534E+01  0.18983690144E+02  0.51100000000E-03 0.  1.
         12    1    3    3    0    0 -0.24000887087E+00 -0.40016748214E+01  0.39531355470E+00  0.40283096258E+01  0.00000000000E+00 0. -1.
</event>
<event>
 7    1  0.5006721E-012  0.5052884E+02  0.7816164E-02  0.1300439E+00
        -11   -1    0    0    0    0  0.00000000000E+00  0.00000000000E+00  0.45593999997E+02  0.45594000000E+02  0.51100000000E-03 0. -1.
         11   -1    0    0    0    0 -0.00000000000E+00 -0.00000000000E+00 -0.45593999997E+02  0.45594000000E+02  0.51100000000E-03 0.  1.
    9900012    2    1    2    0    0  0.32285663323E+02  0.13811875795E+02  0.20494767907E+02  0.50528837678E+02  0.29999932605E+02 0.  0.
        -12    1    1    2    0    0 -0.32285663323E+02 -0.13811875795E+02 -0.20494767907E+02  0.40659162322E+02  0.00000000000E+00 0.  1.
         11    1    3    3    0    0 -0.17253544711E+01  0.90939720787E+01  0.22134388898E+01  0.95171680766E+01  0.51100000000E-03 0.  1.
        -11    1    3    3    0    0  0.16634806221E+02 -0.37615647613E+01  0.11283225783E+02  0.20449384631E+02  0.51100000000E-03 0. -1.
         12    1    3    3    0    0  0.17376211573E+02  0.84794684779E+01  0.69981032345E+01  0.20562284970E+02  0.00000000000E+00 0. -1.
</event>
<event>
 7    1  0.5006721E-012  0.5052886E+02  0.7816164E-02  0.1300439E+00
        -11   -1    0    0    0    0  0.00000000000E+00  0.00000000000E+00  0.45593999997E+02  0.45594000000E+02  0.51100000000E-03 0. -1.
         11   -1    0    0    0    0 -0.00000000000E+00 -0.00000000000E+00 -0.45593999997E+02  0.45594000000E+02  0.51100000000E-03 0.  1.
    9900012    2    1    2    0    0 -0.16525149895E+02  0.17573465156E+02  0.32730084481E+02  0.50528859738E+02  0.29999999661E+02 0.  0.
        -12    1    1    2    0    0  0.16525149895E+02 -0.17573465156E+02 -0.32730084481E+02  0.40659140262E+02  0.00000000000E+00 0.  1.
         11    1    3    3    0    0 -0.15285240650E+02  0.13642002255E+02  0.44907941511E+01  0.20974032507E+02  0.51100000000E-03 0. -1.
        -11    1    3    3    0    0 -0.10661079041E+01 -0.64173989492E+00  0.20685067972E+02  0.20722462533E+02  0.51100000000E-03 0.  1.
         12    1    3    3    0    0 -0.17380134049E+00  0.45732027966E+01  0.75542223583E+01  0.88323646983E+01  0.00000000000E+00 0. -1.
</event>
<event>
 7    1  0.5006721E-012  0.5052885E+02  0.7816164E-02  0.1300439E+00
        -11   -1    0    0    0    0  0.00000000000E+00  0.00000000000E+00  0.45593999997E+02  0.45594000000E+02  0.51100000000E-03 0. -1.
         11   -1    0    0    0    0 -0.00000000000E+00 -0.00000000000E+00 -0.45593999997E+02  0.45594000000E+02  0.51100000000E-03 0.  1.
    9900012    2    1    2    0    0 -0.42252562883E+01 -0.38096278527E+01 -0.40259163858E+02  0.50528851833E+02  0.29999975633E+02 0.  0.
         12    1    1    2    0    0  0.42252562883E+01  0.38096278527E+01  0.40259163858E+02  0.40659148167E+02  0.00000000000E+00 0. -1.
         11    1    3    3    0    0  0.20802299157E+01  0.36711247385E+01  0.34454614946E+01  0.54475424294E+01  0.51100000000E-03 0. -1.
        -11    1    3    3    0    0 -0.37462029804E+01 -0.29459258644E+01 -0.30786517686E+02  0.31153205091E+02  0.51100000000E-03 0.  1.
         12    1    3    3    0    0 -0.25592832236E+01 -0.45348267267E+01 -0.12918107667E+02  0.13928104313E+02  0.00000000000E+00 0. -1.
</event>
<event>
 7    1  0.5006721E-012  0.5052886E+02  0.7816164E-02  0.1300439E+00
        -11   -1    0    0    0    0  0.00000000000E+00  0.00000000000E+00  0.45593999997E+02  0.45594000000E+02  0.51100000000E-03 0. -1.
         11   -1    0    0    0    0 -0.00000000000E+00 -0.00000000000E+00 -0.45593999997E+02  0.45594000000E+02  0.51100000000E-03 0.  1.
    9900012    2    1    2    0    0 -0.17362094124E+01  0.26957344772E+02  0.30388370502E+02  0.50528856846E+02  0.29999990868E+02 0.  0.
        -12    1    1    2    0    0  0.17362094124E+01 -0.26957344772E+02 -0.30388370502E+02  0.40659143154E+02  0.00000000000E+00 0.  1.
         11    1    3    3    0    0  0.16622177960E+01 -0.56313329864E+01  0.39511522898E+01  0.70771805038E+01  0.51100000000E-03 0.  1.
        -11    1    3    3    0    0 -0.24040849094E+01  0.22843907967E+02  0.24275896943E+02  0.33420696105E+02  0.51100000000E-03 0. -1.
        -12    1    3    3    0    0 -0.99434229901E+00  0.97447697913E+01  0.21613212689E+01  0.10030980237E+02  0.00000000000E+00 0.  1.
</event>
<event>
 7    1  0.5006721E-012  0.5052886E+02  0.7816164E-02  0.1300439E+00
        -11   -1    0    0    0    0  0.00000000000E+00  0.00000000000E+00  0.45593999997E+02  0.45594000000E+02  0.51100000000E-03 0.  1.
         11   -1    0    0    0    0 -0.00000000000E+00 -0.00000000000E+00 -0.45593999997E+02  0.45594000000E+02  0.51100000000E-03 0. -1.
    9900012    2    1    2    0    0 -0.24133055342E+02 -0.31818468989E+02 -0.76384764216E+01  0.50528860179E+02  0.30000001000E+02 0.  0.
         12    1    1    2    0    0  0.24133055342E+02  0.31818468989E+02  0.76384764216E+01  0.40659139821E+02  0.00000000000E+00 0. -1.
         11    1    3    3    0    0 -0.27086621957E+02 -0.25985833309E+02 -0.12446510075E+02  0.39545723348E+02  0.51100000000E-03 0. -1.
        -11    1    3    3    0    0 -0.15027688017E+01 -0.29128650179E+01  0.46040363440E+01  0.56515703660E+01  0.51100000000E-03 0.  1.
         12    1    3    3    0    0  0.44563354171E+01 -0.29197706618E+01  0.20399730921E+00  0.53315664648E+01  0.00000000000E+00 0. -1.
</event>
<event>
 7    1  0.5006721E-012  0.5052886E+02  0.7816164E-02  0.1300439E+00
        -11   -1    0    0    0    0  0.00000000000E+00  0.00000000000E+00  0.45593999997E+02  0.45594000000E+02  0.51100000000E-03 0. -1.
         11   -1    0    0    0    0 -0.00000000000E+00 -0.00000000000E+00 -0.45593999997E+02  0.45594000000E+02  0.51100000000E-03 0.  1.
    9900012    2    1    2    0    0 -0.19425329770E+02  0.29695590349E+02  0.19849280207E+02  0.50528862681E+02  0.30000008604E+02 0.  0.
        -12    1    1    2    0    0  0.19425329770E+02 -0.29695590349E+02 -0.19849280207E+02  0.40659137319E+02  0.00000000000E+00 0.  1.
         11    1    3    3    0    0  0.55429477528E+00  0.13738885654E+02 -0.23323837466E+01  0.13946477545E+02  0.51100000000E-03 0. -1.
        -11    1    3    3    0    0 -0.43683571208E+01 -0.23468752996E+01  0.28411023041E+01  0.57150879407E+01  0.51100000000E-03 0.  1.
         12    1    3    3    0    0 -0.15611267424E+02  0.18303579994E+02  0.19340561650E+02  0.30867297195E+02  0.00000000000E+00 0. -1.
</event>
<event>
 7    1  0.5006721E-012  0.5052886E+02  0.7816164E-02  0.1300439E+00
        -11   -1    0    0    0    0  0.00000000000E+00  0.00000000000E+00  0.45593999997E+02  0.45594000000E+02  0.51100000000E-03 0. -1.
         11   -1    0    0    0    0 -0.00000000000E+00 -0.00000000000E+00 -0.45593999997E+02  0.45594000000E+02  0.51100000000E-03 0.  1.
    9900012    2    1    2    0    0  0.13047587885E+02 -0.41160227628E+01 -0.38288174769E+02  0.50528861788E+02  0.30000005890E+02 0.  0.
         12    1    1    2    0    0 -0.13047587885E+02  0.41160227628E+01  0.38288174769E+02  0.40659138212E+02  0.00000000000E+00 0. -1.
         11    1    3    3    0    0 -0.44020519607E+01  0.27015810965E+01  0.47063603180E+00  0.51863378622E+01  0.51100000000E-03 0. -1.
        -11    1    3    3    0    0  0.82006584290E+01 -0.94232578439E+01 -0.29333308931E+02  0.31882465403E+02  0.51100000000E-03 0.  1.
        -12    1    3    3    0    0  0.92489814164E+01  0.26056539846E+01 -0.94255018698E+01  0.13460058522E+02  0.00000000000E+00 0.  1.
</event>
<event>
 7    1  0.5006721E-012  0.5052886E+02  0.7816164E-02  0.1300439E+00
        -11   -1    0    0    0    0  0.00000000000E+00  0.00000000000E+00  0.45593999997E+02  0.45594000000E+02  0.51100000000E-03 0.  1.
         11   -1    0    0    0    0 -0.00000000000E+00 -0.00000000000E+00 -0.45593999997E+02  0.45594000000E+02  0.51100000000E-03 0. -1.
    9900012    2    1    2    0    0  0.34643771431E+02 -0.14632370717E+02  0.15455359516E+02  0.50528864378E+02  0.30000013763E+02 0.  0.
        -12    1    1    2    0    0 -0.34643771431E+02  0.14632370717E+02 -0.15455359516E+02  0.40659135622E+02  0.00000000000E+00 0.  1.
         11    1    3    3    0    0  0.11772913679E+02 -0.10071470987E+02  0.14156255365E+01  0.15557635433E+02  0.51100000000E-03 0. -1.
        -11    1    3    3    0    0  0.20233239206E+02  0.48067304743E+01  0.14295669553E+02  0.25235982146E+02  0.51100000000E-03 0.  1.
        -12    1    3    3    0    0  0.26376185458E+01 -0.93676302042E+01 -0.25593557329E+00  0.97352467998E+01  0.00000000000E+00 0.  1.
</event>
<event>
 7    1  0.5006721E-012  0.5052886E+02  0.7816164E-02  0.1300439E+00
        -11   -1    0    0    0    0  0.00000000000E+00  0.00000000000E+00  0.45593999997E+02  0.45594000000E+02  0.51100000000E-03 0. -1.
         11   -1    0    0    0    0 -0.00000000000E+00 -0.00000000000E+00 -0.45593999997E+02  0.45594000000E+02  0.51100000000E-03 0.  1.
    9900012    2    1    2    0    0 -0.20885592230E+01 -0.21092076091E+02 -0.34697668647E+02  0.50528856342E+02  0.29999989337E+02 0.  0.
         12    1    1    2    0    0  0.20885592230E+01  0.21092076091E+02  0.34697668647E+02  0.40659143658E+02  0.00000000000E+00 0. -1.
         11    1    3    3    0    0 -0.13651317637E+02 -0.43358122510E+01 -0.17756035860E+02  0.22813034669E+02  0.51100000000E-03 0. -1.
        -11    1    3    3    0    0  0.75717514527E+01 -0.86143145446E+01 -0.14178969197E+02  0.18236803527E+02  0.51100000000E-03 0.  1.
         12    1    3    3    0    0  0.39910069615E+01 -0.81419492956E+01 -0.27626635905E+01  0.94790181460E+01  0.00000000000E+00 0. -1.
</event>
<event>
 7    1  0.5006721E-012  0.5052886E+02  0.7816164E-02  0.1300439E+00
        -11   -1    0    0    0    0  0.00000000000E+00  0.00000000000E+00  0.45593999997E+02  0.45594000000E+02  0.51100000000E-03 0. -1.
         11   -1    0    0    0    0 -0.00000000000E+00 -0.00000000000E+00 -0.45593999997E+02  0.45594000000E+02  0.51100000000E-03 0.  1.
    9900012    2    1    2    0    0 -0.16626271538E+02 -0.13226381219E+02 -0.34666919899E+02  0.50528863257E+02  0.30000010356E+02 0.  0.
         12    1    1    2    0    0  0.16626271538E+02  0.13226381219E+02  0.34666919899E+02  0.40659136743E+02  0.00000000000E+00 0. -1.
         11    1    3    3    0    0 -0.22204687188E+02 -0.87419747882E+01 -0.21165106351E+02  0.31897209650E+02  0.51100000000E-03 0. -1.
        -11    1    3    3    0    0  0.15045373580E+01 -0.64605434827E+01 -0.12255239196E+02  0.13935319973E+02  0.51100000000E-03 0.  1.
         12    1    3    3    0    0  0.40738782918E+01  0.19761370522E+01 -0.12465743521E+01  0.46963336339E+01  0.00000000000E+00 0. -1.
</event>
<event>
 7    1  0.5006721E-012  0.5052886E+02  0.7816164E-02  0.1300439E+00
        -11   -1    0    0    0    0  0.00000000000E+00  0.00000000000E+00  0.45593999997E+02  0.45594000000E+02  0.51100000000E-03 0. -1.
         11   -1    0    0    0    0 -0.00000000000E+00 -0.00000000000E+00 -0.45593999997E+02  0.45594000000E+02  0.51100000000E-03 0.  1.
    9900012    2    1    2    0    0 -0.21978234180E+02 -0.26871303766E+02 -0.21167331895E+02  0.50528859781E+02  0.29999999791E+02 0.  0.
         12    1    1    2    0    0  0.21978234180E+02  0.26871303766E+02  0.21167331895E+02  0.40659140219E+02  0.00000000000E+00 0. -1.
         11    1    3    3    0    0 -0.46104956775E+01 -0.19529665199E+01 -0.76326650703E+01  0.91284349675E+01  0.51100000000E-03 0. -1.
        -11    1    3    3    0    0  0.31565537601E+00 -0.20575897371E+02 -0.44617519464E+01  0.21056457956E+02  0.51100000000E-03 0.  1.
        -12    1    3    3    0    0 -0.17683393879E+02 -0.43424398749E+01 -0.90729148786E+01  0.20343966858E+02  0.00000000000E+00 0.  1.
</event>
<event>
 7    1  0.5006721E-012  0.5052886E+02  0.7816164E-02  0.1300439E+00
        -11   -1    0    0    0    0  0.00000000000E+00  0.00000000000E+00  0.45593999997E+02  0.45594000000E+02  0.51100000000E-03 0. -1.
         11   -1    0    0    0    0 -0.00000000000E+00 -0.00000000000E+00 -0.45593999997E+02  0.45594000000E+02  0.51100000000E-03 0.  1.
    9900012    2    1    2    0    0  0.19247082458E+02  0.29270628100E+02  0.20638453361E+02  0.50528860687E+02  0.30000002546E+02 0.  0.
        -12    1    1    2    0    0 -0.19247082458E+02 -0.29270628100E+02 -0.20638453361E+02  0.40659139313E+02  0.00000000000E+00 0.  1.
         11    1    3    3    0    0  0.22789585087E+02  0.14030695828E+02  0.18562400881E+02  0.32569745786E+02  0.51100000000E-03 0. -1.
        -11    1    3    3    0    0 -0.39243636552E+01  0.54969806602E+01  0.42357134192E+01  0.79723707207E+01  0.51100000000E-03 0.  1.
         12    1    3    3    0    0  0.38186102591E+00  0.97429516117E+01 -0.21596609394E+01  0.99867441803E+01  0.00000000000E+00 0. -1.
</event>
<event>
 7    1  0.5006721E-012  0.5052884E+02  0.7816164E-02  0.1300439E+00
        -11   -1    0    0    0    0  0.00000000000E+00  0.00000000000E+00  0.45593999997E+02  0.45594000000E+02  0.51100000000E-03 0. -1.
         11   -1    0    0    0    0 -0.00000000000E+00 -0.00000000000E+00 -0.45593999997E+02  0.45594000000E+02  0.51100000000E-03 0.  1.
    9900012    2    1    2    0    0  0.61128640709E+01  0.38164786196E+02 -0.12619403000E+02  0.50528839351E+02  0.29999937692E+02 0.  0.
         12    1    1    2    0    0 -0.61128640709E+01 -0.38164786196E+02  0.12619403000E+02  0.40659160649E+02  0.00000000000E+00 0. -1.
         11    1    3    3    0    0  0.12938185939E+02  0.55422711693E+01 -0.21500953296E+01  0.14238551025E+02  0.51100000000E-03 0. -1.
        -11    1    3    3    0    0 -0.45130353515E+01  0.12052276540E+02 -0.86592109133E+01  0.15511505142E+02  0.51100000000E-03 0.  1.
         12    1    3    3    0    0 -0.23122865162E+01  0.20570238487E+02 -0.18100967575E+01  0.20778783184E+02  0.00000000000E+00 0. -1.
</event>
<event>
 7    1  0.5006721E-012  0.5052886E+02  0.7816164E-02  0.1300439E+00
        -11   -1    0    0    0    0  0.00000000000E+00  0.00000000000E+00  0.45593999997E+02  0.45594000000E+02  0.51100000000E-03 0. -1.
         11   -1    0    0    0    0 -0.00000000000E+00 -0.00000000000E+00 -0.45593999997E+02  0.45594000000E+02  0.51100000000E-03 0.  1.
    9900012    2    1    2    0    0 -0.24573352755E+02 -0.13156953571E+02 -0.29600860469E+02  0.50528855476E+02  0.29999986705E+02 0.  0.
         12    1    1    2    0    0  0.24573352755E+02  0.13156953571E+02  0.29600860469E+02  0.40659144524E+02  0.00000000000E+00 0. -1.
         11    1    3    3    0    0 -0.18815957057E+02 -0.14938325630E+02 -0.13888904198E+02  0.27750594096E+02  0.51100000000E-03 0. -1.
        -11    1    3    3    0    0  0.36468106222E+01  0.52212371066E+01 -0.48526669595E+01  0.80068047009E+01  0.51100000000E-03 0.  1.
         12    1    3    3    0    0 -0.94042063208E+01 -0.34398650476E+01 -0.10859289311E+02  0.14771456679E+02  0.00000000000E+00 0. -1.
</event>
<event>
 7    1  0.5006721E-012  0.5052883E+02  0.7816164E-02  0.1300439E+00
        -11   -1    0    0    0    0  0.00000000000E+00  0.00000000000E+00  0.45593999997E+02  0.45594000000E+02  0.51100000000E-03 0. -1.
         11   -1    0    0    0    0 -0.00000000000E+00 -0.00000000000E+00 -0.45593999997E+02  0.45594000000E+02  0.51100000000E-03 0.  1.
    9900012    2    1    2    0    0 -0.13374367898E+02  0.33873923344E+02  0.18079041731E+02  0.50528829456E+02  0.29999907613E+02 0.  0.
        -12    1    1    2    0    0  0.13374367898E+02 -0.33873923344E+02 -0.18079041731E+02  0.40659170544E+02  0.00000000000E+00 0.  1.
         11    1    3    3    0    0  0.13617188344E+01  0.12369229899E+02  0.18792491329E+02  0.22539074007E+02  0.51100000000E-03 0. -1.
        -11    1    3    3    0    0 -0.16093859630E+02  0.20852273829E+02 -0.42442922688E-01  0.26340680388E+02  0.51100000000E-03 0.  1.
         12    1    3    3    0    0  0.13577728980E+01  0.65241961559E+00 -0.67100667454E+00  0.16490750603E+01  0.00000000000E+00 0. -1.
</event>
<event>
 7    1  0.5006721E-012  0.5052887E+02  0.7816164E-02  0.1300439E+00
        -11   -1    0    0    0    0  0.00000000000E+00  0.00000000000E+00  0.45593999997E+02  0.45594000000E+02  0.51100000000E-03 0.  1.
         11   -1    0    0    0    0 -0.00000000000E+00 -0.00000000000E+00 -0.45593999997E+02  0.45594000000E+02  0.51100000000E-03 0. -1.
    9900012    2    1    2    0    0 -0.32853373489E+02 -0.22673513859E+02  0.77286629859E+01  0.50528872958E+02  0.30000039842E+02 0.  0.
         12    1    1    2    0    0  0.32853373489E+02  0.22673513859E+02 -0.77286629859E+01  0.40659127042E+02  0.00000000000E+00 0. -1.
         11    1    3    3    0    0 -0.15638893416E+02 -0.17930340917E+02 -0.12905437175E+01  0.23827245246E+02  0.51100000000E-03 0.  1.
        -11    1    3    3    0    0 -0.88720362825E+01  0.63101430950E+01  0.63335470003E+01  0.12595425818E+02  0.51100000000E-03 0. -1.
         12    1    3    3    0    0 -0.83424437901E+01 -0.11053316037E+02  0.26856597031E+01  0.14106201893E+02  0.00000000000E+00 0. -1.
</event>
<event>
 7    1  0.5006721E-012  0.5052885E+02  0.7816164E-02  0.1300439E+00
        -11   -1    0    0    0    0  0.00000000000E+00  0.00000000000E+00  0.45593999997E+02  0.45594000000E+02  0.51100000000E-03 0. -1.
         11   -1    0    0    0    0 -0.00000000000E+00 -0.00000000000E+00 -0.45593999997E+02  0.45594000000E+02  0.51100000000E-03 0.  1.
    9900012    2    1    2    0    0 -0.15626777093E+02  0.32842858612E+02  0.18174621911E+02  0.50528850898E+02  0.29999972790E+02 0.  0.
        -12    1    1    2    0    0  0.15626777093E+02 -0.32842858612E+02 -0.18174621911E+02  0.40659149102E+02  0.00000000000E+00 0.  1.
         11    1    3    3    0    0  0.14348909335E+01  0.10303870813E+02  0.18620261202E+02  0.21329388018E+02  0.51100000000E-03 0. -1.
        -11    1    3    3    0    0 -0.74726737676E+01  0.15164887267E+02 -0.19143383124E+01  0.17014092703E+02  0.51100000000E-03 0.  1.
         12    1    3    3    0    0 -0.95889942586E+01  0.73741005312E+01  0.14686990206E+01  0.12185370177E+02  0.00000000000E+00 0. -1.
</event>
<event>
 7    1  0.5006721E-012  0.5052886E+02  0.7816164E-02  0.1300439E+00
        -11   -1    0    0    0    0  0.00000000000E+00  0.00000000000E+00  0.45593999997E+02  0.45594000000E+02  0.51100000000E-03 0. -1.
         11   -1    0    0    0    0 -0.00000000000E+00 -0.00000000000E+00 -0.45593999997E+02  0.45594000000E+02  0.51100000000E-03 0.  1.
    9900012    2    1    2    0    0  0.48455846454E+01  0.23086252409E+02  0.33116628497E+02  0.50528858053E+02  0.29999994538E+02 0.  0.
        -12    1    1    2    0    0 -0.48455846454E+01 -0.23086252409E+02 -0.33116628497E+02  0.40659141947E+02  0.00000000000E+00 0.  1.
         11    1    3    3    0    0  0.61883300156E+01  0.46611455758E+01  0.30286615860E+02  0.31261810680E+02  0.51100000000E-03 0. -1.
        -11    1    3    3    0    0  0.98167937108E+00  0.92634746226E+01  0.30815182785E+01  0.98117996124E+01  0.51100000000E-03 0.  1.
         12    1    3    3    0    0 -0.23244247412E+01  0.91616322101E+01 -0.25150564115E+00  0.94552477608E+01  0.00000000000E+00 0. -1.
</event>
<event>
 7    1  0.5006721E-012  0.5052884E+02  0.7816164E-02  0.1300439E+00
        -11   -1    0    0    0    0  0.00000000000E+00  0.00000000000E+00  0.45593999997E+02  0.45594000000E+02  0.51100000000E-03 0. -1.
         11   -1    0    0    0    0 -0.00000000000E+00 -0.00000000000E+00 -0.45593999997E+02  0.45594000000E+02  0.51100000000E-03 0.  1.
    9900012    2    1    2    0    0  0.25521741312E+02 -0.89115940652E+01 -0.30370896849E+02  0.50528841576E+02  0.29999944454E+02 0.  0.
         12    1    1    2    0    0 -0.25521741312E+02  0.89115940652E+01  0.30370896849E+02  0.40659158424E+02  0.00000000000E+00 0. -1.
         11    1    3    3    0    0  0.28504331528E+00 -0.48784834930E+01 -0.22962545921E-01  0.48868577248E+01  0.51100000000E-03 0. -1.
        -11    1    3    3    0    0  0.25482438752E+02  0.29560685458E+01 -0.17627703711E+02  0.31126017484E+02  0.51100000000E-03 0.  1.
         12    1    3    3    0    0 -0.24574075592E+00 -0.69891791180E+01 -0.12720230592E+02  0.14515966367E+02  0.00000000000E+00 0. -1.
</event>
<event>
 7    1  0.5006721E-012  0.5052886E+02  0.7816164E-02  0.1300439E+00
        -11   -1    0    0    0    0  0.00000000000E+00  0.00000000000E+00  0.45593999997E+02  0.45594000000E+02  0.51100000000E-03 0. -1.
         11   -1    0    0    0    0 -0.00000000000E+00 -0.00000000000E+00 -0.45593999997E+02  0.45594000000E+02  0.51100000000E-03 0.  1.
    9900012    2    1    2    0    0 -0.27397186704E+02  0.29993769628E+01 -0.29892536603E+02  0.50528857781E+02  0.29999993711E+02 0.  0.
         12    1    1    2    0    0  0.27397186704E+02 -0.29993769628E+01  0.29892536603E+02  0.40659142219E+02  0.00000000000E+00 0. -1.
         11    1    3    3    0    0 -0.18966139274E+01 -0.67762390788E+01  0.78143853903E+00  0.70799157406E+01  0.51100000000E-03 0. -1.
        -11    1    3    3    0    0 -0.18431387383E+02  0.12744943527E+02 -0.26550387967E+02  0.34742952204E+02  0.51100000000E-03 0.  1.
        -12    1    3    3    0    0 -0.70691853937E+01 -0.29693274857E+01 -0.41235871748E+01  0.87059898367E+01  0.00000000000E+00 0.  1.
</event>
<event>
 7    1  0.5006721E-012  0.5052886E+02  0.7816164E-02  0.1300439E+00
        -11   -1    0    0    0    0  0.00000000000E+00  0.00000000000E+00  0.45593999997E+02  0.45594000000E+02  0.51100000000E-03 0. -1.
         11   -1    0    0    0    0 -0.00000000000E+00 -0.00000000000E+00 -0.45593999997E+02  0.45594000000E+02  0.51100000000E-03 0.  1.
    9900012    2    1    2    0    0  0.38029929987E+02  0.13881242786E+02  0.37684315448E+01  0.50528861391E+02  0.30000004684E+02 0.  0.
         12    1    1    2    0    0 -0.38029929987E+02 -0.13881242786E+02 -0.37684315448E+01  0.40659138609E+02  0.00000000000E+00 0. -1.
         11    1    3    3    0    0  0.66361312327E+01 -0.15948619878E+01  0.51507641310E+01  0.85505668755E+01  0.51100000000E-03 0. -1.
        -11    1    3    3    0    0  0.59107914573E+01  0.30106655010E+01 -0.10291230740E+02  0.12243814472E+02  0.51100000000E-03 0.  1.
        -12    1    3    3    0    0  0.25483007297E+02  0.12465439273E+02  0.89088981538E+01  0.29734480044E+02  0.00000000000E+00 0.  1.
</event>
<event>
 7    1  0.5006721E-012  0.5052886E+02  0.7816164E-02  0.1300439E+00
        -11   -1    0    0    0    0  0.00000000000E+00  0.00000000000E+00  0.45593999997E+02  0.45594000000E+02  0.51100000000E-03 0. -1.
         11   -1    0    0    0    0 -0.00000000000E+00 -0.00000000000E+00 -0.45593999997E+02  0.45594000000E+02  0.51100000000E-03 0.  1.
    9900012    2    1    2    0    0  0.97174289482E+01 -0.26069425638E+02 -0.29649990495E+02  0.50528864313E+02  0.30000013566E+02 0.  0.
         12    1    1    2    0    0 -0.97174289482E+01  0.26069425638E+02  0.29649990495E+02  0.40659135687E+02  0.00000000000E+00 0. -1.
         11    1    3    3    0    0  0.63339262278E+01 -0.22520689482E+01 -0.99902610050E+01  0.12041418156E+02  0.51100000000E-03 0. -1.
        -11    1    3    3    0    0  0.42369473397E+01 -0.24799641904E+02 -0.23503450001E+02  0.34429436875E+02  0.51100000000E-03 0.  1.
        -12    1    3    3    0    0 -0.85344461928E+00  0.98228521384E+00  0.38437205113E+01  0.40580092815E+01  0.00000000000E+00 0.  1.
</event>
<event>
 7    1  0.5006721E-012  0.5052886E+02  0.7816164E-02  0.1300439E+00
        -11   -1    0    0    0    0  0.00000000000E+00  0.00000000000E+00  0.45593999997E+02  0.45594000000E+02  0.51100000000E-03 0. -1.
         11   -1    0    0    0    0 -0.00000000000E+00 -0.00000000000E+00 -0.45593999997E+02  0.45594000000E+02  0.51100000000E-03 0.  1.
    9900012    2    1    2    0    0  0.34275789839E+02  0.21851611011E+02  0.91822209402E+00  0.50528858289E+02  0.29999995255E+02 0.  0.
         12    1    1    2    0    0 -0.34275789839E+02 -0.21851611011E+02 -0.91822209402E+00  0.40659141711E+02  0.00000000000E+00 0. -1.
         11    1    3    3    0    0 -0.37413896494E+01  0.18317183734E+01 -0.55467922141E+00  0.42024823626E+01  0.51100000000E-03 0. -1.
        -11    1    3    3    0    0  0.28795839455E+02  0.58318407858E+01  0.10885672443E+01  0.29400607405E+02  0.51100000000E-03 0.  1.
        -12    1    3    3    0    0  0.92213400328E+01  0.14188051852E+02  0.38433407111E+00  0.16925768521E+02  0.00000000000E+00 0.  1.
</event>
<event>
 7    1  0.5006721E-012  0.5052885E+02  0.7816164E-02  0.1300439E+00
        -11   -1    0    0    0    0  0.00000000000E+00  0.00000000000E+00  0.45593999997E+02  0.45594000000E+02  0.51100000000E-03 0. -1.
         11   -1    0    0    0    0 -0.00000000000E+00 -0.00000000000E+00 -0.45593999997E+02  0.45594000000E+02  0.51100000000E-03 0.  1.
    9900012    2    1    2    0    0 -0.19624681911E+02 -0.96483833316E+01 -0.34277501649E+02  0.50528848997E+02  0.29999967010E+02 0.  0.
         12    1    1    2    0    0  0.19624681911E+02  0.96483833316E+01  0.34277501649E+02  0.40659151003E+02  0.00000000000E+00 0. -1.
         11    1    3    3    0    0  0.54855017126E+01 -0.26497257144E+01 -0.17034074987E+02  0.18090646377E+02  0.51100000000E-03 0. -1.
        -11    1    3    3    0    0 -0.24286162643E+02 -0.56062092282E+01 -0.17905855259E+02  0.30689850613E+02  0.51100000000E-03 0.  1.
         12    1    3    3    0    0 -0.82402097988E+00 -0.13924483891E+01  0.66242859732E+00  0.17483520063E+01  0.00000000000E+00 0. -1.
</event>
<event>
 7    1  0.5006721E-012  0.5052886E+02  0.7816164E-02  0.1300439E+00
        -11   -1    0    0    0    0  0.00000000000E+00  0.00000000000E+00  0.45593999997E+02  0.45594000000E+02  0.51100000000E-03 0. -1.
         11   -1    0    0    0    0 -0.00000000000E+00 -0.00000000000E+00 -0.45593999997E+02  0.45594000000E+02  0.51100000000E-03 0.  1.
    9900012    2    1    2    0    0  0.19616030784E+02 -0.26641051630E+02 -0.23635377053E+02  0.50528863953E+02  0.30000012472E+02 0.  0.
         12    1    1    2    0    0 -0.19616030784E+02  0.26641051630E+02  0.23635377053E+02  0.40659136047E+02  0.00000000000E+00 0. -1.
         11    1    3    3    0    0 -0.35957635829E+01 -0.20202035293E+00 -0.52378755639E+01  0.63565453394E+01  0.51100000000E-03 0. -1.
        -11    1    3    3    0    0  0.16750524259E+02 -0.25560145236E+02 -0.74899939857E+01  0.31464282887E+02  0.51100000000E-03 0.  1.
        -12    1    3    3    0    0  0.64612701085E+01 -0.87888604019E+00 -0.10907507503E+02  0.12708035726E+02  0.00000000000E+00 0.  1.
</event>
<event>
 7    1  0.5006721E-012  0.5052886E+02  0.7816164E-02  0.1300439E+00
        -11   -1    0    0    0    0  0.00000000000E+00  0.00000000000E+00  0.45593999997E+02  0.45594000000E+02  0.51100000000E-03 0. -1.
         11   -1    0    0    0    0 -0.00000000000E+00 -0.00000000000E+00 -0.45593999997E+02  0.45594000000E+02  0.51100000000E-03 0.  1.
    9900012    2    1    2    0    0  0.12439552593E+02  0.48056012941E+00 -0.38706492567E+02  0.50528856212E+02  0.29999988941E+02 0.  0.
         12    1    1    2    0    0 -0.12439552593E+02 -0.48056012941E+00  0.38706492567E+02  0.40659143788E+02  0.00000000000E+00 0. -1.
         11    1    3    3    0    0  0.81800240884E+01 -0.75873332221E+01 -0.75677885322E+01  0.13481537117E+02  0.51100000000E-03 0. -1.
        -11    1    3    3    0    0  0.15156247574E+01  0.20473299497E+00 -0.28161497166E+02  0.28202995531E+02  0.51100000000E-03 0.  1.
         12    1    3    3    0    0  0.27439037475E+01  0.78631603566E+01 -0.29772068688E+01  0.88443235642E+01  0.00000000000E+00 0. -1.
</event>
<event>
 7    1  0.5006721E-012  0.5052885E+02  0.7816164E-02  0.1300439E+00
        -11   -1    0    0    0    0  0.00000000000E+00  0.00000000000E+00  0.45593999997E+02  0.45594000000E+02  0.51100000000E-03 0. -1.
         11   -1    0    0    0    0 -0.00000000000E+00 -0.00000000000E+00 -0.45593999997E+02  0.45594000000E+02  0.51100000000E-03 0.  1.
    9900012    2    1    2    0    0  0.18019762279E+02 -0.10487541881E+00 -0.36447820977E+02  0.50528849918E+02  0.29999969810E+02 0.  0.
         12    1    1    2    0    0 -0.18019762279E+02  0.10487541881E+00  0.36447820977E+02  0.40659150082E+02  0.00000000000E+00 0. -1.
         11    1    3    3    0    0  0.22798582786E+01 -0.37502409568E+00  0.44397780205E+01  0.50050000975E+01  0.51100000000E-03 0. -1.
        -11    1    3    3    0    0  0.10195814517E+02 -0.34850845740E+01 -0.34953702090E+02  0.36576792344E+02  0.51100000000E-03 0.  1.
         12    1    3    3    0    0  0.55440894836E+01  0.37552332508E+01 -0.59338969074E+01  0.89470574760E+01  0.00000000000E+00 0. -1.
</event>
<event>
 7    1  0.5006721E-012  0.5052886E+02  0.7816164E-02  0.1300439E+00
        -11   -1    0    0    0    0  0.00000000000E+00  0.00000000000E+00  0.45593999997E+02  0.45594000000E+02  0.51100000000E-03 0.  1.
         11   -1    0    0    0    0 -0.00000000000E+00 -0.00000000000E+00 -0.45593999997E+02  0.45594000000E+02  0.51100000000E-03 0. -1.
    9900012    2    1    2    0    0  0.40122515446E+02 -0.33060335895E+01  0.56938081763E+01  0.50528861355E+02  0.30000004575E+02 0.  0.
        -12    1    1    2    0    0 -0.40122515446E+02  0.33060335895E+01 -0.56938081763E+01  0.40659138645E+02  0.00000000000E+00 0.  1.
         11    1    3    3    0    0  0.14935800918E+02 -0.15457116743E+01 -0.57237794724E+01  0.16069506071E+02  0.51100000000E-03 0. -1.
        -11    1    3    3    0    0  0.11567034575E+02 -0.10627957385E+02  0.87773009155E+01  0.17994187357E+02  0.51100000000E-03 0.  1.
        -12    1    3    3    0    0  0.13619679953E+02  0.88676354695E+01  0.26402867332E+01  0.16465167927E+02  0.00000000000E+00 0.  1.
</event>
<event>
 7    1  0.5006721E-012  0.5052888E+02  0.7816164E-02  0.1300439E+00
        -11   -1    0    0    0    0  0.00000000000E+00  0.00000000000E+00  0.45593999997E+02  0.45594000000E+02  0.51100000000E-03 0. -1.
         11   -1    0    0    0    0 -0.00000000000E+00 -0.00000000000E+00 -0.45593999997E+02  0.45594000000E+02  0.51100000000E-03 0.  1.
    9900012    2    1    2    0    0 -0.10661523869E+01  0.14257813170E+02  0.38062345385E+02  0.50528879823E+02  0.30000060711E+02 0.  0.
        -12    1    1    2    0    0  0.10661523869E+01 -0.14257813170E+02 -0.38062345385E+02  0.40659120177E+02  0.00000000000E+00 0.  1.
         11    1    3    3    0    0  0.46070665338E+00 -0.47211188116E+01 -0.44087996771E+00  0.47639887553E+01  0.51100000000E-03 0.  1.
        -11    1    3    3    0    0 -0.82893085002E+01  0.14248610680E+02  0.25711760890E+02  0.30542268908E+02  0.51100000000E-03 0. -1.
        -12    1    3    3    0    0  0.67624494600E+01  0.47303213018E+01  0.12791464463E+02  0.15222622160E+02  0.00000000000E+00 0.  1.
</event>
<event>
 7    1  0.5006721E-012  0.5052887E+02  0.7816164E-02  0.1300439E+00
        -11   -1    0    0    0    0  0.00000000000E+00  0.00000000000E+00  0.45593999997E+02  0.45594000000E+02  0.51100000000E-03 0. -1.
         11   -1    0    0    0    0 -0.00000000000E+00 -0.00000000000E+00 -0.45593999997E+02  0.45594000000E+02  0.51100000000E-03 0.  1.
    9900012    2    1    2    0    0 -0.21686590149E+02  0.15530054196E+02  0.30686709269E+02  0.50528869397E+02  0.30000029019E+02 0.  0.
        -12    1    1    2    0    0  0.21686590149E+02 -0.15530054196E+02 -0.30686709269E+02  0.40659130603E+02  0.00000000000E+00 0.  1.
         11    1    3    3    0    0 -0.74958800828E+01  0.72299021726E+01  0.98611150519E+01  0.14342290402E+02  0.51100000000E-03 0. -1.
        -11    1    3    3    0    0 -0.13360603484E+02 -0.59860860944E+01  0.67764608728E+01  0.16132556351E+02  0.51100000000E-03 0.  1.
        -12    1    3    3    0    0 -0.83010658256E+00  0.14286238118E+02  0.14049133344E+02  0.20054022645E+02  0.00000000000E+00 0.  1.
</event>
<event>
 7    1  0.5006721E-012  0.5052885E+02  0.7816164E-02  0.1300439E+00
        -11   -1    0    0    0    0  0.00000000000E+00  0.00000000000E+00  0.45593999997E+02  0.45594000000E+02  0.51100000000E-03 0. -1.
         11   -1    0    0    0    0 -0.00000000000E+00 -0.00000000000E+00 -0.45593999997E+02  0.45594000000E+02  0.51100000000E-03 0.  1.
    9900012    2    1    2    0    0 -0.28778422740E+02 -0.13220765704E+02  0.25498627605E+02  0.50528852555E+02  0.29999977827E+02 0.  0.
        -12    1    1    2    0    0  0.28778422740E+02  0.13220765704E+02 -0.25498627605E+02  0.40659147445E+02  0.00000000000E+00 0.  1.
         11    1    3    3    0    0 -0.68697801459E+01 -0.16534925702E+02  0.17554194037E+02  0.25074835509E+02  0.51100000000E-03 0. -1.
        -11    1    3    3    0    0 -0.55163397186E+01  0.24973391158E+01  0.66448031224E+01  0.89900008535E+01  0.51100000000E-03 0.  1.
         12    1    3    3    0    0 -0.16392302875E+02  0.81682088264E+00  0.12996304457E+01  0.16464016193E+02  0.00000000000E+00 0. -1.
</event>
<event>
 7    1  0.5006721E-012  0.5052896E+02  0.7816164E-02  0.1300438E+00
        -11   -1    0    0    0    0  0.00000000000E+00  0.00000000000E+00  0.45593999997E+02  0.45594000000E+02  0.51100000000E-03 0.  1.
         11   -1    0    0    0    0 -0.00000000000E+00 -0.00000000000E+00 -0.45593999997E+02  0.45594000000E+02  0.51100000000E-03 0. -1.
    9900012    2    1    2    0    0 -0.36318824561E+02  0.17650695049E+02  0.47490626335E+01  0.50528958582E+02  0.30000300103E+02 0.  0.
        -12    1    1    2    0    0  0.36318824561E+02 -0.17650695049E+02 -0.47490626335E+01  0.40659041418E+02  0.00000000000E+00 0.  1.
         11    1    3    3    0    0 -0.12042906261E+02 -0.44394235914E+01  0.10517560663E+02  0.16593949366E+02  0.51100000000E-03 0. -1.
        -11    1    3    3    0    0 -0.32294450737E+01  0.64339250987E+01 -0.88391015578E+00  0.72529997301E+01  0.51100000000E-03 0.  1.
         12    1    3    3    0    0 -0.21046473226E+02  0.15656193541E+02 -0.48845878733E+01  0.26682009485E+02  0.00000000000E+00 0. -1.
</event>
<event>
 7    1  0.5006721E-012  0.5052886E+02  0.7816164E-02  0.1300439E+00
        -11   -1    0    0    0    0  0.00000000000E+00  0.00000000000E+00  0.45593999997E+02  0.45594000000E+02  0.51100000000E-03 0.  1.
         11   -1    0    0    0    0 -0.00000000000E+00 -0.00000000000E+00 -0.45593999997E+02  0.45594000000E+02  0.51100000000E-03 0. -1.
    9900012    2    1    2    0    0 -0.22328177465E+02  0.13745358244E+02  0.31075441644E+02  0.50528862583E+02  0.30000008307E+02 0.  0.
        -12    1    1    2    0    0  0.22328177465E+02 -0.13745358244E+02 -0.31075441644E+02  0.40659137417E+02  0.00000000000E+00 0.  1.
         11    1    3    3    0    0 -0.11676920784E+02 -0.11741880004E+01 -0.21009224680E+01  0.11922376941E+02  0.51100000000E-03 0. -1.
        -11    1    3    3    0    0 -0.32254668623E+01  0.85513242390E+01  0.10563898337E+02  0.13968705418E+02  0.51100000000E-03 0.  1.
         12    1    3    3    0    0 -0.74257898187E+01  0.63682220050E+01  0.22612465775E+02  0.24637780224E+02  0.00000000000E+00 0. -1.
</event>
<event>
 7    1  0.5006721E-012  0.5052885E+02  0.7816164E-02  0.1300439E+00
        -11   -1    0    0    0    0  0.00000000000E+00  0.00000000000E+00  0.45593999997E+02  0.45594000000E+02  0.51100000000E-03 0. -1.
         11   -1    0    0    0    0 -0.00000000000E+00 -0.00000000000E+00 -0.45593999997E+02  0.45594000000E+02  0.51100000000E-03 0.  1.
    9900012    2    1    2    0    0  0.21397530147E+02  0.16670349790E+02 -0.30288803877E+02  0.50528849753E+02  0.29999969309E+02 0.  0.
         12    1    1    2    0    0 -0.21397530147E+02 -0.16670349790E+02  0.30288803877E+02  0.40659150247E+02  0.00000000000E+00 0. -1.
         11    1    3    3    0    0  0.17924298942E+01 -0.15402100237E+01  0.30133414962E+01  0.38295272654E+01  0.51100000000E-03 0. -1.
        -11    1    3    3    0    0  0.32211570291E+01  0.14738166896E+02 -0.21272356632E+02  0.26078776295E+02  0.51100000000E-03 0.  1.
        -12    1    3    3    0    0  0.16383943224E+02  0.34723929175E+01 -0.12029788741E+02  0.20620546193E+02  0.00000000000E+00 0.  1.
</event>
<event>
 7    1  0.5006721E-012  0.5052886E+02  0.7816164E-02  0.1300439E+00
        -11   -1    0    0    0    0  0.00000000000E+00  0.00000000000E+00  0.45593999997E+02  0.45594000000E+02  0.51100000000E-03 0. -1.
         11   -1    0    0    0    0 -0.00000000000E+00 -0.00000000000E+00 -0.45593999997E+02  0.45594000000E+02  0.51100000000E-03 0.  1.
    9900012    2    1    2    0    0  0.20586220421E+01  0.38555726620E+02 -0.12742984082E+02  0.50528860520E+02  0.30000002038E+02 0.  0.
         12    1    1    2    0    0 -0.20586220421E+01 -0.38555726620E+02  0.12742984082E+02  0.40659139480E+02  0.00000000000E+00 0. -1.
         11    1    3    3    0    0  0.82746439032E+01  0.24448796513E+02 -0.17374708748E+02  0.31114207157E+02  0.51100000000E-03 0. -1.
        -11    1    3    3    0    0  0.27223103163E+01  0.18815400142E+01 -0.65599213332E+00  0.33736467247E+01  0.51100000000E-03 0.  1.
         12    1    3    3    0    0 -0.89383321774E+01  0.12225390093E+02  0.52877167994E+01  0.16041006639E+02  0.00000000000E+00 0. -1.
</event>
<event>
 7    1  0.5006721E-012  0.5052886E+02  0.7816164E-02  0.1300439E+00
        -11   -1    0    0    0    0  0.00000000000E+00  0.00000000000E+00  0.45593999997E+02  0.45594000000E+02  0.51100000000E-03 0. -1.
         11   -1    0    0    0    0 -0.00000000000E+00 -0.00000000000E+00 -0.45593999997E+02  0.45594000000E+02  0.51100000000E-03 0.  1.
    9900012    2    1    2    0    0 -0.12294808815E+02  0.67664502910E+01 -0.38160426710E+02  0.50528864003E+02  0.30000012624E+02 0.  0.
         12    1    1    2    0    0  0.12294808815E+02 -0.67664502910E+01  0.38160426710E+02  0.40659135997E+02  0.00000000000E+00 0. -1.
         11    1    3    3    0    0  0.17893982714E+01 -0.45074988499E+01  0.10301992159E+00  0.48507840006E+01  0.51100000000E-03 0. -1.
        -11    1    3    3    0    0 -0.10816357110E+02  0.90247397660E+01 -0.10340437272E+02  0.17474671734E+02  0.51100000000E-03 0.  1.
        -12    1    3    3    0    0 -0.32678499763E+01  0.22492093748E+01 -0.27923009359E+02  0.28203408268E+02  0.00000000000E+00 0.  1.
</event>
<event>
 7    1  0.5006721E-012  0.5052886E+02  0.7816164E-02  0.1300439E+00
        -11   -1    0    0    0    0  0.00000000000E+00  0.00000000000E+00  0.45593999997E+02  0.45594000000E+02  0.51100000000E-03 0. -1.
         11   -1    0    0    0    0 -0.00000000000E+00 -0.00000000000E+00 -0.45593999997E+02  0.45594000000E+02  0.51100000000E-03 0.  1.
    9900012    2    1    2    0    0  0.28208392228E+02  0.15571640125E+02  0.24798711940E+02  0.50528862255E+02  0.30000007310E+02 0.  0.
        -12    1    1    2    0    0 -0.28208392228E+02 -0.15571640125E+02 -0.24798711940E+02  0.40659137745E+02  0.00000000000E+00 0.  1.
         11    1    3    3    0    0  0.17714155227E+02  0.12218823038E+02  0.11732313997E+02  0.24509959686E+02  0.51100000000E-03 0. -1.
        -11    1    3    3    0    0 -0.43733619084E+01 -0.29508122239E+01  0.70063683893E+01  0.87705635754E+01  0.51100000000E-03 0.  1.
        -12    1    3    3    0    0  0.14867598910E+02  0.63036293112E+01  0.60600295535E+01  0.17248338993E+02  0.00000000000E+00 0.  1.
</event>
<event>
 7    1  0.5006721E-012  0.5052885E+02  0.7816164E-02  0.1300439E+00
        -11   -1    0    0    0    0  0.00000000000E+00  0.00000000000E+00  0.45593999997E+02  0.45594000000E+02  0.51100000000E-03 0. -1.
         11   -1    0    0    0    0 -0.00000000000E+00 -0.00000000000E+00 -0.45593999997E+02  0.45594000000E+02  0.51100000000E-03 0.  1.
    9900012    2    1    2    0    0 -0.34517703407E+01 -0.48715262082E+01 -0.40218405770E+02  0.50528847909E+02  0.29999963703E+02 0.  0.
         12    1    1    2    0    0  0.34517703407E+01  0.48715262082E+01  0.40218405770E+02  0.40659152091E+02  0.00000000000E+00 0. -1.
         11    1    3    3    0    0  0.10417246328E+02 -0.29730474787E+01 -0.17557335066E+02  0.20630512530E+02  0.51100000000E-03 0. -1.
        -11    1    3    3    0    0 -0.63440016138E+01  0.46149319938E+01 -0.16292102633E+02  0.18082493253E+02  0.51100000000E-03 0.  1.
         12    1    3    3    0    0 -0.75250150553E+01 -0.65134107233E+01 -0.63689680713E+01  0.11815842125E+02  0.00000000000E+00 0. -1.
</event>
<event>
 7    1  0.5006721E-012  0.5052886E+02  0.7816164E-02  0.1300439E+00
        -11   -1    0    0    0    0  0.00000000000E+00  0.00000000000E+00  0.45593999997E+02  0.45594000000E+02  0.51100000000E-03 0. -1.
         11   -1    0    0    0    0 -0.00000000000E+00 -0.00000000000E+00 -0.45593999997E+02  0.45594000000E+02  0.51100000000E-03 0.  1.
    9900012    2    1    2    0    0 -0.30578813664E+02  0.11831818320E+02  0.24043911751E+02  0.50528862501E+02  0.30000008058E+02 0.  0.
        -12    1    1    2    0    0  0.30578813664E+02 -0.11831818320E+02 -0.24043911751E+02  0.40659137499E+02  0.00000000000E+00 0.  1.
         11    1    3    3    0    0 -0.80358726044E+01  0.77792905796E+01 -0.48031353117E+01  0.12172210954E+02  0.51100000000E-03 0. -1.
        -11    1    3    3    0    0 -0.91908068016E+01  0.55943433946E+01  0.18472617364E+02  0.21377679954E+02  0.51100000000E-03 0.  1.
         12    1    3    3    0    0 -0.13352134258E+02 -0.15418156546E+01  0.10374429699E+02  0.16978971592E+02  0.00000000000E+00 0. -1.
</event>
<event>
 7    1  0.5006721E-012  0.5052887E+02  0.7816164E-02  0.1300439E+00
        -11   -1    0    0    0    0  0.00000000000E+00  0.00000000000E+00  0.45593999997E+02  0.45594000000E+02  0.51100000000E-03 0. -1.
         11   -1    0    0    0    0 -0.00000000000E+00 -0.00000000000E+00 -0.45593999997E+02  0.45594000000E+02  0.51100000000E-03 0.  1.
    9900012    2    1    2    0    0  0.45462025377E+01  0.26996160255E+01 -0.40313884489E+02  0.50528866133E+02  0.30000019099E+02 0.  0.
         12    1    1    2    0    0 -0.45462025377E+01 -0.26996160255E+01  0.40313884489E+02  0.40659133867E+02  0.00000000000E+00 0. -1.
         11    1    3    3    0    0 -0.43583812100E+01 -0.22018823391E+01 -0.36677437043E+00  0.48967638606E+01  0.51100000000E-03 0. -1.
        -11    1    3    3    0    0  0.26286982405E+01 -0.22784324072E+01 -0.34449609922E+02  0.34624802277E+02  0.51100000000E-03 0.  1.
         12    1    3    3    0    0  0.62758855071E+01  0.71799307718E+01 -0.54975001962E+01  0.11007299996E+02  0.00000000000E+00 0. -1.
</event>
<event>
 7    1  0.5006721E-012  0.5052884E+02  0.7816164E-02  0.1300439E+00
        -11   -1    0    0    0    0  0.00000000000E+00  0.00000000000E+00  0.45593999997E+02  0.45594000000E+02  0.51100000000E-03 0. -1.
         11   -1    0    0    0    0 -0.00000000000E+00 -0.00000000000E+00 -0.45593999997E+02  0.45594000000E+02  0.51100000000E-03 0.  1.
    9900012    2    1    2    0    0  0.35896295119E+02 -0.10926441645E+02 -0.15660014597E+02  0.50528841284E+02  0.29999943567E+02 0.  0.
         12    1    1    2    0    0 -0.35896295119E+02  0.10926441645E+02  0.15660014597E+02  0.40659158716E+02  0.00000000000E+00 0. -1.
         11    1    3    3    0    0 -0.11824968943E+01  0.11732390677E+01 -0.50771589438E+01  0.53434382205E+01  0.51100000000E-03 0. -1.
        -11    1    3    3    0    0  0.24483696424E+02 -0.17165801466E+02 -0.10235782324E+02  0.31605179490E+02  0.51100000000E-03 0.  1.
        -12    1    3    3    0    0  0.12595095590E+02  0.50661207538E+01 -0.34707332975E+00  0.13580223573E+02  0.00000000000E+00 0.  1.
</event>
<event>
 7    1  0.5006721E-012  0.5052886E+02  0.7816164E-02  0.1300439E+00
        -11   -1    0    0    0    0  0.00000000000E+00  0.00000000000E+00  0.45593999997E+02  0.45594000000E+02  0.51100000000E-03 0.  1.
         11   -1    0    0    0    0 -0.00000000000E+00 -0.00000000000E+00 -0.45593999997E+02  0.45594000000E+02  0.51100000000E-03 0. -1.
    9900012    2    1    2    0    0 -0.24145309269E+01  0.16752262768E+02 -0.36968871103E+02  0.50528859600E+02  0.29999999239E+02 0.  0.
         12    1    1    2    0    0  0.24145309269E+01 -0.16752262768E+02  0.36968871103E+02  0.40659140400E+02  0.00000000000E+00 0. -1.
         11    1    3    3    0    0  0.10558445929E+02  0.12886513524E+02 -0.27589110790E+02  0.32228900783E+02  0.51100000000E-03 0. -1.
        -11    1    3    3    0    0 -0.34774934007E+01  0.24559266059E+01 -0.73411865586E+01  0.84863158199E+01  0.51100000000E-03 0.  1.
         12    1    3    3    0    0 -0.94954834548E+01  0.14098226383E+01 -0.20385737542E+01  0.98136429965E+01  0.00000000000E+00 0. -1.
</event>
<event>
 7    1  0.5006721E-012  0.5052885E+02  0.7816164E-02  0.1300439E+00
        -11   -1    0    0    0    0  0.00000000000E+00  0.00000000000E+00  0.45593999997E+02  0.45594000000E+02  0.51100000000E-03 0.  1.
         11   -1    0    0    0    0 -0.00000000000E+00 -0.00000000000E+00 -0.45593999997E+02  0.45594000000E+02  0.51100000000E-03 0. -1.
    9900012    2    1    2    0    0 -0.24761945092E+02 -0.11099094785E+01 -0.32230119325E+02  0.50528850777E+02  0.29999972423E+02 0.  0.
         12    1    1    2    0    0  0.24761945092E+02  0.11099094785E+01  0.32230119325E+02  0.40659149223E+02  0.00000000000E+00 0. -1.
         11    1    3    3    0    0 -0.72425802193E+01 -0.31000115678E+01  0.23977132661E+01  0.82349298188E+01  0.51100000000E-03 0.  1.
        -11    1    3    3    0    0 -0.98077533236E+00 -0.13880036809E+01 -0.19660531474E+02  0.19733853465E+02  0.51100000000E-03 0. -1.
        -12    1    3    3    0    0 -0.16538589541E+02  0.33781057702E+01 -0.14967301117E+02  0.22560067493E+02  0.00000000000E+00 0.  1.
</event>
<event>
 7    1  0.5006721E-012  0.5052885E+02  0.7816164E-02  0.1300439E+00
        -11   -1    0    0    0    0  0.00000000000E+00  0.00000000000E+00  0.45593999997E+02  0.45594000000E+02  0.51100000000E-03 0. -1.
         11   -1    0    0    0    0 -0.00000000000E+00 -0.00000000000E+00 -0.45593999997E+02  0.45594000000E+02  0.51100000000E-03 0.  1.
    9900012    2    1    2    0    0 -0.13070396934E+02  0.78994599293E+01  0.37681950048E+02  0.50528854626E+02  0.29999984120E+02 0.  0.
        -12    1    1    2    0    0  0.13070396934E+02 -0.78994599293E+01 -0.37681950048E+02  0.40659145374E+02  0.00000000000E+00 0.  1.
         11    1    3    3    0    0  0.30789665616E+00  0.58171988834E+01  0.33330128163E+01  0.67114512510E+01  0.51100000000E-03 0. -1.
        -11    1    3    3    0    0 -0.12740168643E+02 -0.53212122776E+01  0.33627477110E+02  0.36351539365E+02  0.51100000000E-03 0.  1.
        -12    1    3    3    0    0 -0.63812494702E+00  0.74034733235E+01  0.72146012076E+00  0.74658640093E+01  0.00000000000E+00 0.  1.
</event>
<event>
 7    1  0.5006721E-012  0.5052896E+02  0.7816164E-02  0.1300438E+00
        -11   -1    0    0    0    0  0.00000000000E+00  0.00000000000E+00  0.45593999997E+02  0.45594000000E+02  0.51100000000E-03 0. -1.
         11   -1    0    0    0    0 -0.00000000000E+00 -0.00000000000E+00 -0.45593999997E+02  0.45594000000E+02  0.51100000000E-03 0.  1.
    9900012    2    1    2    0    0  0.37892813172E+02 -0.11091300307E+02 -0.97095523672E+01  0.50528958696E+02  0.30000300450E+02 0.  0.
         12    1    1    2    0    0 -0.37892813172E+02  0.11091300307E+02  0.97095523672E+01  0.40659041304E+02  0.00000000000E+00 0. -1.
         11    1    3    3    0    0 -0.27226198080E+00 -0.83553545207E+01  0.66076144776E+00  0.83858620132E+01  0.51100000000E-03 0. -1.
        -11    1    3    3    0    0  0.35348367183E+02  0.10013634197E+01 -0.62556862821E+01  0.35911605398E+02  0.51100000000E-03 0.  1.
         12    1    3    3    0    0  0.28167079705E+01 -0.37373092056E+01 -0.41146275329E+01  0.62314912841E+01  0.00000000000E+00 0. -1.
</event>
<event>
 7    1  0.5006721E-012  0.5052886E+02  0.7816164E-02  0.1300439E+00
        -11   -1    0    0    0    0  0.00000000000E+00  0.00000000000E+00  0.45593999997E+02  0.45594000000E+02  0.51100000000E-03 0. -1.
         11   -1    0    0    0    0 -0.00000000000E+00 -0.00000000000E+00 -0.45593999997E+02  0.45594000000E+02  0.51100000000E-03 0.  1.
    9900012    2    1    2    0    0 -0.94304050366E+01  0.14180384661E+02  0.36920854098E+02  0.50528864303E+02  0.30000013536E+02 0.  0.
        -12    1    1    2    0    0  0.94304050366E+01 -0.14180384661E+02 -0.36920854098E+02  0.40659135697E+02  0.00000000000E+00 0.  1.
         11    1    3    3    0    0 -0.70939934103E+01 -0.48643876805E+01  0.34583892423E+01  0.92707856422E+01  0.51100000000E-03 0.  1.
        -11    1    3    3    0    0  0.59073526134E+01  0.10300940577E+02  0.19553446398E+02  0.22876701204E+02  0.51100000000E-03 0. -1.
        -12    1    3    3    0    0 -0.82437642397E+01  0.87438317649E+01  0.13909018457E+02  0.18381377457E+02  0.00000000000E+00 0.  1.
</event>
<event>
 7    1  0.5006721E-012  0.5052888E+02  0.7816164E-02  0.1300439E+00
        -11   -1    0    0    0    0  0.00000000000E+00  0.00000000000E+00  0.45593999997E+02  0.45594000000E+02  0.51100000000E-03 0. -1.
         11   -1    0    0    0    0 -0.00000000000E+00 -0.00000000000E+00 -0.45593999997E+02  0.45594000000E+02  0.51100000000E-03 0.  1.
    9900012    2    1    2    0    0  0.32978251914E+02  0.89453197385E+01 -0.22035880904E+02  0.50528881813E+02  0.30000066760E+02 0.  0.
         12    1    1    2    0    0 -0.32978251914E+02 -0.89453197385E+01  0.22035880904E+02  0.40659118187E+02  0.00000000000E+00 0. -1.
         11    1    3    3    0    0  0.28979835644E+02  0.10601357420E+02 -0.61191477449E+01  0.31458919601E+02  0.51100000000E-03 0. -1.
        -11    1    3    3    0    0 -0.77215358804E+00  0.25083241113E+01 -0.10221848231E+02  0.10553392466E+02  0.51100000000E-03 0.  1.
         12    1    3    3    0    0  0.47705698574E+01 -0.41643617926E+01 -0.56948849279E+01  0.85165697464E+01  0.00000000000E+00 0. -1.
</event>
<event>
 7    1  0.5006721E-012  0.5052884E+02  0.7816164E-02  0.1300439E+00
        -11   -1    0    0    0    0  0.00000000000E+00  0.00000000000E+00  0.45593999997E+02  0.45594000000E+02  0.51100000000E-03 0. -1.
         11   -1    0    0    0    0 -0.00000000000E+00 -0.00000000000E+00 -0.45593999997E+02  0.45594000000E+02  0.51100000000E-03 0.  1.
    9900012    2    1    2    0    0  0.17907808477E+02  0.94722283310E+01  0.35252726160E+02  0.50528838477E+02  0.29999935035E+02 0.  0.
        -12    1    1    2    0    0 -0.17907808477E+02 -0.94722283310E+01 -0.35252726160E+02  0.40659161523E+02  0.00000000000E+00 0.  1.
         11    1    3    3    0    0  0.50242513319E+01  0.57269742140E+01  0.26245784477E+02  0.27329151801E+02  0.51100000000E-03 0. -1.
        -11    1    3    3    0    0  0.16517587975E+02  0.83263259581E+00  0.57216244758E+01  0.17500313610E+02  0.51100000000E-03 0.  1.
        -12    1    3    3    0    0 -0.36340308294E+01  0.29126215211E+01  0.32853172078E+01  0.56993730665E+01  0.00000000000E+00 0.  1.
</event>
<event>
 7    1  0.5006721E-012  0.5052888E+02  0.7816164E-02  0.1300439E+00
        -11   -1    0    0    0    0  0.00000000000E+00  0.00000000000E+00  0.45593999997E+02  0.45594000000E+02  0.51100000000E-03 0. -1.
         11   -1    0    0    0    0 -0.00000000000E+00 -0.00000000000E+00 -0.45593999997E+02  0.45594000000E+02  0.51100000000E-03 0.  1.
    9900012    2    1    2    0    0 -0.74329781868E+01 -0.79424019280E+01 -0.39176942830E+02  0.50528883401E+02  0.30000071586E+02 0.  0.
         12    1    1    2    0    0  0.74329781868E+01  0.79424019280E+01  0.39176942830E+02  0.40659116599E+02  0.00000000000E+00 0. -1.
         11    1    3    3    0    0 -0.53603829507E+00  0.32762589202E+01  0.31907201409E+01  0.46045526215E+01  0.51100000000E-03 0. -1.
        -11    1    3    3    0    0  0.49066244404E-02 -0.10104793128E+02 -0.18825087777E+02  0.21365645282E+02  0.51100000000E-03 0.  1.
        -12    1    3    3    0    0 -0.69018465162E+01 -0.11138677202E+01 -0.23542575194E+02  0.24558685498E+02  0.00000000000E+00 0.  1.
</event>
<event>
 7    1  0.5006721E-012  0.5052886E+02  0.7816164E-02  0.1300439E+00
        -11   -1    0    0    0    0  0.00000000000E+00  0.00000000000E+00  0.45593999997E+02  0.45594000000E+02  0.51100000000E-03 0. -1.
         11   -1    0    0    0    0 -0.00000000000E+00 -0.00000000000E+00 -0.45593999997E+02  0.45594000000E+02  0.51100000000E-03 0.  1.
    9900012    2    1    2    0    0  0.29472111108E+02 -0.99625457105E+01 -0.26178388512E+02  0.50528859880E+02  0.30000000090E+02 0.  0.
         12    1    1    2    0    0 -0.29472111108E+02  0.99625457105E+01  0.26178388512E+02  0.40659140120E+02  0.00000000000E+00 0. -1.
         11    1    3    3    0    0  0.54662014238E+00 -0.21922127557E+01  0.20042168334E+01  0.30201780945E+01  0.51100000000E-03 0. -1.
        -11    1    3    3    0    0  0.31291882237E+02 -0.14420084348E+01 -0.21412876170E+02  0.37944334866E+02  0.51100000000E-03 0.  1.
        -12    1    3    3    0    0 -0.23663912713E+01 -0.63283245200E+01 -0.67697291758E+01  0.95643469193E+01  0.00000000000E+00 0.  1.
</event>
<event>
 7    1  0.5006721E-012  0.5052886E+02  0.7816164E-02  0.1300439E+00
        -11   -1    0    0    0    0  0.00000000000E+00  0.00000000000E+00  0.45593999997E+02  0.45594000000E+02  0.51100000000E-03 0. -1.
         11   -1    0    0    0    0 -0.00000000000E+00 -0.00000000000E+00 -0.45593999997E+02  0.45594000000E+02  0.51100000000E-03 0.  1.
    9900012    2    1    2    0    0 -0.18633644169E+02 -0.17233668003E+02  0.31764025719E+02  0.50528864032E+02  0.30000012710E+02 0.  0.
        -12    1    1    2    0    0  0.18633644169E+02  0.17233668003E+02 -0.31764025719E+02  0.40659135968E+02  0.00000000000E+00 0.  1.
         11    1    3    3    0    0  0.25284454663E+01 -0.42317183984E+01  0.61028518948E-01  0.49299291903E+01  0.51100000000E-03 0. -1.
        -11    1    3    3    0    0 -0.19078928772E+02 -0.89657290271E+01  0.34378765211E+02  0.40327277589E+02  0.51100000000E-03 0.  1.
        -12    1    3    3    0    0 -0.20831608633E+01 -0.40362205776E+01 -0.26757680113E+01  0.52716572521E+01  0.00000000000E+00 0.  1.
</event>
<event>
 7    1  0.5006721E-012  0.5052884E+02  0.7816164E-02  0.1300439E+00
        -11   -1    0    0    0    0  0.00000000000E+00  0.00000000000E+00  0.45593999997E+02  0.45594000000E+02  0.51100000000E-03 0. -1.
         11   -1    0    0    0    0 -0.00000000000E+00 -0.00000000000E+00 -0.45593999997E+02  0.45594000000E+02  0.51100000000E-03 0.  1.
    9900012    2    1    2    0    0 -0.61253686033E+01  0.90760859935E+01 -0.39157009857E+02  0.50528844839E+02  0.29999954371E+02 0.  0.
         12    1    1    2    0    0  0.61253686033E+01 -0.90760859935E+01  0.39157009857E+02  0.40659155161E+02  0.00000000000E+00 0. -1.
         11    1    3    3    0    0 -0.64752624744E+01 -0.77217105554E+01 -0.49073297913E+01  0.11208734271E+02  0.51100000000E-03 0. -1.
        -11    1    3    3    0    0 -0.30378120402E+01  0.83125910768E+01 -0.24049918936E+02  0.25626667233E+02  0.51100000000E-03 0.  1.
         12    1    3    3    0    0  0.33877059113E+01  0.84852054720E+01 -0.10199761130E+02  0.13693443334E+02  0.00000000000E+00 0. -1.
</event>
<event>
 7    1  0.5006721E-012  0.5052885E+02  0.7816164E-02  0.1300439E+00
        -11   -1    0    0    0    0  0.00000000000E+00  0.00000000000E+00  0.45593999997E+02  0.45594000000E+02  0.51100000000E-03 0. -1.
         11   -1    0    0    0    0 -0.00000000000E+00 -0.00000000000E+00 -0.45593999997E+02  0.45594000000E+02  0.51100000000E-03 0.  1.
    9900012    2    1    2    0    0  0.48798850124E+01  0.10299839525E+02 -0.39029047712E+02  0.50528849280E+02  0.29999967870E+02 0.  0.
         12    1    1    2    0    0 -0.48798850124E+01 -0.10299839525E+02  0.39029047712E+02  0.40659150720E+02  0.00000000000E+00 0. -1.
         11    1    3    3    0    0  0.21559880207E+01 -0.70577533663E+01 -0.58119165424E+01  0.93935371976E+01  0.51100000000E-03 0. -1.
        -11    1    3    3    0    0 -0.50081379225E+01  0.52488682233E+01 -0.21194210666E+02  0.22401487208E+02  0.51100000000E-03 0.  1.
        -12    1    3    3    0    0  0.77320349142E+01  0.12108724668E+02 -0.12022920504E+02  0.18733824875E+02  0.00000000000E+00 0.  1.
</event>
<event>
 7    1  0.5006721E-012  0.5052886E+02  0.7816164E-02  0.1300439E+00
        -11   -1    0    0    0    0  0.00000000000E+00  0.00000000000E+00  0.45593999997E+02  0.45594000000E+02  0.51100000000E-03 0. -1.
         11   -1    0    0    0    0 -0.00000000000E+00 -0.00000000000E+00 -0.45593999997E+02  0.45594000000E+02  0.51100000000E-03 0.  1.
    9900012    2    1    2    0    0 -0.25371369760E+02 -0.46909772502E+01 -0.31423776985E+02  0.50528862883E+02  0.30000009219E+02 0.  0.
         12    1    1    2    0    0  0.25371369760E+02  0.46909772502E+01  0.31423776985E+02  0.40659137117E+02  0.00000000000E+00 0. -1.
         11    1    3    3    0    0 -0.19773703245E+02 -0.31708124330E+01 -0.19083180161E+01  0.20117034310E+02  0.51100000000E-03 0. -1.
        -11    1    3    3    0    0 -0.41149394370E+00  0.36097969253E+00 -0.12755612236E+02  0.12767352012E+02  0.51100000000E-03 0.  1.
         12    1    3    3    0    0 -0.51861725712E+01 -0.18811445098E+01 -0.16759846733E+02  0.17644476561E+02  0.00000000000E+00 0. -1.
</event>
<event>
 7    1  0.5006721E-012  0.5052887E+02  0.7816164E-02  0.1300439E+00
        -11   -1    0    0    0    0  0.00000000000E+00  0.00000000000E+00  0.45593999997E+02  0.45594000000E+02  0.51100000000E-03 0. -1.
         11   -1    0    0    0    0 -0.00000000000E+00 -0.00000000000E+00 -0.45593999997E+02  0.45594000000E+02  0.51100000000E-03 0.  1.
    9900012    2    1    2    0    0  0.28117410394E+01  0.76300545573E+01 -0.39837682754E+02  0.50528873257E+02  0.30000040753E+02 0.  0.
         12    1    1    2    0    0 -0.28117410394E+01 -0.76300545573E+01  0.39837682754E+02  0.40659126743E+02  0.00000000000E+00 0. -1.
         11    1    3    3    0    0  0.52270030683E+01  0.14947017268E+02 -0.97285569032E+01  0.18584394151E+02  0.51100000000E-03 0. -1.
        -11    1    3    3    0    0  0.34241892816E+00  0.13351514017E+01 -0.22095075998E+01  0.26041897171E+01  0.51100000000E-03 0.  1.
         12    1    3    3    0    0 -0.27576809570E+01 -0.86521141123E+01 -0.27899618251E+02  0.29340289389E+02  0.00000000000E+00 0. -1.
</event>
<event>
 7    1  0.5006721E-012  0.5052887E+02  0.7816164E-02  0.1300439E+00
        -11   -1    0    0    0    0  0.00000000000E+00  0.00000000000E+00  0.45593999997E+02  0.45594000000E+02  0.51100000000E-03 0. -1.
         11   -1    0    0    0    0 -0.00000000000E+00 -0.00000000000E+00 -0.45593999997E+02  0.45594000000E+02  0.51100000000E-03 0.  1.
    9900012    2    1    2    0    0  0.20137825172E+02 -0.19324416597E+02 -0.29566873282E+02  0.50528867260E+02  0.30000022524E+02 0.  0.
         12    1    1    2    0    0 -0.20137825172E+02  0.19324416597E+02  0.29566873282E+02  0.40659132740E+02  0.00000000000E+00 0. -1.
         11    1    3    3    0    0  0.32825264169E-01 -0.34923208309E+01 -0.34575322839E+01  0.49144594859E+01  0.51100000000E-03 0.  1.
        -11    1    3    3    0    0  0.14652029358E+02 -0.15600546907E+02 -0.26937759016E+01  0.21571171897E+02  0.51100000000E-03 0. -1.
        -12    1    3    3    0    0  0.54529705500E+01 -0.23154885873E+00 -0.23415565096E+02  0.24043235878E+02  0.00000000000E+00 0.  1.
</event>
<event>
 7    1  0.5006721E-012  0.5052886E+02  0.7816164E-02  0.1300439E+00
        -11   -1    0    0    0    0  0.00000000000E+00  0.00000000000E+00  0.45593999997E+02  0.45594000000E+02  0.51100000000E-03 0. -1.
         11   -1    0    0    0    0 -0.00000000000E+00 -0.00000000000E+00 -0.45593999997E+02  0.45594000000E+02  0.51100000000E-03 0.  1.
    9900012    2    1    2    0    0  0.66503078268E+01 -0.33076630971E+02  0.22690863185E+02  0.50528863479E+02  0.30000011031E+02 0.  0.
        -12    1    1    2    0    0 -0.66503078268E+01  0.33076630971E+02 -0.22690863185E+02  0.40659136521E+02  0.00000000000E+00 0.  1.
         11    1    3    3    0    0  0.21072918276E+01 -0.14147598783E+02 -0.26502578060E+01  0.14547133630E+02  0.51100000000E-03 0. -1.
        -11    1    3    3    0    0  0.93584856806E+01 -0.15392731464E+02  0.23731347043E+02  0.29794198578E+02  0.51100000000E-03 0.  1.
        -12    1    3    3    0    0 -0.48154696814E+01 -0.35363007240E+01  0.16097739478E+01  0.61875312707E+01  0.00000000000E+00 0.  1.
</event>
<event>
 7    1  0.5006721E-012  0.5052886E+02  0.7816164E-02  0.1300439E+00
        -11   -1    0    0    0    0  0.00000000000E+00  0.00000000000E+00  0.45593999997E+02  0.45594000000E+02  0.51100000000E-03 0.  1.
         11   -1    0    0    0    0 -0.00000000000E+00 -0.00000000000E+00 -0.45593999997E+02  0.45594000000E+02  0.51100000000E-03 0. -1.
    9900012    2    1    2    0    0  0.33240706394E+02 -0.18991527089E+02  0.13694636728E+02  0.50528859111E+02  0.29999997754E+02 0.  0.
        -12    1    1    2    0    0 -0.33240706394E+02  0.18991527089E+02 -0.13694636728E+02  0.40659140889E+02  0.00000000000E+00 0.  1.
         11    1    3    3    0    0  0.21379162994E+02 -0.99382355235E+01  0.16663050470E+02  0.28870302854E+02  0.51100000000E-03 0. -1.
        -11    1    3    3    0    0  0.82431518162E+01 -0.89051187827E+01 -0.86632308265E+01  0.14909804191E+02  0.51100000000E-03 0.  1.
        -12    1    3    3    0    0  0.36183915830E+01 -0.14817278241E+00  0.56948170846E+01  0.67487520661E+01  0.00000000000E+00 0.  1.
</event>
<event>
 7    1  0.5006721E-012  0.5052890E+02  0.7816164E-02  0.1300439E+00
        -11   -1    0    0    0    0  0.00000000000E+00  0.00000000000E+00  0.45593999997E+02  0.45594000000E+02  0.51100000000E-03 0. -1.
         11   -1    0    0    0    0 -0.00000000000E+00 -0.00000000000E+00 -0.45593999997E+02  0.45594000000E+02  0.51100000000E-03 0.  1.
    9900012    2    1    2    0    0 -0.20354780982E+01  0.21317979563E+02  0.34562445100E+02  0.50528904646E+02  0.30000136162E+02 0.  0.
        -12    1    1    2    0    0  0.20354780982E+01 -0.21317979563E+02 -0.34562445100E+02  0.40659095354E+02  0.00000000000E+00 0.  1.
         11    1    3    3    0    0 -0.33377322620E+01  0.31691362680E+01  0.37106514985E+01  0.59120906744E+01  0.51100000000E-03 0. -1.
        -11    1    3    3    0    0  0.10052793062E+02  0.11171970353E+02  0.40392500394E+01  0.15562362001E+02  0.51100000000E-03 0.  1.
        -12    1    3    3    0    0 -0.87505388977E+01  0.69768729417E+01  0.26812543562E+02  0.29054451971E+02  0.00000000000E+00 0.  1.
</event>
<event>
 7    1  0.5006721E-012  0.5052887E+02  0.7816164E-02  0.1300439E+00
        -11   -1    0    0    0    0  0.00000000000E+00  0.00000000000E+00  0.45593999997E+02  0.45594000000E+02  0.51100000000E-03 0. -1.
         11   -1    0    0    0    0 -0.00000000000E+00 -0.00000000000E+00 -0.45593999997E+02  0.45594000000E+02  0.51100000000E-03 0.  1.
    9900012    2    1    2    0    0  0.14386605216E+01 -0.38641629383E+02 -0.12566609624E+02  0.50528868887E+02  0.30000027468E+02 0.  0.
        -12    1    1    2    0    0 -0.14386605216E+01  0.38641629383E+02  0.12566609624E+02  0.40659131113E+02  0.00000000000E+00 0.  1.
         11    1    3    3    0    0 -0.17428493925E+01 -0.25170953762E+02  0.46021784573E+01  0.25647504442E+02  0.51100000000E-03 0. -1.
        -11    1    3    3    0    0  0.74148419206E+01 -0.82533155337E+01 -0.88764600121E+01  0.14208752254E+02  0.51100000000E-03 0.  1.
        -12    1    3    3    0    0 -0.42333320065E+01 -0.52173600866E+01 -0.82923280694E+01  0.10672612190E+02  0.00000000000E+00 0.  1.
</event>
<event>
 7    1  0.5006721E-012  0.5052886E+02  0.7816164E-02  0.1300439E+00
        -11   -1    0    0    0    0  0.00000000000E+00  0.00000000000E+00  0.45593999997E+02  0.45594000000E+02  0.51100000000E-03 0. -1.
         11   -1    0    0    0    0 -0.00000000000E+00 -0.00000000000E+00 -0.45593999997E+02  0.45594000000E+02  0.51100000000E-03 0.  1.
    9900012    2    1    2    0    0 -0.95884598514E+01 -0.12697424198E+02 -0.37416603201E+02  0.50528864020E+02  0.30000012674E+02 0.  0.
         12    1    1    2    0    0  0.95884598514E+01  0.12697424198E+02  0.37416603201E+02  0.40659135980E+02  0.00000000000E+00 0. -1.
         11    1    3    3    0    0 -0.11307526471E+02  0.57198325151E+01 -0.14327269497E+02  0.19127134924E+02  0.51100000000E-03 0. -1.
        -11    1    3    3    0    0  0.72852132682E+00 -0.15674675947E+02 -0.11508675167E+02  0.19459594388E+02  0.51100000000E-03 0.  1.
         12    1    3    3    0    0  0.99054529289E+00 -0.27425807658E+01 -0.11580658537E+02  0.11942134708E+02  0.00000000000E+00 0. -1.
</event>
<event>
 7    1  0.5006721E-012  0.5052885E+02  0.7816164E-02  0.1300439E+00
        -11   -1    0    0    0    0  0.00000000000E+00  0.00000000000E+00  0.45593999997E+02  0.45594000000E+02  0.51100000000E-03 0. -1.
         11   -1    0    0    0    0 -0.00000000000E+00 -0.00000000000E+00 -0.45593999997E+02  0.45594000000E+02  0.51100000000E-03 0.  1.
    9900012    2    1    2    0    0  0.13336404409E+02  0.11614501999E+02 -0.36611610536E+02  0.50528851395E+02  0.29999974300E+02 0.  0.
         12    1    1    2    0    0 -0.13336404409E+02 -0.11614501999E+02  0.36611610536E+02  0.40659148605E+02  0.00000000000E+00 0. -1.
         11    1    3    3    0    0 -0.53230335180E+01  0.12355128392E+02 -0.10770873300E+02  0.17233560146E+02  0.51100000000E-03 0. -1.
        -11    1    3    3    0    0  0.14194834482E+02 -0.45188382641E+01 -0.16108018538E+02  0.21940407624E+02  0.51100000000E-03 0.  1.
         12    1    3    3    0    0  0.44646034450E+01  0.37782118708E+01 -0.97327186985E+01  0.11354883624E+02  0.00000000000E+00 0. -1.
</event>
<event>
 7    1  0.5006721E-012  0.5052886E+02  0.7816164E-02  0.1300439E+00
        -11   -1    0    0    0    0  0.00000000000E+00  0.00000000000E+00  0.45593999997E+02  0.45594000000E+02  0.51100000000E-03 0.  1.
         11   -1    0    0    0    0 -0.00000000000E+00 -0.00000000000E+00 -0.45593999997E+02  0.45594000000E+02  0.51100000000E-03 0. -1.
    9900012    2    1    2    0    0  0.26152890403E+02  0.17203996101E+02  0.25946383055E+02  0.50528856479E+02  0.29999989752E+02 0.  0.
        -12    1    1    2    0    0 -0.26152890403E+02 -0.17203996101E+02 -0.25946383055E+02  0.40659143521E+02  0.00000000000E+00 0.  1.
         11    1    3    3    0    0  0.37118406304E+01 -0.64260061194E+01 -0.26448494165E+00  0.74257166696E+01  0.51100000000E-03 0. -1.
        -11    1    3    3    0    0  0.10882092627E+02  0.10276255382E+02  0.18592643011E+02  0.23868551255E+02  0.51100000000E-03 0.  1.
         12    1    3    3    0    0  0.11558957145E+02  0.13353746839E+02  0.76182249856E+01  0.19234588554E+02  0.00000000000E+00 0. -1.
</event>
<event>
 7    1  0.5006721E-012  0.5052886E+02  0.7816164E-02  0.1300439E+00
        -11   -1    0    0    0    0  0.00000000000E+00  0.00000000000E+00  0.45593999997E+02  0.45594000000E+02  0.51100000000E-03 0. -1.
         11   -1    0    0    0    0 -0.00000000000E+00 -0.00000000000E+00 -0.45593999997E+02  0.45594000000E+02  0.51100000000E-03 0.  1.
    9900012    2    1    2    0    0 -0.38322343105E+02 -0.26841476528E+01 -0.13317617328E+02  0.50528861286E+02  0.30000004363E+02 0.  0.
         12    1    1    2    0    0  0.38322343105E+02  0.26841476528E+01  0.13317617328E+02  0.40659138714E+02  0.00000000000E+00 0. -1.
         11    1    3    3    0    0 -0.28342065723E+02 -0.69447176455E+01 -0.29809905769E+01  0.29332372862E+02  0.51100000000E-03 0. -1.
        -11    1    3    3    0    0 -0.10010144395E+02  0.74727254479E+01 -0.25170961072E+01  0.12742856411E+02  0.51100000000E-03 0.  1.
         12    1    3    3    0    0  0.29867013412E-01 -0.32121554552E+01 -0.78195306441E+01  0.84536320124E+01  0.00000000000E+00 0. -1.
</event>
<event>
 7    1  0.5006721E-012  0.5052884E+02  0.7816164E-02  0.1300439E+00
        -11   -1    0    0    0    0  0.00000000000E+00  0.00000000000E+00  0.45593999997E+02  0.45594000000E+02  0.51100000000E-03 0. -1.
         11   -1    0    0    0    0 -0.00000000000E+00 -0.00000000000E+00 -0.45593999997E+02  0.45594000000E+02  0.51100000000E-03 0.  1.
    9900012    2    1    2    0    0  0.20625182062E+02  0.29334055936E+02 -0.19164602046E+02  0.50528844275E+02  0.29999952658E+02 0.  0.
         12    1    1    2    0    0 -0.20625182062E+02 -0.29334055936E+02  0.19164602046E+02  0.40659155725E+02  0.00000000000E+00 0. -1.
         11    1    3    3    0    0  0.95066047928E+01 -0.48754683537E+01 -0.56830436282E+01  0.12101351639E+02  0.51100000000E-03 0. -1.
        -11    1    3    3    0    0  0.83720721913E+01  0.26704740961E+02 -0.10802810580E+02  0.29998924969E+02  0.51100000000E-03 0.  1.
         12    1    3    3    0    0  0.27465050778E+01  0.75047833280E+01 -0.26787478375E+01  0.84285676671E+01  0.00000000000E+00 0. -1.
</event>
<event>
 7    1  0.5006721E-012  0.5052887E+02  0.7816164E-02  0.1300439E+00
        -11   -1    0    0    0    0  0.00000000000E+00  0.00000000000E+00  0.45593999997E+02  0.45594000000E+02  0.51100000000E-03 0. -1.
         11   -1    0    0    0    0 -0.00000000000E+00 -0.00000000000E+00 -0.45593999997E+02  0.45594000000E+02  0.51100000000E-03 0.  1.
    9900012    2    1    2    0    0 -0.19488529587E+00 -0.68314289656E+01  0.40080651008E+02  0.50528868342E+02  0.30000025812E+02 0.  0.
        -12    1    1    2    0    0  0.19488529587E+00  0.68314289656E+01 -0.40080651008E+02  0.40659131658E+02  0.00000000000E+00 0.  1.
         11    1    3    3    0    0 -0.10053147109E+01  0.43880457775E+01  0.21399880838E+02  0.21868253327E+02  0.51100000000E-03 0. -1.
        -11    1    3    3    0    0 -0.70404671714E+01 -0.11511145921E+02  0.14317464179E+02  0.19673953318E+02  0.51100000000E-03 0.  1.
        -12    1    3    3    0    0  0.78508965864E+01  0.29167117794E+00  0.43633059910E+01  0.89866616971E+01  0.00000000000E+00 0.  1.
</event>
<event>
 7    1  0.5006721E-012  0.5052886E+02  0.7816164E-02  0.1300439E+00
        -11   -1    0    0    0    0  0.00000000000E+00  0.00000000000E+00  0.45593999997E+02  0.45594000000E+02  0.51100000000E-03 0. -1.
         11   -1    0    0    0    0 -0.00000000000E+00 -0.00000000000E+00 -0.45593999997E+02  0.45594000000E+02  0.51100000000E-03 0.  1.
    9900012    2    1    2    0    0 -0.33673912297E+00  0.31457333896E+02 -0.25758272943E+02  0.50528857436E+02  0.29999992662E+02 0.  0.
         12    1    1    2    0    0  0.33673912297E+00 -0.31457333896E+02  0.25758272943E+02  0.40659142564E+02  0.00000000000E+00 0. -1.
         11    1    3    3    0    0  0.10652526292E+02  0.10174382493E+02 -0.10371802470E+02  0.18015789249E+02  0.51100000000E-03 0.  1.
        -11    1    3    3    0    0 -0.42244503372E+01  0.20723016361E+02 -0.14556600516E+02  0.25674578995E+02  0.51100000000E-03 0. -1.
         12    1    3    3    0    0 -0.67648150778E+01  0.55993504256E+00 -0.82986995661E+00  0.68384891923E+01  0.00000000000E+00 0. -1.
</event>
<event>
 7    1  0.5006721E-012  0.5052886E+02  0.7816164E-02  0.1300439E+00
        -11   -1    0    0    0    0  0.00000000000E+00  0.00000000000E+00  0.45593999997E+02  0.45594000000E+02  0.51100000000E-03 0. -1.
         11   -1    0    0    0    0 -0.00000000000E+00 -0.00000000000E+00 -0.45593999997E+02  0.45594000000E+02  0.51100000000E-03 0.  1.
    9900012    2    1    2    0    0 -0.19142898679E+02 -0.29050490139E+02 -0.21042433187E+02  0.50528861525E+02  0.30000005090E+02 0.  0.
         12    1    1    2    0    0  0.19142898679E+02  0.29050490139E+02  0.21042433187E+02  0.40659138475E+02  0.00000000000E+00 0. -1.
         11    1    3    3    0    0 -0.12559682158E+01 -0.11443489103E+02  0.64186894435E+01  0.13180685621E+02  0.51100000000E-03 0. -1.
        -11    1    3    3    0    0 -0.65560129570E+01 -0.51793059524E+01 -0.11018733140E+02  0.13828195700E+02  0.51100000000E-03 0.  1.
         12    1    3    3    0    0 -0.11330917506E+02 -0.12427695083E+02 -0.16442389491E+02  0.23519980203E+02  0.00000000000E+00 0. -1.
</event>
<event>
 7    1  0.5006721E-012  0.5052886E+02  0.7816164E-02  0.1300439E+00
        -11   -1    0    0    0    0  0.00000000000E+00  0.00000000000E+00  0.45593999997E+02  0.45594000000E+02  0.51100000000E-03 0. -1.
         11   -1    0    0    0    0 -0.00000000000E+00 -0.00000000000E+00 -0.45593999997E+02  0.45594000000E+02  0.51100000000E-03 0.  1.
    9900012    2    1    2    0    0 -0.90546101260E+01  0.27821267899E+00  0.39637129305E+02  0.50528863433E+02  0.30000010892E+02 0.  0.
        -12    1    1    2    0    0  0.90546101260E+01 -0.27821267899E+00 -0.39637129305E+02  0.40659136567E+02  0.00000000000E+00 0.  1.
         11    1    3    3    0    0 -0.50395099866E+01 -0.79878328520E+01  0.81897373591E+01  0.12500957277E+02  0.51100000000E-03 0. -1.
        -11    1    3    3    0    0  0.15124595679E+01  0.10993098585E+02  0.77323697628E+01  0.13524987721E+02  0.51100000000E-03 0.  1.
        -12    1    3    3    0    0 -0.55275597073E+01 -0.27270530544E+01  0.23715022183E+02  0.24502918435E+02  0.00000000000E+00 0.  1.
</event>
<event>
 7    1  0.5006721E-012  0.5052887E+02  0.7816164E-02  0.1300439E+00
        -11   -1    0    0    0    0  0.00000000000E+00  0.00000000000E+00  0.45593999997E+02  0.45594000000E+02  0.51100000000E-03 0. -1.
         11   -1    0    0    0    0 -0.00000000000E+00 -0.00000000000E+00 -0.45593999997E+02  0.45594000000E+02  0.51100000000E-03 0.  1.
    9900012    2    1    2    0    0 -0.21660641304E+02  0.26536459666E+02  0.21904279945E+02  0.50528873679E+02  0.30000042035E+02 0.  0.
        -12    1    1    2    0    0  0.21660641304E+02 -0.26536459666E+02 -0.21904279945E+02  0.40659126321E+02  0.00000000000E+00 0.  1.
         11    1    3    3    0    0 -0.19773601817E+02  0.24930855217E+02  0.13120689544E+02  0.34419403903E+02  0.51100000000E-03 0. -1.
        -11    1    3    3    0    0  0.25303583815E+01 -0.16858053134E+01  0.10013600188E+02  0.10465029483E+02  0.51100000000E-03 0.  1.
        -12    1    3    3    0    0 -0.44173978682E+01  0.32914097620E+01 -0.12300097871E+01  0.56444402932E+01  0.00000000000E+00 0.  1.
</event>
<event>
 7    1  0.5006721E-012  0.5052886E+02  0.7816164E-02  0.1300439E+00
        -11   -1    0    0    0    0  0.00000000000E+00  0.00000000000E+00  0.45593999997E+02  0.45594000000E+02  0.51100000000E-03 0. -1.
         11   -1    0    0    0    0 -0.00000000000E+00 -0.00000000000E+00 -0.45593999997E+02  0.45594000000E+02  0.51100000000E-03 0.  1.
    9900012    2    1    2    0    0  0.85314596102E+01  0.11517297766E+02  0.38049067037E+02  0.50528862610E+02  0.30000008390E+02 0.  0.
        -12    1    1    2    0    0 -0.85314596102E+01 -0.11517297766E+02 -0.38049067037E+02  0.40659137390E+02  0.00000000000E+00 0.  1.
         11    1    3    3    0    0 -0.44110080037E+01  0.76817585932E+01  0.13020593075E+02  0.15748087216E+02  0.51100000000E-03 0. -1.
        -11    1    3    3    0    0  0.11787860058E+02  0.12127868696E+01  0.25512405509E+01  0.12121605725E+02  0.51100000000E-03 0.  1.
        -12    1    3    3    0    0  0.11546075555E+01  0.26227523030E+01  0.22477233411E+02  0.22659169669E+02  0.00000000000E+00 0.  1.
</event>
<event>
 7    1  0.5006721E-012  0.5052886E+02  0.7816164E-02  0.1300439E+00
        -11   -1    0    0    0    0  0.00000000000E+00  0.00000000000E+00  0.45593999997E+02  0.45594000000E+02  0.51100000000E-03 0. -1.
         11   -1    0    0    0    0 -0.00000000000E+00 -0.00000000000E+00 -0.45593999997E+02  0.45594000000E+02  0.51100000000E-03 0.  1.
    9900012    2    1    2    0    0 -0.12191174317E+02  0.81670038601E+01 -0.37918869116E+02  0.50528864270E+02  0.30000013434E+02 0.  0.
         12    1    1    2    0    0  0.12191174317E+02 -0.81670038601E+01  0.37918869116E+02  0.40659135730E+02  0.00000000000E+00 0. -1.
         11    1    3    3    0    0 -0.62671675845E+01  0.14431113220E+02 -0.81576132898E+01  0.17722332610E+02  0.51100000000E-03 0. -1.
        -11    1    3    3    0    0 -0.69682760861E+01  0.16437924909E+00 -0.11849959419E+02  0.13747924594E+02  0.51100000000E-03 0.  1.
         12    1    3    3    0    0  0.10442693541E+01 -0.64284886090E+01 -0.17911296408E+02  0.19058607066E+02  0.00000000000E+00 0. -1.
</event>
<event>
 7    1  0.5006721E-012  0.5052883E+02  0.7816164E-02  0.1300439E+00
        -11   -1    0    0    0    0  0.00000000000E+00  0.00000000000E+00  0.45593999997E+02  0.45594000000E+02  0.51100000000E-03 0. -1.
         11   -1    0    0    0    0 -0.00000000000E+00 -0.00000000000E+00 -0.45593999997E+02  0.45594000000E+02  0.51100000000E-03 0.  1.
    9900012    2    1    2    0    0 -0.30815912839E+01 -0.12525700641E+02 -0.38558765451E+02  0.50528834065E+02  0.29999921625E+02 0.  0.
         12    1    1    2    0    0  0.30815912839E+01  0.12525700641E+02  0.38558765451E+02  0.40659165935E+02  0.00000000000E+00 0. -1.
         11    1    3    3    0    0 -0.22047909484E+01  0.37116217290E+01 -0.44687461927E+01  0.62134476567E+01  0.51100000000E-03 0. -1.
        -11    1    3    3    0    0  0.22477468845E+01 -0.18199433184E+02 -0.11990282149E+02  0.21909783216E+02  0.51100000000E-03 0.  1.
        -12    1    3    3    0    0 -0.31245472200E+01  0.19621108135E+01 -0.22099737109E+02  0.22405603193E+02  0.00000000000E+00 0.  1.
</event>
<event>
 7    1  0.5006721E-012  0.5052888E+02  0.7816164E-02  0.1300439E+00
        -11   -1    0    0    0    0  0.00000000000E+00  0.00000000000E+00  0.45593999997E+02  0.45594000000E+02  0.51100000000E-03 0.  1.
         11   -1    0    0    0    0 -0.00000000000E+00 -0.00000000000E+00 -0.45593999997E+02  0.45594000000E+02  0.51100000000E-03 0. -1.
    9900012    2    1    2    0    0  0.20379462985E+02  0.35169141768E+02 -0.98654944564E+00  0.50528876497E+02  0.30000050599E+02 0.  0.
         12    1    1    2    0    0 -0.20379462985E+02 -0.35169141768E+02  0.98654944564E+00  0.40659123503E+02  0.00000000000E+00 0. -1.
         11    1    3    3    0    0  0.33657761073E+01 -0.36128349686E+01  0.20536476314E+01  0.53477559939E+01  0.51100000000E-03 0. -1.
        -11    1    3    3    0    0  0.14986922494E+02  0.39226290495E+02 -0.62418238927E+00  0.41996420273E+02  0.51100000000E-03 0.  1.
        -12    1    3    3    0    0  0.20267643831E+01 -0.44431375841E+00 -0.24160146878E+01  0.31847002296E+01  0.00000000000E+00 0.  1.
</event>
<event>
 7    1  0.5006721E-012  0.5052886E+02  0.7816164E-02  0.1300439E+00
        -11   -1    0    0    0    0  0.00000000000E+00  0.00000000000E+00  0.45593999997E+02  0.45594000000E+02  0.51100000000E-03 0.  1.
         11   -1    0    0    0    0 -0.00000000000E+00 -0.00000000000E+00 -0.45593999997E+02  0.45594000000E+02  0.51100000000E-03 0. -1.
    9900012    2    1    2    0    0  0.34668385955E+02  0.19334200464E+02  0.88009986963E+01  0.50528857481E+02  0.29999992799E+02 0.  0.
         12    1    1    2    0    0 -0.34668385955E+02 -0.19334200464E+02 -0.88009986963E+01  0.40659142519E+02  0.00000000000E+00 0. -1.
         11    1    3    3    0    0  0.27891300764E+02  0.48422472110E+01 -0.13237880847E+01  0.28339450092E+02  0.51100000000E-03 0. -1.
        -11    1    3    3    0    0  0.44037276141E+01  0.11508624121E+01 -0.99648182961E+00  0.46594288801E+01  0.51100000000E-03 0.  1.
         12    1    3    3    0    0  0.23733575769E+01  0.13341090841E+02  0.11121268611E+02  0.17529978509E+02  0.00000000000E+00 0. -1.
</event>
<event>
 7    1  0.5006721E-012  0.5052885E+02  0.7816164E-02  0.1300439E+00
        -11   -1    0    0    0    0  0.00000000000E+00  0.00000000000E+00  0.45593999997E+02  0.45594000000E+02  0.51100000000E-03 0. -1.
         11   -1    0    0    0    0 -0.00000000000E+00 -0.00000000000E+00 -0.45593999997E+02  0.45594000000E+02  0.51100000000E-03 0.  1.
    9900012    2    1    2    0    0 -0.10716465103E+02  0.26267080196E+02  0.29126697138E+02  0.50528848355E+02  0.29999965060E+02 0.  0.
        -12    1    1    2    0    0  0.10716465103E+02 -0.26267080196E+02 -0.29126697138E+02  0.40659151645E+02  0.00000000000E+00 0.  1.
         11    1    3    3    0    0 -0.16839123107E+02  0.21691645176E+02  0.21923914438E+02  0.35138889595E+02  0.51100000000E-03 0. -1.
        -11    1    3    3    0    0  0.21603826755E+01  0.67030208283E+01  0.81734683680E+01  0.10789037351E+02  0.51100000000E-03 0.  1.
         12    1    3    3    0    0  0.39622753283E+01 -0.21275858079E+01 -0.97068566859E+00  0.46009214093E+01  0.00000000000E+00 0. -1.
</event>
<event>
 7    1  0.5006721E-012  0.5052886E+02  0.7816164E-02  0.1300439E+00
        -11   -1    0    0    0    0  0.00000000000E+00  0.00000000000E+00  0.45593999997E+02  0.45594000000E+02  0.51100000000E-03 0. -1.
         11   -1    0    0    0    0 -0.00000000000E+00 -0.00000000000E+00 -0.45593999997E+02  0.45594000000E+02  0.51100000000E-03 0.  1.
    9900012    2    1    2    0    0  0.24054899497E+02 -0.19650259954E+02 -0.26237273892E+02  0.50528862683E+02  0.30000008611E+02 0.  0.
         12    1    1    2    0    0 -0.24054899497E+02  0.19650259954E+02  0.26237273892E+02  0.40659137317E+02  0.00000000000E+00 0. -1.
         11    1    3    3    0    0 -0.51401368636E+01 -0.55178362726E+01 -0.34087262959E+01  0.82756836171E+01  0.51100000000E-03 0.  1.
        -11    1    3    3    0    0  0.29980514077E+02 -0.13751369223E+02 -0.18459871447E+02  0.37798124741E+02  0.51100000000E-03 0. -1.
         12    1    3    3    0    0 -0.78547771609E+00 -0.38105445856E+00 -0.43686761488E+01  0.44550543247E+01  0.00000000000E+00 0. -1.
</event>
<event>
 7    1  0.5006721E-012  0.5052888E+02  0.7816164E-02  0.1300439E+00
        -11   -1    0    0    0    0  0.00000000000E+00  0.00000000000E+00  0.45593999997E+02  0.45594000000E+02  0.51100000000E-03 0. -1.
         11   -1    0    0    0    0 -0.00000000000E+00 -0.00000000000E+00 -0.45593999997E+02  0.45594000000E+02  0.51100000000E-03 0.  1.
    9900012    2    1    2    0    0  0.32246704751E+02  0.22040886560E+02  0.11292170851E+02  0.50528883308E+02  0.30000071304E+02 0.  0.
        -12    1    1    2    0    0 -0.32246704751E+02 -0.22040886560E+02 -0.11292170851E+02  0.40659116692E+02  0.00000000000E+00 0.  1.
         11    1    3    3    0    0  0.88249919405E+01  0.79229512960E+01  0.10559410398E+02  0.15879382488E+02  0.51100000000E-03 0. -1.
        -11    1    3    3    0    0  0.67516073943E+01  0.10882720146E+02 -0.84510833114E+01  0.15344008915E+02  0.51100000000E-03 0.  1.
        -12    1    3    3    0    0  0.16670105416E+02  0.32352151184E+01  0.91838437649E+01  0.19305491906E+02  0.00000000000E+00 0.  1.
</event>
<event>
 7    1  0.5006721E-012  0.5052885E+02  0.7816164E-02  0.1300439E+00
        -11   -1    0    0    0    0  0.00000000000E+00  0.00000000000E+00  0.45593999997E+02  0.45594000000E+02  0.51100000000E-03 0.  1.
         11   -1    0    0    0    0 -0.00000000000E+00 -0.00000000000E+00 -0.45593999997E+02  0.45594000000E+02  0.51100000000E-03 0. -1.
    9900012    2    1    2    0    0  0.20563382263E+01 -0.28695205566E+02 -0.28731911783E+02  0.50528854608E+02  0.29999984065E+02 0.  0.
         12    1    1    2    0    0 -0.20563382263E+01  0.28695205566E+02  0.28731911783E+02  0.40659145392E+02  0.00000000000E+00 0. -1.
         11    1    3    3    0    0  0.17423188633E+00 -0.37292893464E+01 -0.18900930788E+02  0.19266113793E+02  0.51100000000E-03 0. -1.
        -11    1    3    3    0    0 -0.55257030823E+01 -0.19678485879E+02 -0.54037429244E+01  0.21141822033E+02  0.51100000000E-03 0.  1.
         12    1    3    3    0    0  0.74078094222E+01 -0.52874303404E+01 -0.44272380705E+01  0.10120918781E+02  0.00000000000E+00 0. -1.
</event>
<event>
 7    1  0.5006721E-012  0.5052885E+02  0.7816164E-02  0.1300439E+00
        -11   -1    0    0    0    0  0.00000000000E+00  0.00000000000E+00  0.45593999997E+02  0.45594000000E+02  0.51100000000E-03 0.  1.
         11   -1    0    0    0    0 -0.00000000000E+00 -0.00000000000E+00 -0.45593999997E+02  0.45594000000E+02  0.51100000000E-03 0. -1.
    9900012    2    1    2    0    0  0.12399839642E+02  0.37913738159E+02 -0.78714063788E+01  0.50528848475E+02  0.29999965425E+02 0.  0.
        -12    1    1    2    0    0 -0.12399839642E+02 -0.37913738159E+02  0.78714063788E+01  0.40659151525E+02  0.00000000000E+00 0.  1.
         11    1    3    3    0    0  0.14935243448E+02  0.31066905326E+02 -0.77449695399E+01  0.35329855035E+02  0.51100000000E-03 0. -1.
        -11    1    3    3    0    0 -0.29879727251E+01  0.31636690928E+00  0.56948543220E+01  0.64389001419E+01  0.51100000000E-03 0.  1.
        -12    1    3    3    0    0  0.45256891883E+00  0.65304659240E+01 -0.58212911610E+01  0.87600932981E+01  0.00000000000E+00 0.  1.
</event>
<event>
 7    1  0.5006721E-012  0.5052886E+02  0.7816164E-02  0.1300439E+00
        -11   -1    0    0    0    0  0.00000000000E+00  0.00000000000E+00  0.45593999997E+02  0.45594000000E+02  0.51100000000E-03 0. -1.
         11   -1    0    0    0    0 -0.00000000000E+00 -0.00000000000E+00 -0.45593999997E+02  0.45594000000E+02  0.51100000000E-03 0.  1.
    9900012    2    1    2    0    0 -0.13072111679E+02 -0.95088513766E+01 -0.37307732746E+02  0.50528864730E+02  0.30000014833E+02 0.  0.
         12    1    1    2    0    0  0.13072111679E+02  0.95088513766E+01  0.37307732746E+02  0.40659135270E+02  0.00000000000E+00 0. -1.
         11    1    3    3    0    0 -0.18516464347E+01  0.42516592301E+01 -0.21048062226E+01  0.50926820266E+01  0.51100000000E-03 0. -1.
        -11    1    3    3    0    0 -0.13726782368E+01 -0.14790550422E+02 -0.88645191256E+01  0.17298101830E+02  0.51100000000E-03 0.  1.
        -12    1    3    3    0    0 -0.98477870077E+01  0.10300398154E+01 -0.26338407398E+02  0.28138080873E+02  0.00000000000E+00 0.  1.
</event>
<event>
 7    1  0.5006721E-012  0.5052882E+02  0.7816164E-02  0.1300439E+00
        -11   -1    0    0    0    0  0.00000000000E+00  0.00000000000E+00  0.45593999997E+02  0.45594000000E+02  0.51100000000E-03 0. -1.
         11   -1    0    0    0    0 -0.00000000000E+00 -0.00000000000E+00 -0.45593999997E+02  0.45594000000E+02  0.51100000000E-03 0.  1.
    9900012    2    1    2    0    0  0.18247772329E+02  0.14661663476E+01  0.36304792684E+02  0.50528821325E+02  0.29999882898E+02 0.  0.
        -12    1    1    2    0    0 -0.18247772329E+02 -0.14661663476E+01 -0.36304792684E+02  0.40659178675E+02  0.00000000000E+00 0.  1.
         11    1    3    3    0    0  0.18732159782E+02 -0.73612617946E+01  0.33640648931E+02  0.39201725039E+02  0.51100000000E-03 0. -1.
        -11    1    3    3    0    0 -0.17719858413E+01  0.78882440080E+01  0.42026788124E+01  0.91119063216E+01  0.51100000000E-03 0.  1.
         12    1    3    3    0    0  0.12875983881E+01  0.93918413411E+00 -0.15385350593E+01  0.22151899637E+01  0.00000000000E+00 0. -1.
</event>
<event>
 7    1  0.5006721E-012  0.5052886E+02  0.7816164E-02  0.1300439E+00
        -11   -1    0    0    0    0  0.00000000000E+00  0.00000000000E+00  0.45593999997E+02  0.45594000000E+02  0.51100000000E-03 0. -1.
         11   -1    0    0    0    0 -0.00000000000E+00 -0.00000000000E+00 -0.45593999997E+02  0.45594000000E+02  0.51100000000E-03 0.  1.
    9900012    2    1    2    0    0 -0.40282517863E+02  0.49145317734E+01  0.25163145664E+01  0.50528859491E+02  0.29999998910E+02 0.  0.
        -12    1    1    2    0    0  0.40282517863E+02 -0.49145317734E+01 -0.25163145664E+01  0.40659140509E+02  0.00000000000E+00 0.  1.
         11    1    3    3    0    0 -0.35418372419E+02 -0.37162343928E+01 -0.56741052561E+01  0.36061987932E+02  0.51100000000E-03 0. -1.
        -11    1    3    3    0    0  0.11549525816E+01  0.42708976326E+01  0.38175799850E+01  0.58436631711E+01  0.51100000000E-03 0.  1.
         12    1    3    3    0    0 -0.60190980252E+01  0.43598685336E+01  0.43728398375E+01  0.86232083885E+01  0.00000000000E+00 0. -1.
</event>
<event>
 7    1  0.7958262E-012  0.5052886E+02  0.7816164E-02  0.1300439E+00
        -11   -1    0    0    0    0  0.00000000000E+00  0.00000000000E+00  0.45593999997E+02  0.45594000000E+02  0.51100000000E-03 0. -1.
         11   -1    0    0    0    0 -0.00000000000E+00 -0.00000000000E+00 -0.45593999997E+02  0.45594000000E+02  0.51100000000E-03 0.  1.
    9900012    2    1    2    0    0  0.16411847879E+02 -0.12527126284E+02  0.35026964542E+02  0.50528857254E+02  0.29999992110E+02 0.  0.
        -12    1    1    2    0    0 -0.16411847879E+02  0.12527126284E+02 -0.35026964542E+02  0.40659142746E+02  0.00000000000E+00 0.  1.
         11    1    3    3    0    0  0.11626548277E+02 -0.95406516457E+01  0.31628769002E+02  0.35022559693E+02  0.51100000000E-03 0. -1.
        -11    1    3    3    0    0 -0.45416283952E+01  0.10599173718E+01  0.25216028052E+01  0.53017255949E+01  0.51100000000E-03 0.  1.
         12    1    3    3    0    0  0.93269279982E+01 -0.40463920104E+01  0.87659273563E+00  0.10204571966E+02  0.00000000000E+00 0. -1.
</event>
<event>
 7    1  0.5006721E-012  0.5052885E+02  0.7816164E-02  0.1300439E+00
        -11   -1    0    0    0    0  0.00000000000E+00  0.00000000000E+00  0.45593999997E+02  0.45594000000E+02  0.51100000000E-03 0. -1.
         11   -1    0    0    0    0 -0.00000000000E+00 -0.00000000000E+00 -0.45593999997E+02  0.45594000000E+02  0.51100000000E-03 0.  1.
    9900012    2    1    2    0    0  0.18357273475E+02  0.13377404830E+01 -0.36254478853E+02  0.50528852494E+02  0.29999977640E+02 0.  0.
         12    1    1    2    0    0 -0.18357273475E+02 -0.13377404830E+01  0.36254478853E+02  0.40659147506E+02  0.00000000000E+00 0. -1.
         11    1    3    3    0    0  0.10996775241E+02 -0.37184439584E+01 -0.67929063700E+01  0.13449887300E+02  0.51100000000E-03 0. -1.
        -11    1    3    3    0    0  0.92562800374E+01  0.11782020779E+02 -0.23618090370E+02  0.27969785962E+02  0.51100000000E-03 0.  1.
        -12    1    3    3    0    0 -0.18957818033E+01 -0.67258363372E+01 -0.58434821126E+01  0.91091792320E+01  0.00000000000E+00 0.  1.
</event>
<event>
 7    1  0.5006721E-012  0.5052885E+02  0.7816164E-02  0.1300439E+00
        -11   -1    0    0    0    0  0.00000000000E+00  0.00000000000E+00  0.45593999997E+02  0.45594000000E+02  0.51100000000E-03 0. -1.
         11   -1    0    0    0    0 -0.00000000000E+00 -0.00000000000E+00 -0.45593999997E+02  0.45594000000E+02  0.51100000000E-03 0.  1.
    9900012    2    1    2    0    0  0.10020769296E+02 -0.97530198336E+01  0.38178911764E+02  0.50528849534E+02  0.29999968643E+02 0.  0.
        -12    1    1    2    0    0 -0.10020769296E+02  0.97530198336E+01 -0.38178911764E+02  0.40659150466E+02  0.00000000000E+00 0.  1.
         11    1    3    3    0    0  0.14790619400E+02  0.21557003376E+01  0.32466144952E+02  0.35741572915E+02  0.51100000000E-03 0. -1.
        -11    1    3    3    0    0 -0.20234138361E+01 -0.22706527290E+01 -0.37028161974E+00  0.30638498832E+01  0.51100000000E-03 0.  1.
         12    1    3    3    0    0 -0.27464362677E+01 -0.96380674422E+01  0.60830484319E+01  0.11723426735E+02  0.00000000000E+00 0. -1.
</event>
<event>
 7    1  0.5006721E-012  0.5052888E+02  0.7816164E-02  0.1300439E+00
        -11   -1    0    0    0    0  0.00000000000E+00  0.00000000000E+00  0.45593999997E+02  0.45594000000E+02  0.51100000000E-03 0. -1.
         11   -1    0    0    0    0 -0.00000000000E+00 -0.00000000000E+00 -0.45593999997E+02  0.45594000000E+02  0.51100000000E-03 0.  1.
    9900012    2    1    2    0    0  0.10700523627E+02  0.21556414971E+02  0.32771695760E+02  0.50528877097E+02  0.30000052423E+02 0.  0.
        -12    1    1    2    0    0 -0.10700523627E+02 -0.21556414971E+02 -0.32771695760E+02  0.40659122903E+02  0.00000000000E+00 0.  1.
         11    1    3    3    0    0  0.11845911205E+02  0.24204347836E+02  0.31115711574E+02  0.41162647794E+02  0.51100000000E-03 0. -1.
        -11    1    3    3    0    0 -0.38212670213E+01 -0.19876820886E+01  0.39011550800E+01  0.58113658423E+01  0.51100000000E-03 0.  1.
         12    1    3    3    0    0  0.26758794430E+01 -0.66025077593E+00 -0.22451708938E+01  0.35548634605E+01  0.00000000000E+00 0. -1.
</event>
<event>
 7    1  0.5006721E-012  0.5052888E+02  0.7816164E-02  0.1300439E+00
        -11   -1    0    0    0    0  0.00000000000E+00  0.00000000000E+00  0.45593999997E+02  0.45594000000E+02  0.51100000000E-03 0. -1.
         11   -1    0    0    0    0 -0.00000000000E+00 -0.00000000000E+00 -0.45593999997E+02  0.45594000000E+02  0.51100000000E-03 0.  1.
    9900012    2    1    2    0    0  0.27571262353E+02 -0.11842468662E+02 -0.27436206848E+02  0.50528880261E+02  0.30000062042E+02 0.  0.
         12    1    1    2    0    0 -0.27571262353E+02  0.11842468662E+02  0.27436206848E+02  0.40659119739E+02  0.00000000000E+00 0. -1.
         11    1    3    3    0    0 -0.51010965845E+00 -0.41256809371E+01 -0.20010116073E+02  0.20437372644E+02  0.51100000000E-03 0. -1.
        -11    1    3    3    0    0  0.15453200819E+02 -0.45922381988E+01 -0.34224988606E+01  0.16480399447E+02  0.51100000000E-03 0.  1.
         12    1    3    3    0    0  0.12628171192E+02 -0.31245495266E+01 -0.40035919141E+01  0.13611108170E+02  0.00000000000E+00 0. -1.
</event>
<event>
 7    1  0.6167095E-012  0.5052886E+02  0.7816164E-02  0.1300439E+00
        -11   -1    0    0    0    0  0.00000000000E+00  0.00000000000E+00  0.45593999997E+02  0.45594000000E+02  0.51100000000E-03 0. -1.
         11   -1    0    0    0    0 -0.00000000000E+00 -0.00000000000E+00 -0.45593999997E+02  0.45594000000E+02  0.51100000000E-03 0.  1.
    9900012    2    1    2    0    0  0.70128735157E+01  0.13999114253E+02  0.37523464504E+02  0.50528856093E+02  0.29999988582E+02 0.  0.
        -12    1    1    2    0    0 -0.70128735157E+01 -0.13999114253E+02 -0.37523464504E+02  0.40659143907E+02  0.00000000000E+00 0.  1.
         11    1    3    3    0    0  0.51915611306E+01  0.10309154462E+02  0.38400794245E+02  0.40098029523E+02  0.51100000000E-03 0. -1.
        -11    1    3    3    0    0  0.55478164682E+01  0.10818956288E+01 -0.14792274812E+01  0.58426774615E+01  0.51100000000E-03 0.  1.
         12    1    3    3    0    0 -0.37265040831E+01  0.26080641627E+01  0.60189774018E+00  0.45881491091E+01  0.00000000000E+00 0. -1.
</event>
<event>
 7    1  0.5006721E-012  0.5052885E+02  0.7816164E-02  0.1300439E+00
        -11   -1    0    0    0    0  0.00000000000E+00  0.00000000000E+00  0.45593999997E+02  0.45594000000E+02  0.51100000000E-03 0. -1.
         11   -1    0    0    0    0 -0.00000000000E+00 -0.00000000000E+00 -0.45593999997E+02  0.45594000000E+02  0.51100000000E-03 0.  1.
    9900012    2    1    2    0    0  0.25224102879E-01  0.25093901104E+02  0.31991590331E+02  0.50528851450E+02  0.29999974468E+02 0.  0.
        -12    1    1    2    0    0 -0.25224102879E-01 -0.25093901104E+02 -0.31991590331E+02  0.40659148550E+02  0.00000000000E+00 0.  1.
         11    1    3    3    0    0  0.10426062309E+00 -0.41774945359E+01  0.31559041789E+01  0.52366079023E+01  0.51100000000E-03 0. -1.
        -11    1    3    3    0    0 -0.64356586898E+01  0.25828591573E+02  0.17527390427E+02  0.31870727335E+02  0.51100000000E-03 0.  1.
         12    1    3    3    0    0  0.63566221696E+01  0.34428040670E+01  0.11308295726E+02  0.13421516213E+02  0.00000000000E+00 0. -1.
</event>
<event>
 7    1  0.5006721E-012  0.5052887E+02  0.7816164E-02  0.1300439E+00
        -11   -1    0    0    0    0  0.00000000000E+00  0.00000000000E+00  0.45593999997E+02  0.45594000000E+02  0.51100000000E-03 0. -1.
         11   -1    0    0    0    0 -0.00000000000E+00 -0.00000000000E+00 -0.45593999997E+02  0.45594000000E+02  0.51100000000E-03 0.  1.
    9900012    2    1    2    0    0  0.12463882347E+02 -0.19844153952E+02  0.33226888105E+02  0.50528869385E+02  0.30000028983E+02 0.  0.
        -12    1    1    2    0    0 -0.12463882347E+02  0.19844153952E+02 -0.33226888105E+02  0.40659130615E+02  0.00000000000E+00 0.  1.
         11    1    3    3    0    0  0.18916072796E+01 -0.14468894513E+02  0.20765735713E+02  0.25379969789E+02  0.51100000000E-03 0. -1.
        -11    1    3    3    0    0  0.12289736455E+02 -0.23912376028E+01  0.15930109616E+02  0.20261392649E+02  0.51100000000E-03 0.  1.
        -12    1    3    3    0    0 -0.17174613883E+01 -0.29840218361E+01 -0.34689572242E+01  0.48875069476E+01  0.00000000000E+00 0.  1.
</event>
<event>
 7    1  0.5006721E-012  0.5052886E+02  0.7816164E-02  0.1300439E+00
        -11   -1    0    0    0    0  0.00000000000E+00  0.00000000000E+00  0.45593999997E+02  0.45594000000E+02  0.51100000000E-03 0. -1.
         11   -1    0    0    0    0 -0.00000000000E+00 -0.00000000000E+00 -0.45593999997E+02  0.45594000000E+02  0.51100000000E-03 0.  1.
    9900012    2    1    2    0    0  0.52918402729E+01  0.27004840698E+01  0.40222751612E+02  0.50528856688E+02  0.29999990388E+02 0.  0.
        -12    1    1    2    0    0 -0.52918402729E+01 -0.27004840698E+01 -0.40222751612E+02  0.40659143312E+02  0.00000000000E+00 0.  1.
         11    1    3    3    0    0 -0.15348785255E+01  0.62147954953E+01  0.19028892934E+02  0.20076810048E+02  0.51100000000E-03 0. -1.
        -11    1    3    3    0    0  0.66005543336E+00 -0.55153736493E+01 -0.23503598188E+01  0.60315181509E+01  0.51100000000E-03 0.  1.
        -12    1    3    3    0    0  0.61666633650E+01  0.20010622238E+01  0.23544218496E+02  0.24420528489E+02  0.00000000000E+00 0.  1.
</event>
<event>
 7    1  0.5006721E-012  0.5052886E+02  0.7816164E-02  0.1300439E+00
        -11   -1    0    0    0    0  0.00000000000E+00  0.00000000000E+00  0.45593999997E+02  0.45594000000E+02  0.51100000000E-03 0. -1.
         11   -1    0    0    0    0 -0.00000000000E+00 -0.00000000000E+00 -0.45593999997E+02  0.45594000000E+02  0.51100000000E-03 0.  1.
    9900012    2    1    2    0    0 -0.14424401215E+02 -0.15893705605E+02  0.34532481960E+02  0.50528861561E+02  0.30000005201E+02 0.  0.
        -12    1    1    2    0    0  0.14424401215E+02  0.15893705605E+02 -0.34532481960E+02  0.40659138439E+02  0.00000000000E+00 0.  1.
         11    1    3    3    0    0 -0.83758565717E+01 -0.75381343172E+01  0.36626443238E+02  0.38320683538E+02  0.51100000000E-03 0. -1.
        -11    1    3    3    0    0 -0.21781252597E+00 -0.51024038074E+01  0.29812418574E+00  0.51157448335E+01  0.51100000000E-03 0.  1.
         12    1    3    3    0    0 -0.58307321175E+01 -0.32531674806E+01 -0.23920854639E+01  0.70924331896E+01  0.00000000000E+00 0. -1.
</event>
<event>
 7    1  0.5006721E-012  0.5052885E+02  0.7816164E-02  0.1300439E+00
        -11   -1    0    0    0    0  0.00000000000E+00  0.00000000000E+00  0.45593999997E+02  0.45594000000E+02  0.51100000000E-03 0. -1.
         11   -1    0    0    0    0 -0.00000000000E+00 -0.00000000000E+00 -0.45593999997E+02  0.45594000000E+02  0.51100000000E-03 0.  1.
    9900012    2    1    2    0    0  0.10021520715E+01  0.25938181972E+02 -0.31294932677E+02  0.50528850918E+02  0.29999972850E+02 0.  0.
         12    1    1    2    0    0 -0.10021520715E+01 -0.25938181972E+02  0.31294932677E+02  0.40659149082E+02  0.00000000000E+00 0. -1.
         11    1    3    3    0    0 -0.10340472800E+02  0.51533111360E+01 -0.12261336976E+01  0.11618321630E+02  0.51100000000E-03 0. -1.
        -11    1    3    3    0    0  0.11795015344E+02  0.16844224098E+02 -0.26738901765E+02  0.33731574826E+02  0.51100000000E-03 0.  1.
         12    1    3    3    0    0 -0.45239047233E+00  0.39406467382E+01 -0.33298972149E+01  0.51789544617E+01  0.00000000000E+00 0. -1.
</event>
<event>
 7    1  0.5006721E-012  0.5052888E+02  0.7816164E-02  0.1300439E+00
        -11   -1    0    0    0    0  0.00000000000E+00  0.00000000000E+00  0.45593999997E+02  0.45594000000E+02  0.51100000000E-03 0. -1.
         11   -1    0    0    0    0 -0.00000000000E+00 -0.00000000000E+00 -0.45593999997E+02  0.45594000000E+02  0.51100000000E-03 0.  1.
    9900012    2    1    2    0    0 -0.13570590078E+02 -0.10760267443E+02  0.36786134107E+02  0.50528881305E+02  0.30000065214E+02 0.  0.
        -12    1    1    2    0    0  0.13570590078E+02  0.10760267443E+02 -0.36786134107E+02  0.40659118695E+02  0.00000000000E+00 0.  1.
         11    1    3    3    0    0  0.66546152745E+01  0.44661462981E+00  0.15076465462E+02  0.16485847875E+02  0.51100000000E-03 0. -1.
        -11    1    3    3    0    0 -0.10901077019E+02 -0.11611498888E+02  0.90607947675E+01  0.18323711106E+02  0.51100000000E-03 0.  1.
        -12    1    3    3    0    0 -0.93241283331E+01  0.40461681563E+00  0.12648873878E+02  0.15719322324E+02  0.00000000000E+00 0.  1.
</event>
<event>
 7    1  0.5006721E-012  0.5052886E+02  0.7816164E-02  0.1300439E+00
        -11   -1    0    0    0    0  0.00000000000E+00  0.00000000000E+00  0.45593999997E+02  0.45594000000E+02  0.51100000000E-03 0.  1.
         11   -1    0    0    0    0 -0.00000000000E+00 -0.00000000000E+00 -0.45593999997E+02  0.45594000000E+02  0.51100000000E-03 0. -1.
    9900012    2    1    2    0    0  0.32137840422E+02 -0.24241910974E+02  0.57144401690E+01  0.50528857595E+02  0.29999993145E+02 0.  0.
        -12    1    1    2    0    0 -0.32137840422E+02  0.24241910974E+02 -0.57144401690E+01  0.40659142405E+02  0.00000000000E+00 0.  1.
         11    1    3    3    0    0  0.17604596364E+02  0.25655782339E+01  0.43839685850E+01  0.18322750493E+02  0.51100000000E-03 0. -1.
        -11    1    3    3    0    0  0.10207161052E+02 -0.24571120613E+02  0.35710586064E+01  0.26845457060E+02  0.51100000000E-03 0.  1.
         12    1    3    3    0    0  0.43260830060E+01 -0.22363685951E+01 -0.22405870224E+01  0.53606500420E+01  0.00000000000E+00 0. -1.
</event>
<event>
 7    1  0.5006721E-012  0.5052884E+02  0.7816164E-02  0.1300439E+00
        -11   -1    0    0    0    0  0.00000000000E+00  0.00000000000E+00  0.45593999997E+02  0.45594000000E+02  0.51100000000E-03 0.  1.
         11   -1    0    0    0    0 -0.00000000000E+00 -0.00000000000E+00 -0.45593999997E+02  0.45594000000E+02  0.51100000000E-03 0. -1.
    9900012    2    1    2    0    0 -0.93679824666E+00 -0.32680482692E+02  0.24171788789E+02  0.50528844657E+02  0.29999953819E+02 0.  0.
        -12    1    1    2    0    0  0.93679824666E+00  0.32680482692E+02 -0.24171788789E+02  0.40659155343E+02  0.00000000000E+00 0.  1.
         11    1    3    3    0    0  0.95213923878E+01 -0.28590638817E+02  0.16774762099E+02  0.34488754467E+02  0.51100000000E-03 0. -1.
        -11    1    3    3    0    0 -0.79822061157E+01 -0.46407574971E+01  0.11584990284E+01  0.93056093235E+01  0.51100000000E-03 0.  1.
        -12    1    3    3    0    0 -0.24759845187E+01  0.55091362170E+00  0.62385276619E+01  0.67344808667E+01  0.00000000000E+00 0.  1.
</event>
<event>
 7    1  0.5006721E-012  0.5052884E+02  0.7816164E-02  0.1300439E+00
        -11   -1    0    0    0    0  0.00000000000E+00  0.00000000000E+00  0.45593999997E+02  0.45594000000E+02  0.51100000000E-03 0. -1.
         11   -1    0    0    0    0 -0.00000000000E+00 -0.00000000000E+00 -0.45593999997E+02  0.45594000000E+02  0.51100000000E-03 0.  1.
    9900012    2    1    2    0    0 -0.25947555112E+02  0.14647129429E+01 -0.31268930784E+02  0.50528843187E+02  0.29999949352E+02 0.  0.
         12    1    1    2    0    0  0.25947555112E+02 -0.14647129429E+01  0.31268930784E+02  0.40659156813E+02  0.00000000000E+00 0. -1.
         11    1    3    3    0    0 -0.66362050665E+01  0.36509345712E+01  0.38554655283E+01  0.84990090969E+01  0.51100000000E-03 0. -1.
        -11    1    3    3    0    0 -0.19785516948E+02 -0.42967458232E+01 -0.27791457268E+02  0.34384499457E+02  0.51100000000E-03 0.  1.
         12    1    3    3    0    0  0.47416690199E+00  0.21105241948E+01 -0.73329390445E+01  0.76453346335E+01  0.00000000000E+00 0. -1.
</event>
<event>
 7    1  0.5006721E-012  0.5052892E+02  0.7816164E-02  0.1300439E+00
        -11   -1    0    0    0    0  0.00000000000E+00  0.00000000000E+00  0.45593999997E+02  0.45594000000E+02  0.51100000000E-03 0. -1.
         11   -1    0    0    0    0 -0.00000000000E+00 -0.00000000000E+00 -0.45593999997E+02  0.45594000000E+02  0.51100000000E-03 0.  1.
    9900012    2    1    2    0    0  0.82557535950E+01 -0.82432754354E+01 -0.38949346267E+02  0.50528921900E+02  0.30000188606E+02 0.  0.
         12    1    1    2    0    0 -0.82557535950E+01  0.82432754354E+01  0.38949346267E+02  0.40659078100E+02  0.00000000000E+00 0. -1.
         11    1    3    3    0    0 -0.68366909868E+01 -0.59539184172E+01 -0.38830867768E+01  0.98624465192E+01  0.51100000000E-03 0. -1.
        -11    1    3    3    0    0  0.13982267083E+02  0.26453788006E+01 -0.31226278946E+02  0.34315919321E+02  0.51100000000E-03 0.  1.
        -12    1    3    3    0    0  0.11101774990E+01 -0.49347358189E+01 -0.38399805439E+01  0.63505560591E+01  0.00000000000E+00 0.  1.
</event>
<event>
 7    1  0.5006721E-012  0.5052886E+02  0.7816164E-02  0.1300439E+00
        -11   -1    0    0    0    0  0.00000000000E+00  0.00000000000E+00  0.45593999997E+02  0.45594000000E+02  0.51100000000E-03 0. -1.
         11   -1    0    0    0    0 -0.00000000000E+00 -0.00000000000E+00 -0.45593999997E+02  0.45594000000E+02  0.51100000000E-03 0.  1.
    9900012    2    1    2    0    0 -0.14514325868E+02  0.52141293453E+01  0.37620641970E+02  0.50528862006E+02  0.30000006552E+02 0.  0.
        -12    1    1    2    0    0  0.14514325868E+02 -0.52141293453E+01 -0.37620641970E+02  0.40659137994E+02  0.00000000000E+00 0.  1.
         11    1    3    3    0    0  0.61312742744E+01  0.72890653685E+01  0.19256770407E+02  0.21483626439E+02  0.51100000000E-03 0. -1.
        -11    1    3    3    0    0 -0.70400383855E+01  0.33580903432E+01  0.54441638948E+01  0.95119835995E+01  0.51100000000E-03 0.  1.
         12    1    3    3    0    0 -0.13605561757E+02 -0.54330263663E+01  0.12919707668E+02  0.19533251968E+02  0.00000000000E+00 0. -1.
</event>
<event>
 7    1  0.5006721E-012  0.5052874E+02  0.7816164E-02  0.1300439E+00
        -11   -1    0    0    0    0  0.00000000000E+00  0.00000000000E+00  0.45593999997E+02  0.45594000000E+02  0.51100000000E-03 0. -1.
         11   -1    0    0    0    0 -0.00000000000E+00 -0.00000000000E+00 -0.45593999997E+02  0.45594000000E+02  0.51100000000E-03 0.  1.
    9900012    2    1    2    0    0 -0.39101106106E+02 -0.96034929070E+01 -0.56614654103E+01  0.50528735800E+02  0.29999622935E+02 0.  0.
         12    1    1    2    0    0  0.39101106106E+02  0.96034929070E+01  0.56614654103E+01  0.40659264200E+02  0.00000000000E+00 0. -1.
         11    1    3    3    0    0 -0.37461242121E+01 -0.72905330816E+01  0.48881680231E+01  0.95435583568E+01  0.51100000000E-03 0. -1.
        -11    1    3    3    0    0 -0.35065899284E+02  0.21281755115E+01 -0.89150066829E+01  0.36243948019E+02  0.51100000000E-03 0.  1.
        -12    1    3    3    0    0 -0.28908260954E+00 -0.44411353370E+01 -0.16346267505E+01  0.47412294239E+01  0.00000000000E+00 0.  1.
</event>
<event>
 7    1  0.5006721E-012  0.5052886E+02  0.7816164E-02  0.1300439E+00
        -11   -1    0    0    0    0  0.00000000000E+00  0.00000000000E+00  0.45593999997E+02  0.45594000000E+02  0.51100000000E-03 0.  1.
         11   -1    0    0    0    0 -0.00000000000E+00 -0.00000000000E+00 -0.45593999997E+02  0.45594000000E+02  0.51100000000E-03 0. -1.
    9900012    2    1    2    0    0  0.38558521783E+02  0.21107120408E+01  0.12725982649E+02  0.50528863981E+02  0.30000012557E+02 0.  0.
         12    1    1    2    0    0 -0.38558521783E+02 -0.21107120408E+01 -0.12725982649E+02  0.40659136019E+02  0.00000000000E+00 0. -1.
         11    1    3    3    0    0 -0.19657178251E+00 -0.11192600894E+01 -0.32030412041E+01  0.33986551502E+01  0.51100000000E-03 0. -1.
        -11    1    3    3    0    0  0.24407718023E+02  0.14264373118E+00  0.20376222170E+02  0.31795400241E+02  0.51100000000E-03 0.  1.
        -12    1    3    3    0    0  0.14347375543E+02  0.30873283990E+01 -0.44471983166E+01  0.15334808590E+02  0.00000000000E+00 0.  1.
</event>
<event>
 7    1  0.5006721E-012  0.5052886E+02  0.7816164E-02  0.1300439E+00
        -11   -1    0    0    0    0  0.00000000000E+00  0.00000000000E+00  0.45593999997E+02  0.45594000000E+02  0.51100000000E-03 0. -1.
         11   -1    0    0    0    0 -0.00000000000E+00 -0.00000000000E+00 -0.45593999997E+02  0.45594000000E+02  0.51100000000E-03 0.  1.
    9900012    2    1    2    0    0 -0.29093474860E+02 -0.20075617044E+01  0.28332055849E+02  0.50528856231E+02  0.29999988999E+02 0.  0.
        -12    1    1    2    0    0  0.29093474860E+02  0.20075617044E+01 -0.28332055849E+02  0.40659143769E+02  0.00000000000E+00 0.  1.
         11    1    3    3    0    0 -0.23749441325E+02  0.74241540852E+01  0.23033672643E+02  0.33907286869E+02  0.51100000000E-03 0. -1.
        -11    1    3    3    0    0 -0.68820512275E+01 -0.37051978397E+01 -0.11057908059E+01  0.78939149791E+01  0.51100000000E-03 0.  1.
        -12    1    3    3    0    0  0.15380176925E+01 -0.57265179499E+01  0.64041740121E+01  0.87276543830E+01  0.00000000000E+00 0.  1.
</event>
<event>
 7    1  0.5006721E-012  0.5052886E+02  0.7816164E-02  0.1300439E+00
        -11   -1    0    0    0    0  0.00000000000E+00  0.00000000000E+00  0.45593999997E+02  0.45594000000E+02  0.51100000000E-03 0. -1.
         11   -1    0    0    0    0 -0.00000000000E+00 -0.00000000000E+00 -0.45593999997E+02  0.45594000000E+02  0.51100000000E-03 0.  1.
    9900012    2    1    2    0    0 -0.13824192412E+02  0.15891410217E+02  0.34778161093E+02  0.50528859532E+02  0.29999999035E+02 0.  0.
        -12    1    1    2    0    0  0.13824192412E+02 -0.15891410217E+02 -0.34778161093E+02  0.40659140468E+02  0.00000000000E+00 0.  1.
         11    1    3    3    0    0 -0.10022331976E+02  0.35789735640E+01  0.32626924015E+02  0.34318688218E+02  0.51100000000E-03 0. -1.
        -11    1    3    3    0    0  0.28693241525E+01  0.58239098097E+01 -0.56156617926E+00  0.65166174813E+01  0.51100000000E-03 0.  1.
         12    1    3    3    0    0 -0.66711845881E+01  0.64885268436E+01  0.27128032570E+01  0.96935538333E+01  0.00000000000E+00 0. -1.
</event>
<event>
 7    1  0.5006721E-012  0.5052886E+02  0.7816164E-02  0.1300439E+00
        -11   -1    0    0    0    0  0.00000000000E+00  0.00000000000E+00  0.45593999997E+02  0.45594000000E+02  0.51100000000E-03 0. -1.
         11   -1    0    0    0    0 -0.00000000000E+00 -0.00000000000E+00 -0.45593999997E+02  0.45594000000E+02  0.51100000000E-03 0.  1.
    9900012    2    1    2    0    0 -0.31330025748E+02 -0.21320510846E+01  0.25827301001E+02  0.50528860410E+02  0.30000001702E+02 0.  0.
        -12    1    1    2    0    0  0.31330025748E+02  0.21320510846E+01 -0.25827301001E+02  0.40659139590E+02  0.00000000000E+00 0.  1.
         11    1    3    3    0    0 -0.91104559142E+00 -0.58343224326E+01  0.61772555161E+01  0.85456309475E+01  0.51100000000E-03 0. -1.
        -11    1    3    3    0    0 -0.88817326989E+01  0.87807080885E+01  0.15168723065E+00  0.12490357062E+02  0.51100000000E-03 0.  1.
        -12    1    3    3    0    0 -0.21537247458E+02 -0.50784367404E+01  0.19498358255E+02  0.29492872400E+02  0.00000000000E+00 0.  1.
</event>
<event>
 7    1  0.5006721E-012  0.5052886E+02  0.7816164E-02  0.1300439E+00
        -11   -1    0    0    0    0  0.00000000000E+00  0.00000000000E+00  0.45593999997E+02  0.45594000000E+02  0.51100000000E-03 0. -1.
         11   -1    0    0    0    0 -0.00000000000E+00 -0.00000000000E+00 -0.45593999997E+02  0.45594000000E+02  0.51100000000E-03 0.  1.
    9900012    2    1    2    0    0 -0.25923891726E+02  0.29319396587E+02  0.11022261424E+02  0.50528862954E+02  0.30000009434E+02 0.  0.
        -12    1    1    2    0    0  0.25923891726E+02 -0.29319396587E+02 -0.11022261424E+02  0.40659137046E+02  0.00000000000E+00 0.  1.
         11    1    3    3    0    0 -0.70806761589E+01  0.24865511529E+02 -0.89792846501E-01  0.25854162169E+02  0.51100000000E-03 0. -1.
        -11    1    3    3    0    0 -0.13641434112E+02 -0.15140361544E+01  0.47684085722E+01  0.14529926038E+02  0.51100000000E-03 0.  1.
         12    1    3    3    0    0 -0.52017814549E+01  0.59679212133E+01  0.63436456979E+01  0.10144774746E+02  0.00000000000E+00 0. -1.
</event>
<event>
 7    1  0.5006721E-012  0.5052880E+02  0.7816164E-02  0.1300439E+00
        -11   -1    0    0    0    0  0.00000000000E+00  0.00000000000E+00  0.45593999997E+02  0.45594000000E+02  0.51100000000E-03 0. -1.
         11   -1    0    0    0    0 -0.00000000000E+00 -0.00000000000E+00 -0.45593999997E+02  0.45594000000E+02  0.51100000000E-03 0.  1.
    9900012    2    1    2    0    0  0.16557052875E+02 -0.43945474732E+00 -0.37132754273E+02  0.50528799808E+02  0.29999817495E+02 0.  0.
         12    1    1    2    0    0 -0.16557052875E+02  0.43945474732E+00  0.37132754273E+02  0.40659200192E+02  0.00000000000E+00 0. -1.
         11    1    3    3    0    0 -0.77741606130E+01  0.14496552102E+01 -0.55841005173E+01  0.96809737276E+01  0.51100000000E-03 0. -1.
        -11    1    3    3    0    0  0.23615708881E+01 -0.20183014320E+01 -0.10896478753E+01  0.32920951510E+01  0.51100000000E-03 0.  1.
         12    1    3    3    0    0  0.21969642599E+02  0.12919147447E+00 -0.30459005881E+02  0.37555730929E+02  0.00000000000E+00 0. -1.
</event>
<event>
 7    1  0.5006721E-012  0.5052889E+02  0.7816164E-02  0.1300439E+00
        -11   -1    0    0    0    0  0.00000000000E+00  0.00000000000E+00  0.45593999997E+02  0.45594000000E+02  0.51100000000E-03 0. -1.
         11   -1    0    0    0    0 -0.00000000000E+00 -0.00000000000E+00 -0.45593999997E+02  0.45594000000E+02  0.51100000000E-03 0.  1.
    9900012    2    1    2    0    0 -0.34587620137E+02  0.10662227988E+02  0.18525027447E+02  0.50528890143E+02  0.30000092079E+02 0.  0.
        -12    1    1    2    0    0  0.34587620137E+02 -0.10662227988E+02 -0.18525027447E+02  0.40659109857E+02  0.00000000000E+00 0.  1.
         11    1    3    3    0    0 -0.36662394027E+02  0.92519388968E+01  0.12288439668E+02  0.39758461475E+02  0.51100000000E-03 0. -1.
        -11    1    3    3    0    0  0.87783520393E+00  0.11713880996E+01  0.82701495128E+01  0.83986973960E+01  0.51100000000E-03 0.  1.
         12    1    3    3    0    0  0.11969386861E+01  0.23890099173E+00 -0.20335617335E+01  0.23717312719E+01  0.00000000000E+00 0. -1.
</event>
<event>
 7    1  0.5006721E-012  0.5052886E+02  0.7816164E-02  0.1300439E+00
        -11   -1    0    0    0    0  0.00000000000E+00  0.00000000000E+00  0.45593999997E+02  0.45594000000E+02  0.51100000000E-03 0.  1.
         11   -1    0    0    0    0 -0.00000000000E+00 -0.00000000000E+00 -0.45593999997E+02  0.45594000000E+02  0.51100000000E-03 0. -1.
    9900012    2    1    2    0    0 -0.39831936986E+02 -0.46812742403E+01  0.66834295580E+01  0.50528858799E+02  0.29999996805E+02 0.  0.
        -12    1    1    2    0    0  0.39831936986E+02  0.46812742403E+01 -0.66834295580E+01  0.40659141201E+02  0.00000000000E+00 0.  1.
         11    1    3    3    0    0 -0.29131845873E+02 -0.33324970471E+01 -0.16755739133E+01  0.29369670219E+02  0.51100000000E-03 0. -1.
        -11    1    3    3    0    0 -0.12213823987E+02  0.11538283664E+01  0.11536571783E+02  0.16840466295E+02  0.51100000000E-03 0.  1.
         12    1    3    3    0    0  0.15137328742E+01 -0.25026055596E+01 -0.31775683114E+01  0.43187222850E+01  0.00000000000E+00 0. -1.
</event>
<event>
 7    1  0.5006721E-012  0.5052886E+02  0.7816164E-02  0.1300439E+00
        -11   -1    0    0    0    0  0.00000000000E+00  0.00000000000E+00  0.45593999997E+02  0.45594000000E+02  0.51100000000E-03 0. -1.
         11   -1    0    0    0    0 -0.00000000000E+00 -0.00000000000E+00 -0.45593999997E+02  0.45594000000E+02  0.51100000000E-03 0.  1.
    9900012    2    1    2    0    0  0.39405593104E+01 -0.31751930906E+02 -0.25088889986E+02  0.50528861733E+02  0.30000005722E+02 0.  0.
         12    1    1    2    0    0 -0.39405593104E+01  0.31751930906E+02  0.25088889986E+02  0.40659138267E+02  0.00000000000E+00 0. -1.
         11    1    3    3    0    0  0.70395613577E+01 -0.28270383968E+01  0.38793163525E+01  0.85203677051E+01  0.51100000000E-03 0. -1.
        -11    1    3    3    0    0 -0.53998018574E+01 -0.11959138555E+02 -0.10328316446E+02  0.16698891459E+02  0.51100000000E-03 0.  1.
         12    1    3    3    0    0  0.23007998101E+01 -0.16965753954E+02 -0.18639889892E+02  0.25309602569E+02  0.00000000000E+00 0. -1.
</event>
<event>
 7    1  0.5006721E-012  0.5052886E+02  0.7816164E-02  0.1300439E+00
        -11   -1    0    0    0    0  0.00000000000E+00  0.00000000000E+00  0.45593999997E+02  0.45594000000E+02  0.51100000000E-03 0. -1.
         11   -1    0    0    0    0 -0.00000000000E+00 -0.00000000000E+00 -0.45593999997E+02  0.45594000000E+02  0.51100000000E-03 0.  1.
    9900012    2    1    2    0    0 -0.52901865336E+01 -0.34163374684E+01 -0.40168499835E+02  0.50528858171E+02  0.29999994896E+02 0.  0.
         12    1    1    2    0    0  0.52901865336E+01  0.34163374684E+01  0.40168499835E+02  0.40659141829E+02  0.00000000000E+00 0. -1.
         11    1    3    3    0    0  0.50507814471E-01  0.34689082612E+01  0.45276912976E+00  0.34986962872E+01  0.51100000000E-03 0. -1.
        -11    1    3    3    0    0 -0.13000583491E+02 -0.77671458273E+01 -0.32367911181E+02  0.35735492160E+02  0.51100000000E-03 0.  1.
        -12    1    3    3    0    0  0.76598891425E+01  0.88190009764E+00 -0.82533577838E+01  0.11294669724E+02  0.00000000000E+00 0.  1.
</event>
<event>
 7    1  0.5006721E-012  0.5052886E+02  0.7816164E-02  0.1300439E+00
        -11   -1    0    0    0    0  0.00000000000E+00  0.00000000000E+00  0.45593999997E+02  0.45594000000E+02  0.51100000000E-03 0. -1.
         11   -1    0    0    0    0 -0.00000000000E+00 -0.00000000000E+00 -0.45593999997E+02  0.45594000000E+02  0.51100000000E-03 0.  1.
    9900012    2    1    2    0    0 -0.57537108373E+01  0.74592920257E+01 -0.39552742023E+02  0.50528860468E+02  0.30000001880E+02 0.  0.
         12    1    1    2    0    0  0.57537108373E+01 -0.74592920257E+01  0.39552742023E+02  0.40659139532E+02  0.00000000000E+00 0. -1.
         11    1    3    3    0    0 -0.86504672967E+01 -0.75910858062E+00 -0.74367695508E+01  0.11432951146E+02  0.51100000000E-03 0. -1.
        -11    1    3    3    0    0  0.76694625211E+01  0.11960693079E+02 -0.13820326485E+02  0.19821207297E+02  0.51100000000E-03 0.  1.
        -12    1    3    3    0    0 -0.47727060617E+01 -0.37422924724E+01 -0.18295645987E+02  0.19274702026E+02  0.00000000000E+00 0.  1.
</event>
<event>
 7    1  0.5006721E-012  0.5052886E+02  0.7816164E-02  0.1300439E+00
        -11   -1    0    0    0    0  0.00000000000E+00  0.00000000000E+00  0.45593999997E+02  0.45594000000E+02  0.51100000000E-03 0. -1.
         11   -1    0    0    0    0 -0.00000000000E+00 -0.00000000000E+00 -0.45593999997E+02  0.45594000000E+02  0.51100000000E-03 0.  1.
    9900012    2    1    2    0    0  0.31066159904E+02  0.23110277658E+02  0.12408640121E+02  0.50528861122E+02  0.30000003867E+02 0.  0.
        -12    1    1    2    0    0 -0.31066159904E+02 -0.23110277658E+02 -0.12408640121E+02  0.40659138878E+02  0.00000000000E+00 0.  1.
         11    1    3    3    0    0  0.12666082511E+02 -0.47668652861E+01  0.75959119487E+00  0.13554690328E+02  0.51100000000E-03 0. -1.
        -11    1    3    3    0    0  0.29977068515E+00  0.62027341665E+01 -0.50680616003E+00  0.62306200614E+01  0.51100000000E-03 0.  1.
         12    1    3    3    0    0  0.18100306708E+02  0.21674408778E+02  0.12155855087E+02  0.30743550733E+02  0.00000000000E+00 0. -1.
</event>
<event>
 7    1  0.5006721E-012  0.5052886E+02  0.7816164E-02  0.1300439E+00
        -11   -1    0    0    0    0  0.00000000000E+00  0.00000000000E+00  0.45593999997E+02  0.45594000000E+02  0.51100000000E-03 0. -1.
         11   -1    0    0    0    0 -0.00000000000E+00 -0.00000000000E+00 -0.45593999997E+02  0.45594000000E+02  0.51100000000E-03 0.  1.
    9900012    2    1    2    0    0  0.36046721353E+02  0.48498291959E+01  0.18173576969E+02  0.50528857567E+02  0.29999993061E+02 0.  0.
        -12    1    1    2    0    0 -0.36046721353E+02 -0.48498291959E+01 -0.18173576969E+02  0.40659142433E+02  0.00000000000E+00 0.  1.
         11    1    3    3    0    0  0.16263060392E+02  0.10652140043E+02 -0.34618988807E+01  0.19746897603E+02  0.51100000000E-03 0. -1.
        -11    1    3    3    0    0  0.77722647983E+01 -0.60161795242E+01  0.86656950925E+01  0.13103312095E+02  0.51100000000E-03 0.  1.
         12    1    3    3    0    0  0.12011396163E+02  0.21386867675E+00  0.12969780757E+02  0.17678647869E+02  0.00000000000E+00 0. -1.
</event>
<event>
 7    1  0.5006721E-012  0.5052887E+02  0.7816164E-02  0.1300439E+00
        -11   -1    0    0    0    0  0.00000000000E+00  0.00000000000E+00  0.45593999997E+02  0.45594000000E+02  0.51100000000E-03 0.  1.
         11   -1    0    0    0    0 -0.00000000000E+00 -0.00000000000E+00 -0.45593999997E+02  0.45594000000E+02  0.51100000000E-03 0. -1.
    9900012    2    1    2    0    0  0.11802035721E+02 -0.38515230344E+02  0.55185143064E+01  0.50528867990E+02  0.30000024743E+02 0.  0.
         12    1    1    2    0    0 -0.11802035721E+02  0.38515230344E+02 -0.55185143064E+01  0.40659132010E+02  0.00000000000E+00 0. -1.
         11    1    3    3    0    0 -0.17211872379E+00 -0.49310994920E+01 -0.50464476460E+01  0.70577617670E+01  0.51100000000E-03 0. -1.
        -11    1    3    3    0    0  0.15349831657E+02 -0.33238785925E+02  0.13462896302E+02  0.39008765666E+02  0.51100000000E-03 0.  1.
        -12    1    3    3    0    0 -0.33756772115E+01 -0.34534492689E+00 -0.28979343496E+01  0.44623405573E+01  0.00000000000E+00 0.  1.
</event>
<event>
 7    1  0.5006721E-012  0.5052886E+02  0.7816164E-02  0.1300439E+00
        -11   -1    0    0    0    0  0.00000000000E+00  0.00000000000E+00  0.45593999997E+02  0.45594000000E+02  0.51100000000E-03 0. -1.
         11   -1    0    0    0    0 -0.00000000000E+00 -0.00000000000E+00 -0.45593999997E+02  0.45594000000E+02  0.51100000000E-03 0.  1.
    9900012    2    1    2    0    0 -0.75697036218E+01 -0.56766983128E+01 -0.39542893309E+02  0.50528859233E+02  0.29999998126E+02 0.  0.
         12    1    1    2    0    0  0.75697036218E+01  0.56766983128E+01  0.39542893309E+02  0.40659140767E+02  0.00000000000E+00 0. -1.
         11    1    3    3    0    0  0.46453394341E+01 -0.11241228694E+02 -0.69392327009E+01  0.14003476417E+02  0.51100000000E-03 0. -1.
        -11    1    3    3    0    0 -0.12837288792E+02  0.28413897900E+01 -0.22673941874E+02  0.26210248374E+02  0.51100000000E-03 0.  1.
         12    1    3    3    0    0  0.62224573650E+00  0.27231405913E+01 -0.99297187340E+01  0.10315134443E+02  0.00000000000E+00 0. -1.
</event>
<event>
 7    1  0.5006721E-012  0.5052886E+02  0.7816164E-02  0.1300439E+00
        -11   -1    0    0    0    0  0.00000000000E+00  0.00000000000E+00  0.45593999997E+02  0.45594000000E+02  0.51100000000E-03 0. -1.
         11   -1    0    0    0    0 -0.00000000000E+00 -0.00000000000E+00 -0.45593999997E+02  0.45594000000E+02  0.51100000000E-03 0.  1.
    9900012    2    1    2    0    0 -0.49985084201E+01  0.15597293845E+02 -0.37214313504E+02  0.50528858454E+02  0.29999995756E+02 0.  0.
         12    1    1    2    0    0  0.49985084201E+01 -0.15597293845E+02  0.37214313504E+02  0.40659141546E+02  0.00000000000E+00 0. -1.
         11    1    3    3    0    0 -0.70694069410E+00  0.52650678645E+01 -0.30505974832E+02  0.30965064274E+02  0.51100000000E-03 0. -1.
        -11    1    3    3    0    0  0.50711280324E+01  0.44325647686E+01 -0.22709111081E+00  0.67391053251E+01  0.51100000000E-03 0.  1.
        -12    1    3    3    0    0 -0.93626957584E+01  0.58996612115E+01 -0.64812475607E+01  0.12824688855E+02  0.00000000000E+00 0.  1.
</event>
<event>
 7    1  0.5006721E-012  0.5052885E+02  0.7816164E-02  0.1300439E+00
        -11   -1    0    0    0    0  0.00000000000E+00  0.00000000000E+00  0.45593999997E+02  0.45594000000E+02  0.51100000000E-03 0. -1.
         11   -1    0    0    0    0 -0.00000000000E+00 -0.00000000000E+00 -0.45593999997E+02  0.45594000000E+02  0.51100000000E-03 0.  1.
    9900012    2    1    2    0    0 -0.29553589553E+02 -0.14703610955E+00  0.27923642363E+02  0.50528854929E+02  0.29999985041E+02 0.  0.
        -12    1    1    2    0    0  0.29553589553E+02  0.14703610955E+00 -0.27923642363E+02  0.40659145071E+02  0.00000000000E+00 0.  1.
         11    1    3    3    0    0 -0.70089237923E+01 -0.67639394035E+01  0.14650822181E+02  0.17593250973E+02  0.51100000000E-03 0. -1.
        -11    1    3    3    0    0 -0.11239564092E+02 -0.32499433771E+01 -0.15993567780E+01  0.11808804990E+02  0.51100000000E-03 0.  1.
        -12    1    3    3    0    0 -0.11305101669E+02  0.98668466710E+01  0.14872176961E+02  0.21126798966E+02  0.00000000000E+00 0.  1.
</event>
<event>
 7    1  0.5006721E-012  0.5052886E+02  0.7816164E-02  0.1300439E+00
        -11   -1    0    0    0    0  0.00000000000E+00  0.00000000000E+00  0.45593999997E+02  0.45594000000E+02  0.51100000000E-03 0. -1.
         11   -1    0    0    0    0 -0.00000000000E+00 -0.00000000000E+00 -0.45593999997E+02  0.45594000000E+02  0.51100000000E-03 0.  1.
    9900012    2    1    2    0    0 -0.36021384876E+02  0.10888385873E+02 -0.15397022497E+02  0.50528863055E+02  0.30000009743E+02 0.  0.
         12    1    1    2    0    0  0.36021384876E+02 -0.10888385873E+02  0.15397022497E+02  0.40659136945E+02  0.00000000000E+00 0. -1.
         11    1    3    3    0    0 -0.22371977127E+02  0.12541516944E+02 -0.16130265339E+02  0.30298192487E+02  0.51100000000E-03 0. -1.
        -11    1    3    3    0    0 -0.32987072365E+01  0.55597795695E+01  0.34467524665E+01  0.73261668777E+01  0.51100000000E-03 0.  1.
         12    1    3    3    0    0 -0.10350700513E+02 -0.72129106409E+01 -0.27135096245E+01  0.12904503690E+02  0.00000000000E+00 0. -1.
</event>
<event>
 7    1  0.5006721E-012  0.5052886E+02  0.7816164E-02  0.1300439E+00
        -11   -1    0    0    0    0  0.00000000000E+00  0.00000000000E+00  0.45593999997E+02  0.45594000000E+02  0.51100000000E-03 0. -1.
         11   -1    0    0    0    0 -0.00000000000E+00 -0.00000000000E+00 -0.45593999997E+02  0.45594000000E+02  0.51100000000E-03 0.  1.
    9900012    2    1    2    0    0  0.31120638425E+01  0.35182337005E+02  0.20141596053E+02  0.50528859944E+02  0.30000000286E+02 0.  0.
        -12    1    1    2    0    0 -0.31120638425E+01 -0.35182337005E+02 -0.20141596053E+02  0.40659140056E+02  0.00000000000E+00 0.  1.
         11    1    3    3    0    0  0.22105048225E+01  0.45132354391E+00  0.65782462866E+01  0.69543762466E+01  0.51100000000E-03 0. -1.
        -11    1    3    3    0    0 -0.83710227667E+01  0.25703591463E+02  0.14358105252E+02  0.30608884706E+02  0.51100000000E-03 0.  1.
        -12    1    3    3    0    0  0.92725817868E+01  0.90274219986E+01 -0.79475548519E+00  0.12965598992E+02  0.00000000000E+00 0.  1.
</event>
<event>
 7    1  0.5006721E-012  0.5052887E+02  0.7816164E-02  0.1300439E+00
        -11   -1    0    0    0    0  0.00000000000E+00  0.00000000000E+00  0.45593999997E+02  0.45594000000E+02  0.51100000000E-03 0. -1.
         11   -1    0    0    0    0 -0.00000000000E+00 -0.00000000000E+00 -0.45593999997E+02  0.45594000000E+02  0.51100000000E-03 0.  1.
    9900012    2    1    2    0    0  0.22371153971E+02  0.36328962786E+01  0.33756461703E+02  0.50528866068E+02  0.30000018900E+02 0.  0.
        -12    1    1    2    0    0 -0.22371153971E+02 -0.36328962786E+01 -0.33756461703E+02  0.40659133932E+02  0.00000000000E+00 0.  1.
         11    1    3    3    0    0  0.12413612661E+02  0.88393919743E+01  0.17306524355E+01  0.15337137539E+02  0.51100000000E-03 0. -1.
        -11    1    3    3    0    0  0.35440610798E+01 -0.87113145124E+00  0.23056986740E+02  0.23344033001E+02  0.51100000000E-03 0.  1.
         12    1    3    3    0    0  0.64134802300E+01 -0.43353642445E+01  0.89688225279E+01  0.11847695528E+02  0.00000000000E+00 0. -1.
</event>
<event>
 7    1  0.5006721E-012  0.5052888E+02  0.7816164E-02  0.1300439E+00
        -11   -1    0    0    0    0  0.00000000000E+00  0.00000000000E+00  0.45593999997E+02  0.45594000000E+02  0.51100000000E-03 0. -1.
         11   -1    0    0    0    0 -0.00000000000E+00 -0.00000000000E+00 -0.45593999997E+02  0.45594000000E+02  0.51100000000E-03 0.  1.
    9900012    2    1    2    0    0  0.37493478797E+02 -0.11961274958E+02  0.10214269123E+02  0.50528876244E+02  0.30000049831E+02 0.  0.
        -12    1    1    2    0    0 -0.37493478797E+02  0.11961274958E+02 -0.10214269123E+02  0.40659123756E+02  0.00000000000E+00 0.  1.
         11    1    3    3    0    0  0.31706693373E+02  0.23286278897E+01  0.12978665688E+02  0.34339229400E+02  0.51100000000E-03 0. -1.
        -11    1    3    3    0    0  0.90284979033E-01  0.28077640663E+00 -0.13974822850E+00  0.32636880434E+00  0.51100000000E-03 0.  1.
         12    1    3    3    0    0  0.56965004449E+01 -0.14570679254E+02 -0.26246483372E+01  0.15863278039E+02  0.00000000000E+00 0. -1.
</event>
<event>
 7    1  0.5006721E-012  0.5052890E+02  0.7816164E-02  0.1300439E+00
        -11   -1    0    0    0    0  0.00000000000E+00  0.00000000000E+00  0.45593999997E+02  0.45594000000E+02  0.51100000000E-03 0. -1.
         11   -1    0    0    0    0 -0.00000000000E+00 -0.00000000000E+00 -0.45593999997E+02  0.45594000000E+02  0.51100000000E-03 0.  1.
    9900012    2    1    2    0    0 -0.15191702042E+02  0.36000050994E+02 -0.11241498021E+02  0.50528895727E+02  0.30000109052E+02 0.  0.
         12    1    1    2    0    0  0.15191702042E+02 -0.36000050994E+02  0.11241498021E+02  0.40659104273E+02  0.00000000000E+00 0. -1.
         11    1    3    3    0    0  0.39130515786E+01  0.11811689001E+02  0.55836558404E+01  0.13638371696E+02  0.51100000000E-03 0. -1.
        -11    1    3    3    0    0 -0.32336781402E+01  0.16603118551E+01 -0.65288013025E+01  0.74725200889E+01  0.51100000000E-03 0.  1.
         12    1    3    3    0    0 -0.15871075480E+02  0.22528050138E+02 -0.10296352559E+02  0.29418003942E+02  0.00000000000E+00 0. -1.
</event>
<event>
 7    1  0.5006721E-012  0.5052886E+02  0.7816164E-02  0.1300439E+00
        -11   -1    0    0    0    0  0.00000000000E+00  0.00000000000E+00  0.45593999997E+02  0.45594000000E+02  0.51100000000E-03 0. -1.
         11   -1    0    0    0    0 -0.00000000000E+00 -0.00000000000E+00 -0.45593999997E+02  0.45594000000E+02  0.51100000000E-03 0.  1.
    9900012    2    1    2    0    0 -0.47501854605E+01  0.29916387134E+02 -0.27122149752E+02  0.50528862180E+02  0.30000007082E+02 0.  0.
         12    1    1    2    0    0  0.47501854605E+01 -0.29916387134E+02  0.27122149752E+02  0.40659137820E+02  0.00000000000E+00 0. -1.
         11    1    3    3    0    0  0.66373360898E+00  0.55654337571E+00 -0.96951734045E+01  0.97337901373E+01  0.51100000000E-03 0. -1.
        -11    1    3    3    0    0  0.34269908836E+01  0.24784905656E+02 -0.61742684529E+01  0.25771251543E+02  0.51100000000E-03 0.  1.
         12    1    3    3    0    0 -0.88409099531E+01  0.45749381024E+01 -0.11252707895E+02  0.15023820500E+02  0.00000000000E+00 0. -1.
</event>
<event>
 7    1  0.6979206E-012  0.5052886E+02  0.7816164E-02  0.1300439E+00
        -11   -1    0    0    0    0  0.00000000000E+00  0.00000000000E+00  0.45593999997E+02  0.45594000000E+02  0.51100000000E-03 0. -1.
         11   -1    0    0    0    0 -0.00000000000E+00 -0.00000000000E+00 -0.45593999997E+02  0.45594000000E+02  0.51100000000E-03 0.  1.
    9900012    2    1    2    0    0  0.14861591833E+02  0.66871177402E+01  0.37250253985E+02  0.50528857394E+02  0.29999992536E+02 0.  0.
        -12    1    1    2    0    0 -0.14861591833E+02 -0.66871177402E+01 -0.37250253985E+02  0.40659142606E+02  0.00000000000E+00 0.  1.
         11    1    3    3    0    0  0.17825322373E+02 -0.92266983307E+00  0.23533358307E+02  0.29536627953E+02  0.51100000000E-03 0. -1.
        -11    1    3    3    0    0 -0.39554223017E+01  0.36537549327E+01 -0.12093144462E+01  0.55188524517E+01  0.51100000000E-03 0.  1.
         12    1    3    3    0    0  0.99169176119E+00  0.39560326406E+01  0.14926210124E+02  0.15473376990E+02  0.00000000000E+00 0. -1.
</event>
<event>
 7    1  0.5006721E-012  0.5052886E+02  0.7816164E-02  0.1300439E+00
        -11   -1    0    0    0    0  0.00000000000E+00  0.00000000000E+00  0.45593999997E+02  0.45594000000E+02  0.51100000000E-03 0. -1.
         11   -1    0    0    0    0 -0.00000000000E+00 -0.00000000000E+00 -0.45593999997E+02  0.45594000000E+02  0.51100000000E-03 0.  1.
    9900012    2    1    2    0    0  0.26247201140E+02  0.92936357496E+01 -0.29629008300E+02  0.50528863684E+02  0.30000011653E+02 0.  0.
         12    1    1    2    0    0 -0.26247201140E+02 -0.92936357496E+01  0.29629008300E+02  0.40659136316E+02  0.00000000000E+00 0. -1.
         11    1    3    3    0    0  0.28008335279E+01  0.44480084189E+01 -0.70530137135E+00  0.53034797663E+01  0.51100000000E-03 0. -1.
        -11    1    3    3    0    0 -0.16554190945E+01 -0.64220032109E+01 -0.93308610941E+01  0.11447598291E+02  0.51100000000E-03 0.  1.
        -12    1    3    3    0    0  0.25101786707E+02  0.11267630542E+02 -0.19592845835E+02  0.33777785626E+02  0.00000000000E+00 0.  1.
</event>
<event>
 7    1  0.5006721E-012  0.5052885E+02  0.7816164E-02  0.1300439E+00
        -11   -1    0    0    0    0  0.00000000000E+00  0.00000000000E+00  0.45593999997E+02  0.45594000000E+02  0.51100000000E-03 0. -1.
         11   -1    0    0    0    0 -0.00000000000E+00 -0.00000000000E+00 -0.45593999997E+02  0.45594000000E+02  0.51100000000E-03 0.  1.
    9900012    2    1    2    0    0  0.21282586307E+02 -0.11240137213E+02  0.32770064198E+02  0.50528852542E+02  0.29999977787E+02 0.  0.
        -12    1    1    2    0    0 -0.21282586307E+02  0.11240137213E+02 -0.32770064198E+02  0.40659147458E+02  0.00000000000E+00 0.  1.
         11    1    3    3    0    0  0.10821506201E+02 -0.13773098208E+02  0.13698412650E+02  0.22236225851E+02  0.51100000000E-03 0. -1.
        -11    1    3    3    0    0  0.22113647868E+01  0.25915023882E+00  0.19593305374E+02  0.19719404373E+02  0.51100000000E-03 0.  1.
         12    1    3    3    0    0  0.82497153195E+01  0.22738107566E+01 -0.52165382633E+00  0.85732223186E+01  0.00000000000E+00 0. -1.
</event>
<event>
 7    1  0.5006721E-012  0.5052886E+02  0.7816164E-02  0.1300439E+00
        -11   -1    0    0    0    0  0.00000000000E+00  0.00000000000E+00  0.45593999997E+02  0.45594000000E+02  0.51100000000E-03 0. -1.
         11   -1    0    0    0    0 -0.00000000000E+00 -0.00000000000E+00 -0.45593999997E+02  0.45594000000E+02  0.51100000000E-03 0.  1.
    9900012    2    1    2    0    0 -0.22257507962E+02 -0.73675806468E+01 -0.33218781804E+02  0.50528863636E+02  0.30000011509E+02 0.  0.
         12    1    1    2    0    0  0.22257507962E+02  0.73675806468E+01  0.33218781804E+02  0.40659136364E+02  0.00000000000E+00 0. -1.
         11    1    3    3    0    0  0.11910212296E+01  0.69957160608E+01 -0.30447783146E+01  0.77219977997E+01  0.51100000000E-03 0. -1.
        -11    1    3    3    0    0 -0.21607742187E+02 -0.14577205596E+02 -0.21070045452E+02  0.33516208929E+02  0.51100000000E-03 0.  1.
        -12    1    3    3    0    0 -0.18407870045E+01  0.21390888837E+00 -0.91039580382E+01  0.92906569073E+01  0.00000000000E+00 0.  1.
</event>
<event>
 7    1  0.5006721E-012  0.5052888E+02  0.7816164E-02  0.1300439E+00
        -11   -1    0    0    0    0  0.00000000000E+00  0.00000000000E+00  0.45593999997E+02  0.45594000000E+02  0.51100000000E-03 0. -1.
         11   -1    0    0    0    0 -0.00000000000E+00 -0.00000000000E+00 -0.45593999997E+02  0.45594000000E+02  0.51100000000E-03 0.  1.
    9900012    2    1    2    0    0  0.16007924470E+02  0.51613119771E+01  0.37017179772E+02  0.50528875742E+02  0.30000048306E+02 0.  0.
        -12    1    1    2    0    0 -0.16007924470E+02 -0.51613119771E+01 -0.37017179772E+02  0.40659124258E+02  0.00000000000E+00 0.  1.
         11    1    3    3    0    0  0.90023485362E+00  0.43297359621E+01 -0.29635767558E+01  0.53235161070E+01  0.51100000000E-03 0.  1.
        -11    1    3    3    0    0  0.10472060780E+02  0.68822308283E+00  0.39100905548E+02  0.40484793725E+02  0.51100000000E-03 0. -1.
         12    1    3    3    0    0  0.46356288362E+01  0.14335293216E+00  0.87985097941E+00  0.47205659106E+01  0.00000000000E+00 0. -1.
</event>
<event>
 7    1  0.5480479E-012  0.5052896E+02  0.7816164E-02  0.1300438E+00
        -11   -1    0    0    0    0  0.00000000000E+00  0.00000000000E+00  0.45593999997E+02  0.45594000000E+02  0.51100000000E-03 0. -1.
         11   -1    0    0    0    0 -0.00000000000E+00 -0.00000000000E+00 -0.45593999997E+02  0.45594000000E+02  0.51100000000E-03 0.  1.
    9900012    2    1    2    0    0  0.15126708575E+02  0.23072126130E+02  0.29866657816E+02  0.50528959608E+02  0.30000303224E+02 0.  0.
        -12    1    1    2    0    0 -0.15126708575E+02 -0.23072126130E+02 -0.29866657816E+02  0.40659040392E+02  0.00000000000E+00 0.  1.
         11    1    3    3    0    0  0.14502367718E+01  0.23879833413E+02  0.20884212279E+02  0.31756888281E+02  0.51100000000E-03 0. -1.
        -11    1    3    3    0    0  0.20526646928E+01 -0.16436824389E+01 -0.15597493996E+01  0.30574405557E+01  0.51100000000E-03 0.  1.
         12    1    3    3    0    0  0.11623807110E+02  0.83597515600E+00  0.10542194936E+02  0.15714630771E+02  0.00000000000E+00 0. -1.
</event>
<event>
 7    1  0.5006721E-012  0.5052886E+02  0.7816164E-02  0.1300439E+00
        -11   -1    0    0    0    0  0.00000000000E+00  0.00000000000E+00  0.45593999997E+02  0.45594000000E+02  0.51100000000E-03 0. -1.
         11   -1    0    0    0    0 -0.00000000000E+00 -0.00000000000E+00 -0.45593999997E+02  0.45594000000E+02  0.51100000000E-03 0.  1.
    9900012    2    1    2    0    0  0.18575299618E+02  0.91891426395E+01  0.34981188489E+02  0.50528860235E+02  0.30000001169E+02 0.  0.
        -12    1    1    2    0    0 -0.18575299618E+02 -0.91891426395E+01 -0.34981188489E+02  0.40659139765E+02  0.00000000000E+00 0.  1.
         11    1    3    3    0    0  0.58357820712E+01  0.85261959162E+01  0.26147330783E+02  0.28114680801E+02  0.51100000000E-03 0. -1.
        -11    1    3    3    0    0  0.81095020866E+01  0.79318332670E+01  0.22397447225E+01  0.11562632043E+02  0.51100000000E-03 0.  1.
        -12    1    3    3    0    0  0.46300154604E+01 -0.72688865436E+01  0.65941129834E+01  0.10851547391E+02  0.00000000000E+00 0.  1.
</event>
<event>
 7    1  0.5006721E-012  0.5052886E+02  0.7816164E-02  0.1300439E+00
        -11   -1    0    0    0    0  0.00000000000E+00  0.00000000000E+00  0.45593999997E+02  0.45594000000E+02  0.51100000000E-03 0. -1.
         11   -1    0    0    0    0 -0.00000000000E+00 -0.00000000000E+00 -0.45593999997E+02  0.45594000000E+02  0.51100000000E-03 0.  1.
    9900012    2    1    2    0    0 -0.35520611691E+01 -0.12042516639E+02 -0.38672030614E+02  0.50528864528E+02  0.30000014218E+02 0.  0.
         12    1    1    2    0    0  0.35520611691E+01  0.12042516639E+02  0.38672030614E+02  0.40659135472E+02  0.00000000000E+00 0. -1.
         11    1    3    3    0    0  0.37887951576E+01  0.38630833177E+01 -0.40400668922E+01  0.67528158735E+01  0.51100000000E-03 0. -1.
        -11    1    3    3    0    0 -0.11085367903E+02 -0.18844893577E+02 -0.30107701799E+02  0.37208723485E+02  0.51100000000E-03 0.  1.
        -12    1    3    3    0    0  0.37445115766E+01  0.29392936203E+01 -0.45242619227E+01  0.65673251692E+01  0.00000000000E+00 0.  1.
</event>
<event>
 7    1  0.5006721E-012  0.5052885E+02  0.7816164E-02  0.1300439E+00
        -11   -1    0    0    0    0  0.00000000000E+00  0.00000000000E+00  0.45593999997E+02  0.45594000000E+02  0.51100000000E-03 0. -1.
         11   -1    0    0    0    0 -0.00000000000E+00 -0.00000000000E+00 -0.45593999997E+02  0.45594000000E+02  0.51100000000E-03 0.  1.
    9900012    2    1    2    0    0  0.20535703046E+02  0.11924140368E+02  0.33004028591E+02  0.50528854333E+02  0.29999983230E+02 0.  0.
        -12    1    1    2    0    0 -0.20535703046E+02 -0.11924140368E+02 -0.33004028591E+02  0.40659145667E+02  0.00000000000E+00 0.  1.
         11    1    3    3    0    0  0.13647264286E+02  0.19232516286E+02  0.23644056288E+02  0.33394294471E+02  0.51100000000E-03 0. -1.
        -11    1    3    3    0    0  0.41912546678E+00 -0.78477964558E+01  0.50066068084E+01  0.93182448650E+01  0.51100000000E-03 0.  1.
        -12    1    3    3    0    0  0.64693132932E+01  0.53942053831E+00  0.43533654950E+01  0.78163149972E+01  0.00000000000E+00 0.  1.
</event>
<event>
 7    1  0.5006721E-012  0.5052886E+02  0.7816164E-02  0.1300439E+00
        -11   -1    0    0    0    0  0.00000000000E+00  0.00000000000E+00  0.45593999997E+02  0.45594000000E+02  0.51100000000E-03 0. -1.
         11   -1    0    0    0    0 -0.00000000000E+00 -0.00000000000E+00 -0.45593999997E+02  0.45594000000E+02  0.51100000000E-03 0.  1.
    9900012    2    1    2    0    0  0.19294699625E+02  0.21275072187E+02 -0.28779364179E+02  0.50528856714E+02  0.29999990469E+02 0.  0.
         12    1    1    2    0    0 -0.19294699625E+02 -0.21275072187E+02  0.28779364179E+02  0.40659143286E+02  0.00000000000E+00 0. -1.
         11    1    3    3    0    0  0.13937471144E+02  0.19793818960E+02 -0.14848003225E+02  0.28399147363E+02  0.51100000000E-03 0. -1.
        -11    1    3    3    0    0  0.80060166310E+01 -0.20788493864E+01 -0.15378886562E+02  0.17462189703E+02  0.51100000000E-03 0.  1.
         12    1    3    3    0    0 -0.26487881499E+01  0.35601026138E+01  0.14475256083E+01  0.46675196486E+01  0.00000000000E+00 0. -1.
</event>
<event>
 7    1  0.5006721E-012  0.5052885E+02  0.7816164E-02  0.1300439E+00
        -11   -1    0    0    0    0  0.00000000000E+00  0.00000000000E+00  0.45593999997E+02  0.45594000000E+02  0.51100000000E-03 0. -1.
         11   -1    0    0    0    0 -0.00000000000E+00 -0.00000000000E+00 -0.45593999997E+02  0.45594000000E+02  0.51100000000E-03 0.  1.
    9900012    2    1    2    0    0  0.62046650523E+01 -0.63175545618E+01  0.39683207375E+02  0.50528852055E+02  0.29999976305E+02 0.  0.
        -12    1    1    2    0    0 -0.62046650523E+01  0.63175545618E+01 -0.39683207375E+02  0.40659147945E+02  0.00000000000E+00 0.  1.
         11    1    3    3    0    0  0.60627399822E+01 -0.67735634110E+01  0.39129516336E+02  0.40171594770E+02  0.51100000000E-03 0. -1.
        -11    1    3    3    0    0  0.20942860025E+01  0.44163194844E+01 -0.19719665357E+01  0.52705373472E+01  0.51100000000E-03 0.  1.
        -12    1    3    3    0    0 -0.19523609324E+01 -0.39603106353E+01  0.25256575746E+01  0.50867199375E+01  0.00000000000E+00 0.  1.
</event>
<event>
 7    1  0.5006721E-012  0.5052885E+02  0.7816164E-02  0.1300439E+00
        -11   -1    0    0    0    0  0.00000000000E+00  0.00000000000E+00  0.45593999997E+02  0.45594000000E+02  0.51100000000E-03 0. -1.
         11   -1    0    0    0    0 -0.00000000000E+00 -0.00000000000E+00 -0.45593999997E+02  0.45594000000E+02  0.51100000000E-03 0.  1.
    9900012    2    1    2    0    0  0.15549335366E+02  0.13319087254E+02  0.35128141527E+02  0.50528852902E+02  0.29999978882E+02 0.  0.
        -12    1    1    2    0    0 -0.15549335366E+02 -0.13319087254E+02 -0.35128141527E+02  0.40659147098E+02  0.00000000000E+00 0.  1.
         11    1    3    3    0    0  0.69045461647E+01  0.62897571983E+01  0.74785412312E+01  0.11965048373E+02  0.51100000000E-03 0. -1.
        -11    1    3    3    0    0  0.75856574529E+01 -0.43890407665E+01  0.25411180422E+02  0.26879991974E+02  0.51100000000E-03 0.  1.
        -12    1    3    3    0    0  0.10591317482E+01  0.11418370822E+02  0.22384198733E+01  0.11683812555E+02  0.00000000000E+00 0.  1.
</event>
<event>
 7    1  0.5006721E-012  0.5052885E+02  0.7816164E-02  0.1300439E+00
        -11   -1    0    0    0    0  0.00000000000E+00  0.00000000000E+00  0.45593999997E+02  0.45594000000E+02  0.51100000000E-03 0. -1.
         11   -1    0    0    0    0 -0.00000000000E+00 -0.00000000000E+00 -0.45593999997E+02  0.45594000000E+02  0.51100000000E-03 0.  1.
    9900012    2    1    2    0    0 -0.33717450890E+01 -0.18236046378E+01 -0.40478049543E+02  0.50528847358E+02  0.29999962028E+02 0.  0.
         12    1    1    2    0    0  0.33717450890E+01  0.18236046378E+01  0.40478049543E+02  0.40659152642E+02  0.00000000000E+00 0. -1.
         11    1    3    3    0    0 -0.11516342832E+02 -0.14363566795E+01 -0.59991455555E+01  0.13064418104E+02  0.51100000000E-03 0. -1.
        -11    1    3    3    0    0  0.32506805749E+01  0.57465889388E+01 -0.12674246667E+02  0.14290792052E+02  0.51100000000E-03 0.  1.
         12    1    3    3    0    0  0.48939171678E+01 -0.61338368971E+01 -0.21804657320E+02  0.23173637202E+02  0.00000000000E+00 0. -1.
</event>
<event>
 7    1  0.5006721E-012  0.5052885E+02  0.7816164E-02  0.1300439E+00
        -11   -1    0    0    0    0  0.00000000000E+00  0.00000000000E+00  0.45593999997E+02  0.45594000000E+02  0.51100000000E-03 0. -1.
         11   -1    0    0    0    0 -0.00000000000E+00 -0.00000000000E+00 -0.45593999997E+02  0.45594000000E+02  0.51100000000E-03 0.  1.
    9900012    2    1    2    0    0  0.24507770834E+02  0.54452931250E+01  0.31982558786E+02  0.50528854473E+02  0.29999983657E+02 0.  0.
        -12    1    1    2    0    0 -0.24507770834E+02 -0.54452931250E+01 -0.31982558786E+02  0.40659145527E+02  0.00000000000E+00 0.  1.
         11    1    3    3    0    0  0.17272394323E+01 -0.23164868216E+01  0.81557677041E+01  0.86525149150E+01  0.51100000000E-03 0. -1.
        -11    1    3    3    0    0  0.15461057061E+02 -0.14332794888E+01  0.24623580715E+00  0.15529301589E+02  0.51100000000E-03 0.  1.
        -12    1    3    3    0    0  0.73194743410E+01  0.91950594353E+01  0.23580555275E+02  0.26347037969E+02  0.00000000000E+00 0.  1.
</event>
<event>
 7    1  0.5006721E-012  0.5052886E+02  0.7816164E-02  0.1300439E+00
        -11   -1    0    0    0    0  0.00000000000E+00  0.00000000000E+00  0.45593999997E+02  0.45594000000E+02  0.51100000000E-03 0. -1.
         11   -1    0    0    0    0 -0.00000000000E+00 -0.00000000000E+00 -0.45593999997E+02  0.45594000000E+02  0.51100000000E-03 0.  1.
    9900012    2    1    2    0    0 -0.30101671600E+02 -0.99267123150E+01 -0.25465967129E+02  0.50528859179E+02  0.29999997960E+02 0.  0.
         12    1    1    2    0    0  0.30101671600E+02  0.99267123150E+01  0.25465967129E+02  0.40659140821E+02  0.00000000000E+00 0. -1.
         11    1    3    3    0    0 -0.21289938599E+02 -0.11899902715E+01 -0.46112947845E+01  0.21816085860E+02  0.51100000000E-03 0. -1.
        -11    1    3    3    0    0 -0.30167063421E+01 -0.66356286073E+01 -0.21319448732E+02  0.22531111350E+02  0.51100000000E-03 0.  1.
        -12    1    3    3    0    0 -0.57950266589E+01 -0.21010934362E+01  0.46477638743E+00  0.61816619687E+01  0.00000000000E+00 0.  1.
</event>
<event>
 7    1  0.5006721E-012  0.5052887E+02  0.7816164E-02  0.1300439E+00
        -11   -1    0    0    0    0  0.00000000000E+00  0.00000000000E+00  0.45593999997E+02  0.45594000000E+02  0.51100000000E-03 0. -1.
         11   -1    0    0    0    0 -0.00000000000E+00 -0.00000000000E+00 -0.45593999997E+02  0.45594000000E+02  0.51100000000E-03 0.  1.
    9900012    2    1    2    0    0 -0.24272299313E+02 -0.46198933012E+01 -0.32290503039E+02  0.50528874154E+02  0.30000043479E+02 0.  0.
         12    1    1    2    0    0  0.24272299313E+02  0.46198933012E+01  0.32290503039E+02  0.40659125846E+02  0.00000000000E+00 0. -1.
         11    1    3    3    0    0 -0.19759589425E+02  0.13577392395E+01 -0.82306616768E+01  0.21448277833E+02  0.51100000000E-03 0. -1.
        -11    1    3    3    0    0  0.55064834343E+00 -0.96011901636E+01 -0.10991407560E+02  0.14604694675E+02  0.51100000000E-03 0.  1.
        -12    1    3    3    0    0 -0.50633582314E+01  0.36235576229E+01 -0.13068433802E+02  0.14475901646E+02  0.00000000000E+00 0.  1.
</event>
<event>
 7    1  0.5006721E-012  0.5052886E+02  0.7816164E-02  0.1300439E+00
        -11   -1    0    0    0    0  0.00000000000E+00  0.00000000000E+00  0.45593999997E+02  0.45594000000E+02  0.51100000000E-03 0. -1.
         11   -1    0    0    0    0 -0.00000000000E+00 -0.00000000000E+00 -0.45593999997E+02  0.45594000000E+02  0.51100000000E-03 0.  1.
    9900012    2    1    2    0    0 -0.93512479887E+01  0.32307599714E+01 -0.39437066040E+02  0.50528858017E+02  0.29999994428E+02 0.  0.
         12    1    1    2    0    0  0.93512479887E+01 -0.32307599714E+01  0.39437066040E+02  0.40659141983E+02  0.00000000000E+00 0. -1.
         11    1    3    3    0    0  0.92325261341E+00 -0.75877032390E+01 -0.99170938940E-01  0.76443097117E+01  0.51100000000E-03 0. -1.
        -11    1    3    3    0    0  0.65101445759E+00  0.34947878720E+01 -0.51868867597E+01  0.62881759369E+01  0.51100000000E-03 0.  1.
         12    1    3    3    0    0 -0.10925515060E+02  0.73236753384E+01 -0.34151008342E+02  0.36596372368E+02  0.00000000000E+00 0. -1.
</event>
<event>
 7    1  0.5006721E-012  0.5052881E+02  0.7816164E-02  0.1300439E+00
        -11   -1    0    0    0    0  0.00000000000E+00  0.00000000000E+00  0.45593999997E+02  0.45594000000E+02  0.51100000000E-03 0. -1.
         11   -1    0    0    0    0 -0.00000000000E+00 -0.00000000000E+00 -0.45593999997E+02  0.45594000000E+02  0.51100000000E-03 0.  1.
    9900012    2    1    2    0    0 -0.17727629254E+02 -0.11090144460E+02 -0.34869900986E+02  0.50528805002E+02  0.29999833284E+02 0.  0.
         12    1    1    2    0    0  0.17727629254E+02  0.11090144460E+02  0.34869900986E+02  0.40659194998E+02  0.00000000000E+00 0. -1.
         11    1    3    3    0    0 -0.11911615259E+02 -0.88895480001E+01 -0.26449098509E+01  0.15096562195E+02  0.51100000000E-03 0. -1.
        -11    1    3    3    0    0 -0.47413574598E+01  0.52609011954E+01 -0.13456978714E+02  0.15206834921E+02  0.51100000000E-03 0.  1.
         12    1    3    3    0    0 -0.10746565353E+01 -0.74614976555E+01 -0.18768012421E+02  0.20225407887E+02  0.00000000000E+00 0. -1.
</event>
<event>
 7    1  0.5006721E-012  0.5052886E+02  0.7816164E-02  0.1300439E+00
        -11   -1    0    0    0    0  0.00000000000E+00  0.00000000000E+00  0.45593999997E+02  0.45594000000E+02  0.51100000000E-03 0. -1.
         11   -1    0    0    0    0 -0.00000000000E+00 -0.00000000000E+00 -0.45593999997E+02  0.45594000000E+02  0.51100000000E-03 0.  1.
    9900012    2    1    2    0    0  0.41335355234E+00 -0.19633929298E+02  0.35602013948E+02  0.50528862798E+02  0.30000008960E+02 0.  0.
        -12    1    1    2    0    0 -0.41335355234E+00  0.19633929298E+02 -0.35602013948E+02  0.40659137202E+02  0.00000000000E+00 0.  1.
         11    1    3    3    0    0 -0.56167304249E+01 -0.44994686145E+01  0.19233776806E+02  0.20536091375E+02  0.51100000000E-03 0. -1.
        -11    1    3    3    0    0  0.10175256164E+02 -0.12673311238E+01  0.41879708515E+01  0.11076148532E+02  0.51100000000E-03 0.  1.
        -12    1    3    3    0    0 -0.41451721868E+01 -0.13867129560E+02  0.12180266291E+02  0.18916622891E+02  0.00000000000E+00 0.  1.
</event>
<event>
 7    1  0.5006721E-012  0.5052886E+02  0.7816164E-02  0.1300439E+00
        -11   -1    0    0    0    0  0.00000000000E+00  0.00000000000E+00  0.45593999997E+02  0.45594000000E+02  0.51100000000E-03 0. -1.
         11   -1    0    0    0    0 -0.00000000000E+00 -0.00000000000E+00 -0.45593999997E+02  0.45594000000E+02  0.51100000000E-03 0.  1.
    9900012    2    1    2    0    0  0.13477697793E+02  0.20922024108E+02  0.32152548527E+02  0.50528858256E+02  0.29999995156E+02 0.  0.
        -12    1    1    2    0    0 -0.13477697793E+02 -0.20922024108E+02 -0.32152548527E+02  0.40659141744E+02  0.00000000000E+00 0.  1.
         11    1    3    3    0    0 -0.34488283597E+01  0.46491524696E+01  0.17681443177E+02  0.18604904429E+02  0.51100000000E-03 0. -1.
        -11    1    3    3    0    0  0.15441777850E+02  0.19297134314E+02  0.10891927299E+02  0.27008553765E+02  0.51100000000E-03 0.  1.
        -12    1    3    3    0    0  0.14847483022E+01 -0.30242626762E+01  0.35791780512E+01  0.49154000628E+01  0.00000000000E+00 0.  1.
</event>
<event>
 7    1  0.5006721E-012  0.5052886E+02  0.7816164E-02  0.1300439E+00
        -11   -1    0    0    0    0  0.00000000000E+00  0.00000000000E+00  0.45593999997E+02  0.45594000000E+02  0.51100000000E-03 0. -1.
         11   -1    0    0    0    0 -0.00000000000E+00 -0.00000000000E+00 -0.45593999997E+02  0.45594000000E+02  0.51100000000E-03 0.  1.
    9900012    2    1    2    0    0  0.70584805494E+01 -0.25471828053E+02 -0.30895458485E+02  0.50528861703E+02  0.30000005632E+02 0.  0.
         12    1    1    2    0    0 -0.70584805494E+01  0.25471828053E+02  0.30895458485E+02  0.40659138297E+02  0.00000000000E+00 0. -1.
         11    1    3    3    0    0  0.10581069494E+02 -0.27084803071E+01  0.15032594660E+00  0.10923254797E+02  0.51100000000E-03 0. -1.
        -11    1    3    3    0    0 -0.49100005378E+01 -0.19246116014E+02 -0.29402905934E+02  0.35483122249E+02  0.51100000000E-03 0.  1.
        -12    1    3    3    0    0  0.13874115929E+01 -0.35172317320E+01 -0.16428784975E+01  0.41224846564E+01  0.00000000000E+00 0.  1.
</event>
<event>
 7    1  0.5006721E-012  0.5052887E+02  0.7816164E-02  0.1300439E+00
        -11   -1    0    0    0    0  0.00000000000E+00  0.00000000000E+00  0.45593999997E+02  0.45594000000E+02  0.51100000000E-03 0. -1.
         11   -1    0    0    0    0 -0.00000000000E+00 -0.00000000000E+00 -0.45593999997E+02  0.45594000000E+02  0.51100000000E-03 0.  1.
    9900012    2    1    2    0    0 -0.27061058137E+02  0.93547496359E+01  0.28867853935E+02  0.50528865736E+02  0.30000017892E+02 0.  0.
        -12    1    1    2    0    0  0.27061058137E+02 -0.93547496359E+01 -0.28867853935E+02  0.40659134264E+02  0.00000000000E+00 0.  1.
         11    1    3    3    0    0 -0.21896604574E+02 -0.24827827278E+01  0.30245445964E+02  0.37422085776E+02  0.51100000000E-03 0. -1.
        -11    1    3    3    0    0 -0.19512198704E+01  0.54354777254E+01 -0.14050114680E+01  0.59435456230E+01  0.51100000000E-03 0.  1.
         12    1    3    3    0    0 -0.32132336924E+01  0.64020546382E+01  0.27419438872E-01  0.71632343378E+01  0.00000000000E+00 0. -1.
</event>
<event>
 7    1  0.5006721E-012  0.5052886E+02  0.7816164E-02  0.1300439E+00
        -11   -1    0    0    0    0  0.00000000000E+00  0.00000000000E+00  0.45593999997E+02  0.45594000000E+02  0.51100000000E-03 0. -1.
         11   -1    0    0    0    0 -0.00000000000E+00 -0.00000000000E+00 -0.45593999997E+02  0.45594000000E+02  0.51100000000E-03 0.  1.
    9900012    2    1    2    0    0  0.15016301587E+02 -0.18406845229E+02  0.32997942203E+02  0.50528862598E+02  0.30000008353E+02 0.  0.
        -12    1    1    2    0    0 -0.15016301587E+02  0.18406845229E+02 -0.32997942203E+02  0.40659137402E+02  0.00000000000E+00 0.  1.
         11    1    3    3    0    0 -0.15359675769E+01  0.47130413512E+01  0.16198192943E+02  0.16939699232E+02  0.51100000000E-03 0. -1.
        -11    1    3    3    0    0  0.15315545284E+02 -0.17665551321E+02  0.12346579136E+02  0.26440038719E+02  0.51100000000E-03 0.  1.
         12    1    3    3    0    0  0.12367238793E+01 -0.54543352587E+01  0.44531701245E+01  0.71491246475E+01  0.00000000000E+00 0. -1.
</event>
<event>
 7    1  0.5006721E-012  0.5052886E+02  0.7816164E-02  0.1300439E+00
        -11   -1    0    0    0    0  0.00000000000E+00  0.00000000000E+00  0.45593999997E+02  0.45594000000E+02  0.51100000000E-03 0. -1.
         11   -1    0    0    0    0 -0.00000000000E+00 -0.00000000000E+00 -0.45593999997E+02  0.45594000000E+02  0.51100000000E-03 0.  1.
    9900012    2    1    2    0    0  0.28529224305E+02  0.63864242499E+01  0.28257080201E+02  0.50528860368E+02  0.30000001575E+02 0.  0.
        -12    1    1    2    0    0 -0.28529224305E+02 -0.63864242499E+01 -0.28257080201E+02  0.40659139632E+02  0.00000000000E+00 0.  1.
         11    1    3    3    0    0  0.22186280790E+02  0.78401864040E+01  0.25669867643E+02  0.34823005086E+02  0.51100000000E-03 0. -1.
        -11    1    3    3    0    0  0.56454110968E+01  0.55401131501E+01 -0.71157344806E+00  0.79416533039E+01  0.51100000000E-03 0.  1.
         12    1    3    3    0    0  0.69753241758E+00 -0.69938753041E+01  0.32987860061E+01  0.77642019781E+01  0.00000000000E+00 0. -1.
</event>
<event>
 7    1  0.5006721E-012  0.5052885E+02  0.7816164E-02  0.1300439E+00
        -11   -1    0    0    0    0  0.00000000000E+00  0.00000000000E+00  0.45593999997E+02  0.45594000000E+02  0.51100000000E-03 0. -1.
         11   -1    0    0    0    0 -0.00000000000E+00 -0.00000000000E+00 -0.45593999997E+02  0.45594000000E+02  0.51100000000E-03 0.  1.
    9900012    2    1    2    0    0  0.56640075734E+01  0.22855157764E+02  0.33147051738E+02  0.50528852725E+02  0.29999978342E+02 0.  0.
        -12    1    1    2    0    0 -0.56640075734E+01 -0.22855157764E+02 -0.33147051738E+02  0.40659147275E+02  0.00000000000E+00 0.  1.
         11    1    3    3    0    0 -0.34097945109E+01 -0.35113590651E+01  0.93316202557E+01  0.10537337327E+02  0.51100000000E-03 0. -1.
        -11    1    3    3    0    0 -0.91346804674E+00  0.20410148018E+02  0.16412650642E+02  0.26206557717E+02  0.51100000000E-03 0.  1.
         12    1    3    3    0    0  0.99872701311E+01  0.59563688106E+01  0.74027808407E+01  0.13784957681E+02  0.00000000000E+00 0. -1.
</event>
<event>
 7    1  0.5006721E-012  0.5052886E+02  0.7816164E-02  0.1300439E+00
        -11   -1    0    0    0    0  0.00000000000E+00  0.00000000000E+00  0.45593999997E+02  0.45594000000E+02  0.51100000000E-03 0. -1.
         11   -1    0    0    0    0 -0.00000000000E+00 -0.00000000000E+00 -0.45593999997E+02  0.45594000000E+02  0.51100000000E-03 0.  1.
    9900012    2    1    2    0    0 -0.99764394828E+01  0.28047995292E+02  0.27693797824E+02  0.50528858069E+02  0.29999994585E+02 0.  0.
        -12    1    1    2    0    0  0.99764394828E+01 -0.28047995292E+02 -0.27693797824E+02  0.40659141931E+02  0.00000000000E+00 0.  1.
         11    1    3    3    0    0 -0.13498763445E+02  0.20227799792E+02  0.16181858122E+02  0.29210152884E+02  0.51100000000E-03 0. -1.
        -11    1    3    3    0    0  0.81618404921E+01  0.92667755706E+01  0.53161267974E+01  0.13444328696E+02  0.51100000000E-03 0.  1.
        -12    1    3    3    0    0 -0.46395165302E+01 -0.14465800705E+01  0.61958129045E+01  0.78743764884E+01  0.00000000000E+00 0.  1.
</event>
<event>
 7    1  0.5006721E-012  0.5052886E+02  0.7816164E-02  0.1300439E+00
        -11   -1    0    0    0    0  0.00000000000E+00  0.00000000000E+00  0.45593999997E+02  0.45594000000E+02  0.51100000000E-03 0. -1.
         11   -1    0    0    0    0 -0.00000000000E+00 -0.00000000000E+00 -0.45593999997E+02  0.45594000000E+02  0.51100000000E-03 0.  1.
    9900012    2    1    2    0    0 -0.27775616553E+02 -0.58996358167E+01  0.29101122485E+02  0.50528857024E+02  0.29999991410E+02 0.  0.
        -12    1    1    2    0    0  0.27775616553E+02  0.58996358167E+01 -0.29101122485E+02  0.40659142976E+02  0.00000000000E+00 0.  1.
         11    1    3    3    0    0 -0.12192642495E+02  0.13442194629E+01  0.17684260653E+02  0.21522094045E+02  0.51100000000E-03 0. -1.
        -11    1    3    3    0    0 -0.16181852584E+02 -0.12029056311E+02  0.46416028148E+01  0.20690457359E+02  0.51100000000E-03 0.  1.
        -12    1    3    3    0    0  0.59887852657E+00  0.47852010319E+01  0.67752590174E+01  0.83163056195E+01  0.00000000000E+00 0.  1.
</event>
<event>
 7    1  0.5006721E-012  0.5052894E+02  0.7816164E-02  0.1300439E+00
        -11   -1    0    0    0    0  0.00000000000E+00  0.00000000000E+00  0.45593999997E+02  0.45594000000E+02  0.51100000000E-03 0. -1.
         11   -1    0    0    0    0 -0.00000000000E+00 -0.00000000000E+00 -0.45593999997E+02  0.45594000000E+02  0.51100000000E-03 0.  1.
    9900012    2    1    2    0    0  0.23796888157E+01  0.10552396657E+02  0.39193659549E+02  0.50528942670E+02  0.30000251739E+02 0.  0.
        -12    1    1    2    0    0 -0.23796888157E+01 -0.10552396657E+02 -0.39193659549E+02  0.40659057330E+02  0.00000000000E+00 0.  1.
         11    1    3    3    0    0  0.10588524510E+02  0.13649687312E+02  0.28309462052E+02  0.33164083840E+02  0.51100000000E-03 0. -1.
        -11    1    3    3    0    0 -0.90014442598E+01  0.92394427387E-01  0.10823330609E+02  0.14077607085E+02  0.51100000000E-03 0.  1.
        -12    1    3    3    0    0  0.79260856509E+00 -0.31896850823E+01  0.60866888603E-01  0.32872517457E+01  0.00000000000E+00 0.  1.
</event>
<event>
 7    1  0.5006721E-012  0.5052886E+02  0.7816164E-02  0.1300439E+00
        -11   -1    0    0    0    0  0.00000000000E+00  0.00000000000E+00  0.45593999997E+02  0.45594000000E+02  0.51100000000E-03 0. -1.
         11   -1    0    0    0    0 -0.00000000000E+00 -0.00000000000E+00 -0.45593999997E+02  0.45594000000E+02  0.51100000000E-03 0.  1.
    9900012    2    1    2    0    0 -0.19367053873E+02  0.17341169915E+02  0.31262865623E+02  0.50528859371E+02  0.29999998545E+02 0.  0.
        -12    1    1    2    0    0  0.19367053873E+02 -0.17341169915E+02 -0.31262865623E+02  0.40659140629E+02  0.00000000000E+00 0.  1.
         11    1    3    3    0    0 -0.49151267138E+01 -0.14067101026E+01  0.18243379518E+02  0.18946192241E+02  0.51100000000E-03 0. -1.
        -11    1    3    3    0    0 -0.21008033264E+01  0.13989977200E+02  0.18568835741E+01  0.14268176251E+02  0.51100000000E-03 0.  1.
        -12    1    3    3    0    0 -0.12351123833E+02  0.47579028174E+01  0.11162602530E+02  0.17314490879E+02  0.00000000000E+00 0.  1.
</event>
<event>
 7    1  0.5006721E-012  0.5052886E+02  0.7816164E-02  0.1300439E+00
        -11   -1    0    0    0    0  0.00000000000E+00  0.00000000000E+00  0.45593999997E+02  0.45594000000E+02  0.51100000000E-03 0. -1.
         11   -1    0    0    0    0 -0.00000000000E+00 -0.00000000000E+00 -0.45593999997E+02  0.45594000000E+02  0.51100000000E-03 0.  1.
    9900012    2    1    2    0    0 -0.36682622325E+01 -0.31495987002E+02  0.25450193662E+02  0.50528859546E+02  0.29999999076E+02 0.  0.
        -12    1    1    2    0    0  0.36682622325E+01  0.31495987002E+02 -0.25450193662E+02  0.40659140454E+02  0.00000000000E+00 0.  1.
         11    1    3    3    0    0  0.28557589834E+01 -0.13896698678E+02  0.17583344026E+02  0.22593087016E+02  0.51100000000E-03 0. -1.
        -11    1    3    3    0    0 -0.95328731647E+01 -0.19162144110E+02  0.24457449628E+01  0.21541706208E+02  0.51100000000E-03 0.  1.
        -12    1    3    3    0    0  0.30088519488E+01  0.15628557856E+01  0.54211046731E+01  0.63940663222E+01  0.00000000000E+00 0.  1.
</event>
<event>
 7    1  0.5006721E-012  0.5052886E+02  0.7816164E-02  0.1300439E+00
        -11   -1    0    0    0    0  0.00000000000E+00  0.00000000000E+00  0.45593999997E+02  0.45594000000E+02  0.51100000000E-03 0. -1.
         11   -1    0    0    0    0 -0.00000000000E+00 -0.00000000000E+00 -0.45593999997E+02  0.45594000000E+02  0.51100000000E-03 0.  1.
    9900012    2    1    2    0    0  0.20356496142E+02  0.28435331029E+02  0.20741524448E+02  0.50528858072E+02  0.29999994595E+02 0.  0.
        -12    1    1    2    0    0 -0.20356496142E+02 -0.28435331029E+02 -0.20741524448E+02  0.40659141928E+02  0.00000000000E+00 0.  1.
         11    1    3    3    0    0 -0.32586478858E+01  0.92125254487E+01  0.58117825619E+01  0.11369530685E+02  0.51100000000E-03 0. -1.
        -11    1    3    3    0    0  0.19061880812E+02  0.16303213963E+02  0.20221411162E+01  0.25164243295E+02  0.51100000000E-03 0.  1.
         12    1    3    3    0    0  0.45532632155E+01  0.29195916171E+01  0.12907600769E+02  0.13995084092E+02  0.00000000000E+00 0. -1.
</event>
<event>
 7    1  0.5006721E-012  0.5052887E+02  0.7816164E-02  0.1300439E+00
        -11   -1    0    0    0    0  0.00000000000E+00  0.00000000000E+00  0.45593999997E+02  0.45594000000E+02  0.51100000000E-03 0. -1.
         11   -1    0    0    0    0 -0.00000000000E+00 -0.00000000000E+00 -0.45593999997E+02  0.45594000000E+02  0.51100000000E-03 0.  1.
    9900012    2    1    2    0    0  0.24895284692E+02 -0.21225668995E+02 -0.24142503456E+02  0.50528871907E+02  0.30000036648E+02 0.  0.
         12    1    1    2    0    0 -0.24895284692E+02  0.21225668995E+02  0.24142503456E+02  0.40659128093E+02  0.00000000000E+00 0. -1.
         11    1    3    3    0    0 -0.31550433530E+01 -0.45384424012E+01 -0.83577382752E+01  0.10020157051E+02  0.51100000000E-03 0. -1.
        -11    1    3    3    0    0  0.24993567846E+02 -0.12887072904E+02 -0.19633339132E+02  0.34296108926E+02  0.51100000000E-03 0.  1.
        -12    1    3    3    0    0  0.30567601994E+01 -0.38001536897E+01  0.38485739517E+01  0.62126059302E+01  0.00000000000E+00 0.  1.
</event>
<event>
 7    1  0.5006721E-012  0.5052885E+02  0.7816164E-02  0.1300439E+00
        -11   -1    0    0    0    0  0.00000000000E+00  0.00000000000E+00  0.45593999997E+02  0.45594000000E+02  0.51100000000E-03 0.  1.
         11   -1    0    0    0    0 -0.00000000000E+00 -0.00000000000E+00 -0.45593999997E+02  0.45594000000E+02  0.51100000000E-03 0. -1.
    9900012    2    1    2    0    0  0.87857690703E+01  0.34375898105E+02 -0.19856345704E+02  0.50528848836E+02  0.29999966521E+02 0.  0.
         12    1    1    2    0    0 -0.87857690703E+01 -0.34375898105E+02  0.19856345704E+02  0.40659151164E+02  0.00000000000E+00 0. -1.
         11    1    3    3    0    0 -0.58697380224E+01  0.26770058814E+00 -0.11152824926E+00  0.58768977248E+01  0.51100000000E-03 0. -1.
        -11    1    3    3    0    0  0.13942208595E+02  0.26519823013E+02 -0.86384861474E+01  0.31181879936E+02  0.51100000000E-03 0.  1.
         12    1    3    3    0    0  0.71329849776E+00  0.75883745039E+01 -0.11106331307E+02  0.13470071175E+02  0.00000000000E+00 0. -1.
</event>
<event>
 7    1  0.5006721E-012  0.5052886E+02  0.7816164E-02  0.1300439E+00
        -11   -1    0    0    0    0  0.00000000000E+00  0.00000000000E+00  0.45593999997E+02  0.45594000000E+02  0.51100000000E-03 0. -1.
         11   -1    0    0    0    0 -0.00000000000E+00 -0.00000000000E+00 -0.45593999997E+02  0.45594000000E+02  0.51100000000E-03 0.  1.
    9900012    2    1    2    0    0  0.26094997353E+02  0.30440397348E+02  0.67527224636E+01  0.50528856647E+02  0.29999990263E+02 0.  0.
        -12    1    1    2    0    0 -0.26094997353E+02 -0.30440397348E+02 -0.67527224636E+01  0.40659143353E+02  0.00000000000E+00 0.  1.
         11    1    3    3    0    0  0.80818609223E+01  0.18448847067E+02  0.92282107711E+01  0.22154825848E+02  0.51100000000E-03 0. -1.
        -11    1    3    3    0    0  0.13765739392E+02  0.14676555692E+01 -0.77434844236E+01  0.15862255361E+02  0.51100000000E-03 0.  1.
        -12    1    3    3    0    0  0.42473970395E+01  0.10523894711E+02  0.52679961161E+01  0.12511775437E+02  0.00000000000E+00 0.  1.
</event>
<event>
 7    1  0.5006721E-012  0.5052887E+02  0.7816164E-02  0.1300439E+00
        -11   -1    0    0    0    0  0.00000000000E+00  0.00000000000E+00  0.45593999997E+02  0.45594000000E+02  0.51100000000E-03 0. -1.
         11   -1    0    0    0    0 -0.00000000000E+00 -0.00000000000E+00 -0.45593999997E+02  0.45594000000E+02  0.51100000000E-03 0.  1.
    9900012    2    1    2    0    0  0.29247700667E+02 -0.19967188059E+02  0.19976197648E+02  0.50528867376E+02  0.30000022875E+02 0.  0.
        -12    1    1    2    0    0 -0.29247700667E+02  0.19967188059E+02 -0.19976197648E+02  0.40659132624E+02  0.00000000000E+00 0.  1.
         11    1    3    3    0    0  0.88816977083E+01 -0.15915583141E+02  0.20837242856E+02  0.27683587755E+02  0.51100000000E-03 0. -1.
        -11    1    3    3    0    0  0.17818342340E+02 -0.64892868070E+01  0.72917978001E+00  0.18977246123E+02  0.51100000000E-03 0.  1.
        -12    1    3    3    0    0  0.25476606193E+01  0.24376818894E+01 -0.15902249880E+01  0.38680334975E+01  0.00000000000E+00 0.  1.
</event>
<event>
 7    1  0.5006721E-012  0.5052885E+02  0.7816164E-02  0.1300439E+00
        -11   -1    0    0    0    0  0.00000000000E+00  0.00000000000E+00  0.45593999997E+02  0.45594000000E+02  0.51100000000E-03 0.  1.
         11   -1    0    0    0    0 -0.00000000000E+00 -0.00000000000E+00 -0.45593999997E+02  0.45594000000E+02  0.51100000000E-03 0. -1.
    9900012    2    1    2    0    0  0.32652312904E+02 -0.23606681364E+02 -0.54513436482E+01  0.50528854773E+02  0.29999984567E+02 0.  0.
        -12    1    1    2    0    0 -0.32652312904E+02  0.23606681364E+02  0.54513436482E+01  0.40659145227E+02  0.00000000000E+00 0.  1.
         11    1    3    3    0    0  0.41006105690E+01 -0.31208996922E+01 -0.26035532778E+01  0.57735181526E+01  0.51100000000E-03 0. -1.
        -11    1    3    3    0    0  0.27734319738E+02 -0.47697375954E+01 -0.58273014081E+01  0.28738481693E+02  0.51100000000E-03 0.  1.
        -12    1    3    3    0    0  0.81738259760E+00 -0.15716044077E+02  0.29795110376E+01  0.16016854927E+02  0.00000000000E+00 0.  1.
</event>
<event>
 7    1  0.5006721E-012  0.5052886E+02  0.7816164E-02  0.1300439E+00
        -11   -1    0    0    0    0  0.00000000000E+00  0.00000000000E+00  0.45593999997E+02  0.45594000000E+02  0.51100000000E-03 0. -1.
         11   -1    0    0    0    0 -0.00000000000E+00 -0.00000000000E+00 -0.45593999997E+02  0.45594000000E+02  0.51100000000E-03 0.  1.
    9900012    2    1    2    0    0 -0.10727590577E+02 -0.31159449932E+02 -0.23815397391E+02  0.50528859914E+02  0.30000000194E+02 0.  0.
         12    1    1    2    0    0  0.10727590577E+02  0.31159449932E+02  0.23815397391E+02  0.40659140086E+02  0.00000000000E+00 0. -1.
         11    1    3    3    0    0 -0.35229729659E+01  0.94752967724E+00 -0.23010534611E+01  0.43132352474E+01  0.51100000000E-03 0. -1.
        -11    1    3    3    0    0 -0.13325677221E+02 -0.74809228435E+01 -0.56702545843E+01  0.16299989794E+02  0.51100000000E-03 0.  1.
        -12    1    3    3    0    0  0.61210596101E+01 -0.24626056766E+02 -0.15844089345E+02  0.29915634872E+02  0.00000000000E+00 0.  1.
</event>
<event>
 7    1  0.5006721E-012  0.5052886E+02  0.7816164E-02  0.1300439E+00
        -11   -1    0    0    0    0  0.00000000000E+00  0.00000000000E+00  0.45593999997E+02  0.45594000000E+02  0.51100000000E-03 0.  1.
         11   -1    0    0    0    0 -0.00000000000E+00 -0.00000000000E+00 -0.45593999997E+02  0.45594000000E+02  0.51100000000E-03 0. -1.
    9900012    2    1    2    0    0 -0.22788428013E+02 -0.13880081758E+02  0.30678927366E+02  0.50528859512E+02  0.29999998973E+02 0.  0.
        -12    1    1    2    0    0  0.22788428013E+02  0.13880081758E+02 -0.30678927366E+02  0.40659140488E+02  0.00000000000E+00 0.  1.
         11    1    3    3    0    0 -0.19245753526E+02 -0.31316192857E+00  0.17961933306E+02  0.26327327011E+02  0.51100000000E-03 0. -1.
        -11    1    3    3    0    0 -0.57196687626E+01 -0.15990949342E+02  0.12180601735E+02  0.20899572495E+02  0.51100000000E-03 0.  1.
         12    1    3    3    0    0  0.21769942762E+01  0.24240295127E+01  0.53639232542E+00  0.33019600064E+01  0.00000000000E+00 0. -1.
</event>
<event>
 7    1  0.5006721E-012  0.5052885E+02  0.7816164E-02  0.1300439E+00
        -11   -1    0    0    0    0  0.00000000000E+00  0.00000000000E+00  0.45593999997E+02  0.45594000000E+02  0.51100000000E-03 0. -1.
         11   -1    0    0    0    0 -0.00000000000E+00 -0.00000000000E+00 -0.45593999997E+02  0.45594000000E+02  0.51100000000E-03 0.  1.
    9900012    2    1    2    0    0  0.16606407653E+02 -0.59346940669E+01 -0.36635675532E+02  0.50528854775E+02  0.29999984573E+02 0.  0.
         12    1    1    2    0    0 -0.16606407653E+02  0.59346940669E+01  0.36635675532E+02  0.40659145225E+02  0.00000000000E+00 0. -1.
         11    1    3    3    0    0  0.14115300586E+01 -0.69217514724E+01  0.31982012714E+01  0.77544537000E+01  0.51100000000E-03 0. -1.
        -11    1    3    3    0    0  0.10210553512E+02  0.19428506068E+01 -0.24206847387E+02  0.26343908825E+02  0.51100000000E-03 0.  1.
         12    1    3    3    0    0  0.49843240820E+01 -0.95579320140E+00 -0.15627029416E+02  0.16430492250E+02  0.00000000000E+00 0. -1.
</event>
<event>
 7    1  0.5006721E-012  0.5052887E+02  0.7816164E-02  0.1300439E+00
        -11   -1    0    0    0    0  0.00000000000E+00  0.00000000000E+00  0.45593999997E+02  0.45594000000E+02  0.51100000000E-03 0. -1.
         11   -1    0    0    0    0 -0.00000000000E+00 -0.00000000000E+00 -0.45593999997E+02  0.45594000000E+02  0.51100000000E-03 0.  1.
    9900012    2    1    2    0    0  0.19002786830E+02 -0.22145424692E+02  0.28313225531E+02  0.50528874554E+02  0.30000044694E+02 0.  0.
        -12    1    1    2    0    0 -0.19002786830E+02  0.22145424692E+02 -0.28313225531E+02  0.40659125446E+02  0.00000000000E+00 0.  1.
         11    1    3    3    0    0  0.18511947436E+01 -0.97739758913E+01 -0.10928059621E+01  0.10007584715E+02  0.51100000000E-03 0.  1.
        -11    1    3    3    0    0  0.20182951105E+02 -0.11576530593E+02  0.29260926750E+02  0.37384079638E+02  0.51100000000E-03 0. -1.
        -12    1    3    3    0    0 -0.30313590182E+01 -0.79491820700E+00  0.14510474275E+00  0.31372102000E+01  0.00000000000E+00 0.  1.
</event>
<event>
 7    1  0.5006721E-012  0.5052887E+02  0.7816164E-02  0.1300439E+00
        -11   -1    0    0    0    0  0.00000000000E+00  0.00000000000E+00  0.45593999997E+02  0.45594000000E+02  0.51100000000E-03 0. -1.
         11   -1    0    0    0    0 -0.00000000000E+00 -0.00000000000E+00 -0.45593999997E+02  0.45594000000E+02  0.51100000000E-03 0.  1.
    9900012    2    1    2    0    0  0.29023065360E+02 -0.12917704373E+02 -0.25376362555E+02  0.50528865901E+02  0.30000018393E+02 0.  0.
         12    1    1    2    0    0 -0.29023065360E+02  0.12917704373E+02  0.25376362555E+02  0.40659134099E+02  0.00000000000E+00 0. -1.
         11    1    3    3    0    0  0.80924373059E+01 -0.14327635360E+02 -0.84375950746E+01  0.18492206128E+02  0.51100000000E-03 0. -1.
        -11    1    3    3    0    0  0.22777475549E+02  0.41069884583E+01 -0.17080216551E+02  0.28764814344E+02  0.51100000000E-03 0.  1.
         12    1    3    3    0    0 -0.18468474945E+01 -0.26970574716E+01  0.14144907064E+00  0.32718454292E+01  0.00000000000E+00 0. -1.
</event>
<event>
 7    1  0.6615582E-012  0.5052886E+02  0.7816164E-02  0.1300439E+00
        -11   -1    0    0    0    0  0.00000000000E+00  0.00000000000E+00  0.45593999997E+02  0.45594000000E+02  0.51100000000E-03 0. -1.
         11   -1    0    0    0    0 -0.00000000000E+00 -0.00000000000E+00 -0.45593999997E+02  0.45594000000E+02  0.51100000000E-03 0.  1.
    9900012    2    1    2    0    0  0.15268121184E+02  0.29563866991E+02  0.23367234514E+02  0.50528863207E+02  0.30000010203E+02 0.  0.
        -12    1    1    2    0    0 -0.15268121184E+02 -0.29563866991E+02 -0.23367234514E+02  0.40659136793E+02  0.00000000000E+00 0.  1.
         11    1    3    3    0    0  0.17062330945E+01  0.22480442784E+02  0.14496255789E+02  0.26803413427E+02  0.51100000000E-03 0. -1.
        -11    1    3    3    0    0  0.62931891038E+00 -0.45543072400E+01  0.21336938284E+01  0.50685704436E+01  0.51100000000E-03 0.  1.
         12    1    3    3    0    0  0.12932569179E+02  0.11637731447E+02  0.67372848965E+01  0.18656879336E+02  0.00000000000E+00 0. -1.
</event>
<event>
 7    1  0.5006721E-012  0.5052885E+02  0.7816164E-02  0.1300439E+00
        -11   -1    0    0    0    0  0.00000000000E+00  0.00000000000E+00  0.45593999997E+02  0.45594000000E+02  0.51100000000E-03 0. -1.
         11   -1    0    0    0    0 -0.00000000000E+00 -0.00000000000E+00 -0.45593999997E+02  0.45594000000E+02  0.51100000000E-03 0.  1.
    9900012    2    1    2    0    0  0.16946192084E+02  0.26379404576E+02 -0.25886673529E+02  0.50528852465E+02  0.29999977552E+02 0.  0.
         12    1    1    2    0    0 -0.16946192084E+02 -0.26379404576E+02  0.25886673529E+02  0.40659147535E+02  0.00000000000E+00 0. -1.
         11    1    3    3    0    0 -0.15604017222E+01  0.89183609033E+01 -0.15520948223E+02  0.17968635139E+02  0.51100000000E-03 0.  1.
        -11    1    3    3    0    0  0.16295910987E+02  0.11690698268E+02 -0.14824816031E+02  0.24940014265E+02  0.51100000000E-03 0. -1.
         12    1    3    3    0    0  0.22106828188E+01  0.57703454038E+01  0.44590907250E+01  0.76202030614E+01  0.00000000000E+00 0. -1.
</event>
<event>
 7    1  0.5006721E-012  0.5052886E+02  0.7816164E-02  0.1300439E+00
        -11   -1    0    0    0    0  0.00000000000E+00  0.00000000000E+00  0.45593999997E+02  0.45594000000E+02  0.51100000000E-03 0. -1.
         11   -1    0    0    0    0 -0.00000000000E+00 -0.00000000000E+00 -0.45593999997E+02  0.45594000000E+02  0.51100000000E-03 0.  1.
    9900012    2    1    2    0    0  0.29551756790E+02  0.21820850109E+02  0.17427263505E+02  0.50528863977E+02  0.30000012545E+02 0.  0.
        -12    1    1    2    0    0 -0.29551756790E+02 -0.21820850109E+02 -0.17427263505E+02  0.40659136023E+02  0.00000000000E+00 0.  1.
         11    1    3    3    0    0  0.21304691636E+02  0.24235395689E+02  0.17584199445E+01  0.32316193013E+02  0.51100000000E-03 0. -1.
        -11    1    3    3    0    0  0.52485525430E+01 -0.16669746471E-01  0.10837455233E+02  0.12041512275E+02  0.51100000000E-03 0.  1.
         12    1    3    3    0    0  0.29985126116E+01 -0.23978758338E+01  0.48313883274E+01  0.61711586892E+01  0.00000000000E+00 0. -1.
</event>
<event>
 7    1  0.5006721E-012  0.5052887E+02  0.7816164E-02  0.1300439E+00
        -11   -1    0    0    0    0  0.00000000000E+00  0.00000000000E+00  0.45593999997E+02  0.45594000000E+02  0.51100000000E-03 0. -1.
         11   -1    0    0    0    0 -0.00000000000E+00 -0.00000000000E+00 -0.45593999997E+02  0.45594000000E+02  0.51100000000E-03 0.  1.
    9900012    2    1    2    0    0  0.72478507412E+01 -0.33833010775E+02  0.21353248718E+02  0.50528865857E+02  0.30000018258E+02 0.  0.
        -12    1    1    2    0    0 -0.72478507412E+01  0.33833010775E+02 -0.21353248718E+02  0.40659134143E+02  0.00000000000E+00 0.  1.
         11    1    3    3    0    0 -0.92720005347E+01 -0.77037638508E+01 -0.58032341779E+00  0.12068750843E+02  0.51100000000E-03 0. -1.
        -11    1    3    3    0    0  0.95172200955E+01 -0.95591889428E+01  0.77904742297E+01  0.15577132617E+02  0.51100000000E-03 0.  1.
         12    1    3    3    0    0  0.70026311804E+01 -0.16570057982E+02  0.14143097906E+02  0.22882982396E+02  0.00000000000E+00 0. -1.
</event>
<event>
 7    1  0.5006721E-012  0.5052886E+02  0.7816164E-02  0.1300439E+00
        -11   -1    0    0    0    0  0.00000000000E+00  0.00000000000E+00  0.45593999997E+02  0.45594000000E+02  0.51100000000E-03 0. -1.
         11   -1    0    0    0    0 -0.00000000000E+00 -0.00000000000E+00 -0.45593999997E+02  0.45594000000E+02  0.51100000000E-03 0.  1.
    9900012    2    1    2    0    0  0.65889660195E+01 -0.34816493510E+02 -0.19938989678E+02  0.50528855851E+02  0.29999987844E+02 0.  0.
         12    1    1    2    0    0 -0.65889660195E+01  0.34816493510E+02  0.19938989678E+02  0.40659144149E+02  0.00000000000E+00 0. -1.
         11    1    3    3    0    0  0.10655309172E+02 -0.72554008145E+01 -0.29722482038E+01  0.13229161507E+02  0.51100000000E-03 0.  1.
        -11    1    3    3    0    0 -0.81065466144E+01 -0.55660924646E+01 -0.96311289055E+01  0.13764306288E+02  0.51100000000E-03 0. -1.
         12    1    3    3    0    0  0.40402034621E+01 -0.21995000231E+02 -0.73356125691E+01  0.23535388056E+02  0.00000000000E+00 0. -1.
</event>
<event>
 7    1  0.5006721E-012  0.5052886E+02  0.7816164E-02  0.1300439E+00
        -11   -1    0    0    0    0  0.00000000000E+00  0.00000000000E+00  0.45593999997E+02  0.45594000000E+02  0.51100000000E-03 0. -1.
         11   -1    0    0    0    0 -0.00000000000E+00 -0.00000000000E+00 -0.45593999997E+02  0.45594000000E+02  0.51100000000E-03 0.  1.
    9900012    2    1    2    0    0  0.27766576517E+02  0.13927488291E+02 -0.26233719745E+02  0.50528858922E+02  0.29999997179E+02 0.  0.
         12    1    1    2    0    0 -0.27766576517E+02 -0.13927488291E+02  0.26233719745E+02  0.40659141078E+02  0.00000000000E+00 0. -1.
         11    1    3    3    0    0 -0.24187633389E+01 -0.52001102506E+01 -0.72630672933E+01  0.92543886603E+01  0.51100000000E-03 0. -1.
        -11    1    3    3    0    0  0.15907605650E+02  0.58451748743E+01 -0.66369318943E+01  0.18200737679E+02  0.51100000000E-03 0.  1.
         12    1    3    3    0    0  0.14277734206E+02  0.13282423667E+02 -0.12333720557E+02  0.23073732583E+02  0.00000000000E+00 0. -1.
</event>
<event>
 7    1  0.5006721E-012  0.5052881E+02  0.7816164E-02  0.1300439E+00
        -11   -1    0    0    0    0  0.00000000000E+00  0.00000000000E+00  0.45593999997E+02  0.45594000000E+02  0.51100000000E-03 0. -1.
         11   -1    0    0    0    0 -0.00000000000E+00 -0.00000000000E+00 -0.45593999997E+02  0.45594000000E+02  0.51100000000E-03 0.  1.
    9900012    2    1    2    0    0  0.44552812984E+01 -0.35722437982E+01 -0.40256173798E+02  0.50528806870E+02  0.29999838960E+02 0.  0.
         12    1    1    2    0    0 -0.44552812984E+01  0.35722437982E+01  0.40256173798E+02  0.40659193130E+02  0.00000000000E+00 0. -1.
         11    1    3    3    0    0  0.69833645118E+01 -0.10687855493E+02 -0.16235283181E+02  0.20653862960E+02  0.51100000000E-03 0. -1.
        -11    1    3    3    0    0 -0.87618836894E+01  0.28262810433E+01 -0.81629825586E+01  0.12304176317E+02  0.51100000000E-03 0.  1.
        -12    1    3    3    0    0  0.62338004759E+01  0.42893306519E+01 -0.15857908058E+02  0.17570767593E+02  0.00000000000E+00 0.  1.
</event>
<event>
 7    1  0.5006721E-012  0.5052886E+02  0.7816164E-02  0.1300439E+00
        -11   -1    0    0    0    0  0.00000000000E+00  0.00000000000E+00  0.45593999997E+02  0.45594000000E+02  0.51100000000E-03 0. -1.
         11   -1    0    0    0    0 -0.00000000000E+00 -0.00000000000E+00 -0.45593999997E+02  0.45594000000E+02  0.51100000000E-03 0.  1.
    9900012    2    1    2    0    0 -0.92211598315E+01  0.13503147861E+02 -0.37226346134E+02  0.50528860348E+02  0.30000001514E+02 0.  0.
         12    1    1    2    0    0  0.92211598315E+01 -0.13503147861E+02  0.37226346134E+02  0.40659139652E+02  0.00000000000E+00 0. -1.
         11    1    3    3    0    0  0.32319828657E+01 -0.73082009750E+01 -0.81538055311E+01  0.11416657113E+02  0.51100000000E-03 0. -1.
        -11    1    3    3    0    0 -0.88739834847E+01  0.20681442153E+02 -0.26057621414E+02  0.34430644293E+02  0.51100000000E-03 0.  1.
        -12    1    3    3    0    0 -0.35791592125E+01  0.12990668248E+00 -0.30149191889E+01  0.46815589423E+01  0.00000000000E+00 0.  1.
</event>
<event>
 7    1  0.5006721E-012  0.5052886E+02  0.7816164E-02  0.1300439E+00
        -11   -1    0    0    0    0  0.00000000000E+00  0.00000000000E+00  0.45593999997E+02  0.45594000000E+02  0.51100000000E-03 0. -1.
         11   -1    0    0    0    0 -0.00000000000E+00 -0.00000000000E+00 -0.45593999997E+02  0.45594000000E+02  0.51100000000E-03 0.  1.
    9900012    2    1    2    0    0  0.27494889183E+02 -0.23542718833E+02  0.18518557478E+02  0.50528861884E+02  0.30000006184E+02 0.  0.
        -12    1    1    2    0    0 -0.27494889183E+02  0.23542718833E+02 -0.18518557478E+02  0.40659138116E+02  0.00000000000E+00 0.  1.
         11    1    3    3    0    0  0.30717272920E+02 -0.19059853795E+02  0.13527686774E+02  0.38598279651E+02  0.51100000000E-03 0. -1.
        -11    1    3    3    0    0  0.11478866156E+01 -0.21041106985E+01 -0.21549030008E+01  0.32231246823E+01  0.51100000000E-03 0.  1.
         12    1    3    3    0    0 -0.43702703524E+01 -0.23787543399E+01  0.71457737048E+01  0.87074575510E+01  0.00000000000E+00 0. -1.
</event>
<event>
 7    1  0.5006721E-012  0.5052889E+02  0.7816164E-02  0.1300439E+00
        -11   -1    0    0    0    0  0.00000000000E+00  0.00000000000E+00  0.45593999997E+02  0.45594000000E+02  0.51100000000E-03 0.  1.
         11   -1    0    0    0    0 -0.00000000000E+00 -0.00000000000E+00 -0.45593999997E+02  0.45594000000E+02  0.51100000000E-03 0. -1.
    9900012    2    1    2    0    0  0.32476008344E+02 -0.17210282339E+02 -0.17386141743E+02  0.50528894490E+02  0.30000105293E+02 0.  0.
         12    1    1    2    0    0 -0.32476008344E+02  0.17210282339E+02  0.17386141743E+02  0.40659105510E+02  0.00000000000E+00 0. -1.
         11    1    3    3    0    0  0.26558936924E+02 -0.45649959114E+01 -0.13048203745E+02  0.29941141251E+02  0.51100000000E-03 0. -1.
        -11    1    3    3    0    0 -0.12944707771E+00 -0.13762183330E+02 -0.43665500273E+01  0.14438878279E+02  0.51100000000E-03 0.  1.
         12    1    3    3    0    0  0.60465184977E+01  0.11168969018E+01  0.28612029810E-01  0.61488749606E+01  0.00000000000E+00 0. -1.
</event>
<event>
 7    1  0.5006721E-012  0.5052886E+02  0.7816164E-02  0.1300439E+00
        -11   -1    0    0    0    0  0.00000000000E+00  0.00000000000E+00  0.45593999997E+02  0.45594000000E+02  0.51100000000E-03 0. -1.
         11   -1    0    0    0    0 -0.00000000000E+00 -0.00000000000E+00 -0.45593999997E+02  0.45594000000E+02  0.51100000000E-03 0.  1.
    9900012    2    1    2    0    0  0.36141953647E+02 -0.14193203738E+02  0.12061412901E+02  0.50528861704E+02  0.30000005636E+02 0.  0.
        -12    1    1    2    0    0 -0.36141953647E+02  0.14193203738E+02 -0.12061412901E+02  0.40659138296E+02  0.00000000000E+00 0.  1.
         11    1    3    3    0    0  0.70310335059E+01 -0.12456207655E+02  0.95070964758E+01  0.17174906840E+02  0.51100000000E-03 0. -1.
        -11    1    3    3    0    0  0.27867413627E+02 -0.53054274129E+01 -0.68570261776E+00  0.28376231086E+02  0.51100000000E-03 0.  1.
        -12    1    3    3    0    0  0.12435065147E+01  0.35684313308E+01  0.32400190429E+01  0.49777237783E+01  0.00000000000E+00 0.  1.
</event>
<event>
 7    1  0.5006721E-012  0.5052885E+02  0.7816164E-02  0.1300439E+00
        -11   -1    0    0    0    0  0.00000000000E+00  0.00000000000E+00  0.45593999997E+02  0.45594000000E+02  0.51100000000E-03 0.  1.
         11   -1    0    0    0    0 -0.00000000000E+00 -0.00000000000E+00 -0.45593999997E+02  0.45594000000E+02  0.51100000000E-03 0. -1.
    9900012    2    1    2    0    0  0.10216595494E+01  0.39800052712E+02 -0.82509612566E+01  0.50528851635E+02  0.29999975029E+02 0.  0.
        -12    1    1    2    0    0 -0.10216595494E+01 -0.39800052712E+02  0.82509612566E+01  0.40659148365E+02  0.00000000000E+00 0.  1.
         11    1    3    3    0    0  0.67965943631E+01 -0.13766412979E+00  0.34128658581E+01  0.76065958205E+01  0.51100000000E-03 0. -1.
        -11    1    3    3    0    0 -0.44472382212E+01  0.13925027759E+02 -0.78670150052E+01  0.16600429249E+02  0.51100000000E-03 0.  1.
         12    1    3    3    0    0 -0.13276965925E+01  0.26012689083E+02 -0.37968121095E+01  0.26321826566E+02  0.00000000000E+00 0. -1.
</event>
<event>
 7    1  0.5006721E-012  0.5052886E+02  0.7816164E-02  0.1300439E+00
        -11   -1    0    0    0    0  0.00000000000E+00  0.00000000000E+00  0.45593999997E+02  0.45594000000E+02  0.51100000000E-03 0. -1.
         11   -1    0    0    0    0 -0.00000000000E+00 -0.00000000000E+00 -0.45593999997E+02  0.45594000000E+02  0.51100000000E-03 0.  1.
    9900012    2    1    2    0    0  0.70343946284E+01  0.10599883164E+02 -0.38617683349E+02  0.50528859599E+02  0.29999999237E+02 0.  0.
         12    1    1    2    0    0 -0.70343946284E+01 -0.10599883164E+02  0.38617683349E+02  0.40659140401E+02  0.00000000000E+00 0. -1.
         11    1    3    3    0    0  0.81938495585E+01  0.65593693552E+01 -0.24887795219E+01  0.10786960679E+02  0.51100000000E-03 0. -1.
        -11    1    3    3    0    0 -0.58536141871E+01  0.82926415195E+01 -0.24016870290E+02  0.26073794530E+02  0.51100000000E-03 0.  1.
         12    1    3    3    0    0  0.46941592570E+01 -0.42521277106E+01 -0.12112033537E+02  0.13668104390E+02  0.00000000000E+00 0. -1.
</event>
<event>
 7    1  0.5006721E-012  0.5052887E+02  0.7816164E-02  0.1300439E+00
        -11   -1    0    0    0    0  0.00000000000E+00  0.00000000000E+00  0.45593999997E+02  0.45594000000E+02  0.51100000000E-03 0. -1.
         11   -1    0    0    0    0 -0.00000000000E+00 -0.00000000000E+00 -0.45593999997E+02  0.45594000000E+02  0.51100000000E-03 0.  1.
    9900012    2    1    2    0    0 -0.96097667420E+01  0.33541154932E+02 -0.20876026739E+02  0.50528865928E+02  0.30000018476E+02 0.  0.
         12    1    1    2    0    0  0.96097667420E+01 -0.33541154932E+02  0.20876026739E+02  0.40659134072E+02  0.00000000000E+00 0. -1.
         11    1    3    3    0    0 -0.13930558821E+02  0.18750266060E+02 -0.18740270393E+02  0.29947131433E+02  0.51100000000E-03 0. -1.
        -11    1    3    3    0    0  0.75884783780E+01  0.13634235185E+02 -0.46701970278E+01  0.16287667535E+02  0.51100000000E-03 0.  1.
        -12    1    3    3    0    0 -0.32676862986E+01  0.11566536871E+01  0.25344406813E+01  0.42940669609E+01  0.00000000000E+00 0.  1.
</event>
<event>
 7    1  0.5006721E-012  0.5052886E+02  0.7816164E-02  0.1300439E+00
        -11   -1    0    0    0    0  0.00000000000E+00  0.00000000000E+00  0.45593999997E+02  0.45594000000E+02  0.51100000000E-03 0. -1.
         11   -1    0    0    0    0 -0.00000000000E+00 -0.00000000000E+00 -0.45593999997E+02  0.45594000000E+02  0.51100000000E-03 0.  1.
    9900012    2    1    2    0    0  0.83443831431E+01  0.92306467668E+01 -0.38708299289E+02  0.50528855842E+02  0.29999987818E+02 0.  0.
         12    1    1    2    0    0 -0.83443831431E+01 -0.92306467668E+01  0.38708299289E+02  0.40659144158E+02  0.00000000000E+00 0. -1.
         11    1    3    3    0    0 -0.49407980820E+01  0.67159538782E+01 -0.14181879311E+01  0.84573506165E+01  0.51100000000E-03 0. -1.
        -11    1    3    3    0    0  0.92761793077E+01  0.39692245252E+00 -0.36249456864E+02  0.37419622836E+02  0.51100000000E-03 0.  1.
        -12    1    3    3    0    0  0.40090019174E+01  0.21177704361E+01 -0.10406544941E+01  0.46518823900E+01  0.00000000000E+00 0.  1.
</event>
<event>
 7    1  0.5006721E-012  0.5052886E+02  0.7816164E-02  0.1300439E+00
        -11   -1    0    0    0    0  0.00000000000E+00  0.00000000000E+00  0.45593999997E+02  0.45594000000E+02  0.51100000000E-03 0.  1.
         11   -1    0    0    0    0 -0.00000000000E+00 -0.00000000000E+00 -0.45593999997E+02  0.45594000000E+02  0.51100000000E-03 0. -1.
    9900012    2    1    2    0    0 -0.85880233057E+01  0.38818168846E+02 -0.85183073402E+01  0.50528856664E+02  0.29999990317E+02 0.  0.
         12    1    1    2    0    0  0.85880233057E+01 -0.38818168846E+02  0.85183073402E+01  0.40659143336E+02  0.00000000000E+00 0. -1.
         11    1    3    3    0    0 -0.79999376583E+01  0.20059713732E+02  0.45281030665E+01  0.22065693626E+02  0.51100000000E-03 0. -1.
        -11    1    3    3    0    0  0.19399051137E+01 -0.27842931376E+01 -0.31176104551E+01  0.46081466271E+01  0.51100000000E-03 0.  1.
         12    1    3    3    0    0 -0.25279907611E+01  0.21542748251E+02 -0.99287999516E+01  0.23855016411E+02  0.00000000000E+00 0. -1.
</event>
<event>
 7    1  0.5006721E-012  0.5052885E+02  0.7816164E-02  0.1300439E+00
        -11   -1    0    0    0    0  0.00000000000E+00  0.00000000000E+00  0.45593999997E+02  0.45594000000E+02  0.51100000000E-03 0.  1.
         11   -1    0    0    0    0 -0.00000000000E+00 -0.00000000000E+00 -0.45593999997E+02  0.45594000000E+02  0.51100000000E-03 0. -1.
    9900012    2    1    2    0    0 -0.17040685880E+02 -0.36560844190E+02 -0.51074357227E+01  0.50528853393E+02  0.29999980374E+02 0.  0.
        -12    1    1    2    0    0  0.17040685880E+02  0.36560844190E+02  0.51074357227E+01  0.40659146607E+02  0.00000000000E+00 0.  1.
         11    1    3    3    0    0 -0.91112930370E+00 -0.19671300124E+02 -0.11648292534E+02  0.22879530686E+02  0.51100000000E-03 0. -1.
        -11    1    3    3    0    0 -0.25119313270E+01 -0.90464695295E+01  0.73353158296E+01  0.11914498249E+02  0.51100000000E-03 0.  1.
        -12    1    3    3    0    0 -0.13617625249E+02 -0.78430745360E+01 -0.79445901828E+00  0.15734824458E+02  0.00000000000E+00 0.  1.
</event>
<event>
 7    1  0.5006721E-012  0.5052887E+02  0.7816164E-02  0.1300439E+00
        -11   -1    0    0    0    0  0.00000000000E+00  0.00000000000E+00  0.45593999997E+02  0.45594000000E+02  0.51100000000E-03 0. -1.
         11   -1    0    0    0    0 -0.00000000000E+00 -0.00000000000E+00 -0.45593999997E+02  0.45594000000E+02  0.51100000000E-03 0.  1.
    9900012    2    1    2    0    0  0.11163255956E+02 -0.36004938750E+02  0.15237823218E+02  0.50528866286E+02  0.30000019564E+02 0.  0.
        -12    1    1    2    0    0 -0.11163255956E+02  0.36004938750E+02 -0.15237823218E+02  0.40659133714E+02  0.00000000000E+00 0.  1.
         11    1    3    3    0    0  0.97817252957E+00 -0.19909459133E+02  0.75559828026E+01  0.21317510663E+02  0.51100000000E-03 0. -1.
        -11    1    3    3    0    0  0.25939263271E+01  0.48108553105E+01 -0.55409918598E+00  0.54936152740E+01  0.51100000000E-03 0.  1.
        -12    1    3    3    0    0  0.75911570997E+01 -0.20906334927E+02  0.82359396009E+01  0.23717740350E+02  0.00000000000E+00 0.  1.
</event>
<event>
 7    1  0.5006721E-012  0.5052890E+02  0.7816164E-02  0.1300439E+00
        -11   -1    0    0    0    0  0.00000000000E+00  0.00000000000E+00  0.45593999997E+02  0.45594000000E+02  0.51100000000E-03 0. -1.
         11   -1    0    0    0    0 -0.00000000000E+00 -0.00000000000E+00 -0.45593999997E+02  0.45594000000E+02  0.51100000000E-03 0.  1.
    9900012    2    1    2    0    0 -0.32741724303E+02 -0.23774559279E+02  0.39889653230E+01  0.50528904786E+02  0.30000136587E+02 0.  0.
        -12    1    1    2    0    0  0.32741724303E+02  0.23774559279E+02 -0.39889653230E+01  0.40659095214E+02  0.00000000000E+00 0.  1.
         11    1    3    3    0    0 -0.30633140292E+02 -0.15663607874E+02  0.38563195167E+01  0.34620934365E+02  0.51100000000E-03 0. -1.
        -11    1    3    3    0    0  0.62910381732E-01  0.34273103319E+01  0.20758335864E+01  0.40074304943E+01  0.51100000000E-03 0.  1.
         12    1    3    3    0    0 -0.21714943928E+01 -0.11538261737E+02 -0.19431877801E+01  0.11900539927E+02  0.00000000000E+00 0. -1.
</event>
<event>
 7    1  0.5006721E-012  0.5052885E+02  0.7816164E-02  0.1300439E+00
        -11   -1    0    0    0    0  0.00000000000E+00  0.00000000000E+00  0.45593999997E+02  0.45594000000E+02  0.51100000000E-03 0. -1.
         11   -1    0    0    0    0 -0.00000000000E+00 -0.00000000000E+00 -0.45593999997E+02  0.45594000000E+02  0.51100000000E-03 0.  1.
    9900012    2    1    2    0    0  0.17214323591E+02 -0.25236118894E+02  0.26832288295E+02  0.50528851845E+02  0.29999975668E+02 0.  0.
        -12    1    1    2    0    0 -0.17214323591E+02  0.25236118894E+02 -0.26832288295E+02  0.40659148155E+02  0.00000000000E+00 0.  1.
         11    1    3    3    0    0 -0.61761290731E+01 -0.10000147157E+02  0.50395871365E+01  0.12788469504E+02  0.51100000000E-03 0. -1.
        -11    1    3    3    0    0  0.21319131437E+02 -0.17145162518E+02  0.17086115147E+02  0.32255190188E+02  0.51100000000E-03 0.  1.
        -12    1    3    3    0    0  0.20713212276E+01  0.19091907815E+01  0.47065860119E+01  0.54851921531E+01  0.00000000000E+00 0.  1.
</event>
<event>
 7    1  0.5006721E-012  0.5052887E+02  0.7816164E-02  0.1300439E+00
        -11   -1    0    0    0    0  0.00000000000E+00  0.00000000000E+00  0.45593999997E+02  0.45594000000E+02  0.51100000000E-03 0. -1.
         11   -1    0    0    0    0 -0.00000000000E+00 -0.00000000000E+00 -0.45593999997E+02  0.45594000000E+02  0.51100000000E-03 0.  1.
    9900012    2    1    2    0    0  0.24784640301E+02  0.38278805424E+01 -0.32003653239E+02  0.50528869599E+02  0.30000029633E+02 0.  0.
         12    1    1    2    0    0 -0.24784640301E+02 -0.38278805424E+01  0.32003653239E+02  0.40659130401E+02  0.00000000000E+00 0. -1.
         11    1    3    3    0    0 -0.14071136696E+01  0.16982427521E+01 -0.75586246688E+00  0.23313784880E+01  0.51100000000E-03 0. -1.
        -11    1    3    3    0    0  0.70803069617E+01 -0.22366321116E+00 -0.27733166644E+02  0.28623579516E+02  0.51100000000E-03 0.  1.
        -12    1    3    3    0    0  0.19111447009E+02  0.23533010015E+01 -0.35146241279E+01  0.19573911595E+02  0.00000000000E+00 0.  1.
</event>
<event>
 7    1  0.5006721E-012  0.5052882E+02  0.7816164E-02  0.1300439E+00
        -11   -1    0    0    0    0  0.00000000000E+00  0.00000000000E+00  0.45593999997E+02  0.45594000000E+02  0.51100000000E-03 0. -1.
         11   -1    0    0    0    0 -0.00000000000E+00 -0.00000000000E+00 -0.45593999997E+02  0.45594000000E+02  0.51100000000E-03 0.  1.
    9900012    2    1    2    0    0 -0.34572625737E+02 -0.21192300321E+02  0.29645836089E+01  0.50528821464E+02  0.29999883323E+02 0.  0.
         12    1    1    2    0    0  0.34572625737E+02  0.21192300321E+02 -0.29645836089E+01  0.40659178536E+02  0.00000000000E+00 0. -1.
         11    1    3    3    0    0 -0.10437943204E+02 -0.37816397538E+01 -0.77849620578E+01  0.13559391287E+02  0.51100000000E-03 0. -1.
        -11    1    3    3    0    0 -0.23391911354E+02 -0.64969789287E+01  0.57876583462E+01  0.24957749125E+02  0.51100000000E-03 0.  1.
         12    1    3    3    0    0 -0.74277117840E+00 -0.10913681638E+02  0.49618873204E+01  0.12011681052E+02  0.00000000000E+00 0. -1.
</event>
<event>
 7    1  0.5006721E-012  0.5052886E+02  0.7816164E-02  0.1300439E+00
        -11   -1    0    0    0    0  0.00000000000E+00  0.00000000000E+00  0.45593999997E+02  0.45594000000E+02  0.51100000000E-03 0. -1.
         11   -1    0    0    0    0 -0.00000000000E+00 -0.00000000000E+00 -0.45593999997E+02  0.45594000000E+02  0.51100000000E-03 0.  1.
    9900012    2    1    2    0    0  0.31453505347E+02 -0.20778657891E+02  0.15234496854E+02  0.50528861829E+02  0.30000006016E+02 0.  0.
        -12    1    1    2    0    0 -0.31453505347E+02  0.20778657891E+02 -0.15234496854E+02  0.40659138171E+02  0.00000000000E+00 0.  1.
         11    1    3    3    0    0 -0.62374728284E+00  0.16563544667E+01  0.60824375928E+01  0.63347153151E+01  0.51100000000E-03 0. -1.
        -11    1    3    3    0    0  0.15673485468E+02 -0.17074392744E+01 -0.11870173314E+01  0.15810835082E+02  0.51100000000E-03 0.  1.
         12    1    3    3    0    0  0.16403767162E+02 -0.20727573084E+02  0.10339076593E+02  0.28383311432E+02  0.00000000000E+00 0. -1.
</event>
<event>
 7    1  0.5006721E-012  0.5052884E+02  0.7816164E-02  0.1300439E+00
        -11   -1    0    0    0    0  0.00000000000E+00  0.00000000000E+00  0.45593999997E+02  0.45594000000E+02  0.51100000000E-03 0. -1.
         11   -1    0    0    0    0 -0.00000000000E+00 -0.00000000000E+00 -0.45593999997E+02  0.45594000000E+02  0.51100000000E-03 0.  1.
    9900012    2    1    2    0    0  0.69629710784E+01 -0.77938291464E-01 -0.40058438266E+02  0.50528837232E+02  0.29999931252E+02 0.  0.
         12    1    1    2    0    0 -0.69629710784E+01  0.77938291464E-01  0.40058438266E+02  0.40659162768E+02  0.00000000000E+00 0. -1.
         11    1    3    3    0    0  0.96957689204E+01  0.21906958289E+01 -0.56775904649E+01  0.11447362881E+02  0.51100000000E-03 0. -1.
        -11    1    3    3    0    0 -0.10346799183E+02 -0.30430924871E+01 -0.17668032337E+02  0.20699662610E+02  0.51100000000E-03 0.  1.
        -12    1    3    3    0    0  0.76140013412E+01  0.77445836677E+00 -0.16712815464E+02  0.18381811742E+02  0.00000000000E+00 0.  1.
</event>
<event>
 7    1  0.5006721E-012  0.5052885E+02  0.7816164E-02  0.1300439E+00
        -11   -1    0    0    0    0  0.00000000000E+00  0.00000000000E+00  0.45593999997E+02  0.45594000000E+02  0.51100000000E-03 0. -1.
         11   -1    0    0    0    0 -0.00000000000E+00 -0.00000000000E+00 -0.45593999997E+02  0.45594000000E+02  0.51100000000E-03 0.  1.
    9900012    2    1    2    0    0  0.15315172668E+02 -0.39948720597E+01 -0.37452004647E+02  0.50528853812E+02  0.29999981647E+02 0.  0.
         12    1    1    2    0    0 -0.15315172668E+02  0.39948720597E+01  0.37452004647E+02  0.40659146188E+02  0.00000000000E+00 0. -1.
         11    1    3    3    0    0  0.78716223206E+01  0.99779364226E+01 -0.24973602274E+02  0.28021464345E+02  0.51100000000E-03 0. -1.
        -11    1    3    3    0    0  0.31566610014E+00  0.68684453065E-01 -0.51125388139E+01  0.51227352094E+01  0.51100000000E-03 0.  1.
         12    1    3    3    0    0  0.71278842477E+01 -0.14041492935E+02 -0.73658635590E+01  0.17384654258E+02  0.00000000000E+00 0. -1.
</event>
<event>
 7    1  0.5006721E-012  0.5052887E+02  0.7816164E-02  0.1300439E+00
        -11   -1    0    0    0    0  0.00000000000E+00  0.00000000000E+00  0.45593999997E+02  0.45594000000E+02  0.51100000000E-03 0. -1.
         11   -1    0    0    0    0 -0.00000000000E+00 -0.00000000000E+00 -0.45593999997E+02  0.45594000000E+02  0.51100000000E-03 0.  1.
    9900012    2    1    2    0    0  0.31141093364E+01  0.21342343696E+02  0.34466968251E+02  0.50528865579E+02  0.30000017414E+02 0.  0.
        -12    1    1    2    0    0 -0.31141093364E+01 -0.21342343696E+02 -0.34466968251E+02  0.40659134421E+02  0.00000000000E+00 0.  1.
         11    1    3    3    0    0 -0.38059952357E+01 -0.39528917842E+01  0.13083526459E+02  0.14187657244E+02  0.51100000000E-03 0. -1.
        -11    1    3    3    0    0  0.72912402240E+01  0.15208595772E+02  0.59194320510E+01  0.17874653715E+02  0.51100000000E-03 0.  1.
        -12    1    3    3    0    0 -0.37113565185E+00  0.10086639709E+02  0.15464009741E+02  0.18466554620E+02  0.00000000000E+00 0.  1.
</event>
<event>
 7    1  0.5006721E-012  0.5052886E+02  0.7816164E-02  0.1300439E+00
        -11   -1    0    0    0    0  0.00000000000E+00  0.00000000000E+00  0.45593999997E+02  0.45594000000E+02  0.51100000000E-03 0. -1.
         11   -1    0    0    0    0 -0.00000000000E+00 -0.00000000000E+00 -0.45593999997E+02  0.45594000000E+02  0.51100000000E-03 0.  1.
    9900012    2    1    2    0    0 -0.74721927126E+01 -0.29557847508E+02 -0.26901032013E+02  0.50528861586E+02  0.30000005276E+02 0.  0.
         12    1    1    2    0    0  0.74721927126E+01  0.29557847508E+02  0.26901032013E+02  0.40659138414E+02  0.00000000000E+00 0. -1.
         11    1    3    3    0    0  0.56954175999E+01 -0.10499481068E+02 -0.42560165174E+00  0.11952322844E+02  0.51100000000E-03 0. -1.
        -11    1    3    3    0    0 -0.94741946269E+01 -0.70278097681E+01 -0.22455538371E+02  0.25365363742E+02  0.51100000000E-03 0.  1.
         12    1    3    3    0    0 -0.36934156855E+01 -0.12030556672E+02 -0.40198919897E+01  0.13211174999E+02  0.00000000000E+00 0. -1.
</event>
<event>
 7    1  0.5006721E-012  0.5052886E+02  0.7816164E-02  0.1300439E+00
        -11   -1    0    0    0    0  0.00000000000E+00  0.00000000000E+00  0.45593999997E+02  0.45594000000E+02  0.51100000000E-03 0. -1.
         11   -1    0    0    0    0 -0.00000000000E+00 -0.00000000000E+00 -0.45593999997E+02  0.45594000000E+02  0.51100000000E-03 0.  1.
    9900012    2    1    2    0    0  0.17116791778E+02  0.35002983649E+02 -0.11617768475E+02  0.50528856262E+02  0.29999989095E+02 0.  0.
         12    1    1    2    0    0 -0.17116791778E+02 -0.35002983649E+02  0.11617768475E+02  0.40659143738E+02  0.00000000000E+00 0. -1.
         11    1    3    3    0    0  0.96520615456E+01  0.12885091690E+02  0.92227833013E+01  0.18553910963E+02  0.51100000000E-03 0. -1.
        -11    1    3    3    0    0  0.62440234193E+01  0.12174270443E+02 -0.86129884288E+01  0.16167382571E+02  0.51100000000E-03 0.  1.
         12    1    3    3    0    0  0.12207068136E+01  0.99436215169E+01 -0.12227563347E+02  0.15807562728E+02  0.00000000000E+00 0. -1.
</event>
<event>
 7    1  0.5006721E-012  0.5052885E+02  0.7816164E-02  0.1300439E+00
        -11   -1    0    0    0    0  0.00000000000E+00  0.00000000000E+00  0.45593999997E+02  0.45594000000E+02  0.51100000000E-03 0. -1.
         11   -1    0    0    0    0 -0.00000000000E+00 -0.00000000000E+00 -0.45593999997E+02  0.45594000000E+02  0.51100000000E-03 0.  1.
    9900012    2    1    2    0    0  0.20969265305E+01 -0.77380366692E+01 -0.39860912444E+02  0.50528847854E+02  0.29999963538E+02 0.  0.
         12    1    1    2    0    0 -0.20969265305E+01  0.77380366692E+01  0.39860912444E+02  0.40659152146E+02  0.00000000000E+00 0. -1.
         11    1    3    3    0    0  0.84622398316E+01  0.59176445876E+01 -0.10741633673E+02  0.14900023982E+02  0.51100000000E-03 0. -1.
        -11    1    3    3    0    0 -0.10598692431E+02 -0.82966591677E+01 -0.16632151775E+02  0.21396151699E+02  0.51100000000E-03 0.  1.
         12    1    3    3    0    0  0.42333791295E+01 -0.53590220891E+01 -0.12487126995E+02  0.14232672174E+02  0.00000000000E+00 0. -1.
</event>
<event>
 7    1  0.5006721E-012  0.5052885E+02  0.7816164E-02  0.1300439E+00
        -11   -1    0    0    0    0  0.00000000000E+00  0.00000000000E+00  0.45593999997E+02  0.45594000000E+02  0.51100000000E-03 0. -1.
         11   -1    0    0    0    0 -0.00000000000E+00 -0.00000000000E+00 -0.45593999997E+02  0.45594000000E+02  0.51100000000E-03 0.  1.
    9900012    2    1    2    0    0 -0.15995976505E+02  0.12001615567E+02 -0.35401357425E+02  0.50528854065E+02  0.29999982417E+02 0.  0.
         12    1    1    2    0    0  0.15995976505E+02 -0.12001615567E+02  0.35401357425E+02  0.40659145935E+02  0.00000000000E+00 0. -1.
         11    1    3    3    0    0 -0.14226591567E+02  0.17428409569E+02 -0.26853947521E+02  0.35032554366E+02  0.51100000000E-03 0.  1.
        -11    1    3    3    0    0  0.45615008217E+01 -0.18341794577E+01 -0.60606424679E+01  0.78040304596E+01  0.51100000000E-03 0. -1.
        -12    1    3    3    0    0 -0.63308857600E+01 -0.35926145441E+01 -0.24867674364E+01  0.76922692394E+01  0.00000000000E+00 0.  1.
</event>
<event>
 7    1  0.5006721E-012  0.5052886E+02  0.7816164E-02  0.1300439E+00
        -11   -1    0    0    0    0  0.00000000000E+00  0.00000000000E+00  0.45593999997E+02  0.45594000000E+02  0.51100000000E-03 0. -1.
         11   -1    0    0    0    0 -0.00000000000E+00 -0.00000000000E+00 -0.45593999997E+02  0.45594000000E+02  0.51100000000E-03 0.  1.
    9900012    2    1    2    0    0  0.19118667904E+02 -0.16673004578E+02  0.31775036252E+02  0.50528862369E+02  0.30000007657E+02 0.  0.
        -12    1    1    2    0    0 -0.19118667904E+02  0.16673004578E+02 -0.31775036252E+02  0.40659137631E+02  0.00000000000E+00 0.  1.
         11    1    3    3    0    0 -0.18152090700E+01  0.56303179161E+01  0.61765215945E+01  0.85524781831E+01  0.51100000000E-03 0. -1.
        -11    1    3    3    0    0  0.14806768525E+02 -0.14019061741E+02  0.24092502448E+02  0.31563003038E+02  0.51100000000E-03 0.  1.
        -12    1    3    3    0    0  0.61271084481E+01 -0.82842607533E+01  0.15060122093E+01  0.10413381148E+02  0.00000000000E+00 0.  1.
</event>
<event>
 7    1  0.5006721E-012  0.5052886E+02  0.7816164E-02  0.1300439E+00
        -11   -1    0    0    0    0  0.00000000000E+00  0.00000000000E+00  0.45593999997E+02  0.45594000000E+02  0.51100000000E-03 0. -1.
         11   -1    0    0    0    0 -0.00000000000E+00 -0.00000000000E+00 -0.45593999997E+02  0.45594000000E+02  0.51100000000E-03 0.  1.
    9900012    2    1    2    0    0 -0.95773118621E+01  0.74763398180E+01 -0.38801353326E+02  0.50528861058E+02  0.30000003672E+02 0.  0.
         12    1    1    2    0    0  0.95773118621E+01 -0.74763398180E+01  0.38801353326E+02  0.40659138942E+02  0.00000000000E+00 0. -1.
         11    1    3    3    0    0  0.59502873381E+01  0.48537315061E+00 -0.77555192235E+01  0.97872153950E+01  0.51100000000E-03 0. -1.
        -11    1    3    3    0    0 -0.19234579050E+02  0.84079538191E+01 -0.30039568992E+02  0.36647488647E+02  0.51100000000E-03 0.  1.
        -12    1    3    3    0    0  0.37069798503E+01 -0.14169871517E+01 -0.10062651107E+01  0.40941570160E+01  0.00000000000E+00 0.  1.
</event>
<event>
 7    1  0.5006721E-012  0.5052886E+02  0.7816164E-02  0.1300439E+00
        -11   -1    0    0    0    0  0.00000000000E+00  0.00000000000E+00  0.45593999997E+02  0.45594000000E+02  0.51100000000E-03 0. -1.
         11   -1    0    0    0    0 -0.00000000000E+00 -0.00000000000E+00 -0.45593999997E+02  0.45594000000E+02  0.51100000000E-03 0.  1.
    9900012    2    1    2    0    0  0.32759518487E+02 -0.14707818317E+02 -0.19069871593E+02  0.50528856210E+02  0.29999988937E+02 0.  0.
         12    1    1    2    0    0 -0.32759518487E+02  0.14707818317E+02  0.19069871593E+02  0.40659143790E+02  0.00000000000E+00 0. -1.
         11    1    3    3    0    0  0.19202357764E+02 -0.42705364467E+01 -0.23532248931E+02  0.30671399793E+02  0.51100000000E-03 0. -1.
        -11    1    3    3    0    0  0.86649959581E+01 -0.29048628565E+01 -0.12337246511E+01  0.92218468836E+01  0.51100000000E-03 0.  1.
         12    1    3    3    0    0  0.48921647646E+01 -0.75324190137E+01  0.56961019893E+01  0.10635609534E+02  0.00000000000E+00 0. -1.
</event>
<event>
 7    1  0.5006721E-012  0.5052897E+02  0.7816164E-02  0.1300438E+00
        -11   -1    0    0    0    0  0.00000000000E+00  0.00000000000E+00  0.45593999997E+02  0.45594000000E+02  0.51100000000E-03 0. -1.
         11   -1    0    0    0    0 -0.00000000000E+00 -0.00000000000E+00 -0.45593999997E+02  0.45594000000E+02  0.51100000000E-03 0.  1.
    9900012    2    1    2    0    0 -0.71495391260E+01 -0.79615005530E+01  0.39225693552E+02  0.50528973507E+02  0.30000345469E+02 0.  0.
        -12    1    1    2    0    0  0.71495391260E+01  0.79615005530E+01 -0.39225693552E+02  0.40659026493E+02  0.00000000000E+00 0.  1.
         11    1    3    3    0    0 -0.12458725432E+02 -0.19445935641E+01  0.19300770553E+02  0.23054739811E+02  0.51100000000E-03 0. -1.
        -11    1    3    3    0    0  0.47527845979E+01 -0.98521168921E+01  0.49508997289E+01  0.12006855420E+02  0.51100000000E-03 0.  1.
        -12    1    3    3    0    0  0.55640170842E+00  0.38352099032E+01  0.14974023269E+02  0.15467378276E+02  0.00000000000E+00 0.  1.
</event>
<event>
 7    1  0.5006721E-012  0.5052885E+02  0.7816164E-02  0.1300439E+00
        -11   -1    0    0    0    0  0.00000000000E+00  0.00000000000E+00  0.45593999997E+02  0.45594000000E+02  0.51100000000E-03 0. -1.
         11   -1    0    0    0    0 -0.00000000000E+00 -0.00000000000E+00 -0.45593999997E+02  0.45594000000E+02  0.51100000000E-03 0.  1.
    9900012    2    1    2    0    0 -0.35021887322E+01 -0.25416182882E+02 -0.31542339795E+02  0.50528845091E+02  0.29999955138E+02 0.  0.
         12    1    1    2    0    0  0.35021887322E+01  0.25416182882E+02  0.31542339795E+02  0.40659154909E+02  0.00000000000E+00 0. -1.
         11    1    3    3    0    0  0.46148547806E+00 -0.14004669561E+02  0.51120776188E+00  0.14021593062E+02  0.51100000000E-03 0. -1.
        -11    1    3    3    0    0 -0.52950303439E+01  0.59339529860E+00 -0.83803456038E+01  0.99307430247E+01  0.51100000000E-03 0.  1.
         12    1    3    3    0    0  0.13313561337E+01 -0.12004908619E+02 -0.23673201953E+02  0.26576509004E+02  0.00000000000E+00 0. -1.
</event>
<event>
 7    1  0.5006721E-012  0.5052886E+02  0.7816164E-02  0.1300439E+00
        -11   -1    0    0    0    0  0.00000000000E+00  0.00000000000E+00  0.45593999997E+02  0.45594000000E+02  0.51100000000E-03 0. -1.
         11   -1    0    0    0    0 -0.00000000000E+00 -0.00000000000E+00 -0.45593999997E+02  0.45594000000E+02  0.51100000000E-03 0.  1.
    9900012    2    1    2    0    0 -0.31528216795E+02  0.46815236040E+00  0.25669402621E+02  0.50528857710E+02  0.29999993494E+02 0.  0.
        -12    1    1    2    0    0  0.31528216795E+02 -0.46815236040E+00 -0.25669402621E+02  0.40659142290E+02  0.00000000000E+00 0.  1.
         11    1    3    3    0    0 -0.11131624591E+02 -0.23069180866E+01  0.22983914951E+02  0.25641670847E+02  0.51100000000E-03 0.  1.
        -11    1    3    3    0    0 -0.21271869777E+02 -0.56880229770E+00  0.24977521886E+01  0.21425562912E+02  0.51100000000E-03 0. -1.
        -12    1    3    3    0    0  0.87527757265E+00  0.33438727447E+01  0.18773548081E+00  0.34616239502E+01  0.00000000000E+00 0.  1.
</event>
<event>
 7    1  0.5006721E-012  0.5052886E+02  0.7816164E-02  0.1300439E+00
        -11   -1    0    0    0    0  0.00000000000E+00  0.00000000000E+00  0.45593999997E+02  0.45594000000E+02  0.51100000000E-03 0. -1.
         11   -1    0    0    0    0 -0.00000000000E+00 -0.00000000000E+00 -0.45593999997E+02  0.45594000000E+02  0.51100000000E-03 0.  1.
    9900012    2    1    2    0    0  0.10258566524E+02  0.38745438145E+02  0.68351037844E+01  0.50528858249E+02  0.29999995135E+02 0.  0.
        -12    1    1    2    0    0 -0.10258566524E+02 -0.38745438145E+02 -0.68351037844E+01  0.40659141751E+02  0.00000000000E+00 0.  1.
         11    1    3    3    0    0  0.87740372016E+01  0.17338647517E+01 -0.44672828401E+01  0.99973312452E+01  0.51100000000E-03 0.  1.
        -11    1    3    3    0    0  0.66109948373E+01  0.16356883193E+02  0.51541505856E+01  0.18379829952E+02  0.51100000000E-03 0. -1.
         12    1    3    3    0    0 -0.51264655145E+01  0.20654690200E+02  0.61482360389E+01  0.22151697053E+02  0.00000000000E+00 0. -1.
</event>
<event>
 7    1  0.5006721E-012  0.5052887E+02  0.7816164E-02  0.1300439E+00
        -11   -1    0    0    0    0  0.00000000000E+00  0.00000000000E+00  0.45593999997E+02  0.45594000000E+02  0.51100000000E-03 0. -1.
         11   -1    0    0    0    0 -0.00000000000E+00 -0.00000000000E+00 -0.45593999997E+02  0.45594000000E+02  0.51100000000E-03 0.  1.
    9900012    2    1    2    0    0 -0.26428124361E+02 -0.74856393519E+01  0.29978060738E+02  0.50528872127E+02  0.30000037318E+02 0.  0.
        -12    1    1    2    0    0  0.26428124361E+02  0.74856393519E+01 -0.29978060738E+02  0.40659127873E+02  0.00000000000E+00 0.  1.
         11    1    3    3    0    0 -0.18956176288E+02 -0.56354235948E+01  0.98264512505E+01  0.22082883937E+02  0.51100000000E-03 0. -1.
        -11    1    3    3    0    0  0.23463019990E+01  0.65342910517E+01  0.50949839876E+01  0.86116754882E+01  0.51100000000E-03 0.  1.
        -12    1    3    3    0    0 -0.98182500722E+01 -0.83845068089E+01  0.15056625500E+02  0.19834312702E+02  0.00000000000E+00 0.  1.
</event>
<event>
 7    1  0.5006721E-012  0.5052886E+02  0.7816164E-02  0.1300439E+00
        -11   -1    0    0    0    0  0.00000000000E+00  0.00000000000E+00  0.45593999997E+02  0.45594000000E+02  0.51100000000E-03 0. -1.
         11   -1    0    0    0    0 -0.00000000000E+00 -0.00000000000E+00 -0.45593999997E+02  0.45594000000E+02  0.51100000000E-03 0.  1.
    9900012    2    1    2    0    0  0.24374597290E+02  0.32327176484E+02 -0.37413946400E+01  0.50528863679E+02  0.30000011640E+02 0.  0.
         12    1    1    2    0    0 -0.24374597290E+02 -0.32327176484E+02  0.37413946400E+01  0.40659136321E+02  0.00000000000E+00 0. -1.
         11    1    3    3    0    0 -0.40570145432E+01 -0.32504400570E+00 -0.52513312231E+01  0.66439070197E+01  0.51100000000E-03 0. -1.
        -11    1    3    3    0    0  0.26181456436E+02  0.29282119164E+02 -0.66578401187E+00  0.39285549919E+02  0.51100000000E-03 0.  1.
         12    1    3    3    0    0  0.22501553966E+01  0.33701013262E+01  0.21757205950E+01  0.45994067406E+01  0.00000000000E+00 0. -1.
</event>
<event>
 7    1  0.5006721E-012  0.5052886E+02  0.7816164E-02  0.1300439E+00
        -11   -1    0    0    0    0  0.00000000000E+00  0.00000000000E+00  0.45593999997E+02  0.45594000000E+02  0.51100000000E-03 0. -1.
         11   -1    0    0    0    0 -0.00000000000E+00 -0.00000000000E+00 -0.45593999997E+02  0.45594000000E+02  0.51100000000E-03 0.  1.
    9900012    2    1    2    0    0  0.30597469799E+01  0.23077162100E+02  0.33335390506E+02  0.50528859302E+02  0.29999998333E+02 0.  0.
        -12    1    1    2    0    0 -0.30597469799E+01 -0.23077162100E+02 -0.33335390506E+02  0.40659140698E+02  0.00000000000E+00 0.  1.
         11    1    3    3    0    0 -0.10428756636E+02  0.74707422424E+01  0.20412921694E+02  0.24109299595E+02  0.51100000000E-03 0. -1.
        -11    1    3    3    0    0  0.24016937384E+01  0.10614246699E+02  0.59288798095E+01  0.12392819770E+02  0.51100000000E-03 0.  1.
         12    1    3    3    0    0  0.11086809878E+02  0.49921731591E+01  0.69935890024E+01  0.14026739937E+02  0.00000000000E+00 0. -1.
</event>
<event>
 7    1  0.5006721E-012  0.5052883E+02  0.7816164E-02  0.1300439E+00
        -11   -1    0    0    0    0  0.00000000000E+00  0.00000000000E+00  0.45593999997E+02  0.45594000000E+02  0.51100000000E-03 0. -1.
         11   -1    0    0    0    0 -0.00000000000E+00 -0.00000000000E+00 -0.45593999997E+02  0.45594000000E+02  0.51100000000E-03 0.  1.
    9900012    2    1    2    0    0  0.26009380467E+02 -0.11832954100E+01 -0.31229474307E+02  0.50528829745E+02  0.29999908493E+02 0.  0.
         12    1    1    2    0    0 -0.26009380467E+02  0.11832954100E+01  0.31229474307E+02  0.40659170255E+02  0.00000000000E+00 0. -1.
         11    1    3    3    0    0  0.18181197677E+02  0.15290163320E+01 -0.14466923542E+01  0.18302643496E+02  0.51100000000E-03 0. -1.
        -11    1    3    3    0    0  0.63801203759E+01  0.13184511326E+01 -0.96529607964E+01  0.11645767549E+02  0.51100000000E-03 0.  1.
         12    1    3    3    0    0  0.14480624150E+01 -0.40307628746E+01 -0.20129821156E+02  0.20580418701E+02  0.00000000000E+00 0. -1.
</event>
<event>
 7    1  0.5006721E-012  0.5052881E+02  0.7816164E-02  0.1300439E+00
        -11   -1    0    0    0    0  0.00000000000E+00  0.00000000000E+00  0.45593999997E+02  0.45594000000E+02  0.51100000000E-03 0. -1.
         11   -1    0    0    0    0 -0.00000000000E+00 -0.00000000000E+00 -0.45593999997E+02  0.45594000000E+02  0.51100000000E-03 0.  1.
    9900012    2    1    2    0    0  0.15661779651E+02  0.33220957869E+02 -0.17442669317E+02  0.50528805511E+02  0.29999834832E+02 0.  0.
         12    1    1    2    0    0 -0.15661779651E+02 -0.33220957869E+02  0.17442669317E+02  0.40659194489E+02  0.00000000000E+00 0. -1.
         11    1    3    3    0    0  0.35301058255E+01  0.58310472470E+00 -0.27649204649E+01  0.45217743970E+01  0.51100000000E-03 0. -1.
        -11    1    3    3    0    0 -0.40934180209E+01  0.55252928829E+01  0.52497699671E+01  0.86513014919E+01  0.51100000000E-03 0.  1.
        -12    1    3    3    0    0  0.16225091847E+02  0.27112560261E+02 -0.19927518819E+02  0.37355729623E+02  0.00000000000E+00 0.  1.
</event>
<event>
 7    1  0.5006721E-012  0.5052885E+02  0.7816164E-02  0.1300439E+00
        -11   -1    0    0    0    0  0.00000000000E+00  0.00000000000E+00  0.45593999997E+02  0.45594000000E+02  0.51100000000E-03 0. -1.
         11   -1    0    0    0    0 -0.00000000000E+00 -0.00000000000E+00 -0.45593999997E+02  0.45594000000E+02  0.51100000000E-03 0.  1.
    9900012    2    1    2    0    0  0.28126308044E+02  0.18285054873E+02 -0.22972453914E+02  0.50528854968E+02  0.29999985161E+02 0.  0.
         12    1    1    2    0    0 -0.28126308044E+02 -0.18285054873E+02  0.22972453914E+02  0.40659145032E+02  0.00000000000E+00 0. -1.
         11    1    3    3    0    0 -0.12903991021E+01  0.29925801480E+00 -0.36047460357E+00  0.13728173233E+01  0.51100000000E-03 0. -1.
        -11    1    3    3    0    0  0.21260776488E+02  0.33624993869E+01 -0.64428069966E+00  0.21534672434E+02  0.51100000000E-03 0.  1.
        -12    1    3    3    0    0  0.81559306585E+01  0.14623297472E+02 -0.21967698610E+02  0.27621365210E+02  0.00000000000E+00 0.  1.
</event>
<event>
 7    1  0.5006721E-012  0.5052888E+02  0.7816164E-02  0.1300439E+00
        -11   -1    0    0    0    0  0.00000000000E+00  0.00000000000E+00  0.45593999997E+02  0.45594000000E+02  0.51100000000E-03 0. -1.
         11   -1    0    0    0    0 -0.00000000000E+00 -0.00000000000E+00 -0.45593999997E+02  0.45594000000E+02  0.51100000000E-03 0.  1.
    9900012    2    1    2    0    0  0.75148636858E+01 -0.11247488581E+02 -0.38342989585E+02  0.50528880163E+02  0.30000061743E+02 0.  0.
         12    1    1    2    0    0 -0.75148636858E+01  0.11247488581E+02  0.38342989585E+02  0.40659119837E+02  0.00000000000E+00 0. -1.
         11    1    3    3    0    0  0.25522031902E+01 -0.20823978111E+02 -0.19208388457E+02  0.28444929124E+02  0.51100000000E-03 0. -1.
        -11    1    3    3    0    0  0.32957372183E+01  0.61739812644E+01 -0.14476721018E+02  0.16079657340E+02  0.51100000000E-03 0.  1.
         12    1    3    3    0    0  0.16669232773E+01  0.34025082651E+01 -0.46578801107E+01  0.60042936997E+01  0.00000000000E+00 0. -1.
</event>
<event>
 7    1  0.5006721E-012  0.5052887E+02  0.7816164E-02  0.1300439E+00
        -11   -1    0    0    0    0  0.00000000000E+00  0.00000000000E+00  0.45593999997E+02  0.45594000000E+02  0.51100000000E-03 0. -1.
         11   -1    0    0    0    0 -0.00000000000E+00 -0.00000000000E+00 -0.45593999997E+02  0.45594000000E+02  0.51100000000E-03 0.  1.
    9900012    2    1    2    0    0 -0.15601815369E+02  0.23833095528E+02 -0.29012609837E+02  0.50528872921E+02  0.30000039732E+02 0.  0.
         12    1    1    2    0    0  0.15601815369E+02 -0.23833095528E+02  0.29012609837E+02  0.40659127079E+02  0.00000000000E+00 0. -1.
         11    1    3    3    0    0  0.83594911975E+00  0.67081305873E+01 -0.18920994483E+02  0.20092333349E+02  0.51100000000E-03 0. -1.
        -11    1    3    3    0    0 -0.16763438867E+02  0.66538251231E+01 -0.81071989902E+01  0.19774047313E+02  0.51100000000E-03 0.  1.
         12    1    3    3    0    0  0.32567437805E+00  0.10471139818E+02 -0.19844163630E+01  0.10662492259E+02  0.00000000000E+00 0. -1.
</event>
<event>
 7    1  0.5006721E-012  0.5052886E+02  0.7816164E-02  0.1300439E+00
        -11   -1    0    0    0    0  0.00000000000E+00  0.00000000000E+00  0.45593999997E+02  0.45594000000E+02  0.51100000000E-03 0. -1.
         11   -1    0    0    0    0 -0.00000000000E+00 -0.00000000000E+00 -0.45593999997E+02  0.45594000000E+02  0.51100000000E-03 0.  1.
    9900012    2    1    2    0    0  0.29912961703E+02  0.23449634236E+02  0.14439357059E+02  0.50528860118E+02  0.30000000815E+02 0.  0.
        -12    1    1    2    0    0 -0.29912961703E+02 -0.23449634236E+02 -0.14439357059E+02  0.40659139882E+02  0.00000000000E+00 0.  1.
         11    1    3    3    0    0  0.13420885704E+02  0.11747350074E+02  0.26392936544E+01  0.18030149143E+02  0.51100000000E-03 0. -1.
        -11    1    3    3    0    0 -0.50007712627E+01  0.49655033971E+01 -0.50681332674E-01  0.70474467764E+01  0.51100000000E-03 0.  1.
        -12    1    3    3    0    0  0.21492847262E+02  0.67367807642E+01  0.11850744737E+02  0.25451264199E+02  0.00000000000E+00 0.  1.
</event>
<event>
 7    1  0.5006721E-012  0.5052885E+02  0.7816164E-02  0.1300439E+00
        -11   -1    0    0    0    0  0.00000000000E+00  0.00000000000E+00  0.45593999997E+02  0.45594000000E+02  0.51100000000E-03 0. -1.
         11   -1    0    0    0    0 -0.00000000000E+00 -0.00000000000E+00 -0.45593999997E+02  0.45594000000E+02  0.51100000000E-03 0.  1.
    9900012    2    1    2    0    0  0.72177743347E+01 -0.10848703825E+02 -0.38514613484E+02  0.50528854745E+02  0.29999984484E+02 0.  0.
         12    1    1    2    0    0 -0.72177743347E+01  0.10848703825E+02  0.38514613484E+02  0.40659145255E+02  0.00000000000E+00 0. -1.
         11    1    3    3    0    0 -0.31242847753E+01 -0.10149341285E+02 -0.14348988646E+02  0.17851155685E+02  0.51100000000E-03 0. -1.
        -11    1    3    3    0    0  0.72895956900E+01  0.90968247440E+01 -0.14225665019E+02  0.18391845238E+02  0.51100000000E-03 0.  1.
         12    1    3    3    0    0  0.30524634199E+01 -0.97961872849E+01 -0.99399598184E+01  0.14285853823E+02  0.00000000000E+00 0. -1.
</event>
<event>
 7    1  0.5006721E-012  0.5052886E+02  0.7816164E-02  0.1300439E+00
        -11   -1    0    0    0    0  0.00000000000E+00  0.00000000000E+00  0.45593999997E+02  0.45594000000E+02  0.51100000000E-03 0. -1.
         11   -1    0    0    0    0 -0.00000000000E+00 -0.00000000000E+00 -0.45593999997E+02  0.45594000000E+02  0.51100000000E-03 0.  1.
    9900012    2    1    2    0    0  0.38686062967E+02  0.73571384659E+00 -0.12490500610E+02  0.50528863902E+02  0.30000012316E+02 0.  0.
         12    1    1    2    0    0 -0.38686062967E+02 -0.73571384659E+00  0.12490500610E+02  0.40659136098E+02  0.00000000000E+00 0. -1.
         11    1    3    3    0    0  0.21300835661E+01 -0.79739413052E+00  0.42906848645E+01  0.48562403426E+01  0.51100000000E-03 0. -1.
        -11    1    3    3    0    0  0.28563908965E+02 -0.65767024094E+01 -0.58513305579E+01  0.29889596509E+02  0.51100000000E-03 0.  1.
        -12    1    3    3    0    0  0.79920704361E+01  0.81098103865E+01 -0.10929854917E+02  0.15783027050E+02  0.00000000000E+00 0.  1.
</event>
<event>
 7    1  0.5006721E-012  0.5052878E+02  0.7816164E-02  0.1300439E+00
        -11   -1    0    0    0    0  0.00000000000E+00  0.00000000000E+00  0.45593999997E+02  0.45594000000E+02  0.51100000000E-03 0. -1.
         11   -1    0    0    0    0 -0.00000000000E+00 -0.00000000000E+00 -0.45593999997E+02  0.45594000000E+02  0.51100000000E-03 0.  1.
    9900012    2    1    2    0    0  0.32647979404E+02 -0.60441801059E+01  0.23468049779E+02  0.50528781701E+02  0.29999762456E+02 0.  0.
        -12    1    1    2    0    0 -0.32647979404E+02  0.60441801059E+01 -0.23468049779E+02  0.40659218299E+02  0.00000000000E+00 0.  1.
         11    1    3    3    0    0  0.17194566027E+02 -0.15435154504E+00  0.21612693839E+00  0.17196617004E+02  0.51100000000E-03 0. -1.
        -11    1    3    3    0    0  0.16566341898E+02 -0.95070815080E+01  0.22427531452E+02  0.29458826351E+02  0.51100000000E-03 0.  1.
        -12    1    3    3    0    0 -0.11129285220E+01  0.36172529471E+01  0.82439138890E+00  0.38733383458E+01  0.00000000000E+00 0.  1.
</event>
<event>
 7    1  0.5006721E-012  0.5052885E+02  0.7816164E-02  0.1300439E+00
        -11   -1    0    0    0    0  0.00000000000E+00  0.00000000000E+00  0.45593999997E+02  0.45594000000E+02  0.51100000000E-03 0. -1.
         11   -1    0    0    0    0 -0.00000000000E+00 -0.00000000000E+00 -0.45593999997E+02  0.45594000000E+02  0.51100000000E-03 0.  1.
    9900012    2    1    2    0    0  0.84701533261E+01 -0.26434462726E+02 -0.29709291694E+02  0.50528851830E+02  0.29999975622E+02 0.  0.
         12    1    1    2    0    0 -0.84701533261E+01  0.26434462726E+02  0.29709291694E+02  0.40659148170E+02  0.00000000000E+00 0. -1.
         11    1    3    3    0    0  0.15973657036E+02 -0.12858248201E+02 -0.83250031066E+01  0.22131379146E+02  0.51100000000E-03 0. -1.
        -11    1    3    3    0    0 -0.87290566769E+00 -0.69836484758E+01 -0.16299519486E+02  0.17754088151E+02  0.51100000000E-03 0.  1.
         12    1    3    3    0    0 -0.66305980423E+01 -0.65925660491E+01 -0.50847691011E+01  0.10643384533E+02  0.00000000000E+00 0. -1.
</event>
<event>
 7    1  0.5006721E-012  0.5052886E+02  0.7816164E-02  0.1300439E+00
        -11   -1    0    0    0    0  0.00000000000E+00  0.00000000000E+00  0.45593999997E+02  0.45594000000E+02  0.51100000000E-03 0. -1.
         11   -1    0    0    0    0 -0.00000000000E+00 -0.00000000000E+00 -0.45593999997E+02  0.45594000000E+02  0.51100000000E-03 0.  1.
    9900012    2    1    2    0    0  0.13462498644E+02  0.34480329412E+02 -0.16823610523E+02  0.50528857644E+02  0.29999993294E+02 0.  0.
         12    1    1    2    0    0 -0.13462498644E+02 -0.34480329412E+02  0.16823610523E+02  0.40659142356E+02  0.00000000000E+00 0. -1.
         11    1    3    3    0    0  0.94500028919E+01 -0.10986339024E+00 -0.70377411863E+01  0.11783226463E+02  0.51100000000E-03 0. -1.
        -11    1    3    3    0    0 -0.49643331175E+01  0.15977926977E+02 -0.57453474305E+01  0.17690329876E+02  0.51100000000E-03 0.  1.
         12    1    3    3    0    0  0.89768288696E+01  0.18612265826E+02 -0.40405219061E+01  0.21055301304E+02  0.00000000000E+00 0. -1.
</event>
<event>
 7    1  0.5006721E-012  0.5052886E+02  0.7816164E-02  0.1300439E+00
        -11   -1    0    0    0    0  0.00000000000E+00  0.00000000000E+00  0.45593999997E+02  0.45594000000E+02  0.51100000000E-03 0. -1.
         11   -1    0    0    0    0 -0.00000000000E+00 -0.00000000000E+00 -0.45593999997E+02  0.45594000000E+02  0.51100000000E-03 0.  1.
    9900012    2    1    2    0    0  0.38093471628E+02  0.85215572400E+01 -0.11377010070E+02  0.50528857404E+02  0.29999992565E+02 0.  0.
         12    1    1    2    0    0 -0.38093471628E+02 -0.85215572400E+01  0.11377010070E+02  0.40659142596E+02  0.00000000000E+00 0. -1.
         11    1    3    3    0    0  0.51152845548E+01  0.60537699913E+01  0.48560509785E+01  0.92949178883E+01  0.51100000000E-03 0. -1.
        -11    1    3    3    0    0  0.18975983540E+02  0.93797377716E+01 -0.14194187641E+02  0.25486121616E+02  0.51100000000E-03 0.  1.
        -12    1    3    3    0    0  0.14002203534E+02 -0.69119505229E+01 -0.20388734080E+01  0.15747817900E+02  0.00000000000E+00 0.  1.
</event>
<event>
 7    1  0.5006721E-012  0.5052886E+02  0.7816164E-02  0.1300439E+00
        -11   -1    0    0    0    0  0.00000000000E+00  0.00000000000E+00  0.45593999997E+02  0.45594000000E+02  0.51100000000E-03 0. -1.
         11   -1    0    0    0    0 -0.00000000000E+00 -0.00000000000E+00 -0.45593999997E+02  0.45594000000E+02  0.51100000000E-03 0.  1.
    9900012    2    1    2    0    0  0.19835812869E+02 -0.19411355497E+02  0.29713731604E+02  0.50528855392E+02  0.29999986450E+02 0.  0.
        -12    1    1    2    0    0 -0.19835812869E+02  0.19411355497E+02 -0.29713731604E+02  0.40659144608E+02  0.00000000000E+00 0.  1.
         11    1    3    3    0    0  0.18831746085E+02 -0.73403037739E+01  0.17113521172E+02  0.26483718155E+02  0.51100000000E-03 0. -1.
        -11    1    3    3    0    0 -0.31682345565E+01 -0.10216204409E+02  0.15354433972E+02  0.18712754623E+02  0.51100000000E-03 0.  1.
        -12    1    3    3    0    0  0.41723013400E+01 -0.18548473140E+01 -0.27542235403E+01  0.53323826138E+01  0.00000000000E+00 0.  1.
</event>
<event>
 7    1  0.5006721E-012  0.5052886E+02  0.7816164E-02  0.1300439E+00
        -11   -1    0    0    0    0  0.00000000000E+00  0.00000000000E+00  0.45593999997E+02  0.45594000000E+02  0.51100000000E-03 0.  1.
         11   -1    0    0    0    0 -0.00000000000E+00 -0.00000000000E+00 -0.45593999997E+02  0.45594000000E+02  0.51100000000E-03 0. -1.
    9900012    2    1    2    0    0 -0.15544191171E+02 -0.33770104956E+02 -0.16465835072E+02  0.50528860898E+02  0.30000003185E+02 0.  0.
         12    1    1    2    0    0  0.15544191171E+02  0.33770104956E+02  0.16465835072E+02  0.40659139102E+02  0.00000000000E+00 0. -1.
         11    1    3    3    0    0 -0.73514760981E+01 -0.24473979745E+02 -0.21150111221E+02  0.33171480074E+02  0.51100000000E-03 0. -1.
        -11    1    3    3    0    0 -0.49066610710E+01 -0.11654036052E+02  0.31467280433E+01  0.13030494112E+02  0.51100000000E-03 0.  1.
         12    1    3    3    0    0 -0.32860540022E+01  0.23579108411E+01  0.15375481054E+01  0.43268867118E+01  0.00000000000E+00 0. -1.
</event>
<event>
 7    1  0.5006721E-012  0.5052886E+02  0.7816164E-02  0.1300439E+00
        -11   -1    0    0    0    0  0.00000000000E+00  0.00000000000E+00  0.45593999997E+02  0.45594000000E+02  0.51100000000E-03 0. -1.
         11   -1    0    0    0    0 -0.00000000000E+00 -0.00000000000E+00 -0.45593999997E+02  0.45594000000E+02  0.51100000000E-03 0.  1.
    9900012    2    1    2    0    0 -0.10226279098E+02 -0.37043045846E+02  0.13281635587E+02  0.50528857441E+02  0.29999992679E+02 0.  0.
        -12    1    1    2    0    0  0.10226279098E+02  0.37043045846E+02 -0.13281635587E+02  0.40659142559E+02  0.00000000000E+00 0.  1.
         11    1    3    3    0    0 -0.24622110236E+01 -0.15327925868E+02  0.76717668652E+01  0.17316575922E+02  0.51100000000E-03 0. -1.
        -11    1    3    3    0    0 -0.70894549670E+01  0.19767118372E+01 -0.30658523286E+01  0.79729048771E+01  0.51100000000E-03 0.  1.
        -12    1    3    3    0    0 -0.67461310748E+00 -0.23691831815E+02  0.86757210503E+01  0.25239376643E+02  0.00000000000E+00 0.  1.
</event>
<event>
 7    1  0.5006721E-012  0.5052888E+02  0.7816164E-02  0.1300439E+00
        -11   -1    0    0    0    0  0.00000000000E+00  0.00000000000E+00  0.45593999997E+02  0.45594000000E+02  0.51100000000E-03 0. -1.
         11   -1    0    0    0    0 -0.00000000000E+00 -0.00000000000E+00 -0.45593999997E+02  0.45594000000E+02  0.51100000000E-03 0.  1.
    9900012    2    1    2    0    0 -0.82745304721E+01  0.27198449648E+02 -0.29067865875E+02  0.50528876248E+02  0.30000049844E+02 0.  0.
         12    1    1    2    0    0  0.82745304721E+01 -0.27198449648E+02  0.29067865875E+02  0.40659123752E+02  0.00000000000E+00 0. -1.
         11    1    3    3    0    0  0.10961951967E+01  0.18263461507E+02 -0.15366414672E+02  0.23893144838E+02  0.51100000000E-03 0.  1.
        -11    1    3    3    0    0 -0.51790070469E+01 -0.40049566898E+01  0.98222370535E+00  0.66201628187E+01  0.51100000000E-03 0. -1.
         12    1    3    3    0    0 -0.41917186219E+01  0.12939944830E+02 -0.14683674908E+02  0.20015568591E+02  0.00000000000E+00 0. -1.
</event>
<event>
 7    1  0.5006721E-012  0.5052886E+02  0.7816164E-02  0.1300439E+00
        -11   -1    0    0    0    0  0.00000000000E+00  0.00000000000E+00  0.45593999997E+02  0.45594000000E+02  0.51100000000E-03 0. -1.
         11   -1    0    0    0    0 -0.00000000000E+00 -0.00000000000E+00 -0.45593999997E+02  0.45594000000E+02  0.51100000000E-03 0.  1.
    9900012    2    1    2    0    0  0.46403184914E+01 -0.27170915550E+01 -0.40301990876E+02  0.50528860674E+02  0.30000002504E+02 0.  0.
         12    1    1    2    0    0 -0.46403184914E+01  0.27170915550E+01  0.40301990876E+02  0.40659139326E+02  0.00000000000E+00 0. -1.
         11    1    3    3    0    0 -0.94694804117E+01 -0.11448995030E+01 -0.17733296439E+02  0.20135830179E+02  0.51100000000E-03 0.  1.
        -11    1    3    3    0    0  0.73081791436E+01 -0.81076291074E+01 -0.12549146520E+02  0.16632023653E+02  0.51100000000E-03 0. -1.
         12    1    3    3    0    0  0.68016197594E+01  0.65354370554E+01 -0.10019547917E+02  0.13761006842E+02  0.00000000000E+00 0. -1.
</event>
<event>
 7    1  0.5006721E-012  0.5052883E+02  0.7816164E-02  0.1300439E+00
        -11   -1    0    0    0    0  0.00000000000E+00  0.00000000000E+00  0.45593999997E+02  0.45594000000E+02  0.51100000000E-03 0. -1.
         11   -1    0    0    0    0 -0.00000000000E+00 -0.00000000000E+00 -0.45593999997E+02  0.45594000000E+02  0.51100000000E-03 0.  1.
    9900012    2    1    2    0    0 -0.36351484743E+02  0.13476668879E+02 -0.12252211255E+02  0.50528834641E+02  0.29999923373E+02 0.  0.
         12    1    1    2    0    0  0.36351484743E+02 -0.13476668879E+02  0.12252211255E+02  0.40659165359E+02  0.00000000000E+00 0. -1.
         11    1    3    3    0    0 -0.10015301548E+02  0.36947630199E+01  0.23708855605E+01  0.10935201758E+02  0.51100000000E-03 0. -1.
        -11    1    3    3    0    0 -0.24577152612E+01  0.18343826827E+01 -0.14091837526E+02  0.14421692316E+02  0.51100000000E-03 0.  1.
        -12    1    3    3    0    0 -0.23878467933E+02  0.79475231766E+01 -0.53125928936E+00  0.25171940567E+02  0.00000000000E+00 0.  1.
</event>
<event>
 7    1  0.5006721E-012  0.5052886E+02  0.7816164E-02  0.1300439E+00
        -11   -1    0    0    0    0  0.00000000000E+00  0.00000000000E+00  0.45593999997E+02  0.45594000000E+02  0.51100000000E-03 0. -1.
         11   -1    0    0    0    0 -0.00000000000E+00 -0.00000000000E+00 -0.45593999997E+02  0.45594000000E+02  0.51100000000E-03 0.  1.
    9900012    2    1    2    0    0  0.21248894230E+02  0.16326117796E+02 -0.30579537765E+02  0.50528858860E+02  0.29999996991E+02 0.  0.
         12    1    1    2    0    0 -0.21248894230E+02 -0.16326117796E+02  0.30579537765E+02  0.40659141140E+02  0.00000000000E+00 0. -1.
         11    1    3    3    0    0  0.22598982783E+02  0.17378323465E+02 -0.31246116330E+02  0.42297044049E+02  0.51100000000E-03 0. -1.
        -11    1    3    3    0    0 -0.39721436145E+01  0.13459172003E+01 -0.99316387163E+00  0.43099643550E+01  0.51100000000E-03 0.  1.
         12    1    3    3    0    0  0.26220550616E+01 -0.23981228697E+01  0.16597424366E+01  0.39218504560E+01  0.00000000000E+00 0. -1.
</event>
<event>
 7    1  0.5006721E-012  0.5052886E+02  0.7816164E-02  0.1300439E+00
        -11   -1    0    0    0    0  0.00000000000E+00  0.00000000000E+00  0.45593999997E+02  0.45594000000E+02  0.51100000000E-03 0. -1.
         11   -1    0    0    0    0 -0.00000000000E+00 -0.00000000000E+00 -0.45593999997E+02  0.45594000000E+02  0.51100000000E-03 0.  1.
    9900012    2    1    2    0    0 -0.17414776872E+02 -0.15128510907E+02 -0.33481628829E+02  0.50528858780E+02  0.29999996746E+02 0.  0.
         12    1    1    2    0    0  0.17414776872E+02  0.15128510907E+02  0.33481628829E+02  0.40659141220E+02  0.00000000000E+00 0. -1.
         11    1    3    3    0    0 -0.93531228599E+01 -0.64681646113E+01 -0.11212010654E+01  0.11426948532E+02  0.51100000000E-03 0. -1.
        -11    1    3    3    0    0  0.53210032257E+01  0.22248263841E+00 -0.12298542954E+02  0.13402116732E+02  0.51100000000E-03 0.  1.
         12    1    3    3    0    0 -0.13382657237E+02 -0.88828289346E+01 -0.20061884809E+02  0.25699793515E+02  0.00000000000E+00 0. -1.
</event>
<event>
 7    1  0.5006721E-012  0.5052886E+02  0.7816164E-02  0.1300439E+00
        -11   -1    0    0    0    0  0.00000000000E+00  0.00000000000E+00  0.45593999997E+02  0.45594000000E+02  0.51100000000E-03 0. -1.
         11   -1    0    0    0    0 -0.00000000000E+00 -0.00000000000E+00 -0.45593999997E+02  0.45594000000E+02  0.51100000000E-03 0.  1.
    9900012    2    1    2    0    0  0.29001861162E+02  0.10327378891E+02 -0.26559421677E+02  0.50528860985E+02  0.30000003449E+02 0.  0.
         12    1    1    2    0    0 -0.29001861162E+02 -0.10327378891E+02  0.26559421677E+02  0.40659139015E+02  0.00000000000E+00 0. -1.
         11    1    3    3    0    0  0.26975264411E+01 -0.99625987318E+00 -0.92681387068E+00  0.30212856283E+01  0.51100000000E-03 0. -1.
        -11    1    3    3    0    0  0.26288142287E+01 -0.84715495013E+01 -0.35222007198E+01  0.95437787785E+01  0.51100000000E-03 0.  1.
        -12    1    3    3    0    0  0.23675520492E+02  0.19795188266E+02 -0.22110407087E+02  0.37963796578E+02  0.00000000000E+00 0.  1.
</event>
<event>
 7    1  0.5006721E-012  0.5052886E+02  0.7816164E-02  0.1300439E+00
        -11   -1    0    0    0    0  0.00000000000E+00  0.00000000000E+00  0.45593999997E+02  0.45594000000E+02  0.51100000000E-03 0. -1.
         11   -1    0    0    0    0 -0.00000000000E+00 -0.00000000000E+00 -0.45593999997E+02  0.45594000000E+02  0.51100000000E-03 0.  1.
    9900012    2    1    2    0    0 -0.37083400344E+02  0.46312131520E+01 -0.16016828793E+02  0.50528861779E+02  0.30000005863E+02 0.  0.
         12    1    1    2    0    0  0.37083400344E+02 -0.46312131520E+01  0.16016828793E+02  0.40659138221E+02  0.00000000000E+00 0. -1.
         11    1    3    3    0    0  0.31063337463E+01 -0.11771549697E+01 -0.18173801143E+00  0.33268652110E+01  0.51100000000E-03 0. -1.
        -11    1    3    3    0    0 -0.26167364500E+02  0.11553309204E+02 -0.62743055974E+01  0.29284412738E+02  0.51100000000E-03 0.  1.
        -12    1    3    3    0    0 -0.14022369590E+02 -0.57449410818E+01 -0.95607851844E+01  0.17917583830E+02  0.00000000000E+00 0.  1.
</event>
<event>
 7    1  0.5006721E-012  0.5052887E+02  0.7816164E-02  0.1300439E+00
        -11   -1    0    0    0    0  0.00000000000E+00  0.00000000000E+00  0.45593999997E+02  0.45594000000E+02  0.51100000000E-03 0.  1.
         11   -1    0    0    0    0 -0.00000000000E+00 -0.00000000000E+00 -0.45593999997E+02  0.45594000000E+02  0.51100000000E-03 0. -1.
    9900012    2    1    2    0    0  0.19346348842E+02  0.25813258609E+02  0.24749942238E+02  0.50528866041E+02  0.30000018818E+02 0.  0.
        -12    1    1    2    0    0 -0.19346348842E+02 -0.25813258609E+02 -0.24749942238E+02  0.40659133959E+02  0.00000000000E+00 0.  1.
         11    1    3    3    0    0  0.22564488408E+02  0.21057322070E+02  0.23551719864E+02  0.38823323643E+02  0.51100000000E-03 0. -1.
        -11    1    3    3    0    0 -0.53457147759E+01  0.65670147585E+01 -0.41745073266E+00  0.84780077069E+01  0.51100000000E-03 0.  1.
         12    1    3    3    0    0  0.21275752104E+01 -0.18110782201E+01  0.16156731063E+01  0.32275346910E+01  0.00000000000E+00 0. -1.
</event>
<event>
 7    1  0.5006721E-012  0.5052887E+02  0.7816164E-02  0.1300439E+00
        -11   -1    0    0    0    0  0.00000000000E+00  0.00000000000E+00  0.45593999997E+02  0.45594000000E+02  0.51100000000E-03 0. -1.
         11   -1    0    0    0    0 -0.00000000000E+00 -0.00000000000E+00 -0.45593999997E+02  0.45594000000E+02  0.51100000000E-03 0.  1.
    9900012    2    1    2    0    0 -0.13621973338E+00 -0.22019783643E+02  0.34180049114E+02  0.50528865910E+02  0.30000018421E+02 0.  0.
        -12    1    1    2    0    0  0.13621973338E+00  0.22019783643E+02 -0.34180049114E+02  0.40659134090E+02  0.00000000000E+00 0.  1.
         11    1    3    3    0    0  0.17898863973E+01 -0.27000164575E+02  0.27849424042E+02  0.38830439092E+02  0.51100000000E-03 0. -1.
        -11    1    3    3    0    0 -0.37775718920E+01  0.29703867193E+01  0.26055932079E-02  0.48055440599E+01  0.51100000000E-03 0.  1.
         12    1    3    3    0    0  0.18514657613E+01  0.20099942122E+01  0.63280194786E+01  0.68928827583E+01  0.00000000000E+00 0. -1.
</event>
<event>
 7    1  0.5006721E-012  0.5052886E+02  0.7816164E-02  0.1300439E+00
        -11   -1    0    0    0    0  0.00000000000E+00  0.00000000000E+00  0.45593999997E+02  0.45594000000E+02  0.51100000000E-03 0. -1.
         11   -1    0    0    0    0 -0.00000000000E+00 -0.00000000000E+00 -0.45593999997E+02  0.45594000000E+02  0.51100000000E-03 0.  1.
    9900012    2    1    2    0    0 -0.54677274781E+01  0.27557904851E+02  0.29391006710E+02  0.50528862786E+02  0.30000008924E+02 0.  0.
        -12    1    1    2    0    0  0.54677274781E+01 -0.27557904851E+02 -0.29391006710E+02  0.40659137214E+02  0.00000000000E+00 0.  1.
         11    1    3    3    0    0  0.53918516580E+01  0.11906094900E+02  0.46583068279E+01  0.13875409285E+02  0.51100000000E-03 0. -1.
        -11    1    3    3    0    0 -0.92053392972E+01 -0.60098855520E+00  0.15080727232E+02  0.17678455615E+02  0.51100000000E-03 0.  1.
         12    1    3    3    0    0 -0.16542398389E+01  0.16252798506E+02  0.96519726501E+01  0.18974997885E+02  0.00000000000E+00 0. -1.
</event>
<event>
 7    1  0.5006721E-012  0.5052889E+02  0.7816164E-02  0.1300439E+00
        -11   -1    0    0    0    0  0.00000000000E+00  0.00000000000E+00  0.45593999997E+02  0.45594000000E+02  0.51100000000E-03 0. -1.
         11   -1    0    0    0    0 -0.00000000000E+00 -0.00000000000E+00 -0.45593999997E+02  0.45594000000E+02  0.51100000000E-03 0.  1.
    9900012    2    1    2    0    0 -0.90093744034E+01  0.36285275285E+02 -0.15980401422E+02  0.50528889591E+02  0.30000090401E+02 0.  0.
         12    1    1    2    0    0  0.90093744034E+01 -0.36285275285E+02  0.15980401422E+02  0.40659110409E+02  0.00000000000E+00 0. -1.
         11    1    3    3    0    0 -0.13596776539E+01  0.33976957073E+01  0.66033104341E+01  0.75496204138E+01  0.51100000000E-03 0. -1.
        -11    1    3    3    0    0 -0.10980354490E+02  0.28864830092E+02 -0.16688706043E+02  0.35103554103E+02  0.51100000000E-03 0.  1.
        -12    1    3    3    0    0  0.33306577406E+01  0.40227494852E+01 -0.58950058129E+01  0.78757150748E+01  0.00000000000E+00 0.  1.
</event>
<event>
 7    1  0.5006721E-012  0.5052886E+02  0.7816164E-02  0.1300439E+00
        -11   -1    0    0    0    0  0.00000000000E+00  0.00000000000E+00  0.45593999997E+02  0.45594000000E+02  0.51100000000E-03 0. -1.
         11   -1    0    0    0    0 -0.00000000000E+00 -0.00000000000E+00 -0.45593999997E+02  0.45594000000E+02  0.51100000000E-03 0.  1.
    9900012    2    1    2    0    0  0.43590251774E+01  0.42423987632E+01 -0.40201579572E+02  0.50528855299E+02  0.29999986165E+02 0.  0.
         12    1    1    2    0    0 -0.43590251774E+01 -0.42423987632E+01  0.40201579572E+02  0.40659144701E+02  0.00000000000E+00 0. -1.
         11    1    3    3    0    0  0.63088802190E+01  0.81556172379E+01 -0.10173438109E+02  0.14484988967E+02  0.51100000000E-03 0. -1.
        -11    1    3    3    0    0 -0.72508488108E+01  0.27638090535E+01 -0.24931442158E+02  0.26111113674E+02  0.51100000000E-03 0.  1.
        -12    1    3    3    0    0  0.53009937692E+01 -0.66770275282E+01 -0.50966993052E+01  0.99327526578E+01  0.00000000000E+00 0.  1.
</event>
<event>
 7    1  0.6048365E-012  0.5052887E+02  0.7816164E-02  0.1300439E+00
        -11   -1    0    0    0    0  0.00000000000E+00  0.00000000000E+00  0.45593999997E+02  0.45594000000E+02  0.51100000000E-03 0. -1.
         11   -1    0    0    0    0 -0.00000000000E+00 -0.00000000000E+00 -0.45593999997E+02  0.45594000000E+02  0.51100000000E-03 0.  1.
    9900012    2    1    2    0    0 -0.15240942187E+02 -0.27962283135E+02  0.25278238282E+02  0.50528869075E+02  0.30000028041E+02 0.  0.
        -12    1    1    2    0    0  0.15240942187E+02  0.27962283135E+02 -0.25278238282E+02  0.40659130925E+02  0.00000000000E+00 0.  1.
         11    1    3    3    0    0 -0.17993911792E+01 -0.23862806899E+02  0.21178779228E+02  0.31956408615E+02  0.51100000000E-03 0. -1.
        -11    1    3    3    0    0 -0.20042862406E+01 -0.15259736542E+01 -0.37113307143E+01  0.44855027433E+01  0.51100000000E-03 0.  1.
         12    1    3    3    0    0 -0.11437264768E+02 -0.25735025817E+01  0.78107897685E+01  0.14086957717E+02  0.00000000000E+00 0. -1.
</event>
<event>
 7    1  0.5006721E-012  0.5052894E+02  0.7816164E-02  0.1300439E+00
        -11   -1    0    0    0    0  0.00000000000E+00  0.00000000000E+00  0.45593999997E+02  0.45594000000E+02  0.51100000000E-03 0. -1.
         11   -1    0    0    0    0 -0.00000000000E+00 -0.00000000000E+00 -0.45593999997E+02  0.45594000000E+02  0.51100000000E-03 0.  1.
    9900012    2    1    2    0    0  0.35734286973E+02  0.17953020343E+02  0.73422869078E+01  0.50528937272E+02  0.30000235331E+02 0.  0.
        -12    1    1    2    0    0 -0.35734286973E+02 -0.17953020343E+02 -0.73422869078E+01  0.40659062728E+02  0.00000000000E+00 0.  1.
         11    1    3    3    0    0 -0.14096153734E+01  0.34574618298E+01  0.26178735007E+01  0.45600789173E+01  0.51100000000E-03 0.  1.
        -11    1    3    3    0    0  0.25908381615E+02  0.20336213184E+02  0.18776589997E+01  0.32989868265E+02  0.51100000000E-03 0. -1.
        -12    1    3    3    0    0  0.11235520731E+02 -0.58406546708E+01  0.28467544075E+01  0.12978990090E+02  0.00000000000E+00 0.  1.
</event>
<event>
 7    1  0.5006721E-012  0.5052886E+02  0.7816164E-02  0.1300439E+00
        -11   -1    0    0    0    0  0.00000000000E+00  0.00000000000E+00  0.45593999997E+02  0.45594000000E+02  0.51100000000E-03 0. -1.
         11   -1    0    0    0    0 -0.00000000000E+00 -0.00000000000E+00 -0.45593999997E+02  0.45594000000E+02  0.51100000000E-03 0.  1.
    9900012    2    1    2    0    0 -0.59660977684E+01  0.19805462813E+02  0.35004499103E+02  0.50528860347E+02  0.30000001512E+02 0.  0.
        -12    1    1    2    0    0  0.59660977684E+01 -0.19805462813E+02 -0.35004499103E+02  0.40659139653E+02  0.00000000000E+00 0.  1.
         11    1    3    3    0    0  0.63198338731E+01  0.97462665900E+01  0.27313540846E+02  0.29680962357E+02  0.51100000000E-03 0. -1.
        -11    1    3    3    0    0 -0.25656563355E+01 -0.23499170166E+01  0.23758037842E+01  0.42129735697E+01  0.51100000000E-03 0.  1.
         12    1    3    3    0    0 -0.97202753061E+01  0.12409113240E+02  0.53151544732E+01  0.16634924421E+02  0.00000000000E+00 0. -1.
</event>
<event>
 7    1  0.5006721E-012  0.5052888E+02  0.7816164E-02  0.1300439E+00
        -11   -1    0    0    0    0  0.00000000000E+00  0.00000000000E+00  0.45593999997E+02  0.45594000000E+02  0.51100000000E-03 0. -1.
         11   -1    0    0    0    0 -0.00000000000E+00 -0.00000000000E+00 -0.45593999997E+02  0.45594000000E+02  0.51100000000E-03 0.  1.
    9900012    2    1    2    0    0 -0.13658513974E+01 -0.25846235358E+02  0.31357146472E+02  0.50528879657E+02  0.30000060205E+02 0.  0.
        -12    1    1    2    0    0  0.13658513974E+01  0.25846235358E+02 -0.31357146472E+02  0.40659120343E+02  0.00000000000E+00 0.  1.
         11    1    3    3    0    0 -0.97496143056E+01 -0.95676368403E+01  0.93108779059E+01  0.16531397444E+02  0.51100000000E-03 0. -1.
        -11    1    3    3    0    0  0.12142871215E+02 -0.13336697134E+02  0.22898158315E+02  0.29148627177E+02  0.51100000000E-03 0.  1.
        -12    1    3    3    0    0 -0.37591083072E+01 -0.29419013834E+01 -0.85188974935E+00  0.48488550360E+01  0.00000000000E+00 0.  1.
</event>
<event>
 7    1  0.5006721E-012  0.5052887E+02  0.7816164E-02  0.1300439E+00
        -11   -1    0    0    0    0  0.00000000000E+00  0.00000000000E+00  0.45593999997E+02  0.45594000000E+02  0.51100000000E-03 0. -1.
         11   -1    0    0    0    0 -0.00000000000E+00 -0.00000000000E+00 -0.45593999997E+02  0.45594000000E+02  0.51100000000E-03 0.  1.
    9900012    2    1    2    0    0  0.38788905094E+02 -0.23281666678E+01 -0.11965182330E+02  0.50528866873E+02  0.30000021347E+02 0.  0.
        -12    1    1    2    0    0 -0.38788905094E+02  0.23281666678E+01  0.11965182330E+02  0.40659133127E+02  0.00000000000E+00 0.  1.
         11    1    3    3    0    0  0.21236469702E+02 -0.63723079609E+01 -0.13582918690E+01  0.22213484895E+02  0.51100000000E-03 0. -1.
        -11    1    3    3    0    0 -0.58348658593E+00  0.76359543374E+01 -0.19599935109E+01  0.79050509209E+01  0.51100000000E-03 0.  1.
         12    1    3    3    0    0  0.18135921979E+02 -0.35918130442E+01 -0.86468969503E+01  0.20410331056E+02  0.00000000000E+00 0. -1.
</event>
<event>
 7    1  0.5006721E-012  0.5052886E+02  0.7816164E-02  0.1300439E+00
        -11   -1    0    0    0    0  0.00000000000E+00  0.00000000000E+00  0.45593999997E+02  0.45594000000E+02  0.51100000000E-03 0. -1.
         11   -1    0    0    0    0 -0.00000000000E+00 -0.00000000000E+00 -0.45593999997E+02  0.45594000000E+02  0.51100000000E-03 0.  1.
    9900012    2    1    2    0    0 -0.93516839242E+01 -0.16891852094E+02  0.35782356549E+02  0.50528859582E+02  0.29999999184E+02 0.  0.
        -12    1    1    2    0    0  0.93516839242E+01  0.16891852094E+02 -0.35782356549E+02  0.40659140418E+02  0.00000000000E+00 0.  1.
         11    1    3    3    0    0 -0.47760117724E+01 -0.66401925854E+01  0.45194776893E+01  0.93449518386E+01  0.51100000000E-03 0. -1.
        -11    1    3    3    0    0 -0.65998131835E+01  0.63350880640E+01  0.16595342601E+02  0.18949835650E+02  0.51100000000E-03 0.  1.
        -12    1    3    3    0    0  0.20241410317E+01 -0.16586747573E+02  0.14667536258E+02  0.22234072093E+02  0.00000000000E+00 0.  1.
</event>
<event>
 7    1  0.5006721E-012  0.5052886E+02  0.7816164E-02  0.1300439E+00
        -11   -1    0    0    0    0  0.00000000000E+00  0.00000000000E+00  0.45593999997E+02  0.45594000000E+02  0.51100000000E-03 0. -1.
         11   -1    0    0    0    0 -0.00000000000E+00 -0.00000000000E+00 -0.45593999997E+02  0.45594000000E+02  0.51100000000E-03 0.  1.
    9900012    2    1    2    0    0 -0.32462523418E+01  0.40272604136E+02 -0.45546699577E+01  0.50528858142E+02  0.29999994809E+02 0.  0.
         12    1    1    2    0    0  0.32462523418E+01 -0.40272604136E+02  0.45546699577E+01  0.40659141858E+02  0.00000000000E+00 0. -1.
         11    1    3    3    0    0  0.58337929902E+01  0.63808679262E+01  0.36667635623E+01  0.93911538922E+01  0.51100000000E-03 0. -1.
        -11    1    3    3    0    0 -0.11308406274E+02  0.18447460718E+02  0.31006173457E+01  0.21858698214E+02  0.51100000000E-03 0.  1.
        -12    1    3    3    0    0  0.22283609418E+01  0.15444275492E+02 -0.11322050866E+02  0.19279006036E+02  0.00000000000E+00 0.  1.
</event>
<event>
 7    1  0.7430561E-012  0.5052886E+02  0.7816164E-02  0.1300439E+00
        -11   -1    0    0    0    0  0.00000000000E+00  0.00000000000E+00  0.45593999997E+02  0.45594000000E+02  0.51100000000E-03 0. -1.
         11   -1    0    0    0    0 -0.00000000000E+00 -0.00000000000E+00 -0.45593999997E+02  0.45594000000E+02  0.51100000000E-03 0.  1.
    9900012    2    1    2    0    0 -0.23831931588E+01 -0.24173990572E+02  0.32605280928E+02  0.50528858664E+02  0.29999996395E+02 0.  0.
        -12    1    1    2    0    0  0.23831931588E+01  0.24173990572E+02 -0.32605280928E+02  0.40659141336E+02  0.00000000000E+00 0.  1.
         11    1    3    3    0    0  0.90037245246E+01 -0.15424659365E+02  0.25146352161E+02  0.30843576303E+02  0.51100000000E-03 0. -1.
        -11    1    3    3    0    0 -0.49951878515E+01  0.16631376931E+01 -0.19441270262E+00  0.52683702620E+01  0.51100000000E-03 0.  1.
         12    1    3    3    0    0 -0.63917298319E+01 -0.10412468900E+02  0.76533414694E+01  0.14416912099E+02  0.00000000000E+00 0. -1.
</event>
<event>
 7    1  0.5006721E-012  0.5052885E+02  0.7816164E-02  0.1300439E+00
        -11   -1    0    0    0    0  0.00000000000E+00  0.00000000000E+00  0.45593999997E+02  0.45594000000E+02  0.51100000000E-03 0. -1.
         11   -1    0    0    0    0 -0.00000000000E+00 -0.00000000000E+00 -0.45593999997E+02  0.45594000000E+02  0.51100000000E-03 0.  1.
    9900012    2    1    2    0    0 -0.13479823570E+01 -0.37150878315E+02  0.16466987919E+02  0.50528849650E+02  0.29999968997E+02 0.  0.
        -12    1    1    2    0    0  0.13479823570E+01  0.37150878315E+02 -0.16466987919E+02  0.40659150350E+02  0.00000000000E+00 0.  1.
         11    1    3    3    0    0 -0.71322968451E+01 -0.54925514481E+01 -0.39934918873E+01  0.98481347174E+01  0.51100000000E-03 0. -1.
        -11    1    3    3    0    0  0.71050834012E+01 -0.57946842098E+01  0.40610630545E+01  0.10027602337E+02  0.51100000000E-03 0.  1.
         12    1    3    3    0    0 -0.13207689130E+01 -0.25863642657E+02  0.16399416752E+02  0.30653112596E+02  0.00000000000E+00 0. -1.
</event>
<event>
 7    1  0.5006721E-012  0.5052886E+02  0.7816164E-02  0.1300439E+00
        -11   -1    0    0    0    0  0.00000000000E+00  0.00000000000E+00  0.45593999997E+02  0.45594000000E+02  0.51100000000E-03 0. -1.
         11   -1    0    0    0    0 -0.00000000000E+00 -0.00000000000E+00 -0.45593999997E+02  0.45594000000E+02  0.51100000000E-03 0.  1.
    9900012    2    1    2    0    0  0.34714412123E+02  0.14161660730E+02 -0.15732852147E+02  0.50528859818E+02  0.29999999902E+02 0.  0.
         12    1    1    2    0    0 -0.34714412123E+02 -0.14161660730E+02  0.15732852147E+02  0.40659140182E+02  0.00000000000E+00 0. -1.
         11    1    3    3    0    0  0.43447287093E+01  0.37163194638E+01 -0.14575067401E+02  0.15656317828E+02  0.51100000000E-03 0. -1.
        -11    1    3    3    0    0  0.26808901118E+02  0.71802748531E+01 -0.55958807633E+01  0.28312319013E+02  0.51100000000E-03 0.  1.
         12    1    3    3    0    0  0.35607822962E+01  0.32650664130E+01  0.44380960179E+01  0.65602229769E+01  0.00000000000E+00 0. -1.
</event>
<event>
 7    1  0.5006721E-012  0.5052877E+02  0.7816164E-02  0.1300439E+00
        -11   -1    0    0    0    0  0.00000000000E+00  0.00000000000E+00  0.45593999997E+02  0.45594000000E+02  0.51100000000E-03 0. -1.
         11   -1    0    0    0    0 -0.00000000000E+00 -0.00000000000E+00 -0.45593999997E+02  0.45594000000E+02  0.51100000000E-03 0.  1.
    9900012    2    1    2    0    0 -0.29839445885E+02 -0.12080330497E+02 -0.24836386112E+02  0.50528769920E+02  0.29999726646E+02 0.  0.
         12    1    1    2    0    0  0.29839445885E+02  0.12080330497E+02  0.24836386112E+02  0.40659230080E+02  0.00000000000E+00 0. -1.
         11    1    3    3    0    0 -0.93376034420E+01 -0.24624468531E+01  0.47633480557E+01  0.10767728057E+02  0.51100000000E-03 0. -1.
        -11    1    3    3    0    0 -0.12937187124E+02 -0.81047039738E+01 -0.89013717549E+01  0.17671770046E+02  0.51100000000E-03 0.  1.
         12    1    3    3    0    0 -0.75646553184E+01 -0.15131796699E+01 -0.20698362413E+02  0.22089271817E+02  0.00000000000E+00 0. -1.
</event>
<event>
 7    1  0.5006721E-012  0.5052886E+02  0.7816164E-02  0.1300439E+00
        -11   -1    0    0    0    0  0.00000000000E+00  0.00000000000E+00  0.45593999997E+02  0.45594000000E+02  0.51100000000E-03 0. -1.
         11   -1    0    0    0    0 -0.00000000000E+00 -0.00000000000E+00 -0.45593999997E+02  0.45594000000E+02  0.51100000000E-03 0.  1.
    9900012    2    1    2    0    0 -0.18478834808E+02  0.13885183929E+02 -0.33449968061E+02  0.50528855495E+02  0.29999986762E+02 0.  0.
         12    1    1    2    0    0  0.18478834808E+02 -0.13885183929E+02  0.33449968061E+02  0.40659144505E+02  0.00000000000E+00 0. -1.
         11    1    3    3    0    0 -0.10273954559E+02 -0.23558774555E+01  0.16318971044E+01  0.10666179695E+02  0.51100000000E-03 0. -1.
        -11    1    3    3    0    0 -0.57815406803E+01  0.87620518937E+01 -0.15105940612E+02  0.18395358330E+02  0.51100000000E-03 0.  1.
         12    1    3    3    0    0 -0.24233395696E+01  0.74790094912E+01 -0.19975924553E+02  0.21467317471E+02  0.00000000000E+00 0. -1.
</event>
<event>
 7    1  0.5032893E-012  0.5052887E+02  0.7816164E-02  0.1300439E+00
        -11   -1    0    0    0    0  0.00000000000E+00  0.00000000000E+00  0.45593999997E+02  0.45594000000E+02  0.51100000000E-03 0. -1.
         11   -1    0    0    0    0 -0.00000000000E+00 -0.00000000000E+00 -0.45593999997E+02  0.45594000000E+02  0.51100000000E-03 0.  1.
    9900012    2    1    2    0    0  0.82305979514E+01 -0.11301855526E+01  0.39801315890E+02  0.50528870538E+02  0.30000032488E+02 0.  0.
        -12    1    1    2    0    0 -0.82305979514E+01  0.11301855526E+01 -0.39801315890E+02  0.40659129462E+02  0.00000000000E+00 0.  1.
         11    1    3    3    0    0  0.13819880213E+02 -0.89184028826E+01  0.34527152337E+02  0.38244623777E+02  0.51100000000E-03 0. -1.
        -11    1    3    3    0    0 -0.12471332216E+01  0.62764406409E+01  0.38630904910E+01  0.74747920903E+01  0.51100000000E-03 0.  1.
         12    1    3    3    0    0 -0.43421490399E+01  0.15117766891E+01  0.14110730617E+01  0.48094546705E+01  0.00000000000E+00 0. -1.
</event>
<event>
 7    1  0.5006721E-012  0.5052887E+02  0.7816164E-02  0.1300439E+00
        -11   -1    0    0    0    0  0.00000000000E+00  0.00000000000E+00  0.45593999997E+02  0.45594000000E+02  0.51100000000E-03 0. -1.
         11   -1    0    0    0    0 -0.00000000000E+00 -0.00000000000E+00 -0.45593999997E+02  0.45594000000E+02  0.51100000000E-03 0.  1.
    9900012    2    1    2    0    0  0.15977405524E+02 -0.14188556763E+02  0.34591510513E+02  0.50528865357E+02  0.30000016740E+02 0.  0.
        -12    1    1    2    0    0 -0.15977405524E+02  0.14188556763E+02 -0.34591510513E+02  0.40659134643E+02  0.00000000000E+00 0.  1.
         11    1    3    3    0    0 -0.14282049755E+01 -0.28777421009E+01  0.20376023349E+02  0.20627736105E+02  0.51100000000E-03 0. -1.
        -11    1    3    3    0    0 -0.24248580121E-02 -0.19072103335E+00 -0.30031291487E+01  0.30091801770E+01  0.51100000000E-03 0.  1.
         12    1    3    3    0    0  0.17408035358E+02 -0.11120093629E+02  0.17218616313E+02  0.26891949075E+02  0.00000000000E+00 0. -1.
</event>
<event>
 7    1  0.5006721E-012  0.5052886E+02  0.7816164E-02  0.1300439E+00
        -11   -1    0    0    0    0  0.00000000000E+00  0.00000000000E+00  0.45593999997E+02  0.45594000000E+02  0.51100000000E-03 0. -1.
         11   -1    0    0    0    0 -0.00000000000E+00 -0.00000000000E+00 -0.45593999997E+02  0.45594000000E+02  0.51100000000E-03 0.  1.
    9900012    2    1    2    0    0 -0.57526847269E+01  0.39578458403E+02 -0.73224413785E+01  0.50528857131E+02  0.29999991736E+02 0.  0.
         12    1    1    2    0    0  0.57526847269E+01 -0.39578458403E+02  0.73224413785E+01  0.40659142869E+02  0.00000000000E+00 0. -1.
         11    1    3    3    0    0 -0.26573030607E+01  0.58613321028E+01 -0.13312618535E+02  0.14786557615E+02  0.51100000000E-03 0. -1.
        -11    1    3    3    0    0  0.29619171971E+00  0.82394454841E+01  0.57267488104E+01  0.10038517999E+02  0.51100000000E-03 0.  1.
         12    1    3    3    0    0 -0.33915733860E+01  0.25477680816E+02  0.26342834633E+00  0.25703781517E+02  0.00000000000E+00 0. -1.
</event>
<event>
 7    1  0.5006721E-012  0.5052889E+02  0.7816164E-02  0.1300439E+00
        -11   -1    0    0    0    0  0.00000000000E+00  0.00000000000E+00  0.45593999997E+02  0.45594000000E+02  0.51100000000E-03 0. -1.
         11   -1    0    0    0    0 -0.00000000000E+00 -0.00000000000E+00 -0.45593999997E+02  0.45594000000E+02  0.51100000000E-03 0.  1.
    9900012    2    1    2    0    0 -0.21448324683E+02 -0.16008146463E+02 -0.30608360401E+02  0.50528891410E+02  0.30000095929E+02 0.  0.
         12    1    1    2    0    0  0.21448324683E+02  0.16008146463E+02  0.30608360401E+02  0.40659108590E+02  0.00000000000E+00 0. -1.
         11    1    3    3    0    0 -0.97291014289E+01  0.68961323863E+01 -0.78523628512E+01  0.14278363320E+02  0.51100000000E-03 0. -1.
        -11    1    3    3    0    0 -0.91541915740E+01 -0.12911940444E+02 -0.20126168058E+02  0.25604297888E+02  0.51100000000E-03 0.  1.
         12    1    3    3    0    0 -0.25650316805E+01 -0.99923384058E+01 -0.26298294923E+01  0.10646230201E+02  0.00000000000E+00 0. -1.
</event>
<event>
 7    1  0.5006721E-012  0.5052886E+02  0.7816164E-02  0.1300439E+00
        -11   -1    0    0    0    0  0.00000000000E+00  0.00000000000E+00  0.45593999997E+02  0.45594000000E+02  0.51100000000E-03 0.  1.
         11   -1    0    0    0    0 -0.00000000000E+00 -0.00000000000E+00 -0.45593999997E+02  0.45594000000E+02  0.51100000000E-03 0. -1.
    9900012    2    1    2    0    0 -0.26057467638E+02 -0.29162435146E+02  0.11123235379E+02  0.50528860700E+02  0.30000002584E+02 0.  0.
        -12    1    1    2    0    0  0.26057467638E+02  0.29162435146E+02 -0.11123235379E+02  0.40659139300E+02  0.00000000000E+00 0.  1.
         11    1    3    3    0    0 -0.13147041788E+02 -0.16181594670E+02  0.55392687895E+00  0.20856546912E+02  0.51100000000E-03 0. -1.
        -11    1    3    3    0    0 -0.10319367002E+02  0.41865715848E+00  0.12135144516E+02  0.15935066421E+02  0.51100000000E-03 0.  1.
        -12    1    3    3    0    0 -0.25910588475E+01 -0.13399497635E+02 -0.15658360168E+01  0.13737247368E+02  0.00000000000E+00 0.  1.
</event>
<event>
 7    1  0.5006721E-012  0.5052885E+02  0.7816164E-02  0.1300439E+00
        -11   -1    0    0    0    0  0.00000000000E+00  0.00000000000E+00  0.45593999997E+02  0.45594000000E+02  0.51100000000E-03 0. -1.
         11   -1    0    0    0    0 -0.00000000000E+00 -0.00000000000E+00 -0.45593999997E+02  0.45594000000E+02  0.51100000000E-03 0.  1.
    9900012    2    1    2    0    0  0.94450214374E+01  0.13074216690E+02  0.37323217062E+02  0.50528854610E+02  0.29999984072E+02 0.  0.
        -12    1    1    2    0    0 -0.94450214374E+01 -0.13074216690E+02 -0.37323217062E+02  0.40659145390E+02  0.00000000000E+00 0.  1.
         11    1    3    3    0    0  0.81656403777E+01  0.11395750896E+02  0.24957648426E+01  0.14239721334E+02  0.51100000000E-03 0. -1.
        -11    1    3    3    0    0  0.39274330370E+01 -0.29107245135E+01  0.17464446649E+02  0.18135709097E+02  0.51100000000E-03 0.  1.
         12    1    3    3    0    0 -0.26480519773E+01  0.45891903072E+01  0.17363005571E+02  0.18153424178E+02  0.00000000000E+00 0. -1.
</event>
<event>
 7    1  0.5006721E-012  0.5052886E+02  0.7816164E-02  0.1300439E+00
        -11   -1    0    0    0    0  0.00000000000E+00  0.00000000000E+00  0.45593999997E+02  0.45594000000E+02  0.51100000000E-03 0. -1.
         11   -1    0    0    0    0 -0.00000000000E+00 -0.00000000000E+00 -0.45593999997E+02  0.45594000000E+02  0.51100000000E-03 0.  1.
    9900012    2    1    2    0    0 -0.21175040195E+02  0.29024840543E+02 -0.19035281594E+02  0.50528860300E+02  0.30000001368E+02 0.  0.
         12    1    1    2    0    0  0.21175040195E+02 -0.29024840543E+02  0.19035281594E+02  0.40659139700E+02  0.00000000000E+00 0. -1.
         11    1    3    3    0    0  0.53202847555E+01  0.62357757158E+01  0.87299796305E+00  0.82433278694E+01  0.51100000000E-03 0. -1.
        -11    1    3    3    0    0 -0.14394269015E+02  0.13680931724E+02 -0.18386762265E+02  0.27063552985E+02  0.51100000000E-03 0.  1.
         12    1    3    3    0    0 -0.12101055935E+02  0.91081331029E+01 -0.15215172920E+01  0.15221979446E+02  0.00000000000E+00 0. -1.
</event>
<event>
 7    1  0.5006721E-012  0.5052887E+02  0.7816164E-02  0.1300439E+00
        -11   -1    0    0    0    0  0.00000000000E+00  0.00000000000E+00  0.45593999997E+02  0.45594000000E+02  0.51100000000E-03 0. -1.
         11   -1    0    0    0    0 -0.00000000000E+00 -0.00000000000E+00 -0.45593999997E+02  0.45594000000E+02  0.51100000000E-03 0.  1.
    9900012    2    1    2    0    0  0.16671013611E+01 -0.19249836702E+02 -0.35774702843E+02  0.50528870600E+02  0.30000032676E+02 0.  0.
         12    1    1    2    0    0 -0.16671013611E+01  0.19249836702E+02  0.35774702843E+02  0.40659129400E+02  0.00000000000E+00 0. -1.
         11    1    3    3    0    0  0.99644882248E+01 -0.14550139711E+02 -0.58184959470E+01  0.18570204268E+02  0.51100000000E-03 0. -1.
        -11    1    3    3    0    0 -0.45121984386E-01 -0.19465005851E+01 -0.10014583071E+02  0.10202096592E+02  0.51100000000E-03 0.  1.
         12    1    3    3    0    0 -0.82522648793E+01 -0.27531964060E+01 -0.19941623825E+02  0.21756569740E+02  0.00000000000E+00 0. -1.
</event>
<event>
 7    1  0.5006721E-012  0.5052886E+02  0.7816164E-02  0.1300439E+00
        -11   -1    0    0    0    0  0.00000000000E+00  0.00000000000E+00  0.45593999997E+02  0.45594000000E+02  0.51100000000E-03 0. -1.
         11   -1    0    0    0    0 -0.00000000000E+00 -0.00000000000E+00 -0.45593999997E+02  0.45594000000E+02  0.51100000000E-03 0.  1.
    9900012    2    1    2    0    0 -0.40433374381E+00  0.27798735363E+02  0.29668715436E+02  0.50528857742E+02  0.29999993593E+02 0.  0.
        -12    1    1    2    0    0  0.40433374381E+00 -0.27798735363E+02 -0.29668715436E+02  0.40659142258E+02  0.00000000000E+00 0.  1.
         11    1    3    3    0    0 -0.59277131128E+01  0.31255506193E+01  0.41226017539E+01  0.78678265680E+01  0.51100000000E-03 0. -1.
        -11    1    3    3    0    0  0.84943499706E+01  0.28205978065E+02  0.20952446447E+02  0.36148806237E+02  0.51100000000E-03 0.  1.
        -12    1    3    3    0    0 -0.29709706016E+01 -0.35327933209E+01  0.45936672347E+01  0.65122249368E+01  0.00000000000E+00 0.  1.
</event>
<event>
 7    1  0.5006721E-012  0.5052887E+02  0.7816164E-02  0.1300439E+00
        -11   -1    0    0    0    0  0.00000000000E+00  0.00000000000E+00  0.45593999997E+02  0.45594000000E+02  0.51100000000E-03 0. -1.
         11   -1    0    0    0    0 -0.00000000000E+00 -0.00000000000E+00 -0.45593999997E+02  0.45594000000E+02  0.51100000000E-03 0.  1.
    9900012    2    1    2    0    0  0.63573220283E+00  0.52817544100E+01 -0.40309595717E+02  0.50528873203E+02  0.30000040587E+02 0.  0.
         12    1    1    2    0    0 -0.63573220283E+00 -0.52817544100E+01  0.40309595717E+02  0.40659126797E+02  0.00000000000E+00 0. -1.
         11    1    3    3    0    0 -0.55569867230E+01 -0.57952825718E+01 -0.10286368927E+02  0.13048938175E+02  0.51100000000E-03 0. -1.
        -11    1    3    3    0    0  0.78786832449E+00  0.28256742942E+01  0.22729591742E+01  0.37109992431E+01  0.51100000000E-03 0.  1.
        -12    1    3    3    0    0  0.54048506013E+01  0.82513626877E+01 -0.32296185963E+02  0.33768935784E+02  0.00000000000E+00 0.  1.
</event>
<event>
 7    1  0.5006721E-012  0.5052886E+02  0.7816164E-02  0.1300439E+00
        -11   -1    0    0    0    0  0.00000000000E+00  0.00000000000E+00  0.45593999997E+02  0.45594000000E+02  0.51100000000E-03 0. -1.
         11   -1    0    0    0    0 -0.00000000000E+00 -0.00000000000E+00 -0.45593999997E+02  0.45594000000E+02  0.51100000000E-03 0.  1.
    9900012    2    1    2    0    0 -0.30955760441E+02 -0.90287878666E+01  0.24766654904E+02  0.50528864373E+02  0.30000013748E+02 0.  0.
        -12    1    1    2    0    0  0.30955760441E+02  0.90287878666E+01 -0.24766654904E+02  0.40659135627E+02  0.00000000000E+00 0.  1.
         11    1    3    3    0    0 -0.23534035048E+02 -0.14274929887E+01  0.24975304058E+02  0.34346096647E+02  0.51100000000E-03 0. -1.
        -11    1    3    3    0    0 -0.20482845600E+01  0.33819465224E+01 -0.94525076815E-01  0.39549926891E+01  0.51100000000E-03 0.  1.
         12    1    3    3    0    0 -0.53734408323E+01 -0.10983241400E+02 -0.11412407646E+00  0.12227775036E+02  0.00000000000E+00 0. -1.
</event>
<event>
 7    1  0.5006721E-012  0.5052886E+02  0.7816164E-02  0.1300439E+00
        -11   -1    0    0    0    0  0.00000000000E+00  0.00000000000E+00  0.45593999997E+02  0.45594000000E+02  0.51100000000E-03 0. -1.
         11   -1    0    0    0    0 -0.00000000000E+00 -0.00000000000E+00 -0.45593999997E+02  0.45594000000E+02  0.51100000000E-03 0.  1.
    9900012    2    1    2    0    0  0.90348088640E+00  0.28938030336E+02 -0.28547154841E+02  0.50528856785E+02  0.29999990685E+02 0.  0.
         12    1    1    2    0    0 -0.90348088640E+00 -0.28938030336E+02  0.28547154841E+02  0.40659143215E+02  0.00000000000E+00 0. -1.
         11    1    3    3    0    0 -0.52175587023E+01  0.61097649486E+01  0.13438610510E+01  0.81460486940E+01  0.51100000000E-03 0. -1.
        -11    1    3    3    0    0  0.11388831814E+02  0.14989904040E+02 -0.12514257020E+02  0.22605515748E+02  0.51100000000E-03 0.  1.
         12    1    3    3    0    0 -0.52677922254E+01  0.78383613468E+01 -0.17376758872E+02  0.19777292343E+02  0.00000000000E+00 0. -1.
</event>
<event>
 7    1  0.5006721E-012  0.5052884E+02  0.7816164E-02  0.1300439E+00
        -11   -1    0    0    0    0  0.00000000000E+00  0.00000000000E+00  0.45593999997E+02  0.45594000000E+02  0.51100000000E-03 0. -1.
         11   -1    0    0    0    0 -0.00000000000E+00 -0.00000000000E+00 -0.45593999997E+02  0.45594000000E+02  0.51100000000E-03 0.  1.
    9900012    2    1    2    0    0  0.19620841892E+02 -0.35052539745E+02  0.62856394408E+01  0.50528840610E+02  0.29999941518E+02 0.  0.
        -12    1    1    2    0    0 -0.19620841892E+02  0.35052539745E+02 -0.62856394408E+01  0.40659159390E+02  0.00000000000E+00 0.  1.
         11    1    3    3    0    0  0.11734168595E+02 -0.52033797974E+01  0.12199411571E+02  0.17708515377E+02  0.51100000000E-03 0. -1.
        -11    1    3    3    0    0  0.33175370614E+01 -0.12981469920E+02  0.21568104171E+01  0.13571162252E+02  0.51100000000E-03 0.  1.
         12    1    3    3    0    0  0.45691362356E+01 -0.16867690028E+02 -0.80705825473E+01  0.19249162981E+02  0.00000000000E+00 0. -1.
</event>
<event>
 7    1  0.5006721E-012  0.5052886E+02  0.7816164E-02  0.1300439E+00
        -11   -1    0    0    0    0  0.00000000000E+00  0.00000000000E+00  0.45593999997E+02  0.45594000000E+02  0.51100000000E-03 0. -1.
         11   -1    0    0    0    0 -0.00000000000E+00 -0.00000000000E+00 -0.45593999997E+02  0.45594000000E+02  0.51100000000E-03 0.  1.
    9900012    2    1    2    0    0  0.88512936940E+01 -0.63288665514E+01  0.39176088373E+02  0.50528857705E+02  0.29999993482E+02 0.  0.
        -12    1    1    2    0    0 -0.88512936940E+01  0.63288665514E+01 -0.39176088373E+02  0.40659142295E+02  0.00000000000E+00 0.  1.
         11    1    3    3    0    0  0.36456155619E+01 -0.21706606331E+01 -0.29033926065E+01  0.51412030983E+01  0.51100000000E-03 0. -1.
        -11    1    3    3    0    0 -0.51239471002E+01 -0.42858352326E+01  0.16543855995E+02  0.17841591548E+02  0.51100000000E-03 0.  1.
         12    1    3    3    0    0  0.10329625232E+02  0.12762931423E+00  0.25535624985E+02  0.27546063059E+02  0.00000000000E+00 0. -1.
</event>
<event>
 7    1  0.5006721E-012  0.5052887E+02  0.7816164E-02  0.1300439E+00
        -11   -1    0    0    0    0  0.00000000000E+00  0.00000000000E+00  0.45593999997E+02  0.45594000000E+02  0.51100000000E-03 0. -1.
         11   -1    0    0    0    0 -0.00000000000E+00 -0.00000000000E+00 -0.45593999997E+02  0.45594000000E+02  0.51100000000E-03 0.  1.
    9900012    2    1    2    0    0 -0.91780993314E+01 -0.19228703007E+02 -0.34629243177E+02  0.50528868065E+02  0.30000024971E+02 0.  0.
         12    1    1    2    0    0  0.91780993314E+01  0.19228703007E+02  0.34629243177E+02  0.40659131935E+02  0.00000000000E+00 0. -1.
         11    1    3    3    0    0  0.17730665147E+01  0.37635238863E+01 -0.84999493327E+00  0.42462181475E+01  0.51100000000E-03 0. -1.
        -11    1    3    3    0    0 -0.14379655034E+02 -0.22039685064E+02 -0.33654985307E+02  0.42722128141E+02  0.51100000000E-03 0.  1.
        -12    1    3    3    0    0  0.34284891880E+01 -0.95254182883E+00 -0.12426293757E+00  0.35605217771E+01  0.00000000000E+00 0.  1.
</event>
<event>
 7    1  0.5006721E-012  0.5052886E+02  0.7816164E-02  0.1300439E+00
        -11   -1    0    0    0    0  0.00000000000E+00  0.00000000000E+00  0.45593999997E+02  0.45594000000E+02  0.51100000000E-03 0. -1.
         11   -1    0    0    0    0 -0.00000000000E+00 -0.00000000000E+00 -0.45593999997E+02  0.45594000000E+02  0.51100000000E-03 0.  1.
    9900012    2    1    2    0    0 -0.15132797617E+02 -0.32508705290E+02  0.19166338213E+02  0.50528855839E+02  0.29999987809E+02 0.  0.
        -12    1    1    2    0    0  0.15132797617E+02  0.32508705290E+02 -0.19166338213E+02  0.40659144161E+02  0.00000000000E+00 0.  1.
         11    1    3    3    0    0 -0.59082633637E+01 -0.13999423005E+02  0.10164048811E+02  0.18281118919E+02  0.51100000000E-03 0. -1.
        -11    1    3    3    0    0  0.75570687709E+01 -0.37598195337E+01  0.40561048906E+01  0.93646953223E+01  0.51100000000E-03 0.  1.
        -12    1    3    3    0    0 -0.16781603025E+02 -0.14749462752E+02  0.49461845124E+01  0.22883041598E+02  0.00000000000E+00 0.  1.
</event>
<event>
 7    1  0.5006721E-012  0.5052886E+02  0.7816164E-02  0.1300439E+00
        -11   -1    0    0    0    0  0.00000000000E+00  0.00000000000E+00  0.45593999997E+02  0.45594000000E+02  0.51100000000E-03 0. -1.
         11   -1    0    0    0    0 -0.00000000000E+00 -0.00000000000E+00 -0.45593999997E+02  0.45594000000E+02  0.51100000000E-03 0.  1.
    9900012    2    1    2    0    0  0.98911392016E+01  0.17859738683E+02 -0.35161924362E+02  0.50528858035E+02  0.29999994482E+02 0.  0.
         12    1    1    2    0    0 -0.98911392016E+01 -0.17859738683E+02  0.35161924362E+02  0.40659141965E+02  0.00000000000E+00 0. -1.
         11    1    3    3    0    0 -0.21016232857E+01  0.16927500572E+02 -0.14554983961E+02  0.22423306054E+02  0.51100000000E-03 0.  1.
        -11    1    3    3    0    0  0.61545799037E+01 -0.69518041918E+01 -0.94257881695E+01  0.13230718733E+02  0.51100000000E-03 0. -1.
         12    1    3    3    0    0  0.58381825836E+01  0.78840423028E+01 -0.11181152232E+02  0.14874833247E+02  0.00000000000E+00 0. -1.
</event>
<event>
 7    1  0.5006721E-012  0.5052887E+02  0.7816164E-02  0.1300439E+00
        -11   -1    0    0    0    0  0.00000000000E+00  0.00000000000E+00  0.45593999997E+02  0.45594000000E+02  0.51100000000E-03 0.  1.
         11   -1    0    0    0    0 -0.00000000000E+00 -0.00000000000E+00 -0.45593999997E+02  0.45594000000E+02  0.51100000000E-03 0. -1.
    9900012    2    1    2    0    0  0.29893189868E+02 -0.18760559392E+02 -0.20189200586E+02  0.50528865608E+02  0.30000017503E+02 0.  0.
        -12    1    1    2    0    0 -0.29893189868E+02  0.18760559392E+02  0.20189200586E+02  0.40659134392E+02  0.00000000000E+00 0.  1.
         11    1    3    3    0    0  0.44178872794E+01  0.18683773108E+01 -0.21868330091E+01  0.52716980812E+01  0.51100000000E-03 0. -1.
        -11    1    3    3    0    0  0.61357328006E+01 -0.11470749837E+02 -0.19900125676E+02  0.23774783301E+02  0.51100000000E-03 0.  1.
        -12    1    3    3    0    0  0.19339569788E+02 -0.91581868654E+01  0.18977580989E+01  0.21482384226E+02  0.00000000000E+00 0.  1.
</event>
<event>
 7    1  0.5006721E-012  0.5052886E+02  0.7816164E-02  0.1300439E+00
        -11   -1    0    0    0    0  0.00000000000E+00  0.00000000000E+00  0.45593999997E+02  0.45594000000E+02  0.51100000000E-03 0. -1.
         11   -1    0    0    0    0 -0.00000000000E+00 -0.00000000000E+00 -0.45593999997E+02  0.45594000000E+02  0.51100000000E-03 0.  1.
    9900012    2    1    2    0    0 -0.11918519993E+02 -0.31309725867E+02  0.23039432121E+02  0.50528862218E+02  0.30000007198E+02 0.  0.
        -12    1    1    2    0    0  0.11918519993E+02  0.31309725867E+02 -0.23039432121E+02  0.40659137782E+02  0.00000000000E+00 0.  1.
         11    1    3    3    0    0  0.64786189829E+01 -0.71795849663E+01 -0.16352624038E+01  0.98078044232E+01  0.51100000000E-03 0. -1.
        -11    1    3    3    0    0 -0.82579820501E+01 -0.13176651390E+02  0.19460971078E+02  0.24910796955E+02  0.51100000000E-03 0.  1.
         12    1    3    3    0    0 -0.10139156925E+02 -0.10953489511E+02  0.52137234472E+01  0.15810260839E+02  0.00000000000E+00 0. -1.
</event>
<event>
 7    1  0.5006721E-012  0.5052886E+02  0.7816164E-02  0.1300439E+00
        -11   -1    0    0    0    0  0.00000000000E+00  0.00000000000E+00  0.45593999997E+02  0.45594000000E+02  0.51100000000E-03 0. -1.
         11   -1    0    0    0    0 -0.00000000000E+00 -0.00000000000E+00 -0.45593999997E+02  0.45594000000E+02  0.51100000000E-03 0.  1.
    9900012    2    1    2    0    0 -0.23292452894E+02  0.12656013318E+02 -0.30829407016E+02  0.50528863611E+02  0.30000011433E+02 0.  0.
         12    1    1    2    0    0  0.23292452894E+02 -0.12656013318E+02  0.30829407016E+02  0.40659136389E+02  0.00000000000E+00 0. -1.
         11    1    3    3    0    0 -0.93308236615E+01  0.10512304694E+02  0.15603325672E+01  0.14142399307E+02  0.51100000000E-03 0. -1.
        -11    1    3    3    0    0 -0.56450132003E+01  0.52253924776E+01 -0.15892343085E+02  0.17656088739E+02  0.51100000000E-03 0.  1.
         12    1    3    3    0    0 -0.83166160322E+01 -0.30816838532E+01 -0.16497396498E+02  0.18730375565E+02  0.00000000000E+00 0. -1.
</event>
<event>
 7    1  0.5006721E-012  0.5052887E+02  0.7816164E-02  0.1300439E+00
        -11   -1    0    0    0    0  0.00000000000E+00  0.00000000000E+00  0.45593999997E+02  0.45594000000E+02  0.51100000000E-03 0. -1.
         11   -1    0    0    0    0 -0.00000000000E+00 -0.00000000000E+00 -0.45593999997E+02  0.45594000000E+02  0.51100000000E-03 0.  1.
    9900012    2    1    2    0    0 -0.21690433374E+02  0.20389257848E+02 -0.27694182900E+02  0.50528874308E+02  0.30000043948E+02 0.  0.
         12    1    1    2    0    0  0.21690433374E+02 -0.20389257848E+02  0.27694182900E+02  0.40659125692E+02  0.00000000000E+00 0. -1.
         11    1    3    3    0    0  0.69729218975E+01  0.81131638471E+01 -0.84191266723E+01  0.13613477204E+02  0.51100000000E-03 0. -1.
        -11    1    3    3    0    0 -0.19601270160E+02  0.90605106471E+01 -0.11025643177E+02  0.24245978075E+02  0.51100000000E-03 0.  1.
         12    1    3    3    0    0 -0.90620851113E+01  0.32155833533E+01 -0.82494130502E+01  0.12669419029E+02  0.00000000000E+00 0. -1.
</event>
<event>
 7    1  0.5006721E-012  0.5052887E+02  0.7816164E-02  0.1300439E+00
        -11   -1    0    0    0    0  0.00000000000E+00  0.00000000000E+00  0.45593999997E+02  0.45594000000E+02  0.51100000000E-03 0. -1.
         11   -1    0    0    0    0 -0.00000000000E+00 -0.00000000000E+00 -0.45593999997E+02  0.45594000000E+02  0.51100000000E-03 0.  1.
    9900012    2    1    2    0    0  0.24569919614E+02  0.31080958823E+02  0.91355123119E+01  0.50528873886E+02  0.30000042662E+02 0.  0.
        -12    1    1    2    0    0 -0.24569919614E+02 -0.31080958823E+02 -0.91355123119E+01  0.40659126114E+02  0.00000000000E+00 0.  1.
         11    1    3    3    0    0  0.16498537469E+02  0.19405254282E+02 -0.44264022919E+01  0.25852633713E+02  0.51100000000E-03 0. -1.
        -11    1    3    3    0    0 -0.39224146976E+01  0.26555335790E+00  0.15626135229E+01  0.42305575199E+01  0.51100000000E-03 0.  1.
        -12    1    3    3    0    0  0.11993796843E+02  0.11410151183E+02  0.11999301081E+02  0.20445682653E+02  0.00000000000E+00 0.  1.
</event>
<event>
 7    1  0.5006721E-012  0.5052888E+02  0.7816164E-02  0.1300439E+00
        -11   -1    0    0    0    0  0.00000000000E+00  0.00000000000E+00  0.45593999997E+02  0.45594000000E+02  0.51100000000E-03 0. -1.
         11   -1    0    0    0    0 -0.00000000000E+00 -0.00000000000E+00 -0.45593999997E+02  0.45594000000E+02  0.51100000000E-03 0.  1.
    9900012    2    1    2    0    0  0.31142675429E+02 -0.95039440226E+01  0.24351033081E+02  0.50528880519E+02  0.30000062824E+02 0.  0.
        -12    1    1    2    0    0 -0.31142675429E+02  0.95039440226E+01 -0.24351033081E+02  0.40659119481E+02  0.00000000000E+00 0.  1.
         11    1    3    3    0    0  0.31199842326E+02 -0.62408659811E+01  0.28369334213E+02  0.42628601822E+02  0.51100000000E-03 0. -1.
        -11    1    3    3    0    0  0.15056333517E+01 -0.35344393737E+01 -0.47867398223E+01  0.61377578857E+01  0.51100000000E-03 0.  1.
         12    1    3    3    0    0 -0.15628002480E+01  0.27136133224E+00  0.76843869084E+00  0.17625208111E+01  0.00000000000E+00 0. -1.
</event>
<event>
 7    1  0.5006721E-012  0.5052887E+02  0.7816164E-02  0.1300439E+00
        -11   -1    0    0    0    0  0.00000000000E+00  0.00000000000E+00  0.45593999997E+02  0.45594000000E+02  0.51100000000E-03 0. -1.
         11   -1    0    0    0    0 -0.00000000000E+00 -0.00000000000E+00 -0.45593999997E+02  0.45594000000E+02  0.51100000000E-03 0.  1.
    9900012    2    1    2    0    0  0.19031015409E+02  0.11517676722E+02  0.34034228041E+02  0.50528866918E+02  0.30000021485E+02 0.  0.
        -12    1    1    2    0    0 -0.19031015409E+02 -0.11517676722E+02 -0.34034228041E+02  0.40659133082E+02  0.00000000000E+00 0.  1.
         11    1    3    3    0    0  0.20509724868E+00 -0.12038728386E+01  0.69123070368E+00  0.14032729028E+01  0.51100000000E-03 0. -1.
        -11    1    3    3    0    0  0.20292152500E+02  0.12403914360E+02  0.10107369970E+02  0.25841584172E+02  0.51100000000E-03 0.  1.
        -12    1    3    3    0    0 -0.14662343395E+01  0.31763520102E+00  0.23235627367E+02  0.23284009844E+02  0.00000000000E+00 0.  1.
</event>
<event>
 7    1  0.5006721E-012  0.5052886E+02  0.7816164E-02  0.1300439E+00
        -11   -1    0    0    0    0  0.00000000000E+00  0.00000000000E+00  0.45593999997E+02  0.45594000000E+02  0.51100000000E-03 0. -1.
         11   -1    0    0    0    0 -0.00000000000E+00 -0.00000000000E+00 -0.45593999997E+02  0.45594000000E+02  0.51100000000E-03 0.  1.
    9900012    2    1    2    0    0 -0.26632698929E+02  0.21193738193E+02 -0.22241630296E+02  0.50528864384E+02  0.30000013781E+02 0.  0.
         12    1    1    2    0    0  0.26632698929E+02 -0.21193738193E+02  0.22241630296E+02  0.40659135616E+02  0.00000000000E+00 0. -1.
         11    1    3    3    0    0  0.23175289686E+01  0.12735742661E+00  0.16220765139E+01  0.28316590389E+01  0.51100000000E-03 0. -1.
        -11    1    3    3    0    0 -0.14419801275E+02  0.22465125171E+02 -0.15810886922E+02  0.31025741946E+02  0.51100000000E-03 0.  1.
        -12    1    3    3    0    0 -0.14530426622E+02 -0.13987444044E+01 -0.80528198876E+01  0.16671463399E+02  0.00000000000E+00 0.  1.
</event>
<event>
 7    1  0.5006721E-012  0.5052886E+02  0.7816164E-02  0.1300439E+00
        -11   -1    0    0    0    0  0.00000000000E+00  0.00000000000E+00  0.45593999997E+02  0.45594000000E+02  0.51100000000E-03 0. -1.
         11   -1    0    0    0    0 -0.00000000000E+00 -0.00000000000E+00 -0.45593999997E+02  0.45594000000E+02  0.51100000000E-03 0.  1.
    9900012    2    1    2    0    0 -0.24801597835E+02  0.14972314434E+02 -0.28528510845E+02  0.50528863441E+02  0.30000010915E+02 0.  0.
         12    1    1    2    0    0  0.24801597835E+02 -0.14972314434E+02  0.28528510845E+02  0.40659136559E+02  0.00000000000E+00 0. -1.
         11    1    3    3    0    0 -0.72308752418E+01  0.14185406609E+02  0.94584072040E+00  0.15950107597E+02  0.51100000000E-03 0. -1.
        -11    1    3    3    0    0 -0.66549146725E+01 -0.75325783584E+00 -0.14616672747E+02  0.16078010111E+02  0.51100000000E-03 0.  1.
         12    1    3    3    0    0 -0.10915807920E+02  0.15401656614E+01 -0.14857678819E+02  0.18500745733E+02  0.00000000000E+00 0. -1.
</event>
<event>
 7    1  0.5006721E-012  0.5052886E+02  0.7816164E-02  0.1300439E+00
        -11   -1    0    0    0    0  0.00000000000E+00  0.00000000000E+00  0.45593999997E+02  0.45594000000E+02  0.51100000000E-03 0. -1.
         11   -1    0    0    0    0 -0.00000000000E+00 -0.00000000000E+00 -0.45593999997E+02  0.45594000000E+02  0.51100000000E-03 0.  1.
    9900012    2    1    2    0    0 -0.52490531317E+01  0.26703452705E+02 -0.30208260352E+02  0.50528856642E+02  0.29999990249E+02 0.  0.
         12    1    1    2    0    0  0.52490531317E+01 -0.26703452705E+02  0.30208260352E+02  0.40659143358E+02  0.00000000000E+00 0. -1.
         11    1    3    3    0    0 -0.66631547848E+01 -0.11588671782E+01  0.19024651682E+01  0.70256657193E+01  0.51100000000E-03 0. -1.
        -11    1    3    3    0    0  0.12564065208E+00  0.27770515076E+02 -0.29087999948E+02  0.40216029570E+02  0.51100000000E-03 0.  1.
         12    1    3    3    0    0  0.12884610010E+01  0.91804807219E-01 -0.30227255721E+01  0.32871613525E+01  0.00000000000E+00 0. -1.
</event>
<event>
 7    1  0.5006721E-012  0.5052886E+02  0.7816164E-02  0.1300439E+00
        -11   -1    0    0    0    0  0.00000000000E+00  0.00000000000E+00  0.45593999997E+02  0.45594000000E+02  0.51100000000E-03 0. -1.
         11   -1    0    0    0    0 -0.00000000000E+00 -0.00000000000E+00 -0.45593999997E+02  0.45594000000E+02  0.51100000000E-03 0.  1.
    9900012    2    1    2    0    0  0.29140884075E+02  0.20424558209E+02  0.19667528116E+02  0.50528863697E+02  0.30000011694E+02 0.  0.
        -12    1    1    2    0    0 -0.29140884075E+02 -0.20424558209E+02 -0.19667528116E+02  0.40659136303E+02  0.00000000000E+00 0.  1.
         11    1    3    3    0    0 -0.68932871615E+00  0.62078179775E+01 -0.77270453896E-01  0.62464509207E+01  0.51100000000E-03 0. -1.
        -11    1    3    3    0    0  0.30843229898E+02  0.17273424540E+02  0.14673584439E+02  0.38275189176E+02  0.51100000000E-03 0.  1.
        -12    1    3    3    0    0 -0.10130171074E+01 -0.30566843086E+01  0.50712141316E+01  0.60072236009E+01  0.00000000000E+00 0.  1.
</event>
<event>
 7    1  0.5006721E-012  0.5052886E+02  0.7816164E-02  0.1300439E+00
        -11   -1    0    0    0    0  0.00000000000E+00  0.00000000000E+00  0.45593999997E+02  0.45594000000E+02  0.51100000000E-03 0.  1.
         11   -1    0    0    0    0 -0.00000000000E+00 -0.00000000000E+00 -0.45593999997E+02  0.45594000000E+02  0.51100000000E-03 0. -1.
    9900012    2    1    2    0    0  0.16075928568E+02  0.34486966772E+02  0.14331048932E+02  0.50528864249E+02  0.30000013372E+02 0.  0.
        -12    1    1    2    0    0 -0.16075928568E+02 -0.34486966772E+02 -0.14331048932E+02  0.40659135751E+02  0.00000000000E+00 0.  1.
         11    1    3    3    0    0  0.65293222102E+01  0.18739868939E+02  0.10068017057E+02  0.22252633644E+02  0.51100000000E-03 0. -1.
        -11    1    3    3    0    0 -0.19239944227E+01 -0.33410522916E+01 -0.29642983660E+01  0.48632756469E+01  0.51100000000E-03 0.  1.
        -12    1    3    3    0    0  0.11470600781E+02  0.19088150125E+02  0.72273302416E+01  0.23412954959E+02  0.00000000000E+00 0.  1.
</event>
<event>
 7    1  0.5006721E-012  0.5052886E+02  0.7816164E-02  0.1300439E+00
        -11   -1    0    0    0    0  0.00000000000E+00  0.00000000000E+00  0.45593999997E+02  0.45594000000E+02  0.51100000000E-03 0. -1.
         11   -1    0    0    0    0 -0.00000000000E+00 -0.00000000000E+00 -0.45593999997E+02  0.45594000000E+02  0.51100000000E-03 0.  1.
    9900012    2    1    2    0    0  0.32568680803E+02  0.10891279091E+02 -0.21767561380E+02  0.50528860093E+02  0.30000000740E+02 0.  0.
         12    1    1    2    0    0 -0.32568680803E+02 -0.10891279091E+02  0.21767561380E+02  0.40659139907E+02  0.00000000000E+00 0. -1.
         11    1    3    3    0    0 -0.45673935379E+01  0.11016306123E+01  0.18634666688E+01  0.50544220266E+01  0.51100000000E-03 0. -1.
        -11    1    3    3    0    0  0.25598032381E+02  0.39041562262E+01 -0.15380390344E+02  0.30117405350E+02  0.51100000000E-03 0.  1.
         12    1    3    3    0    0  0.11538041960E+02  0.58854922528E+01 -0.82506377044E+01  0.15357032717E+02  0.00000000000E+00 0. -1.
</event>
<event>
 7    1  0.5006721E-012  0.5052886E+02  0.7816164E-02  0.1300439E+00
        -11   -1    0    0    0    0  0.00000000000E+00  0.00000000000E+00  0.45593999997E+02  0.45594000000E+02  0.51100000000E-03 0. -1.
         11   -1    0    0    0    0 -0.00000000000E+00 -0.00000000000E+00 -0.45593999997E+02  0.45594000000E+02  0.51100000000E-03 0.  1.
    9900012    2    1    2    0    0  0.15116033877E+02 -0.37216177845E+02 -0.62950362712E+01  0.50528857667E+02  0.29999993365E+02 0.  0.
         12    1    1    2    0    0 -0.15116033877E+02  0.37216177845E+02  0.62950362712E+01  0.40659142333E+02  0.00000000000E+00 0. -1.
         11    1    3    3    0    0  0.13392161505E+02 -0.85121893672E+01  0.46767716672E+01  0.16543263012E+02  0.51100000000E-03 0. -1.
        -11    1    3    3    0    0 -0.37664531445E+01 -0.16635436856E+02 -0.11737318248E+02  0.20704795788E+02  0.51100000000E-03 0.  1.
        -12    1    3    3    0    0  0.54903255169E+01 -0.12068551622E+02  0.76551031006E+00  0.13280798868E+02  0.00000000000E+00 0.  1.
</event>
<event>
 7    1  0.5006721E-012  0.5052888E+02  0.7816164E-02  0.1300439E+00
        -11   -1    0    0    0    0  0.00000000000E+00  0.00000000000E+00  0.45593999997E+02  0.45594000000E+02  0.51100000000E-03 0. -1.
         11   -1    0    0    0    0 -0.00000000000E+00 -0.00000000000E+00 -0.45593999997E+02  0.45594000000E+02  0.51100000000E-03 0.  1.
    9900012    2    1    2    0    0 -0.22708865846E+02 -0.22633586331E+01  0.33650391328E+02  0.50528877815E+02  0.30000054607E+02 0.  0.
        -12    1    1    2    0    0  0.22708865846E+02  0.22633586331E+01 -0.33650391328E+02  0.40659122185E+02  0.00000000000E+00 0.  1.
         11    1    3    3    0    0 -0.20886845499E+02  0.18753026715E+01  0.13657816769E+02  0.25026246905E+02  0.51100000000E-03 0. -1.
        -11    1    3    3    0    0 -0.17730012223E+01 -0.70501106564E+01  0.21153563228E+02  0.22367852626E+02  0.51100000000E-03 0.  1.
         12    1    3    3    0    0 -0.49019124786E-01  0.29114493518E+01 -0.11609886686E+01  0.31347782843E+01  0.00000000000E+00 0. -1.
</event>
<event>
 7    1  0.5006721E-012  0.5052887E+02  0.7816164E-02  0.1300439E+00
        -11   -1    0    0    0    0  0.00000000000E+00  0.00000000000E+00  0.45593999997E+02  0.45594000000E+02  0.51100000000E-03 0. -1.
         11   -1    0    0    0    0 -0.00000000000E+00 -0.00000000000E+00 -0.45593999997E+02  0.45594000000E+02  0.51100000000E-03 0.  1.
    9900012    2    1    2    0    0  0.39752409528E+02  0.56709518311E+01 -0.63836805512E+01  0.50528866521E+02  0.30000020276E+02 0.  0.
         12    1    1    2    0    0 -0.39752409528E+02 -0.56709518311E+01  0.63836805512E+01  0.40659133479E+02  0.00000000000E+00 0. -1.
         11    1    3    3    0    0  0.13954943622E+02  0.14682806367E+02 -0.33350427651E+01  0.20529192989E+02  0.51100000000E-03 0. -1.
        -11    1    3    3    0    0  0.14877414582E+02 -0.27502656649E+00 -0.53780378887E+01  0.15822022502E+02  0.51100000000E-03 0.  1.
         12    1    3    3    0    0  0.10920051324E+02 -0.87368279690E+01  0.23294001025E+01  0.14177651029E+02  0.00000000000E+00 0. -1.
</event>
<event>
 7    1  0.5006721E-012  0.5052890E+02  0.7816164E-02  0.1300439E+00
        -11   -1    0    0    0    0  0.00000000000E+00  0.00000000000E+00  0.45593999997E+02  0.45594000000E+02  0.51100000000E-03 0. -1.
         11   -1    0    0    0    0 -0.00000000000E+00 -0.00000000000E+00 -0.45593999997E+02  0.45594000000E+02  0.51100000000E-03 0.  1.
    9900012    2    1    2    0    0  0.19654355038E+02  0.20057663948E+01  0.35536537666E+02  0.50528901632E+02  0.30000127002E+02 0.  0.
        -12    1    1    2    0    0 -0.19654355038E+02 -0.20057663948E+01 -0.35536537666E+02  0.40659098368E+02  0.00000000000E+00 0.  1.
         11    1    3    3    0    0  0.18968894020E+01  0.48516625557E+01  0.12773771413E+02  0.13795146079E+02  0.51100000000E-03 0. -1.
        -11    1    3    3    0    0  0.96641796664E+01 -0.12375889402E+02  0.88341453118E+01  0.18016690339E+02  0.51100000000E-03 0.  1.
        -12    1    3    3    0    0  0.80932859698E+01  0.95299932406E+01  0.13928620941E+02  0.18717065215E+02  0.00000000000E+00 0.  1.
</event>
<event>
 7    1  0.5006721E-012  0.5052887E+02  0.7816164E-02  0.1300439E+00
        -11   -1    0    0    0    0  0.00000000000E+00  0.00000000000E+00  0.45593999997E+02  0.45594000000E+02  0.51100000000E-03 0. -1.
         11   -1    0    0    0    0 -0.00000000000E+00 -0.00000000000E+00 -0.45593999997E+02  0.45594000000E+02  0.51100000000E-03 0.  1.
    9900012    2    1    2    0    0 -0.10245168674E+02  0.26550056179E+02  0.29039560765E+02  0.50528867524E+02  0.30000023325E+02 0.  0.
        -12    1    1    2    0    0  0.10245168674E+02 -0.26550056179E+02 -0.29039560765E+02  0.40659132476E+02  0.00000000000E+00 0.  1.
         11    1    3    3    0    0  0.48581803672E+01  0.30599431064E+01  0.15875152340E+02  0.16881517419E+02  0.51100000000E-03 0.  1.
        -11    1    3    3    0    0 -0.13261883802E+02  0.90030963233E+01  0.93380382450E+01  0.18550802244E+02  0.51100000000E-03 0. -1.
         12    1    3    3    0    0 -0.18414652391E+01  0.14487016750E+02  0.38263701799E+01  0.15096547860E+02  0.00000000000E+00 0. -1.
</event>
<event>
 7    1  0.5006721E-012  0.5052886E+02  0.7816164E-02  0.1300439E+00
        -11   -1    0    0    0    0  0.00000000000E+00  0.00000000000E+00  0.45593999997E+02  0.45594000000E+02  0.51100000000E-03 0.  1.
         11   -1    0    0    0    0 -0.00000000000E+00 -0.00000000000E+00 -0.45593999997E+02  0.45594000000E+02  0.51100000000E-03 0. -1.
    9900012    2    1    2    0    0  0.29810088721E+02  0.26016566931E+02  0.93628095377E+01  0.50528863919E+02  0.30000012367E+02 0.  0.
        -12    1    1    2    0    0 -0.29810088721E+02 -0.26016566931E+02 -0.93628095377E+01  0.40659136081E+02  0.00000000000E+00 0.  1.
         11    1    3    3    0    0  0.12079921374E+02  0.24996558739E+02  0.15287128010E+00  0.27762849621E+02  0.51100000000E-03 0. -1.
        -11    1    3    3    0    0  0.11387426199E+01  0.17554923033E+01  0.53087458129E+01  0.57062483602E+01  0.51100000000E-03 0.  1.
         12    1    3    3    0    0  0.16591424727E+02 -0.73548411128E+00  0.39011924447E+01  0.17059765937E+02  0.00000000000E+00 0. -1.
</event>
<event>
 7    1  0.5006721E-012  0.5052885E+02  0.7816164E-02  0.1300439E+00
        -11   -1    0    0    0    0  0.00000000000E+00  0.00000000000E+00  0.45593999997E+02  0.45594000000E+02  0.51100000000E-03 0. -1.
         11   -1    0    0    0    0 -0.00000000000E+00 -0.00000000000E+00 -0.45593999997E+02  0.45594000000E+02  0.51100000000E-03 0.  1.
    9900012    2    1    2    0    0  0.55134306520E+01 -0.39038021747E+01 -0.40094000957E+02  0.50528849717E+02  0.29999969199E+02 0.  0.
         12    1    1    2    0    0 -0.55134306520E+01  0.39038021747E+01  0.40094000957E+02  0.40659150283E+02  0.00000000000E+00 0. -1.
         11    1    3    3    0    0  0.34275789684E+00 -0.77601602932E+01 -0.53488383257E+01  0.94312057791E+01  0.51100000000E-03 0. -1.
        -11    1    3    3    0    0 -0.67634458252E+01  0.28747290221E+01 -0.23677645941E+02  0.24791917715E+02  0.51100000000E-03 0.  1.
        -12    1    3    3    0    0  0.11934118580E+02  0.98162909640E+00 -0.11067516690E+02  0.16305726223E+02  0.00000000000E+00 0.  1.
</event>
<event>
 7    1  0.5006721E-012  0.5052886E+02  0.7816164E-02  0.1300439E+00
        -11   -1    0    0    0    0  0.00000000000E+00  0.00000000000E+00  0.45593999997E+02  0.45594000000E+02  0.51100000000E-03 0.  1.
         11   -1    0    0    0    0 -0.00000000000E+00 -0.00000000000E+00 -0.45593999997E+02  0.45594000000E+02  0.51100000000E-03 0. -1.
    9900012    2    1    2    0    0 -0.31237143174E+02 -0.23419502381E+02 -0.11354875042E+02  0.50528863356E+02  0.30000010657E+02 0.  0.
         12    1    1    2    0    0  0.31237143174E+02  0.23419502381E+02  0.11354875042E+02  0.40659136644E+02  0.00000000000E+00 0. -1.
         11    1    3    3    0    0 -0.22297892060E+02 -0.12279704807E+01 -0.10869494881E+02  0.24836461524E+02  0.51100000000E-03 0. -1.
        -11    1    3    3    0    0 -0.77098758511E+01 -0.69797595538E+01 -0.76946128226E+00  0.10428389137E+02  0.51100000000E-03 0.  1.
         12    1    3    3    0    0 -0.12293752626E+01 -0.15211772346E+02  0.28408112147E+00  0.15264012695E+02  0.00000000000E+00 0. -1.
</event>
<event>
 7    1  0.5006721E-012  0.5052887E+02  0.7816164E-02  0.1300439E+00
        -11   -1    0    0    0    0  0.00000000000E+00  0.00000000000E+00  0.45593999997E+02  0.45594000000E+02  0.51100000000E-03 0. -1.
         11   -1    0    0    0    0 -0.00000000000E+00 -0.00000000000E+00 -0.45593999997E+02  0.45594000000E+02  0.51100000000E-03 0.  1.
    9900012    2    1    2    0    0 -0.16936552013E+02  0.62823052132E+01  0.36425959091E+02  0.50528872506E+02  0.30000038469E+02 0.  0.
        -12    1    1    2    0    0  0.16936552013E+02 -0.62823052132E+01 -0.36425959091E+02  0.40659127494E+02  0.00000000000E+00 0.  1.
         11    1    3    3    0    0 -0.16431576839E+01  0.69118989516E+01  0.63370472125E+01  0.95201093442E+01  0.51100000000E-03 0. -1.
        -11    1    3    3    0    0 -0.17727739955E+02 -0.65778535757E+01  0.13543008000E+02  0.23258417563E+02  0.51100000000E-03 0.  1.
        -12    1    3    3    0    0  0.24343456259E+01  0.59482598372E+01  0.16545903879E+02  0.17750345599E+02  0.00000000000E+00 0.  1.
</event>
<event>
 7    1  0.5006721E-012  0.5052888E+02  0.7816164E-02  0.1300439E+00
        -11   -1    0    0    0    0  0.00000000000E+00  0.00000000000E+00  0.45593999997E+02  0.45594000000E+02  0.51100000000E-03 0. -1.
         11   -1    0    0    0    0 -0.00000000000E+00 -0.00000000000E+00 -0.45593999997E+02  0.45594000000E+02  0.51100000000E-03 0.  1.
    9900012    2    1    2    0    0 -0.12629244952E+01  0.71890443872E+01 -0.39998588292E+02  0.50528875528E+02  0.30000047654E+02 0.  0.
         12    1    1    2    0    0  0.12629244952E+01 -0.71890443872E+01  0.39998588292E+02  0.40659124472E+02  0.00000000000E+00 0. -1.
         11    1    3    3    0    0  0.65556447746E+01  0.13650086567E+02 -0.23406019650E+02  0.27877286414E+02  0.51100000000E-03 0. -1.
        -11    1    3    3    0    0 -0.11549379328E+01 -0.69286047063E+01 -0.13651850607E+02  0.15352930341E+02  0.51100000000E-03 0.  1.
         12    1    3    3    0    0 -0.66636313370E+01  0.46756252683E+00 -0.29407180349E+01  0.72986587722E+01  0.00000000000E+00 0. -1.
</event>
<event>
 7    1  0.1034423E-011  0.5052886E+02  0.7816164E-02  0.1300439E+00
        -11   -1    0    0    0    0  0.00000000000E+00  0.00000000000E+00  0.45593999997E+02  0.45594000000E+02  0.51100000000E-03 0. -1.
         11   -1    0    0    0    0 -0.00000000000E+00 -0.00000000000E+00 -0.45593999997E+02  0.45594000000E+02  0.51100000000E-03 0.  1.
    9900012    2    1    2    0    0  0.20535095482E+01  0.13134442262E+02  0.38424411369E+02  0.50528857559E+02  0.29999993036E+02 0.  0.
        -12    1    1    2    0    0 -0.20535095482E+01 -0.13134442262E+02 -0.38424411369E+02  0.40659142441E+02  0.00000000000E+00 0.  1.
         11    1    3    3    0    0 -0.43643663615E+01  0.28790210299E+01  0.23960448418E+02  0.24524264402E+02  0.51100000000E-03 0. -1.
        -11    1    3    3    0    0  0.83931537348E+01 -0.15489184321E+01  0.20848939700E+01  0.87858386653E+01  0.51100000000E-03 0.  1.
         12    1    3    3    0    0 -0.19752778250E+01  0.11804339664E+02  0.12379068981E+02  0.17218754491E+02  0.00000000000E+00 0. -1.
</event>
<event>
 7    1  0.5006721E-012  0.5052886E+02  0.7816164E-02  0.1300439E+00
        -11   -1    0    0    0    0  0.00000000000E+00  0.00000000000E+00  0.45593999997E+02  0.45594000000E+02  0.51100000000E-03 0. -1.
         11   -1    0    0    0    0 -0.00000000000E+00 -0.00000000000E+00 -0.45593999997E+02  0.45594000000E+02  0.51100000000E-03 0.  1.
    9900012    2    1    2    0    0  0.66601375327E+01  0.27693268189E+01 -0.40014232511E+02  0.50528863186E+02  0.30000010141E+02 0.  0.
         12    1    1    2    0    0 -0.66601375327E+01 -0.27693268189E+01  0.40014232511E+02  0.40659136814E+02  0.00000000000E+00 0. -1.
         11    1    3    3    0    0  0.39449398717E+01  0.13058548950E+02 -0.62817925688E+01  0.15018294491E+02  0.51100000000E-03 0. -1.
        -11    1    3    3    0    0  0.28474561332E+01 -0.47472498888E+01 -0.15877920362E+02  0.16815253291E+02  0.51100000000E-03 0.  1.
         12    1    3    3    0    0 -0.13225847213E+00 -0.55419722428E+01 -0.17854519580E+02  0.18695315405E+02  0.00000000000E+00 0. -1.
</event>
<event>
 7    1  0.5006721E-012  0.5052886E+02  0.7816164E-02  0.1300439E+00
        -11   -1    0    0    0    0  0.00000000000E+00  0.00000000000E+00  0.45593999997E+02  0.45594000000E+02  0.51100000000E-03 0. -1.
         11   -1    0    0    0    0 -0.00000000000E+00 -0.00000000000E+00 -0.45593999997E+02  0.45594000000E+02  0.51100000000E-03 0.  1.
    9900012    2    1    2    0    0 -0.14407700671E+02  0.66350597674E+01 -0.37437411111E+02  0.50528860714E+02  0.30000002627E+02 0.  0.
         12    1    1    2    0    0  0.14407700671E+02 -0.66350597674E+01  0.37437411111E+02  0.40659139286E+02  0.00000000000E+00 0. -1.
         11    1    3    3    0    0 -0.13566937274E+02  0.57095783455E+01 -0.16397129715E+02  0.22034675741E+02  0.51100000000E-03 0.  1.
        -11    1    3    3    0    0  0.66229794685E+01 -0.43415693926E+01 -0.33782975920E+01  0.86096444010E+01  0.51100000000E-03 0. -1.
         12    1    3    3    0    0 -0.74637428657E+01  0.52670508145E+01 -0.17661983805E+02  0.19884540572E+02  0.00000000000E+00 0. -1.
</event>
<event>
 7    1  0.5006721E-012  0.5052886E+02  0.7816164E-02  0.1300439E+00
        -11   -1    0    0    0    0  0.00000000000E+00  0.00000000000E+00  0.45593999997E+02  0.45594000000E+02  0.51100000000E-03 0. -1.
         11   -1    0    0    0    0 -0.00000000000E+00 -0.00000000000E+00 -0.45593999997E+02  0.45594000000E+02  0.51100000000E-03 0.  1.
    9900012    2    1    2    0    0  0.11457002638E+02  0.21111399405E+02  0.32805666578E+02  0.50528857683E+02  0.29999993414E+02 0.  0.
        -12    1    1    2    0    0 -0.11457002638E+02 -0.21111399405E+02 -0.32805666578E+02  0.40659142317E+02  0.00000000000E+00 0.  1.
         11    1    3    3    0    0  0.18329233210E+02  0.58541493254E+01  0.23894339196E+02  0.30678515288E+02  0.51100000000E-03 0. -1.
        -11    1    3    3    0    0 -0.68457284117E+01  0.13508063007E+02  0.96439292022E+01  0.17953749871E+02  0.51100000000E-03 0.  1.
         12    1    3    3    0    0 -0.26502159685E-01  0.17491870719E+01 -0.73260182030E+00  0.18965925245E+01  0.00000000000E+00 0. -1.
</event>
<event>
 7    1  0.5006721E-012  0.5052886E+02  0.7816164E-02  0.1300439E+00
        -11   -1    0    0    0    0  0.00000000000E+00  0.00000000000E+00  0.45593999997E+02  0.45594000000E+02  0.51100000000E-03 0. -1.
         11   -1    0    0    0    0 -0.00000000000E+00 -0.00000000000E+00 -0.45593999997E+02  0.45594000000E+02  0.51100000000E-03 0.  1.
    9900012    2    1    2    0    0 -0.30418800957E+02  0.54171122997E+01  0.26429471650E+02  0.50528861678E+02  0.30000005557E+02 0.  0.
        -12    1    1    2    0    0  0.30418800957E+02 -0.54171122997E+01 -0.26429471650E+02  0.40659138322E+02  0.00000000000E+00 0.  1.
         11    1    3    3    0    0  0.26989028955E+01  0.53885225605E+01  0.10890492212E+02  0.12446809756E+02  0.51100000000E-03 0.  1.
        -11    1    3    3    0    0 -0.24838801060E+02 -0.17500707486E+01  0.16006574340E+02  0.29601337944E+02  0.51100000000E-03 0. -1.
        -12    1    3    3    0    0 -0.82789027932E+01  0.17786604878E+01 -0.46759490155E+00  0.84807139783E+01  0.00000000000E+00 0.  1.
</event>
<event>
 7    1  0.5006721E-012  0.5052884E+02  0.7816164E-02  0.1300439E+00
        -11   -1    0    0    0    0  0.00000000000E+00  0.00000000000E+00  0.45593999997E+02  0.45594000000E+02  0.51100000000E-03 0. -1.
         11   -1    0    0    0    0 -0.00000000000E+00 -0.00000000000E+00 -0.45593999997E+02  0.45594000000E+02  0.51100000000E-03 0.  1.
    9900012    2    1    2    0    0 -0.11436390130E+02 -0.10848388779E+02 -0.37479178828E+02  0.50528838622E+02  0.29999935476E+02 0.  0.
         12    1    1    2    0    0  0.11436390130E+02  0.10848388779E+02  0.37479178828E+02  0.40659161378E+02  0.00000000000E+00 0. -1.
         11    1    3    3    0    0 -0.27520746221E+01 -0.11959395080E+02 -0.34206203684E+02  0.36340960584E+02  0.51100000000E-03 0.  1.
        -11    1    3    3    0    0  0.67096958605E+00 -0.31426955494E+01 -0.21123506456E+01  0.38456158171E+01  0.51100000000E-03 0. -1.
         12    1    3    3    0    0 -0.93552850943E+01  0.42537018507E+01 -0.11606244987E+01  0.10342262221E+02  0.00000000000E+00 0. -1.
</event>
<event>
 7    1  0.5006721E-012  0.5052887E+02  0.7816164E-02  0.1300439E+00
        -11   -1    0    0    0    0  0.00000000000E+00  0.00000000000E+00  0.45593999997E+02  0.45594000000E+02  0.51100000000E-03 0. -1.
         11   -1    0    0    0    0 -0.00000000000E+00 -0.00000000000E+00 -0.45593999997E+02  0.45594000000E+02  0.51100000000E-03 0.  1.
    9900012    2    1    2    0    0  0.18302135679E+02 -0.15429723257E+02 -0.32865188123E+02  0.50528866702E+02  0.30000020827E+02 0.  0.
         12    1    1    2    0    0 -0.18302135679E+02  0.15429723257E+02  0.32865188123E+02  0.40659133298E+02  0.00000000000E+00 0. -1.
         11    1    3    3    0    0  0.89251629466E+01  0.29782443867E+01 -0.24920409287E+01  0.97333828396E+01  0.51100000000E-03 0. -1.
        -11    1    3    3    0    0  0.14180175653E+01 -0.17990230370E+02 -0.14947552620E+02  0.23432637329E+02  0.51100000000E-03 0.  1.
         12    1    3    3    0    0  0.79589551670E+01 -0.41773727358E+00 -0.15425594574E+02  0.17362846533E+02  0.00000000000E+00 0. -1.
</event>
<event>
 7    1  0.5006721E-012  0.5052885E+02  0.7816164E-02  0.1300439E+00
        -11   -1    0    0    0    0  0.00000000000E+00  0.00000000000E+00  0.45593999997E+02  0.45594000000E+02  0.51100000000E-03 0. -1.
         11   -1    0    0    0    0 -0.00000000000E+00 -0.00000000000E+00 -0.45593999997E+02  0.45594000000E+02  0.51100000000E-03 0.  1.
    9900012    2    1    2    0    0 -0.12255242478E+02 -0.33890560195E+02  0.18825650202E+02  0.50528854115E+02  0.29999982569E+02 0.  0.
        -12    1    1    2    0    0  0.12255242478E+02  0.33890560195E+02 -0.18825650202E+02  0.40659145885E+02  0.00000000000E+00 0.  1.
         11    1    3    3    0    0 -0.59314708636E+01 -0.18964867378E+02  0.69108533131E+01  0.21038261217E+02  0.51100000000E-03 0. -1.
        -11    1    3    3    0    0  0.21583813318E+01 -0.49909592423E+00 -0.51394901476E+01  0.55966120067E+01  0.51100000000E-03 0.  1.
        -12    1    3    3    0    0 -0.84821529464E+01 -0.14426596894E+02  0.17054287036E+02  0.23893980892E+02  0.00000000000E+00 0.  1.
</event>
<event>
 7    1  0.6427281E-012  0.5052886E+02  0.7816164E-02  0.1300439E+00
        -11   -1    0    0    0    0  0.00000000000E+00  0.00000000000E+00  0.45593999997E+02  0.45594000000E+02  0.51100000000E-03 0. -1.
         11   -1    0    0    0    0 -0.00000000000E+00 -0.00000000000E+00 -0.45593999997E+02  0.45594000000E+02  0.51100000000E-03 0.  1.
    9900012    2    1    2    0    0 -0.40996287693E+01  0.88559655431E+01  0.39470627847E+02  0.50528861490E+02  0.30000004986E+02 0.  0.
        -12    1    1    2    0    0  0.40996287693E+01 -0.88559655431E+01 -0.39470627847E+02  0.40659138510E+02  0.00000000000E+00 0.  1.
         11    1    3    3    0    0  0.95065889479E+01 -0.21228660165E+01  0.87389461054E+01  0.13086289499E+02  0.51100000000E-03 0. -1.
        -11    1    3    3    0    0 -0.69573843830E+01  0.41510587558E+01  0.39450657721E+01  0.90111059507E+01  0.51100000000E-03 0.  1.
         12    1    3    3    0    0 -0.66488333342E+01  0.68277728038E+01  0.26786615969E+02  0.28431466041E+02  0.00000000000E+00 0. -1.
</event>
<event>
 7    1  0.5006721E-012  0.5052885E+02  0.7816164E-02  0.1300439E+00
        -11   -1    0    0    0    0  0.00000000000E+00  0.00000000000E+00  0.45593999997E+02  0.45594000000E+02  0.51100000000E-03 0.  1.
         11   -1    0    0    0    0 -0.00000000000E+00 -0.00000000000E+00 -0.45593999997E+02  0.45594000000E+02  0.51100000000E-03 0. -1.
    9900012    2    1    2    0    0 -0.39445277383E+02 -0.91770393470E+01  0.36080965903E+01  0.50528851951E+02  0.29999975991E+02 0.  0.
        -12    1    1    2    0    0  0.39445277383E+02  0.91770393470E+01 -0.36080965903E+01  0.40659148049E+02  0.00000000000E+00 0.  1.
         11    1    3    3    0    0 -0.19856036096E+02  0.12994842464E+01  0.22231101316E+01  0.20022313745E+02  0.51100000000E-03 0. -1.
        -11    1    3    3    0    0 -0.15271060127E+02 -0.14218665962E+02 -0.54813605284E+01  0.21573619368E+02  0.51100000000E-03 0.  1.
         12    1    3    3    0    0 -0.43181811600E+01  0.37421423682E+01  0.68663469871E+01  0.89329188389E+01  0.00000000000E+00 0. -1.
</event>
<event>
 7    1  0.5006721E-012  0.5052886E+02  0.7816164E-02  0.1300439E+00
        -11   -1    0    0    0    0  0.00000000000E+00  0.00000000000E+00  0.45593999997E+02  0.45594000000E+02  0.51100000000E-03 0. -1.
         11   -1    0    0    0    0 -0.00000000000E+00 -0.00000000000E+00 -0.45593999997E+02  0.45594000000E+02  0.51100000000E-03 0.  1.
    9900012    2    1    2    0    0  0.13110569735E+02 -0.23911065700E+02 -0.30158577467E+02  0.50528857159E+02  0.29999991822E+02 0.  0.
         12    1    1    2    0    0 -0.13110569735E+02  0.23911065700E+02  0.30158577467E+02  0.40659142841E+02  0.00000000000E+00 0. -1.
         11    1    3    3    0    0 -0.31827028973E+01 -0.13586559090E+01 -0.17634140669E+02  0.17970488614E+02  0.51100000000E-03 0. -1.
        -11    1    3    3    0    0  0.15456286479E+02 -0.15697195370E+02 -0.54959177063E+01  0.22704709773E+02  0.51100000000E-03 0.  1.
        -12    1    3    3    0    0  0.83698615340E+00 -0.68552144208E+01 -0.70285190920E+01  0.98536587724E+01  0.00000000000E+00 0.  1.
</event>
<event>
 7    1  0.5006721E-012  0.5052886E+02  0.7816164E-02  0.1300439E+00
        -11   -1    0    0    0    0  0.00000000000E+00  0.00000000000E+00  0.45593999997E+02  0.45594000000E+02  0.51100000000E-03 0. -1.
         11   -1    0    0    0    0 -0.00000000000E+00 -0.00000000000E+00 -0.45593999997E+02  0.45594000000E+02  0.51100000000E-03 0.  1.
    9900012    2    1    2    0    0 -0.79628843531E+01  0.61540355649E+01 -0.39393983752E+02  0.50528860353E+02  0.30000001529E+02 0.  0.
         12    1    1    2    0    0  0.79628843531E+01 -0.61540355649E+01  0.39393983752E+02  0.40659139647E+02  0.00000000000E+00 0. -1.
         11    1    3    3    0    0  0.32814323403E+01 -0.24424912905E+01  0.21338594268E+01  0.46137748344E+01  0.51100000000E-03 0. -1.
        -11    1    3    3    0    0 -0.73662326355E+00  0.90252624879E+01 -0.20107407830E+02  0.22052342885E+02  0.51100000000E-03 0.  1.
         12    1    3    3    0    0 -0.10507693430E+02 -0.42873563248E+00 -0.21420435349E+02  0.23862742634E+02  0.00000000000E+00 0. -1.
</event>
<event>
 7    1  0.5006721E-012  0.5052886E+02  0.7816164E-02  0.1300439E+00
        -11   -1    0    0    0    0  0.00000000000E+00  0.00000000000E+00  0.45593999997E+02  0.45594000000E+02  0.51100000000E-03 0. -1.
         11   -1    0    0    0    0 -0.00000000000E+00 -0.00000000000E+00 -0.45593999997E+02  0.45594000000E+02  0.51100000000E-03 0.  1.
    9900012    2    1    2    0    0 -0.11955623493E+02 -0.25208353307E+02  0.29576474880E+02  0.50528857413E+02  0.29999992592E+02 0.  0.
        -12    1    1    2    0    0  0.11955623493E+02  0.25208353307E+02 -0.29576474880E+02  0.40659142587E+02  0.00000000000E+00 0.  1.
         11    1    3    3    0    0 -0.17002238963E+02 -0.24426296872E+02  0.11970846989E+02  0.32078361655E+02  0.51100000000E-03 0. -1.
        -11    1    3    3    0    0  0.38868853796E+01 -0.11999240253E+01  0.10939498890E+02  0.11671346616E+02  0.51100000000E-03 0.  1.
         12    1    3    3    0    0  0.11597300905E+01  0.41786758934E+00  0.66661290021E+01  0.67791491411E+01  0.00000000000E+00 0. -1.
</event>
<event>
 7    1  0.5006721E-012  0.5052885E+02  0.7816164E-02  0.1300439E+00
        -11   -1    0    0    0    0  0.00000000000E+00  0.00000000000E+00  0.45593999997E+02  0.45594000000E+02  0.51100000000E-03 0. -1.
         11   -1    0    0    0    0 -0.00000000000E+00 -0.00000000000E+00 -0.45593999997E+02  0.45594000000E+02  0.51100000000E-03 0.  1.
    9900012    2    1    2    0    0 -0.16044657046E+01  0.24013193989E+02 -0.32771302917E+02  0.50528854772E+02  0.29999984565E+02 0.  0.
         12    1    1    2    0    0  0.16044657046E+01 -0.24013193989E+02  0.32771302917E+02  0.40659145228E+02  0.00000000000E+00 0. -1.
         11    1    3    3    0    0  0.54781632431E+01  0.17875907008E+02 -0.14002174299E+02  0.23358493300E+02  0.51100000000E-03 0.  1.
        -11    1    3    3    0    0 -0.10028985506E+02 -0.57734711580E-01 -0.17534648701E+02  0.20200192794E+02  0.51100000000E-03 0. -1.
         12    1    3    3    0    0  0.29463565583E+01  0.61950216928E+01 -0.12344799174E+01  0.69701686787E+01  0.00000000000E+00 0. -1.
</event>
<event>
 7    1  0.5006721E-012  0.5052886E+02  0.7816164E-02  0.1300439E+00
        -11   -1    0    0    0    0  0.00000000000E+00  0.00000000000E+00  0.45593999997E+02  0.45594000000E+02  0.51100000000E-03 0. -1.
         11   -1    0    0    0    0 -0.00000000000E+00 -0.00000000000E+00 -0.45593999997E+02  0.45594000000E+02  0.51100000000E-03 0.  1.
    9900012    2    1    2    0    0 -0.25077499865E+02  0.71694677018E+01 -0.31191079899E+02  0.50528859185E+02  0.29999997977E+02 0.  0.
         12    1    1    2    0    0  0.25077499865E+02 -0.71694677018E+01  0.31191079899E+02  0.40659140815E+02  0.00000000000E+00 0. -1.
         11    1    3    3    0    0 -0.97425010127E+01  0.93174377728E+01 -0.20128876998E+01  0.13630212390E+02  0.51100000000E-03 0. -1.
        -11    1    3    3    0    0 -0.10573291553E+02  0.45945947485E+01 -0.25249729321E+02  0.27757046424E+02  0.51100000000E-03 0.  1.
        -12    1    3    3    0    0 -0.47617072996E+01 -0.67425648195E+01 -0.39284628783E+01  0.91416003707E+01  0.00000000000E+00 0.  1.
</event>
<event>
 7    1  0.5006721E-012  0.5052887E+02  0.7816164E-02  0.1300439E+00
        -11   -1    0    0    0    0  0.00000000000E+00  0.00000000000E+00  0.45593999997E+02  0.45594000000E+02  0.51100000000E-03 0. -1.
         11   -1    0    0    0    0 -0.00000000000E+00 -0.00000000000E+00 -0.45593999997E+02  0.45594000000E+02  0.51100000000E-03 0.  1.
    9900012    2    1    2    0    0 -0.18455465424E+01  0.13917012082E+01 -0.40593373166E+02  0.50528870407E+02  0.30000032089E+02 0.  0.
         12    1    1    2    0    0  0.18455465424E+01 -0.13917012082E+01  0.40593373166E+02  0.40659129593E+02  0.00000000000E+00 0. -1.
         11    1    3    3    0    0 -0.39392900669E+01 -0.10794385916E+02 -0.13428195200E+02  0.17673516914E+02  0.51100000000E-03 0. -1.
        -11    1    3    3    0    0  0.57391903070E+01  0.13440827200E+02 -0.21041183169E+02  0.25618851079E+02  0.51100000000E-03 0.  1.
        -12    1    3    3    0    0 -0.36454467826E+01 -0.12547400762E+01 -0.61239947975E+01  0.72365024137E+01  0.00000000000E+00 0.  1.
</event>
<event>
 7    1  0.5006721E-012  0.5052886E+02  0.7816164E-02  0.1300439E+00
        -11   -1    0    0    0    0  0.00000000000E+00  0.00000000000E+00  0.45593999997E+02  0.45594000000E+02  0.51100000000E-03 0. -1.
         11   -1    0    0    0    0 -0.00000000000E+00 -0.00000000000E+00 -0.45593999997E+02  0.45594000000E+02  0.51100000000E-03 0.  1.
    9900012    2    1    2    0    0 -0.11822099735E+02  0.16104164774E+02 -0.35412703389E+02  0.50528859250E+02  0.29999998177E+02 0.  0.
         12    1    1    2    0    0  0.11822099735E+02 -0.16104164774E+02  0.35412703389E+02  0.40659140750E+02  0.00000000000E+00 0. -1.
         11    1    3    3    0    0 -0.87927534808E+01  0.36455456809E+01  0.28851271639E+01  0.99461789697E+01  0.51100000000E-03 0. -1.
        -11    1    3    3    0    0 -0.98085949626E+00  0.18133310880E+01 -0.11356764743E+02  0.11542372403E+02  0.51100000000E-03 0.  1.
         12    1    3    3    0    0 -0.20484867578E+01  0.10645288005E+02 -0.26941065809E+02  0.29040307878E+02  0.00000000000E+00 0. -1.
</event>
<event>
 7    1  0.6101368E-012  0.5052886E+02  0.7816164E-02  0.1300439E+00
        -11   -1    0    0    0    0  0.00000000000E+00  0.00000000000E+00  0.45593999997E+02  0.45594000000E+02  0.51100000000E-03 0. -1.
         11   -1    0    0    0    0 -0.00000000000E+00 -0.00000000000E+00 -0.45593999997E+02  0.45594000000E+02  0.51100000000E-03 0.  1.
    9900012    2    1    2    0    0  0.18917710739E+02 -0.12375757030E+02  0.33795360566E+02  0.50528861575E+02  0.30000005245E+02 0.  0.
        -12    1    1    2    0    0 -0.18917710739E+02  0.12375757030E+02 -0.33795360566E+02  0.40659138425E+02  0.00000000000E+00 0.  1.
         11    1    3    3    0    0  0.16763210761E+02  0.39419200589E+01  0.16327383126E+02  0.23730305703E+02  0.51100000000E-03 0. -1.
        -11    1    3    3    0    0  0.31222307727E+01 -0.68810132398E+01  0.77159460588E+00  0.75955267560E+01  0.51100000000E-03 0.  1.
         12    1    3    3    0    0 -0.96773079520E+00 -0.94366638488E+01  0.16696382834E+02  0.19203029116E+02  0.00000000000E+00 0. -1.
</event>
<event>
 7    1  0.5006721E-012  0.5052885E+02  0.7816164E-02  0.1300439E+00
        -11   -1    0    0    0    0  0.00000000000E+00  0.00000000000E+00  0.45593999997E+02  0.45594000000E+02  0.51100000000E-03 0. -1.
         11   -1    0    0    0    0 -0.00000000000E+00 -0.00000000000E+00 -0.45593999997E+02  0.45594000000E+02  0.51100000000E-03 0.  1.
    9900012    2    1    2    0    0 -0.42791031106E-01 -0.15648950508E+02 -0.37526985484E+02  0.50528854379E+02  0.29999983371E+02 0.  0.
         12    1    1    2    0    0  0.42791031106E-01  0.15648950508E+02  0.37526985484E+02  0.40659145621E+02  0.00000000000E+00 0. -1.
         11    1    3    3    0    0 -0.82243504411E+01 -0.35875333823E+01 -0.24533841823E+00  0.89761086863E+01  0.51100000000E-03 0. -1.
        -11    1    3    3    0    0 -0.75460952075E+00 -0.17400829533E+01 -0.16992367120E+02  0.17097890654E+02  0.51100000000E-03 0.  1.
         12    1    3    3    0    0  0.89361689307E+01 -0.10321334172E+02 -0.20289279946E+02  0.24454855039E+02  0.00000000000E+00 0. -1.
</event>
<event>
 7    1  0.5006721E-012  0.5052887E+02  0.7816164E-02  0.1300439E+00
        -11   -1    0    0    0    0  0.00000000000E+00  0.00000000000E+00  0.45593999997E+02  0.45594000000E+02  0.51100000000E-03 0. -1.
         11   -1    0    0    0    0 -0.00000000000E+00 -0.00000000000E+00 -0.45593999997E+02  0.45594000000E+02  0.51100000000E-03 0.  1.
    9900012    2    1    2    0    0  0.19301196086E+02 -0.28839776993E+02  0.21187158869E+02  0.50528873001E+02  0.30000039975E+02 0.  0.
        -12    1    1    2    0    0 -0.19301196086E+02  0.28839776993E+02 -0.21187158869E+02  0.40659126999E+02  0.00000000000E+00 0.  1.
         11    1    3    3    0    0  0.47133573718E+00 -0.88640456103E+01  0.61537970975E+01  0.10801049992E+02  0.51100000000E-03 0. -1.
        -11    1    3    3    0    0  0.75447870270E+01  0.23296685241E+01  0.12251713698E+02  0.14575858655E+02  0.51100000000E-03 0.  1.
        -12    1    3    3    0    0  0.11285073322E+02 -0.22305399907E+02  0.27816480737E+01  0.25151964354E+02  0.00000000000E+00 0.  1.
</event>
<event>
 7    1  0.5006721E-012  0.5052886E+02  0.7816164E-02  0.1300439E+00
        -11   -1    0    0    0    0  0.00000000000E+00  0.00000000000E+00  0.45593999997E+02  0.45594000000E+02  0.51100000000E-03 0. -1.
         11   -1    0    0    0    0 -0.00000000000E+00 -0.00000000000E+00 -0.45593999997E+02  0.45594000000E+02  0.51100000000E-03 0.  1.
    9900012    2    1    2    0    0 -0.24545457528E+02 -0.24538607095E+02 -0.21178828599E+02  0.50528861984E+02  0.30000006486E+02 0.  0.
         12    1    1    2    0    0  0.24545457528E+02  0.24538607095E+02  0.21178828599E+02  0.40659138016E+02  0.00000000000E+00 0. -1.
         11    1    3    3    0    0 -0.12516992666E+02 -0.88897198696E+01  0.59346442800E+01  0.16459715300E+02  0.51100000000E-03 0. -1.
        -11    1    3    3    0    0 -0.59608810811E+01 -0.95288239593E+01 -0.19792810764E+02  0.22761501434E+02  0.51100000000E-03 0.  1.
         12    1    3    3    0    0 -0.60675837809E+01 -0.61200632656E+01 -0.73206621147E+01  0.11307645251E+02  0.00000000000E+00 0. -1.
</event>
<event>
 7    1  0.5006721E-012  0.5052886E+02  0.7816164E-02  0.1300439E+00
        -11   -1    0    0    0    0  0.00000000000E+00  0.00000000000E+00  0.45593999997E+02  0.45594000000E+02  0.51100000000E-03 0. -1.
         11   -1    0    0    0    0 -0.00000000000E+00 -0.00000000000E+00 -0.45593999997E+02  0.45594000000E+02  0.51100000000E-03 0.  1.
    9900012    2    1    2    0    0 -0.25123863746E+02  0.27804197424E+02 -0.15776050210E+02  0.50528859772E+02  0.29999999762E+02 0.  0.
         12    1    1    2    0    0  0.25123863746E+02 -0.27804197424E+02  0.15776050210E+02  0.40659140228E+02  0.00000000000E+00 0. -1.
         11    1    3    3    0    0 -0.67535383473E+01  0.85069484847E+00  0.56706742355E+01  0.88594869197E+01  0.51100000000E-03 0. -1.
        -11    1    3    3    0    0 -0.11076043028E+02  0.23884184026E+02 -0.10926077923E+02  0.28504598835E+02  0.51100000000E-03 0.  1.
         12    1    3    3    0    0 -0.72942823704E+01  0.30693185501E+01 -0.10520646522E+02  0.13164774017E+02  0.00000000000E+00 0. -1.
</event>
<event>
 7    1  0.5006721E-012  0.5052886E+02  0.7816164E-02  0.1300439E+00
        -11   -1    0    0    0    0  0.00000000000E+00  0.00000000000E+00  0.45593999997E+02  0.45594000000E+02  0.51100000000E-03 0. -1.
         11   -1    0    0    0    0 -0.00000000000E+00 -0.00000000000E+00 -0.45593999997E+02  0.45594000000E+02  0.51100000000E-03 0.  1.
    9900012    2    1    2    0    0  0.37072564522E+02  0.41890351489E+01 -0.16162996135E+02  0.50528862038E+02  0.30000006651E+02 0.  0.
         12    1    1    2    0    0 -0.37072564522E+02 -0.41890351489E+01  0.16162996135E+02  0.40659137962E+02  0.00000000000E+00 0. -1.
         11    1    3    3    0    0  0.10822565264E+02  0.12240261935E+02 -0.37202483124E+01  0.16756854684E+02  0.51100000000E-03 0. -1.
        -11    1    3    3    0    0  0.18772716398E+02  0.16223761852E+01 -0.98951032169E+01  0.21282858205E+02  0.51100000000E-03 0.  1.
         12    1    3    3    0    0  0.74772828607E+01 -0.96736029717E+01 -0.25476446057E+01  0.12489149149E+02  0.00000000000E+00 0. -1.
</event>
<event>
 7    1  0.5006721E-012  0.5052887E+02  0.7816164E-02  0.1300439E+00
        -11   -1    0    0    0    0  0.00000000000E+00  0.00000000000E+00  0.45593999997E+02  0.45594000000E+02  0.51100000000E-03 0. -1.
         11   -1    0    0    0    0 -0.00000000000E+00 -0.00000000000E+00 -0.45593999997E+02  0.45594000000E+02  0.51100000000E-03 0.  1.
    9900012    2    1    2    0    0  0.13203936023E+02 -0.10650315959E+02 -0.36951206089E+02  0.50528870792E+02  0.30000033259E+02 0.  0.
         12    1    1    2    0    0 -0.13203936023E+02  0.10650315959E+02  0.36951206089E+02  0.40659129208E+02  0.00000000000E+00 0. -1.
         11    1    3    3    0    0 -0.83743878249E+01 -0.75773022535E+01 -0.13889727842E+02  0.17901687649E+02  0.51100000000E-03 0. -1.
        -11    1    3    3    0    0  0.43015351677E+01 -0.23021694624E+01 -0.93905355502E+01  0.10582312942E+02  0.51100000000E-03 0.  1.
         12    1    3    3    0    0  0.17276788681E+02 -0.77084424339E+00 -0.13670942696E+02  0.22044870201E+02  0.00000000000E+00 0. -1.
</event>
<event>
 7    1  0.5006721E-012  0.5052886E+02  0.7816164E-02  0.1300439E+00
        -11   -1    0    0    0    0  0.00000000000E+00  0.00000000000E+00  0.45593999997E+02  0.45594000000E+02  0.51100000000E-03 0. -1.
         11   -1    0    0    0    0 -0.00000000000E+00 -0.00000000000E+00 -0.45593999997E+02  0.45594000000E+02  0.51100000000E-03 0.  1.
    9900012    2    1    2    0    0  0.83768759209E+01  0.60903925982E+01 -0.39317945573E+02  0.50528858638E+02  0.29999996316E+02 0.  0.
         12    1    1    2    0    0 -0.83768759209E+01 -0.60903925982E+01  0.39317945573E+02  0.40659141362E+02  0.00000000000E+00 0. -1.
         11    1    3    3    0    0  0.59649291818E+00 -0.25216529824E+01  0.20515472954E+01  0.33050543310E+01  0.51100000000E-03 0. -1.
        -11    1    3    3    0    0 -0.15750696852E+01  0.75434905314E+01 -0.35041311545E+02  0.35878665094E+02  0.51100000000E-03 0.  1.
        -12    1    3    3    0    0  0.93554526880E+01  0.10685550492E+01 -0.63281813239E+01  0.11345139213E+02  0.00000000000E+00 0.  1.
</event>
<event>
 7    1  0.5006721E-012  0.5052887E+02  0.7816164E-02  0.1300439E+00
        -11   -1    0    0    0    0  0.00000000000E+00  0.00000000000E+00  0.45593999997E+02  0.45594000000E+02  0.51100000000E-03 0. -1.
         11   -1    0    0    0    0 -0.00000000000E+00 -0.00000000000E+00 -0.45593999997E+02  0.45594000000E+02  0.51100000000E-03 0.  1.
    9900012    2    1    2    0    0  0.17156233424E+02 -0.29182897898E+02  0.22520805417E+02  0.50528873698E+02  0.30000042092E+02 0.  0.
        -12    1    1    2    0    0 -0.17156233424E+02  0.29182897898E+02 -0.22520805417E+02  0.40659126302E+02  0.00000000000E+00 0.  1.
         11    1    3    3    0    0  0.41673865403E+01 -0.19773484273E+02  0.14709555063E+02  0.24994575437E+02  0.51100000000E-03 0. -1.
        -11    1    3    3    0    0  0.82621012061E+01  0.39305835122E+01  0.66957240038E+01  0.11337747717E+02  0.51100000000E-03 0.  1.
        -12    1    3    3    0    0  0.47267456770E+01 -0.13339997137E+02  0.11155263501E+01  0.14196550544E+02  0.00000000000E+00 0.  1.
</event>
<event>
 7    1  0.5006721E-012  0.5052887E+02  0.7816164E-02  0.1300439E+00
        -11   -1    0    0    0    0  0.00000000000E+00  0.00000000000E+00  0.45593999997E+02  0.45594000000E+02  0.51100000000E-03 0. -1.
         11   -1    0    0    0    0 -0.00000000000E+00 -0.00000000000E+00 -0.45593999997E+02  0.45594000000E+02  0.51100000000E-03 0.  1.
    9900012    2    1    2    0    0  0.24220672044E+02 -0.20030543660E+02  0.25793429375E+02  0.50528872704E+02  0.30000039070E+02 0.  0.
        -12    1    1    2    0    0 -0.24220672044E+02  0.20030543660E+02 -0.25793429375E+02  0.40659127296E+02  0.00000000000E+00 0.  1.
         11    1    3    3    0    0 -0.16517752454E+01 -0.66653785872E+01  0.98206637874E+01  0.11983366416E+02  0.51100000000E-03 0. -1.
        -11    1    3    3    0    0  0.17740947277E+02  0.14550986547E+01  0.53775633150E+01  0.18595072192E+02  0.51100000000E-03 0.  1.
        -12    1    3    3    0    0  0.81315000126E+01 -0.14820263727E+02  0.10595202273E+02  0.19950434095E+02  0.00000000000E+00 0.  1.
</event>
<event>
 7    1  0.5006721E-012  0.5052886E+02  0.7816164E-02  0.1300439E+00
        -11   -1    0    0    0    0  0.00000000000E+00  0.00000000000E+00  0.45593999997E+02  0.45594000000E+02  0.51100000000E-03 0. -1.
         11   -1    0    0    0    0 -0.00000000000E+00 -0.00000000000E+00 -0.45593999997E+02  0.45594000000E+02  0.51100000000E-03 0.  1.
    9900012    2    1    2    0    0  0.23565260309E+02 -0.14458001825E+02 -0.29812925195E+02  0.50528858115E+02  0.29999994725E+02 0.  0.
         12    1    1    2    0    0 -0.23565260309E+02  0.14458001825E+02  0.29812925195E+02  0.40659141885E+02  0.00000000000E+00 0. -1.
         11    1    3    3    0    0  0.69122872748E+01 -0.47171089315E+01  0.38618031659E+01  0.92165262433E+01  0.51100000000E-03 0. -1.
        -11    1    3    3    0    0  0.18427798144E+02 -0.11009198673E+02 -0.32123697833E+02  0.38635710975E+02  0.51100000000E-03 0.  1.
         12    1    3    3    0    0 -0.17748251103E+01  0.12683057791E+01 -0.15510305278E+01  0.26766208958E+01  0.00000000000E+00 0. -1.
</event>
<event>
 7    1  0.5006721E-012  0.5052887E+02  0.7816164E-02  0.1300439E+00
        -11   -1    0    0    0    0  0.00000000000E+00  0.00000000000E+00  0.45593999997E+02  0.45594000000E+02  0.51100000000E-03 0.  1.
         11   -1    0    0    0    0 -0.00000000000E+00 -0.00000000000E+00 -0.45593999997E+02  0.45594000000E+02  0.51100000000E-03 0. -1.
    9900012    2    1    2    0    0  0.73490510354E+01 -0.38175769594E+02  0.11906605500E+02  0.50528865851E+02  0.30000018239E+02 0.  0.
        -12    1    1    2    0    0 -0.73490510354E+01  0.38175769594E+02 -0.11906605500E+02  0.40659134149E+02  0.00000000000E+00 0.  1.
         11    1    3    3    0    0  0.10133774576E+02 -0.24350294883E+02  0.14654875373E+00  0.26375210423E+02  0.51100000000E-03 0. -1.
        -11    1    3    3    0    0 -0.39055322068E+01  0.15360668331E+01  0.67660004940E+01  0.79618745331E+01  0.51100000000E-03 0.  1.
        -12    1    3    3    0    0  0.11208086657E+01 -0.15361541544E+02  0.49940562526E+01  0.16191780894E+02  0.00000000000E+00 0.  1.
</event>
<event>
 7    1  0.5006721E-012  0.5052886E+02  0.7816164E-02  0.1300439E+00
        -11   -1    0    0    0    0  0.00000000000E+00  0.00000000000E+00  0.45593999997E+02  0.45594000000E+02  0.51100000000E-03 0. -1.
         11   -1    0    0    0    0 -0.00000000000E+00 -0.00000000000E+00 -0.45593999997E+02  0.45594000000E+02  0.51100000000E-03 0.  1.
    9900012    2    1    2    0    0  0.35465537415E+02  0.47119139319E+01 -0.19317319990E+02  0.50528864143E+02  0.30000013048E+02 0.  0.
         12    1    1    2    0    0 -0.35465537415E+02 -0.47119139319E+01  0.19317319990E+02  0.40659135857E+02  0.00000000000E+00 0. -1.
         11    1    3    3    0    0  0.25837993132E+02  0.11110752524E+02 -0.16242812680E+02  0.32478911231E+02  0.51100000000E-03 0. -1.
        -11    1    3    3    0    0  0.10053371591E+02 -0.52847544305E+01 -0.74048131976E+01  0.13558398449E+02  0.51100000000E-03 0.  1.
         12    1    3    3    0    0 -0.42582730795E+00 -0.11140841613E+01  0.43303058876E+01  0.44915544630E+01  0.00000000000E+00 0. -1.
</event>
<event>
 7    1  0.5006721E-012  0.5052884E+02  0.7816164E-02  0.1300439E+00
        -11   -1    0    0    0    0  0.00000000000E+00  0.00000000000E+00  0.45593999997E+02  0.45594000000E+02  0.51100000000E-03 0. -1.
         11   -1    0    0    0    0 -0.00000000000E+00 -0.00000000000E+00 -0.45593999997E+02  0.45594000000E+02  0.51100000000E-03 0.  1.
    9900012    2    1    2    0    0  0.53590630708E+01 -0.34638595369E+02  0.20606198483E+02  0.50528840367E+02  0.29999940779E+02 0.  0.
        -12    1    1    2    0    0 -0.53590630708E+01  0.34638595369E+02 -0.20606198483E+02  0.40659159633E+02  0.00000000000E+00 0.  1.
         11    1    3    3    0    0  0.15249024819E+02 -0.97494495574E+01  0.10896567006E+02  0.21126279781E+02  0.51100000000E-03 0. -1.
        -11    1    3    3    0    0  0.21812849966E-01  0.49340948092E+00  0.71271303209E-01  0.49900759120E+00  0.51100000000E-03 0.  1.
         12    1    3    3    0    0 -0.99117745982E+01 -0.25382555293E+02  0.96383601737E+01  0.28903552995E+02  0.00000000000E+00 0. -1.
</event>
<event>
 7    1  0.5006721E-012  0.5052887E+02  0.7816164E-02  0.1300439E+00
        -11   -1    0    0    0    0  0.00000000000E+00  0.00000000000E+00  0.45593999997E+02  0.45594000000E+02  0.51100000000E-03 0. -1.
         11   -1    0    0    0    0 -0.00000000000E+00 -0.00000000000E+00 -0.45593999997E+02  0.45594000000E+02  0.51100000000E-03 0.  1.
    9900012    2    1    2    0    0  0.34599376249E+02  0.24385129781E+01 -0.21215608095E+02  0.50528865612E+02  0.30000017513E+02 0.  0.
         12    1    1    2    0    0 -0.34599376249E+02 -0.24385129781E+01  0.21215608095E+02  0.40659134388E+02  0.00000000000E+00 0. -1.
         11    1    3    3    0    0 -0.10493625063E+01  0.62980706765E+01 -0.60476149589E+01  0.87943449369E+01  0.51100000000E-03 0. -1.
        -11    1    3    3    0    0  0.28651787378E+02  0.20647333887E+01 -0.72655317051E+01  0.29630659715E+02  0.51100000000E-03 0.  1.
         12    1    3    3    0    0  0.69969513775E+01 -0.59242910872E+01 -0.79024614306E+01  0.12103860959E+02  0.00000000000E+00 0. -1.
</event>
<event>
 7    1  0.5006721E-012  0.5052889E+02  0.7816164E-02  0.1300439E+00
        -11   -1    0    0    0    0  0.00000000000E+00  0.00000000000E+00  0.45593999997E+02  0.45594000000E+02  0.51100000000E-03 0. -1.
         11   -1    0    0    0    0 -0.00000000000E+00 -0.00000000000E+00 -0.45593999997E+02  0.45594000000E+02  0.51100000000E-03 0.  1.
    9900012    2    1    2    0    0 -0.10126346141E+02  0.28895213526E+02  0.26752329735E+02  0.50528887895E+02  0.30000085247E+02 0.  0.
        -12    1    1    2    0    0  0.10126346141E+02 -0.28895213526E+02 -0.26752329735E+02  0.40659112105E+02  0.00000000000E+00 0.  1.
         11    1    3    3    0    0 -0.28382377849E+01  0.11132411217E+02  0.12318846727E+02  0.16844588394E+02  0.51100000000E-03 0. -1.
        -11    1    3    3    0    0 -0.85938287475E+00  0.99456388592E+01 -0.54497022635E+01  0.11373369169E+02  0.51100000000E-03 0.  1.
        -12    1    3    3    0    0 -0.64287254813E+01  0.78171634492E+01  0.19883185272E+02  0.22310930332E+02  0.00000000000E+00 0.  1.
</event>
<event>
 7    1  0.5006721E-012  0.5052886E+02  0.7816164E-02  0.1300439E+00
        -11   -1    0    0    0    0  0.00000000000E+00  0.00000000000E+00  0.45593999997E+02  0.45594000000E+02  0.51100000000E-03 0. -1.
         11   -1    0    0    0    0 -0.00000000000E+00 -0.00000000000E+00 -0.45593999997E+02  0.45594000000E+02  0.51100000000E-03 0.  1.
    9900012    2    1    2    0    0 -0.15913491409E+02  0.10934944369E+02 -0.35782025555E+02  0.50528861175E+02  0.30000004026E+02 0.  0.
         12    1    1    2    0    0  0.15913491409E+02 -0.10934944369E+02  0.35782025555E+02  0.40659138825E+02  0.00000000000E+00 0. -1.
         11    1    3    3    0    0 -0.14437649395E+01  0.40362709409E+01 -0.15077860687E+02  0.15675389101E+02  0.51100000000E-03 0. -1.
        -11    1    3    3    0    0 -0.98683744526E+01  0.10086438685E+02 -0.75211616224E+00  0.14131055822E+02  0.51100000000E-03 0.  1.
        -12    1    3    3    0    0 -0.46013520168E+01 -0.31877652567E+01 -0.19952048706E+02  0.20722416251E+02  0.00000000000E+00 0.  1.
</event>
<event>
 7    1  0.5006721E-012  0.5052885E+02  0.7816164E-02  0.1300439E+00
        -11   -1    0    0    0    0  0.00000000000E+00  0.00000000000E+00  0.45593999997E+02  0.45594000000E+02  0.51100000000E-03 0. -1.
         11   -1    0    0    0    0 -0.00000000000E+00 -0.00000000000E+00 -0.45593999997E+02  0.45594000000E+02  0.51100000000E-03 0.  1.
    9900012    2    1    2    0    0 -0.24313815729E+02  0.26058808416E+01 -0.32484056430E+02  0.50528853767E+02  0.29999981511E+02 0.  0.
         12    1    1    2    0    0  0.24313815729E+02 -0.26058808416E+01  0.32484056430E+02  0.40659146233E+02  0.00000000000E+00 0. -1.
         11    1    3    3    0    0 -0.13880328699E+02 -0.36735293753E+01  0.21416166861E+00  0.14359812267E+02  0.51100000000E-03 0. -1.
        -11    1    3    3    0    0 -0.11836898274E+02  0.41147540884E+01 -0.23711527654E+02  0.26819394212E+02  0.51100000000E-03 0.  1.
         12    1    3    3    0    0  0.14034112443E+01  0.21646561285E+01 -0.89866904438E+01  0.93496472879E+01  0.00000000000E+00 0. -1.
</event>
<event>
 7    1  0.5006721E-012  0.5052885E+02  0.7816164E-02  0.1300439E+00
        -11   -1    0    0    0    0  0.00000000000E+00  0.00000000000E+00  0.45593999997E+02  0.45594000000E+02  0.51100000000E-03 0.  1.
         11   -1    0    0    0    0 -0.00000000000E+00 -0.00000000000E+00 -0.45593999997E+02  0.45594000000E+02  0.51100000000E-03 0. -1.
    9900012    2    1    2    0    0  0.98880622261E+01 -0.25601275059E+02  0.29999461014E+02  0.50528847029E+02  0.29999961028E+02 0.  0.
        -12    1    1    2    0    0 -0.98880622261E+01  0.25601275059E+02 -0.29999461014E+02  0.40659152971E+02  0.00000000000E+00 0.  1.
         11    1    3    3    0    0  0.94051749573E+01 -0.15743992850E+02  0.10938391400E+02  0.21353665575E+02  0.51100000000E-03 0. -1.
        -11    1    3    3    0    0 -0.58304567621E+01 -0.91773895505E+00  0.17056700053E+02  0.18049030107E+02  0.51100000000E-03 0.  1.
        -12    1    3    3    0    0  0.63133440308E+01 -0.89395432543E+01  0.20043695612E+01  0.11126151347E+02  0.00000000000E+00 0.  1.
</event>
<event>
 7    1  0.5006721E-012  0.5052886E+02  0.7816164E-02  0.1300439E+00
        -11   -1    0    0    0    0  0.00000000000E+00  0.00000000000E+00  0.45593999997E+02  0.45594000000E+02  0.51100000000E-03 0. -1.
         11   -1    0    0    0    0 -0.00000000000E+00 -0.00000000000E+00 -0.45593999997E+02  0.45594000000E+02  0.51100000000E-03 0.  1.
    9900012    2    1    2    0    0  0.27054175839E+02  0.10933058199E+02  0.28314403426E+02  0.50528860397E+02  0.30000001662E+02 0.  0.
        -12    1    1    2    0    0 -0.27054175839E+02 -0.10933058199E+02 -0.28314403426E+02  0.40659139603E+02  0.00000000000E+00 0.  1.
         11    1    3    3    0    0  0.18162751935E+02 -0.23496468677E+01  0.24234213923E+02  0.30376035341E+02  0.51100000000E-03 0. -1.
        -11    1    3    3    0    0  0.10532621409E+02  0.14178407995E+02  0.45208690094E+01  0.18231884814E+02  0.51100000000E-03 0.  1.
        -12    1    3    3    0    0 -0.16411975057E+01 -0.89570292779E+00 -0.44067950649E+00  0.19209402425E+01  0.00000000000E+00 0.  1.
</event>
<event>
 7    1  0.5006721E-012  0.5052886E+02  0.7816164E-02  0.1300439E+00
        -11   -1    0    0    0    0  0.00000000000E+00  0.00000000000E+00  0.45593999997E+02  0.45594000000E+02  0.51100000000E-03 0. -1.
         11   -1    0    0    0    0 -0.00000000000E+00 -0.00000000000E+00 -0.45593999997E+02  0.45594000000E+02  0.51100000000E-03 0.  1.
    9900012    2    1    2    0    0  0.26158739927E+02  0.36266013034E+01 -0.30914945160E+02  0.50528859013E+02  0.29999997454E+02 0.  0.
         12    1    1    2    0    0 -0.26158739927E+02 -0.36266013034E+01  0.30914945160E+02  0.40659140987E+02  0.00000000000E+00 0. -1.
         11    1    3    3    0    0  0.65760264913E+01 -0.12047928200E+01 -0.73923845803E+00  0.67262265730E+01  0.51100000000E-03 0. -1.
        -11    1    3    3    0    0  0.20668012817E+02  0.12400010500E+02 -0.23122186579E+02  0.33400037824E+02  0.51100000000E-03 0.  1.
        -12    1    3    3    0    0 -0.10852993810E+01 -0.75686163767E+01 -0.70535201234E+01  0.10402594616E+02  0.00000000000E+00 0.  1.
</event>
<event>
 7    1  0.5006721E-012  0.5052885E+02  0.7816164E-02  0.1300439E+00
        -11   -1    0    0    0    0  0.00000000000E+00  0.00000000000E+00  0.45593999997E+02  0.45594000000E+02  0.51100000000E-03 0. -1.
         11   -1    0    0    0    0 -0.00000000000E+00 -0.00000000000E+00 -0.45593999997E+02  0.45594000000E+02  0.51100000000E-03 0.  1.
    9900012    2    1    2    0    0  0.18445948449E+02 -0.28066099824E+02 -0.22917403485E+02  0.50528851509E+02  0.29999974646E+02 0.  0.
         12    1    1    2    0    0 -0.18445948449E+02  0.28066099824E+02  0.22917403485E+02  0.40659148491E+02  0.00000000000E+00 0. -1.
         11    1    3    3    0    0  0.95132435658E+01 -0.15755183002E+02 -0.68638503943E+01  0.19642811333E+02  0.51100000000E-03 0. -1.
        -11    1    3    3    0    0  0.63170943123E+01 -0.48907313555E+01 -0.20392247411E+02  0.21901339879E+02  0.51100000000E-03 0.  1.
        -12    1    3    3    0    0  0.26156105705E+01 -0.74201854670E+01  0.43386943202E+01  0.89847002970E+01  0.00000000000E+00 0.  1.
</event>
<event>
 7    1  0.5006721E-012  0.5052886E+02  0.7816164E-02  0.1300439E+00
        -11   -1    0    0    0    0  0.00000000000E+00  0.00000000000E+00  0.45593999997E+02  0.45594000000E+02  0.51100000000E-03 0. -1.
         11   -1    0    0    0    0 -0.00000000000E+00 -0.00000000000E+00 -0.45593999997E+02  0.45594000000E+02  0.51100000000E-03 0.  1.
    9900012    2    1    2    0    0  0.90268853077E+01 -0.32028289197E+02  0.23363853247E+02  0.50528860735E+02  0.30000002690E+02 0.  0.
        -12    1    1    2    0    0 -0.90268853077E+01  0.32028289197E+02 -0.23363853247E+02  0.40659139265E+02  0.00000000000E+00 0.  1.
         11    1    3    3    0    0  0.31160666957E+01 -0.18578400089E+02 -0.14860841029E+01  0.18896435318E+02  0.51100000000E-03 0. -1.
        -11    1    3    3    0    0  0.35692359935E+01  0.16511467376E+00  0.12837026818E+02  0.13325012803E+02  0.51100000000E-03 0.  1.
         12    1    3    3    0    0  0.23415826185E+01 -0.13615003782E+02  0.12012910532E+02  0.18307412613E+02  0.00000000000E+00 0. -1.
</event>
<event>
 7    1  0.5006721E-012  0.5052886E+02  0.7816164E-02  0.1300439E+00
        -11   -1    0    0    0    0  0.00000000000E+00  0.00000000000E+00  0.45593999997E+02  0.45594000000E+02  0.51100000000E-03 0. -1.
         11   -1    0    0    0    0 -0.00000000000E+00 -0.00000000000E+00 -0.45593999997E+02  0.45594000000E+02  0.51100000000E-03 0.  1.
    9900012    2    1    2    0    0  0.34467174642E+02  0.90814573481E+01 -0.19562895710E+02  0.50528857315E+02  0.29999992294E+02 0.  0.
         12    1    1    2    0    0 -0.34467174642E+02 -0.90814573481E+01  0.19562895710E+02  0.40659142685E+02  0.00000000000E+00 0. -1.
         11    1    3    3    0    0 -0.17300284441E+01 -0.59048705899E+01 -0.69204157300E+01  0.92602726330E+01  0.51100000000E-03 0.  1.
        -11    1    3    3    0    0  0.28113102394E+02  0.11369042544E+02 -0.85163100792E+01  0.31498082358E+02  0.51100000000E-03 0. -1.
        -12    1    3    3    0    0  0.80841006917E+01  0.36172853938E+01 -0.41261699007E+01  0.97705023240E+01  0.00000000000E+00 0.  1.
</event>
<event>
 7    1  0.5006721E-012  0.5052887E+02  0.7816164E-02  0.1300439E+00
        -11   -1    0    0    0    0  0.00000000000E+00  0.00000000000E+00  0.45593999997E+02  0.45594000000E+02  0.51100000000E-03 0. -1.
         11   -1    0    0    0    0 -0.00000000000E+00 -0.00000000000E+00 -0.45593999997E+02  0.45594000000E+02  0.51100000000E-03 0.  1.
    9900012    2    1    2    0    0 -0.37809275674E+02 -0.12903224978E+02  0.75584561950E+01  0.50528870621E+02  0.30000032740E+02 0.  0.
        -12    1    1    2    0    0  0.37809275674E+02  0.12903224978E+02 -0.75584561950E+01  0.40659129379E+02  0.00000000000E+00 0.  1.
         11    1    3    3    0    0 -0.27850769600E+02  0.98443782813E+00  0.30214671933E+01  0.28031477831E+02  0.51100000000E-03 0. -1.
        -11    1    3    3    0    0  0.14600621222E+01  0.12625831260E+01  0.28621497717E+01  0.34522165528E+01  0.51100000000E-03 0.  1.
         12    1    3    3    0    0 -0.11418568196E+02 -0.15150245932E+02  0.16748392301E+01  0.19045176237E+02  0.00000000000E+00 0. -1.
</event>
<event>
 7    1  0.5006721E-012  0.5052887E+02  0.7816164E-02  0.1300439E+00
        -11   -1    0    0    0    0  0.00000000000E+00  0.00000000000E+00  0.45593999997E+02  0.45594000000E+02  0.51100000000E-03 0. -1.
         11   -1    0    0    0    0 -0.00000000000E+00 -0.00000000000E+00 -0.45593999997E+02  0.45594000000E+02  0.51100000000E-03 0.  1.
    9900012    2    1    2    0    0 -0.15857171767E+02 -0.21987577894E+02 -0.30302827445E+02  0.50528870284E+02  0.30000031716E+02 0.  0.
         12    1    1    2    0    0  0.15857171767E+02  0.21987577894E+02  0.30302827445E+02  0.40659129716E+02  0.00000000000E+00 0. -1.
         11    1    3    3    0    0  0.60678589856E+01 -0.13789698190E+01 -0.16019741369E+02  0.17185825096E+02  0.51100000000E-03 0. -1.
        -11    1    3    3    0    0 -0.10282453978E+02 -0.96806573888E+01 -0.75477380562E+01  0.16012880357E+02  0.51100000000E-03 0.  1.
         12    1    3    3    0    0 -0.11642576774E+02 -0.10927950686E+02 -0.67353480190E+01  0.17330164831E+02  0.00000000000E+00 0. -1.
</event>
<event>
 7    1  0.5006721E-012  0.5052886E+02  0.7816164E-02  0.1300439E+00
        -11   -1    0    0    0    0  0.00000000000E+00  0.00000000000E+00  0.45593999997E+02  0.45594000000E+02  0.51100000000E-03 0. -1.
         11   -1    0    0    0    0 -0.00000000000E+00 -0.00000000000E+00 -0.45593999997E+02  0.45594000000E+02  0.51100000000E-03 0.  1.
    9900012    2    1    2    0    0 -0.28904100567E+02 -0.76053821960E+01 -0.27565861759E+02  0.50528860775E+02  0.30000002813E+02 0.  0.
         12    1    1    2    0    0  0.28904100567E+02  0.76053821960E+01  0.27565861759E+02  0.40659139225E+02  0.00000000000E+00 0. -1.
         11    1    3    3    0    0 -0.33139230042E+02 -0.31694505133E+01 -0.19145561210E+02  0.38403209484E+02  0.51100000000E-03 0.  1.
        -11    1    3    3    0    0  0.35258825399E+01 -0.26809408008E+01 -0.90948970734E+01  0.10116147701E+02  0.51100000000E-03 0. -1.
        -12    1    3    3    0    0  0.70924693535E+00 -0.17549908820E+01  0.67459652420E+00  0.20095035908E+01  0.00000000000E+00 0.  1.
</event>
<event>
 7    1  0.5006721E-012  0.5052886E+02  0.7816164E-02  0.1300439E+00
        -11   -1    0    0    0    0  0.00000000000E+00  0.00000000000E+00  0.45593999997E+02  0.45594000000E+02  0.51100000000E-03 0. -1.
         11   -1    0    0    0    0 -0.00000000000E+00 -0.00000000000E+00 -0.45593999997E+02  0.45594000000E+02  0.51100000000E-03 0.  1.
    9900012    2    1    2    0    0 -0.10619261131E+02  0.23734542246E+02 -0.31258095571E+02  0.50528859068E+02  0.29999997622E+02 0.  0.
         12    1    1    2    0    0  0.10619261131E+02 -0.23734542246E+02  0.31258095571E+02  0.40659140932E+02  0.00000000000E+00 0. -1.
         11    1    3    3    0    0  0.45802716294E+01  0.10136342413E+02 -0.92980638097E+01  0.14497527947E+02  0.51100000000E-03 0. -1.
        -11    1    3    3    0    0 -0.80774167992E+01  0.37028619651E+01 -0.22120413264E+02  0.23838383588E+02  0.51100000000E-03 0.  1.
        -12    1    3    3    0    0 -0.71221159615E+01  0.98953378683E+01  0.16038150192E+00  0.12192947532E+02  0.00000000000E+00 0.  1.
</event>
<event>
 7    1  0.5006721E-012  0.5052886E+02  0.7816164E-02  0.1300439E+00
        -11   -1    0    0    0    0  0.00000000000E+00  0.00000000000E+00  0.45593999997E+02  0.45594000000E+02  0.51100000000E-03 0. -1.
         11   -1    0    0    0    0 -0.00000000000E+00 -0.00000000000E+00 -0.45593999997E+02  0.45594000000E+02  0.51100000000E-03 0.  1.
    9900012    2    1    2    0    0  0.53177680911E+01  0.25507330533E+02 -0.31213182703E+02  0.50528863968E+02  0.30000012518E+02 0.  0.
         12    1    1    2    0    0 -0.53177680911E+01 -0.25507330533E+02  0.31213182703E+02  0.40659136032E+02  0.00000000000E+00 0. -1.
         11    1    3    3    0    0  0.10467362343E+02  0.15531857147E+02 -0.28700856652E+01  0.18948394466E+02  0.51100000000E-03 0. -1.
        -11    1    3    3    0    0 -0.21569449762E+01  0.30589729635E+01 -0.19960053405E+02  0.20307965418E+02  0.51100000000E-03 0.  1.
         12    1    3    3    0    0 -0.29926492756E+01  0.69165004220E+01 -0.83830436326E+01  0.11272504084E+02  0.00000000000E+00 0. -1.
</event>
<event>
 7    1  0.5006721E-012  0.5052888E+02  0.7816164E-02  0.1300439E+00
        -11   -1    0    0    0    0  0.00000000000E+00  0.00000000000E+00  0.45593999997E+02  0.45594000000E+02  0.51100000000E-03 0.  1.
         11   -1    0    0    0    0 -0.00000000000E+00 -0.00000000000E+00 -0.45593999997E+02  0.45594000000E+02  0.51100000000E-03 0. -1.
    9900012    2    1    2    0    0 -0.19016433208E+02 -0.23567628184E+02 -0.27131284030E+02  0.50528875522E+02  0.30000047638E+02 0.  0.
         12    1    1    2    0    0  0.19016433208E+02  0.23567628184E+02  0.27131284030E+02  0.40659124478E+02  0.00000000000E+00 0. -1.
         11    1    3    3    0    0 -0.88407276204E+01  0.46166332291E+01 -0.32306605306E+01  0.10483746227E+02  0.51100000000E-03 0. -1.
        -11    1    3    3    0    0 -0.55504625227E+01 -0.11016217863E+02 -0.16930159765E+02  0.20947434214E+02  0.51100000000E-03 0.  1.
         12    1    3    3    0    0 -0.46252430644E+01 -0.17168043550E+02 -0.69704637350E+01  0.19097695081E+02  0.00000000000E+00 0. -1.
</event>
<event>
 7    1  0.5006721E-012  0.5052886E+02  0.7816164E-02  0.1300439E+00
        -11   -1    0    0    0    0  0.00000000000E+00  0.00000000000E+00  0.45593999997E+02  0.45594000000E+02  0.51100000000E-03 0.  1.
         11   -1    0    0    0    0 -0.00000000000E+00 -0.00000000000E+00 -0.45593999997E+02  0.45594000000E+02  0.51100000000E-03 0. -1.
    9900012    2    1    2    0    0  0.10394556251E+02 -0.38863185115E+02 -0.58967263334E+01  0.50528864023E+02  0.30000012686E+02 0.  0.
         12    1    1    2    0    0 -0.10394556251E+02  0.38863185115E+02  0.58967263334E+01  0.40659135977E+02  0.00000000000E+00 0. -1.
         11    1    3    3    0    0  0.22982345581E+01 -0.33887215109E+02 -0.78576364064E+01  0.34862123861E+02  0.51100000000E-03 0. -1.
        -11    1    3    3    0    0  0.91649831107E+01 -0.46033524956E+01 -0.29141090948E+01  0.10662073049E+02  0.51100000000E-03 0.  1.
        -12    1    3    3    0    0 -0.10686614176E+01 -0.37261750964E+00  0.48750191678E+01  0.50046671138E+01  0.00000000000E+00 0.  1.
</event>
<event>
 7    1  0.5006721E-012  0.5052886E+02  0.7816164E-02  0.1300439E+00
        -11   -1    0    0    0    0  0.00000000000E+00  0.00000000000E+00  0.45593999997E+02  0.45594000000E+02  0.51100000000E-03 0. -1.
         11   -1    0    0    0    0 -0.00000000000E+00 -0.00000000000E+00 -0.45593999997E+02  0.45594000000E+02  0.51100000000E-03 0.  1.
    9900012    2    1    2    0    0 -0.22886028828E+02  0.25039872996E+02 -0.22414275257E+02  0.50528864613E+02  0.30000014477E+02 0.  0.
         12    1    1    2    0    0  0.22886028828E+02 -0.25039872996E+02  0.22414275257E+02  0.40659135387E+02  0.00000000000E+00 0. -1.
         11    1    3    3    0    0  0.40289278710E+01  0.72441708772E+01  0.28510386293E+01  0.87657682501E+01  0.51100000000E-03 0. -1.
        -11    1    3    3    0    0 -0.12754365242E+02  0.13225379612E+02 -0.14078417001E+02  0.23147058649E+02  0.51100000000E-03 0.  1.
         12    1    3    3    0    0 -0.14160591457E+02  0.45703225071E+01 -0.11186896885E+02  0.18616037713E+02  0.00000000000E+00 0. -1.
</event>
<event>
 7    1  0.5006721E-012  0.5052883E+02  0.7816164E-02  0.1300439E+00
        -11   -1    0    0    0    0  0.00000000000E+00  0.00000000000E+00  0.45593999997E+02  0.45594000000E+02  0.51100000000E-03 0. -1.
         11   -1    0    0    0    0 -0.00000000000E+00 -0.00000000000E+00 -0.45593999997E+02  0.45594000000E+02  0.51100000000E-03 0.  1.
    9900012    2    1    2    0    0 -0.16558415961E+02  0.79598661787E+01  0.36271579537E+02  0.50528830175E+02  0.29999909800E+02 0.  0.
        -12    1    1    2    0    0  0.16558415961E+02 -0.79598661787E+01 -0.36271579537E+02  0.40659169825E+02  0.00000000000E+00 0.  1.
         11    1    3    3    0    0  0.76623071926E+00  0.10656855606E+02  0.76037235332E+01  0.13113820678E+02  0.51100000000E-03 0. -1.
        -11    1    3    3    0    0 -0.19123898027E+02  0.17073251638E+01  0.21659044392E+02  0.28943956869E+02  0.51100000000E-03 0.  1.
        -12    1    3    3    0    0  0.17992513470E+01 -0.44043145916E+01  0.70088116117E+01  0.84710526288E+01  0.00000000000E+00 0.  1.
</event>
<event>
 7    1  0.5006721E-012  0.5052885E+02  0.7816164E-02  0.1300439E+00
        -11   -1    0    0    0    0  0.00000000000E+00  0.00000000000E+00  0.45593999997E+02  0.45594000000E+02  0.51100000000E-03 0. -1.
         11   -1    0    0    0    0 -0.00000000000E+00 -0.00000000000E+00 -0.45593999997E+02  0.45594000000E+02  0.51100000000E-03 0.  1.
    9900012    2    1    2    0    0  0.29928890502E+02  0.80464708673E+01 -0.26318851146E+02  0.50528854587E+02  0.29999984001E+02 0.  0.
         12    1    1    2    0    0 -0.29928890502E+02 -0.80464708673E+01  0.26318851146E+02  0.40659145413E+02  0.00000000000E+00 0. -1.
         11    1    3    3    0    0  0.90341465696E+01 -0.40495362692E+01  0.14011215021E+01  0.99988844358E+01  0.51100000000E-03 0. -1.
        -11    1    3    3    0    0  0.17322341735E+02  0.16338171627E+02 -0.20462812340E+02  0.31396274690E+02  0.51100000000E-03 0.  1.
         12    1    3    3    0    0  0.35724021980E+01 -0.42421644907E+01 -0.72571603086E+01  0.91336954610E+01  0.00000000000E+00 0. -1.
</event>
<event>
 7    1  0.5006721E-012  0.5052886E+02  0.7816164E-02  0.1300439E+00
        -11   -1    0    0    0    0  0.00000000000E+00  0.00000000000E+00  0.45593999997E+02  0.45594000000E+02  0.51100000000E-03 0. -1.
         11   -1    0    0    0    0 -0.00000000000E+00 -0.00000000000E+00 -0.45593999997E+02  0.45594000000E+02  0.51100000000E-03 0.  1.
    9900012    2    1    2    0    0  0.80398576344E+01  0.24361402774E+02  0.31544382610E+02  0.50528864125E+02  0.30000012994E+02 0.  0.
        -12    1    1    2    0    0 -0.80398576344E+01 -0.24361402774E+02 -0.31544382610E+02  0.40659135875E+02  0.00000000000E+00 0.  1.
         11    1    3    3    0    0 -0.22026801398E+01  0.11475945456E+02  0.27723467382E+02  0.30085540843E+02  0.51100000000E-03 0. -1.
        -11    1    3    3    0    0  0.12340820967E+02  0.80039000482E+01  0.35024894799E+01  0.15120374034E+02  0.51100000000E-03 0.  1.
        -12    1    3    3    0    0 -0.20982831926E+01  0.48815572694E+01  0.31842574816E+00  0.53229492472E+01  0.00000000000E+00 0.  1.
</event>
<event>
 7    1  0.5006721E-012  0.5052889E+02  0.7816164E-02  0.1300439E+00
        -11   -1    0    0    0    0  0.00000000000E+00  0.00000000000E+00  0.45593999997E+02  0.45594000000E+02  0.51100000000E-03 0. -1.
         11   -1    0    0    0    0 -0.00000000000E+00 -0.00000000000E+00 -0.45593999997E+02  0.45594000000E+02  0.51100000000E-03 0.  1.
    9900012    2    1    2    0    0 -0.24662130513E+01 -0.26922982192E+02 -0.30368304306E+02  0.50528891754E+02  0.30000096974E+02 0.  0.
         12    1    1    2    0    0  0.24662130513E+01  0.26922982192E+02  0.30368304306E+02  0.40659108246E+02  0.00000000000E+00 0. -1.
         11    1    3    3    0    0 -0.11169319866E+02 -0.12816451256E+01 -0.73883283687E+01  0.13453018875E+02  0.51100000000E-03 0. -1.
        -11    1    3    3    0    0  0.11270878324E+01 -0.71989771027E+01 -0.12704791489E+02  0.14646068597E+02  0.51100000000E-03 0.  1.
         12    1    3    3    0    0  0.75760189823E+01 -0.18442359964E+02 -0.10275184448E+02  0.22429804282E+02  0.00000000000E+00 0. -1.
</event>
<event>
 7    1  0.5006721E-012  0.5052886E+02  0.7816164E-02  0.1300439E+00
        -11   -1    0    0    0    0  0.00000000000E+00  0.00000000000E+00  0.45593999997E+02  0.45594000000E+02  0.51100000000E-03 0. -1.
         11   -1    0    0    0    0 -0.00000000000E+00 -0.00000000000E+00 -0.45593999997E+02  0.45594000000E+02  0.51100000000E-03 0.  1.
    9900012    2    1    2    0    0  0.10850421553E+02  0.36713558398E+02 -0.13694854295E+02  0.50528855244E+02  0.29999985999E+02 0.  0.
         12    1    1    2    0    0 -0.10850421553E+02 -0.36713558398E+02  0.13694854295E+02  0.40659144756E+02  0.00000000000E+00 0. -1.
         11    1    3    3    0    0  0.10799608333E+02  0.20085967242E+02  0.55632456752E+01  0.23473971179E+02  0.51100000000E-03 0. -1.
        -11    1    3    3    0    0  0.40853527823E+01  0.12247536085E+02 -0.11622522664E+02  0.17371680426E+02  0.51100000000E-03 0.  1.
         12    1    3    3    0    0 -0.40345395626E+01  0.43800550717E+01 -0.76355773064E+01  0.96832036391E+01  0.00000000000E+00 0. -1.
</event>
<event>
 7    1  0.5006721E-012  0.5052885E+02  0.7816164E-02  0.1300439E+00
        -11   -1    0    0    0    0  0.00000000000E+00  0.00000000000E+00  0.45593999997E+02  0.45594000000E+02  0.51100000000E-03 0. -1.
         11   -1    0    0    0    0 -0.00000000000E+00 -0.00000000000E+00 -0.45593999997E+02  0.45594000000E+02  0.51100000000E-03 0.  1.
    9900012    2    1    2    0    0  0.18481991550E+02  0.10524499191E+02 -0.34652807468E+02  0.50528853916E+02  0.29999981963E+02 0.  0.
         12    1    1    2    0    0 -0.18481991550E+02 -0.10524499191E+02  0.34652807468E+02  0.40659146084E+02  0.00000000000E+00 0. -1.
         11    1    3    3    0    0  0.73653598283E+01  0.87815366119E+01 -0.84269469919E+01  0.14225939214E+02  0.51100000000E-03 0. -1.
        -11    1    3    3    0    0 -0.45847476440E+01 -0.15322041326E+01  0.77663651630E+00  0.48959907070E+01  0.51100000000E-03 0.  1.
        -12    1    3    3    0    0  0.15701379365E+02  0.32751667116E+01 -0.27002496993E+02  0.31406923995E+02  0.00000000000E+00 0.  1.
</event>
<event>
 7    1  0.5006721E-012  0.5052886E+02  0.7816164E-02  0.1300439E+00
        -11   -1    0    0    0    0  0.00000000000E+00  0.00000000000E+00  0.45593999997E+02  0.45594000000E+02  0.51100000000E-03 0. -1.
         11   -1    0    0    0    0 -0.00000000000E+00 -0.00000000000E+00 -0.45593999997E+02  0.45594000000E+02  0.51100000000E-03 0.  1.
    9900012    2    1    2    0    0 -0.12229007770E+00  0.18155889386E+02  0.36380135682E+02  0.50528861464E+02  0.30000004906E+02 0.  0.
        -12    1    1    2    0    0  0.12229007770E+00 -0.18155889386E+02 -0.36380135682E+02  0.40659138536E+02  0.00000000000E+00 0.  1.
         11    1    3    3    0    0 -0.10775163571E+01  0.87712526257E+01  0.20560072681E+02  0.22378840520E+02  0.51100000000E-03 0. -1.
        -11    1    3    3    0    0  0.78678457760E+01  0.10394629940E+02  0.27401788452E+01  0.13321407925E+02  0.51100000000E-03 0.  1.
        -12    1    3    3    0    0 -0.69126194966E+01 -0.10099931795E+01  0.13079884156E+02  0.14828613018E+02  0.00000000000E+00 0.  1.
</event>
<event>
 7    1  0.5006721E-012  0.5052887E+02  0.7816164E-02  0.1300439E+00
        -11   -1    0    0    0    0  0.00000000000E+00  0.00000000000E+00  0.45593999997E+02  0.45594000000E+02  0.51100000000E-03 0. -1.
         11   -1    0    0    0    0 -0.00000000000E+00 -0.00000000000E+00 -0.45593999997E+02  0.45594000000E+02  0.51100000000E-03 0.  1.
    9900012    2    1    2    0    0 -0.87964457094E+01  0.38907625700E+01 -0.39505050531E+02  0.50528874235E+02  0.30000043726E+02 0.  0.
         12    1    1    2    0    0  0.87964457094E+01 -0.38907625700E+01  0.39505050531E+02  0.40659125765E+02  0.00000000000E+00 0. -1.
         11    1    3    3    0    0  0.31442831660E+01  0.98352264481E+01 -0.74036580476E+01  0.12705603042E+02  0.51100000000E-03 0. -1.
        -11    1    3    3    0    0 -0.12498291958E+02 -0.93343645800E-02 -0.27775122742E+02  0.30457590722E+02  0.51100000000E-03 0.  1.
         12    1    3    3    0    0  0.55756308254E+00 -0.59351295136E+01 -0.43262697413E+01  0.73656804715E+01  0.00000000000E+00 0. -1.
</event>
<event>
 7    1  0.5006721E-012  0.5052885E+02  0.7816164E-02  0.1300439E+00
        -11   -1    0    0    0    0  0.00000000000E+00  0.00000000000E+00  0.45593999997E+02  0.45594000000E+02  0.51100000000E-03 0.  1.
         11   -1    0    0    0    0 -0.00000000000E+00 -0.00000000000E+00 -0.45593999997E+02  0.45594000000E+02  0.51100000000E-03 0. -1.
    9900012    2    1    2    0    0 -0.15830855318E+02  0.29977795729E+02  0.22447323316E+02  0.50528849235E+02  0.29999967735E+02 0.  0.
        -12    1    1    2    0    0  0.15830855318E+02 -0.29977795729E+02 -0.22447323316E+02  0.40659150765E+02  0.00000000000E+00 0.  1.
         11    1    3    3    0    0 -0.10694853866E+02  0.19798962491E+02  0.29364698323E+00  0.22504778242E+02  0.51100000000E-03 0. -1.
        -11    1    3    3    0    0 -0.43833295906E+00  0.19794864129E+01  0.17266969272E+02  0.17385589732E+02  0.51100000000E-03 0.  1.
        -12    1    3    3    0    0 -0.46976684932E+01  0.81993468248E+01  0.48867070614E+01  0.10638481260E+02  0.00000000000E+00 0.  1.
</event>
<event>
 7    1  0.5006721E-012  0.5052900E+02  0.7816164E-02  0.1300438E+00
        -11   -1    0    0    0    0  0.00000000000E+00  0.00000000000E+00  0.45593999997E+02  0.45594000000E+02  0.51100000000E-03 0. -1.
         11   -1    0    0    0    0 -0.00000000000E+00 -0.00000000000E+00 -0.45593999997E+02  0.45594000000E+02  0.51100000000E-03 0.  1.
    9900012    2    1    2    0    0  0.25359415079E+02 -0.22730918086E+02  0.22211703503E+02  0.50528999242E+02  0.30000423692E+02 0.  0.
        -12    1    1    2    0    0 -0.25359415079E+02  0.22730918086E+02 -0.22211703503E+02  0.40659000758E+02  0.00000000000E+00 0.  1.
         11    1    3    3    0    0  0.23648937923E+01 -0.84421846148E+01 -0.21132996406E+01  0.90182725259E+01  0.51100000000E-03 0. -1.
        -11    1    3    3    0    0  0.13775786957E+02 -0.44833695049E+01  0.24017911337E+02  0.28048760644E+02  0.51100000000E-03 0.  1.
        -12    1    3    3    0    0  0.92187343293E+01 -0.98053639658E+01  0.30709180675E+00  0.13461966072E+02  0.00000000000E+00 0.  1.
</event>
<event>
 7    1  0.5006721E-012  0.5052886E+02  0.7816164E-02  0.1300439E+00
        -11   -1    0    0    0    0  0.00000000000E+00  0.00000000000E+00  0.45593999997E+02  0.45594000000E+02  0.51100000000E-03 0. -1.
         11   -1    0    0    0    0 -0.00000000000E+00 -0.00000000000E+00 -0.45593999997E+02  0.45594000000E+02  0.51100000000E-03 0.  1.
    9900012    2    1    2    0    0 -0.50628979856E+00 -0.29699236221E+02  0.27764445030E+02  0.50528863643E+02  0.30000011528E+02 0.  0.
        -12    1    1    2    0    0  0.50628979856E+00  0.29699236221E+02 -0.27764445030E+02  0.40659136357E+02  0.00000000000E+00 0.  1.
         11    1    3    3    0    0 -0.17907863808E+01 -0.17536191728E+02  0.35679777311E+01  0.17984865903E+02  0.51100000000E-03 0. -1.
        -11    1    3    3    0    0  0.27483744611E+00 -0.73653089817E+01  0.26222813249E+02  0.27238928888E+02  0.51100000000E-03 0.  1.
        -12    1    3    3    0    0  0.10096591361E+01 -0.47977355117E+01 -0.20263459502E+01  0.53050688517E+01  0.00000000000E+00 0.  1.
</event>
<event>
 7    1  0.5006721E-012  0.5052888E+02  0.7816164E-02  0.1300439E+00
        -11   -1    0    0    0    0  0.00000000000E+00  0.00000000000E+00  0.45593999997E+02  0.45594000000E+02  0.51100000000E-03 0.  1.
         11   -1    0    0    0    0 -0.00000000000E+00 -0.00000000000E+00 -0.45593999997E+02  0.45594000000E+02  0.51100000000E-03 0. -1.
    9900012    2    1    2    0    0 -0.43520357062E+01 -0.39026180603E+02  0.10544249509E+02  0.50528878207E+02  0.30000055799E+02 0.  0.
         12    1    1    2    0    0  0.43520357062E+01  0.39026180603E+02 -0.10544249509E+02  0.40659121793E+02  0.00000000000E+00 0. -1.
         11    1    3    3    0    0 -0.99187554217E+01 -0.95893611984E+01  0.11166763492E+02  0.17749201798E+02  0.51100000000E-03 0. -1.
        -11    1    3    3    0    0  0.68440708220E+01 -0.26354659996E+02  0.35257994543E+01  0.27456159072E+02  0.51100000000E-03 0.  1.
        -12    1    3    3    0    0 -0.12773511066E+01 -0.30821594084E+01 -0.41483134377E+01  0.53235173378E+01  0.00000000000E+00 0.  1.
</event>
<event>
 7    1  0.5006721E-012  0.5052886E+02  0.7816164E-02  0.1300439E+00
        -11   -1    0    0    0    0  0.00000000000E+00  0.00000000000E+00  0.45593999997E+02  0.45594000000E+02  0.51100000000E-03 0.  1.
         11   -1    0    0    0    0 -0.00000000000E+00 -0.00000000000E+00 -0.45593999997E+02  0.45594000000E+02  0.51100000000E-03 0. -1.
    9900012    2    1    2    0    0 -0.37482938656E+02 -0.13064149388E+02  0.88047072818E+01  0.50528861300E+02  0.30000004406E+02 0.  0.
         12    1    1    2    0    0  0.37482938656E+02  0.13064149388E+02 -0.88047072818E+01  0.40659138700E+02  0.00000000000E+00 0. -1.
         11    1    3    3    0    0 -0.18414730395E+01 -0.85884700717E+01 -0.24089147318E+01  0.91080026117E+01  0.51100000000E-03 0. -1.
        -11    1    3    3    0    0 -0.26151668600E+02  0.42094948786E+01  0.10635285654E+02  0.28543631845E+02  0.51100000000E-03 0.  1.
         12    1    3    3    0    0 -0.94897970163E+01 -0.86851741952E+01  0.57833636004E+00  0.12877226843E+02  0.00000000000E+00 0. -1.
</event>
<event>
 7    1  0.5006721E-012  0.5052886E+02  0.7816164E-02  0.1300439E+00
        -11   -1    0    0    0    0  0.00000000000E+00  0.00000000000E+00  0.45593999997E+02  0.45594000000E+02  0.51100000000E-03 0. -1.
         11   -1    0    0    0    0 -0.00000000000E+00 -0.00000000000E+00 -0.45593999997E+02  0.45594000000E+02  0.51100000000E-03 0.  1.
    9900012    2    1    2    0    0 -0.18576312248E+02 -0.24564430170E+01 -0.36083964381E+02  0.50528856201E+02  0.29999988909E+02 0.  0.
         12    1    1    2    0    0  0.18576312248E+02  0.24564430170E+01  0.36083964381E+02  0.40659143799E+02  0.00000000000E+00 0. -1.
         11    1    3    3    0    0  0.72284505274E+01  0.27551539771E+01 -0.35386606210E+01  0.85066732462E+01  0.51100000000E-03 0. -1.
        -11    1    3    3    0    0 -0.19902428351E+02 -0.26876796594E+01 -0.26015548342E+02  0.32865468686E+02  0.51100000000E-03 0.  1.
         12    1    3    3    0    0 -0.59023344250E+01 -0.25239173347E+01 -0.65297554179E+01  0.91567142685E+01  0.00000000000E+00 0. -1.
</event>
<event>
 7    1  0.5006721E-012  0.5052887E+02  0.7816164E-02  0.1300439E+00
        -11   -1    0    0    0    0  0.00000000000E+00  0.00000000000E+00  0.45593999997E+02  0.45594000000E+02  0.51100000000E-03 0. -1.
         11   -1    0    0    0    0 -0.00000000000E+00 -0.00000000000E+00 -0.45593999997E+02  0.45594000000E+02  0.51100000000E-03 0.  1.
    9900012    2    1    2    0    0  0.13998791011E+02 -0.18946393371E+02 -0.33139600417E+02  0.50528867110E+02  0.30000022069E+02 0.  0.
         12    1    1    2    0    0 -0.13998791011E+02  0.18946393371E+02  0.33139600417E+02  0.40659132890E+02  0.00000000000E+00 0. -1.
         11    1    3    3    0    0  0.82875802953E+00 -0.13357919130E+02 -0.66637240109E+01  0.14950787983E+02  0.51100000000E-03 0. -1.
        -11    1    3    3    0    0  0.16655798498E+02 -0.87140685100E+01 -0.23221628002E+02  0.29876322078E+02  0.51100000000E-03 0.  1.
        -12    1    3    3    0    0 -0.34857655159E+01  0.31255942698E+01 -0.32542484045E+01  0.57017570493E+01  0.00000000000E+00 0.  1.
</event>
<event>
 7    1  0.5006721E-012  0.5052886E+02  0.7816164E-02  0.1300439E+00
        -11   -1    0    0    0    0  0.00000000000E+00  0.00000000000E+00  0.45593999997E+02  0.45594000000E+02  0.51100000000E-03 0. -1.
         11   -1    0    0    0    0 -0.00000000000E+00 -0.00000000000E+00 -0.45593999997E+02  0.45594000000E+02  0.51100000000E-03 0.  1.
    9900012    2    1    2    0    0  0.11089708955E+02 -0.40589623849E+01 -0.38906412684E+02  0.50528858737E+02  0.29999996616E+02 0.  0.
         12    1    1    2    0    0 -0.11089708955E+02  0.40589623849E+01  0.38906412684E+02  0.40659141263E+02  0.00000000000E+00 0. -1.
         11    1    3    3    0    0  0.53708794950E+01 -0.10849516517E+02 -0.36720301081E+01  0.12650777074E+02  0.51100000000E-03 0. -1.
        -11    1    3    3    0    0  0.47393038202E+01  0.65580468349E+01 -0.35813843127E+02  0.36716485927E+02  0.51100000000E-03 0.  1.
        -12    1    3    3    0    0  0.97952564000E+00  0.23250729713E+00  0.57946055178E+00  0.11615957359E+01  0.00000000000E+00 0.  1.
</event>
<event>
 7    1  0.5006721E-012  0.5052886E+02  0.7816164E-02  0.1300439E+00
        -11   -1    0    0    0    0  0.00000000000E+00  0.00000000000E+00  0.45593999997E+02  0.45594000000E+02  0.51100000000E-03 0. -1.
         11   -1    0    0    0    0 -0.00000000000E+00 -0.00000000000E+00 -0.45593999997E+02  0.45594000000E+02  0.51100000000E-03 0.  1.
    9900012    2    1    2    0    0  0.59448015305E+01 -0.13153058917E+02 -0.38010813678E+02  0.50528861045E+02  0.30000003633E+02 0.  0.
         12    1    1    2    0    0 -0.59448015305E+01  0.13153058917E+02  0.38010813678E+02  0.40659138955E+02  0.00000000000E+00 0. -1.
         11    1    3    3    0    0 -0.17568069933E+01  0.48018431411E+01 -0.29521811314E+01  0.59041885181E+01  0.51100000000E-03 0. -1.
        -11    1    3    3    0    0  0.11686713728E+02 -0.16719583169E+02 -0.18466738501E+02  0.27516252838E+02  0.51100000000E-03 0.  1.
        -12    1    3    3    0    0 -0.39851052046E+01 -0.12353188890E+01 -0.16591894046E+02  0.17108419689E+02  0.00000000000E+00 0.  1.
</event>
<event>
 7    1  0.5006721E-012  0.5052888E+02  0.7816164E-02  0.1300439E+00
        -11   -1    0    0    0    0  0.00000000000E+00  0.00000000000E+00  0.45593999997E+02  0.45594000000E+02  0.51100000000E-03 0. -1.
         11   -1    0    0    0    0 -0.00000000000E+00 -0.00000000000E+00 -0.45593999997E+02  0.45594000000E+02  0.51100000000E-03 0.  1.
    9900012    2    1    2    0    0  0.20392240022E+02 -0.92415735548E+01 -0.33939860873E+02  0.50528876904E+02  0.30000051837E+02 0.  0.
         12    1    1    2    0    0 -0.20392240022E+02  0.92415735548E+01  0.33939860873E+02  0.40659123096E+02  0.00000000000E+00 0. -1.
         11    1    3    3    0    0  0.12434540837E+01  0.37737915329E+01 -0.17501883207E+02  0.17947244820E+02  0.51100000000E-03 0. -1.
        -11    1    3    3    0    0  0.98080157621E+01 -0.14619071934E+02 -0.14724598922E+02  0.22950561019E+02  0.51100000000E-03 0.  1.
         12    1    3    3    0    0  0.93407701758E+01  0.16037068465E+01 -0.17133787439E+01  0.96310710644E+01  0.00000000000E+00 0. -1.
</event>
<event>
 7    1  0.5006721E-012  0.5052885E+02  0.7816164E-02  0.1300439E+00
        -11   -1    0    0    0    0  0.00000000000E+00  0.00000000000E+00  0.45593999997E+02  0.45594000000E+02  0.51100000000E-03 0. -1.
         11   -1    0    0    0    0 -0.00000000000E+00 -0.00000000000E+00 -0.45593999997E+02  0.45594000000E+02  0.51100000000E-03 0.  1.
    9900012    2    1    2    0    0  0.40555039591E+02 -0.22088189985E+01  0.18910934820E+01  0.50528851556E+02  0.29999974790E+02 0.  0.
         12    1    1    2    0    0 -0.40555039591E+02  0.22088189985E+01 -0.18910934820E+01  0.40659148444E+02  0.00000000000E+00 0. -1.
         11    1    3    3    0    0  0.35882448742E+02  0.30694221584E+01  0.28436573338E+01  0.36125584665E+02  0.51100000000E-03 0. -1.
        -11    1    3    3    0    0  0.22652737203E+01 -0.89530284689E+01 -0.27810939992E+01  0.96448259646E+01  0.51100000000E-03 0.  1.
        -12    1    3    3    0    0  0.24073171291E+01  0.36747873120E+01  0.18285301474E+01  0.47584409262E+01  0.00000000000E+00 0.  1.
</event>
<event>
 7    1  0.5006721E-012  0.5052886E+02  0.7816164E-02  0.1300439E+00
        -11   -1    0    0    0    0  0.00000000000E+00  0.00000000000E+00  0.45593999997E+02  0.45594000000E+02  0.51100000000E-03 0. -1.
         11   -1    0    0    0    0 -0.00000000000E+00 -0.00000000000E+00 -0.45593999997E+02  0.45594000000E+02  0.51100000000E-03 0.  1.
    9900012    2    1    2    0    0  0.32814116539E+02  0.23673013691E+02  0.39984771410E+01  0.50528860303E+02  0.30000001378E+02 0.  0.
        -12    1    1    2    0    0 -0.32814116539E+02 -0.23673013691E+02 -0.39984771410E+01  0.40659139697E+02  0.00000000000E+00 0.  1.
         11    1    3    3    0    0  0.21737111568E+01 -0.53970458198E+01  0.18306309125E+01  0.60995355211E+01  0.51100000000E-03 0. -1.
        -11    1    3    3    0    0  0.26394040740E+01  0.87896975734E+01 -0.25746861755E+01  0.95317493914E+01  0.51100000000E-03 0.  1.
         12    1    3    3    0    0  0.28001001308E+02  0.20280361937E+02  0.47425324040E+01  0.34897575391E+02  0.00000000000E+00 0. -1.
</event>
<event>
 7    1  0.5006721E-012  0.5052886E+02  0.7816164E-02  0.1300439E+00
        -11   -1    0    0    0    0  0.00000000000E+00  0.00000000000E+00  0.45593999997E+02  0.45594000000E+02  0.51100000000E-03 0. -1.
         11   -1    0    0    0    0 -0.00000000000E+00 -0.00000000000E+00 -0.45593999997E+02  0.45594000000E+02  0.51100000000E-03 0.  1.
    9900012    2    1    2    0    0 -0.32530127799E+02  0.66765344795E+01 -0.23460181855E+02  0.50528862528E+02  0.30000008140E+02 0.  0.
         12    1    1    2    0    0  0.32530127799E+02 -0.66765344795E+01  0.23460181855E+02  0.40659137472E+02  0.00000000000E+00 0. -1.
         11    1    3    3    0    0 -0.59227559265E+01  0.94985070943E+01 -0.14904784112E+02  0.18640098295E+02  0.51100000000E-03 0. -1.
        -11    1    3    3    0    0 -0.15504996605E+02 -0.26788265863E+01 -0.12510493411E+02  0.20102076441E+02  0.51100000000E-03 0.  1.
         12    1    3    3    0    0 -0.11102375268E+02 -0.14314602848E+00  0.39550956668E+01  0.11786687792E+02  0.00000000000E+00 0. -1.
</event>
<event>
 7    1  0.5006721E-012  0.5052886E+02  0.7816164E-02  0.1300439E+00
        -11   -1    0    0    0    0  0.00000000000E+00  0.00000000000E+00  0.45593999997E+02  0.45594000000E+02  0.51100000000E-03 0. -1.
         11   -1    0    0    0    0 -0.00000000000E+00 -0.00000000000E+00 -0.45593999997E+02  0.45594000000E+02  0.51100000000E-03 0.  1.
    9900012    2    1    2    0    0  0.25202036237E+02  0.30494184305E+02 -0.93876237336E+01  0.50528863434E+02  0.30000010894E+02 0.  0.
         12    1    1    2    0    0 -0.25202036237E+02 -0.30494184305E+02  0.93876237336E+01  0.40659136566E+02  0.00000000000E+00 0. -1.
         11    1    3    3    0    0  0.14045582674E+02  0.75863168450E+01 -0.40737749133E+01  0.16475018611E+02  0.51100000000E-03 0. -1.
        -11    1    3    3    0    0 -0.44572874789E+01  0.29033703145E+01  0.43781154533E+01  0.68894750189E+01  0.51100000000E-03 0.  1.
        -12    1    3    3    0    0  0.15613741042E+02  0.20004497146E+02 -0.96919642736E+01  0.27164369804E+02  0.00000000000E+00 0.  1.
</event>
<event>
 7    1  0.5006721E-012  0.5052887E+02  0.7816164E-02  0.1300439E+00
        -11   -1    0    0    0    0  0.00000000000E+00  0.00000000000E+00  0.45593999997E+02  0.45594000000E+02  0.51100000000E-03 0. -1.
         11   -1    0    0    0    0 -0.00000000000E+00 -0.00000000000E+00 -0.45593999997E+02  0.45594000000E+02  0.51100000000E-03 0.  1.
    9900012    2    1    2    0    0 -0.16514871361E+02  0.36726487494E+02  0.56204433125E+01  0.50528865200E+02  0.30000016261E+02 0.  0.
        -12    1    1    2    0    0  0.16514871361E+02 -0.36726487494E+02 -0.56204433125E+01  0.40659134800E+02  0.00000000000E+00 0.  1.
         11    1    3    3    0    0 -0.10790117265E+02  0.18809388450E+02  0.87190979615E+01  0.23371829068E+02  0.51100000000E-03 0. -1.
        -11    1    3    3    0    0  0.62516802627E+01  0.99474415493E+01  0.19530614535E+01  0.11910060822E+02  0.51100000000E-03 0.  1.
        -12    1    3    3    0    0 -0.11976434358E+02  0.79696574947E+01 -0.50517161025E+01  0.15246975310E+02  0.00000000000E+00 0.  1.
</event>
<event>
 7    1  0.5006721E-012  0.5052886E+02  0.7816164E-02  0.1300439E+00
        -11   -1    0    0    0    0  0.00000000000E+00  0.00000000000E+00  0.45593999997E+02  0.45594000000E+02  0.51100000000E-03 0. -1.
         11   -1    0    0    0    0 -0.00000000000E+00 -0.00000000000E+00 -0.45593999997E+02  0.45594000000E+02  0.51100000000E-03 0.  1.
    9900012    2    1    2    0    0  0.16226475861E+02 -0.31929537912E+02 -0.19245039129E+02  0.50528862758E+02  0.30000008839E+02 0.  0.
         12    1    1    2    0    0 -0.16226475861E+02  0.31929537912E+02  0.19245039129E+02  0.40659137242E+02  0.00000000000E+00 0. -1.
         11    1    3    3    0    0  0.84510700339E+00 -0.77960035160E+01  0.17126879623E+01  0.80265295730E+01  0.51100000000E-03 0. -1.
        -11    1    3    3    0    0  0.37308131342E+01 -0.17166291489E+02 -0.22821940803E+02  0.28800026257E+02  0.51100000000E-03 0.  1.
        -12    1    3    3    0    0  0.11650555724E+02 -0.69672429070E+01  0.18642137111E+01  0.13702306928E+02  0.00000000000E+00 0.  1.
</event>
<event>
 7    1  0.5006721E-012  0.5052886E+02  0.7816164E-02  0.1300439E+00
        -11   -1    0    0    0    0  0.00000000000E+00  0.00000000000E+00  0.45593999997E+02  0.45594000000E+02  0.51100000000E-03 0. -1.
         11   -1    0    0    0    0 -0.00000000000E+00 -0.00000000000E+00 -0.45593999997E+02  0.45594000000E+02  0.51100000000E-03 0.  1.
    9900012    2    1    2    0    0  0.95887905688E+01  0.31631342764E+02 -0.23678657469E+02  0.50528861185E+02  0.30000004058E+02 0.  0.
         12    1    1    2    0    0 -0.95887905688E+01 -0.31631342764E+02  0.23678657469E+02  0.40659138815E+02  0.00000000000E+00 0. -1.
         11    1    3    3    0    0 -0.32997641726E+01  0.13922119914E+01  0.14637105000E+01  0.38689981278E+01  0.51100000000E-03 0. -1.
        -11    1    3    3    0    0  0.18392925743E+02  0.17752298279E+02 -0.17940023166E+02  0.31229605233E+02  0.51100000000E-03 0.  1.
        -12    1    3    3    0    0 -0.55043710013E+01  0.12486832494E+02 -0.72023448033E+01  0.15430257824E+02  0.00000000000E+00 0.  1.
</event>
<event>
 7    1  0.5006721E-012  0.5052883E+02  0.7816164E-02  0.1300439E+00
        -11   -1    0    0    0    0  0.00000000000E+00  0.00000000000E+00  0.45593999997E+02  0.45594000000E+02  0.51100000000E-03 0. -1.
         11   -1    0    0    0    0 -0.00000000000E+00 -0.00000000000E+00 -0.45593999997E+02  0.45594000000E+02  0.51100000000E-03 0.  1.
    9900012    2    1    2    0    0  0.60018723686E+01  0.14880623430E+02 -0.37359234165E+02  0.50528833715E+02  0.29999920561E+02 0.  0.
         12    1    1    2    0    0 -0.60018723686E+01 -0.14880623430E+02  0.37359234165E+02  0.40659166285E+02  0.00000000000E+00 0. -1.
         11    1    3    3    0    0 -0.42526966303E+01 -0.69475631973E+01 -0.61684245145E+01  0.10217804278E+02  0.51100000000E-03 0. -1.
        -11    1    3    3    0    0  0.11460191528E+02  0.16631174368E+02 -0.24375171556E+02  0.31655662043E+02  0.51100000000E-03 0.  1.
        -12    1    3    3    0    0 -0.12056225292E+01  0.51970122585E+01 -0.68156380940E+01  0.86553673941E+01  0.00000000000E+00 0.  1.
</event>
<event>
 7    1  0.5006721E-012  0.5052886E+02  0.7816164E-02  0.1300439E+00
        -11   -1    0    0    0    0  0.00000000000E+00  0.00000000000E+00  0.45593999997E+02  0.45594000000E+02  0.51100000000E-03 0. -1.
         11   -1    0    0    0    0 -0.00000000000E+00 -0.00000000000E+00 -0.45593999997E+02  0.45594000000E+02  0.51100000000E-03 0.  1.
    9900012    2    1    2    0    0  0.18352719743E+02  0.18684376703E+02 -0.31100442970E+02  0.50528858252E+02  0.29999995143E+02 0.  0.
         12    1    1    2    0    0 -0.18352719743E+02 -0.18684376703E+02  0.31100442970E+02  0.40659141748E+02  0.00000000000E+00 0. -1.
         11    1    3    3    0    0 -0.56213659593E+01 -0.33105217160E+01 -0.35338803028E+01  0.74194083009E+01  0.51100000000E-03 0. -1.
        -11    1    3    3    0    0  0.88070566126E+01  0.46631890258E+01 -0.10239769622E+02  0.14288542971E+02  0.51100000000E-03 0.  1.
         12    1    3    3    0    0  0.15167029089E+02  0.17331709394E+02 -0.17326793045E+02  0.28820906980E+02  0.00000000000E+00 0. -1.
</event>
<event>
 7    1  0.5006721E-012  0.5052889E+02  0.7816164E-02  0.1300439E+00
        -11   -1    0    0    0    0  0.00000000000E+00  0.00000000000E+00  0.45593999997E+02  0.45594000000E+02  0.51100000000E-03 0. -1.
         11   -1    0    0    0    0 -0.00000000000E+00 -0.00000000000E+00 -0.45593999997E+02  0.45594000000E+02  0.51100000000E-03 0.  1.
    9900012    2    1    2    0    0  0.33871298181E+02 -0.31068599008E+01 -0.22276578836E+02  0.50528888062E+02  0.30000085754E+02 0.  0.
         12    1    1    2    0    0 -0.33871298181E+02  0.31068599008E+01  0.22276578836E+02  0.40659111938E+02  0.00000000000E+00 0. -1.
         11    1    3    3    0    0  0.48299429788E+01 -0.45606120538E+01 -0.12901686424E+02  0.14511410831E+02  0.51100000000E-03 0. -1.
        -11    1    3    3    0    0  0.29023101455E+02  0.62949407696E+01 -0.65476203654E+01  0.30411149765E+02  0.51100000000E-03 0.  1.
        -12    1    3    3    0    0  0.18253747603E-01 -0.48411886166E+01 -0.28272720472E+01  0.56063274655E+01  0.00000000000E+00 0.  1.
</event>
<event>
 7    1  0.5006721E-012  0.5052886E+02  0.7816164E-02  0.1300439E+00
        -11   -1    0    0    0    0  0.00000000000E+00  0.00000000000E+00  0.45593999997E+02  0.45594000000E+02  0.51100000000E-03 0.  1.
         11   -1    0    0    0    0 -0.00000000000E+00 -0.00000000000E+00 -0.45593999997E+02  0.45594000000E+02  0.51100000000E-03 0. -1.
    9900012    2    1    2    0    0 -0.13314157452E+02  0.33913686240E+02  0.18048841473E+02  0.50528861032E+02  0.30000003593E+02 0.  0.
        -12    1    1    2    0    0  0.13314157452E+02 -0.33913686240E+02 -0.18048841473E+02  0.40659138968E+02  0.00000000000E+00 0.  1.
         11    1    3    3    0    0  0.83352792820E+00  0.23270978228E+02 -0.21248001875E+01  0.23382642550E+02  0.51100000000E-03 0. -1.
        -11    1    3    3    0    0 -0.10743203199E+02  0.74133859678E+01  0.17195763614E+02  0.21588631106E+02  0.51100000000E-03 0.  1.
         12    1    3    3    0    0 -0.34044821813E+01  0.32293220443E+01  0.29778780470E+01  0.55575873768E+01  0.00000000000E+00 0. -1.
</event>
<event>
 7    1  0.5006721E-012  0.5052887E+02  0.7816164E-02  0.1300439E+00
        -11   -1    0    0    0    0  0.00000000000E+00  0.00000000000E+00  0.45593999997E+02  0.45594000000E+02  0.51100000000E-03 0. -1.
         11   -1    0    0    0    0 -0.00000000000E+00 -0.00000000000E+00 -0.45593999997E+02  0.45594000000E+02  0.51100000000E-03 0.  1.
    9900012    2    1    2    0    0 -0.15169300890E+01 -0.39527213558E+00 -0.40628896791E+02  0.50528873454E+02  0.30000041352E+02 0.  0.
         12    1    1    2    0    0  0.15169300890E+01  0.39527213558E+00  0.40628896791E+02  0.40659126546E+02  0.00000000000E+00 0. -1.
         11    1    3    3    0    0 -0.27590706299E+01  0.14761836732E+00 -0.38988376823E+02  0.39086158541E+02  0.51100000000E-03 0.  1.
        -11    1    3    3    0    0  0.37999167068E+01  0.43538651278E+01 -0.11875751465E+01  0.58996477454E+01  0.51100000000E-03 0. -1.
         12    1    3    3    0    0 -0.25577761660E+01 -0.48967556307E+01 -0.45294482208E+00  0.55430671685E+01  0.00000000000E+00 0. -1.
</event>
<event>
 7    1  0.5006721E-012  0.5052884E+02  0.7816164E-02  0.1300439E+00
        -11   -1    0    0    0    0  0.00000000000E+00  0.00000000000E+00  0.45593999997E+02  0.45594000000E+02  0.51100000000E-03 0. -1.
         11   -1    0    0    0    0 -0.00000000000E+00 -0.00000000000E+00 -0.45593999997E+02  0.45594000000E+02  0.51100000000E-03 0.  1.
    9900012    2    1    2    0    0 -0.19185308171E+02 -0.19480957836E+02 -0.30092916573E+02  0.50528838724E+02  0.29999935786E+02 0.  0.
         12    1    1    2    0    0  0.19185308171E+02  0.19480957836E+02  0.30092916573E+02  0.40659161276E+02  0.00000000000E+00 0. -1.
         11    1    3    3    0    0 -0.18961114278E+01  0.56560227609E+00 -0.41992154859E+01  0.46420421627E+01  0.51100000000E-03 0. -1.
        -11    1    3    3    0    0 -0.88950917358E+01  0.15125844936E+01  0.24017459924E+01  0.93369670082E+01  0.51100000000E-03 0.  1.
        -12    1    3    3    0    0 -0.83941050070E+01 -0.21559144605E+02 -0.28295447079E+02  0.36549829553E+02  0.00000000000E+00 0.  1.
</event>
<event>
 7    1  0.5006721E-012  0.5052886E+02  0.7816164E-02  0.1300439E+00
        -11   -1    0    0    0    0  0.00000000000E+00  0.00000000000E+00  0.45593999997E+02  0.45594000000E+02  0.51100000000E-03 0. -1.
         11   -1    0    0    0    0 -0.00000000000E+00 -0.00000000000E+00 -0.45593999997E+02  0.45594000000E+02  0.51100000000E-03 0.  1.
    9900012    2    1    2    0    0  0.75336703430E+01  0.19118247698E+02  0.35084215521E+02  0.50528858806E+02  0.29999996828E+02 0.  0.
        -12    1    1    2    0    0 -0.75336703430E+01 -0.19118247698E+02 -0.35084215521E+02  0.40659141194E+02  0.00000000000E+00 0.  1.
         11    1    3    3    0    0 -0.32337125964E+01  0.21508461025E+02  0.22664770496E+02  0.31412777889E+02  0.51100000000E-03 0. -1.
        -11    1    3    3    0    0  0.78946063172E+01 -0.59483725532E+01  0.93660750261E+01  0.13617316424E+02  0.51100000000E-03 0.  1.
        -12    1    3    3    0    0  0.28727766222E+01  0.35581592261E+01  0.30533699987E+01  0.54987644929E+01  0.00000000000E+00 0.  1.
</event>
<event>
 7    1  0.5006721E-012  0.5052884E+02  0.7816164E-02  0.1300439E+00
        -11   -1    0    0    0    0  0.00000000000E+00  0.00000000000E+00  0.45593999997E+02  0.45594000000E+02  0.51100000000E-03 0. -1.
         11   -1    0    0    0    0 -0.00000000000E+00 -0.00000000000E+00 -0.45593999997E+02  0.45594000000E+02  0.51100000000E-03 0.  1.
    9900012    2    1    2    0    0 -0.20267276013E+02  0.21627984297E+02 -0.27832262400E+02  0.50528843441E+02  0.29999950125E+02 0.  0.
         12    1    1    2    0    0  0.20267276013E+02 -0.21627984297E+02  0.27832262400E+02  0.40659156559E+02  0.00000000000E+00 0. -1.
         11    1    3    3    0    0 -0.14840015351E+02  0.74410064452E+01  0.16541675241E+01  0.16683252171E+02  0.51100000000E-03 0. -1.
        -11    1    3    3    0    0 -0.50530774875E+01  0.41417758910E+01 -0.10637880742E+02  0.12484086133E+02  0.51100000000E-03 0.  1.
         12    1    3    3    0    0 -0.37418317461E+00  0.10045201960E+02 -0.18848549182E+02  0.21361505138E+02  0.00000000000E+00 0. -1.
</event>
<event>
 7    1  0.5006721E-012  0.5052885E+02  0.7816164E-02  0.1300439E+00
        -11   -1    0    0    0    0  0.00000000000E+00  0.00000000000E+00  0.45593999997E+02  0.45594000000E+02  0.51100000000E-03 0. -1.
         11   -1    0    0    0    0 -0.00000000000E+00 -0.00000000000E+00 -0.45593999997E+02  0.45594000000E+02  0.51100000000E-03 0.  1.
    9900012    2    1    2    0    0  0.17795135883E+02  0.76503832493E+01 -0.35748726832E+02  0.50528847340E+02  0.29999961974E+02 0.  0.
         12    1    1    2    0    0 -0.17795135883E+02 -0.76503832493E+01  0.35748726832E+02  0.40659152660E+02  0.00000000000E+00 0. -1.
         11    1    3    3    0    0  0.17474160734E+02 -0.54688176541E+01 -0.10838920717E+02  0.21277604717E+02  0.51100000000E-03 0. -1.
        -11    1    3    3    0    0 -0.33820164075E+01  0.86532735250E+01 -0.12723872237E+02  0.15754812047E+02  0.51100000000E-03 0.  1.
        -12    1    3    3    0    0  0.37029915560E+01  0.44659273784E+01 -0.12185933878E+02  0.13496430576E+02  0.00000000000E+00 0.  1.
</event>
<event>
 7    1  0.5006721E-012  0.5052886E+02  0.7816164E-02  0.1300439E+00
        -11   -1    0    0    0    0  0.00000000000E+00  0.00000000000E+00  0.45593999997E+02  0.45594000000E+02  0.51100000000E-03 0. -1.
         11   -1    0    0    0    0 -0.00000000000E+00 -0.00000000000E+00 -0.45593999997E+02  0.45594000000E+02  0.51100000000E-03 0.  1.
    9900012    2    1    2    0    0  0.79033883646E+01  0.29248934337E+02  0.27114610013E+02  0.50528858547E+02  0.29999996041E+02 0.  0.
        -12    1    1    2    0    0 -0.79033883646E+01 -0.29248934337E+02 -0.27114610013E+02  0.40659141453E+02  0.00000000000E+00 0.  1.
         11    1    3    3    0    0 -0.38785628502E+01  0.22570867802E+02  0.18256701039E+02  0.29288128247E+02  0.51100000000E-03 0. -1.
        -11    1    3    3    0    0  0.14592846371E+02  0.44220567973E+01  0.88622309231E+01  0.17636464745E+02  0.51100000000E-03 0.  1.
        -12    1    3    3    0    0 -0.28108951557E+01  0.22560097377E+01 -0.43219489792E-02  0.36042655552E+01  0.00000000000E+00 0.  1.
</event>
<event>
 7    1  0.5006721E-012  0.5052889E+02  0.7816164E-02  0.1300439E+00
        -11   -1    0    0    0    0  0.00000000000E+00  0.00000000000E+00  0.45593999997E+02  0.45594000000E+02  0.51100000000E-03 0. -1.
         11   -1    0    0    0    0 -0.00000000000E+00 -0.00000000000E+00 -0.45593999997E+02  0.45594000000E+02  0.51100000000E-03 0.  1.
    9900012    2    1    2    0    0  0.81136877096E+01 -0.29095681355E+02 -0.27217131653E+02  0.50528894536E+02  0.30000105431E+02 0.  0.
         12    1    1    2    0    0 -0.81136877096E+01  0.29095681355E+02  0.27217131653E+02  0.40659105464E+02  0.00000000000E+00 0. -1.
         11    1    3    3    0    0  0.56914854289E+01 -0.48173568839E+01 -0.10951614369E+02  0.13249067563E+02  0.51100000000E-03 0. -1.
        -11    1    3    3    0    0  0.58335823332E+01 -0.18334204208E+02  0.41698600015E+00  0.19244417486E+02  0.51100000000E-03 0.  1.
        -12    1    3    3    0    0 -0.34113800526E+01 -0.59441202631E+01 -0.16682503283E+02  0.18035409487E+02  0.00000000000E+00 0.  1.
</event>
<event>
 7    1  0.5006721E-012  0.5052885E+02  0.7816164E-02  0.1300439E+00
        -11   -1    0    0    0    0  0.00000000000E+00  0.00000000000E+00  0.45593999997E+02  0.45594000000E+02  0.51100000000E-03 0. -1.
         11   -1    0    0    0    0 -0.00000000000E+00 -0.00000000000E+00 -0.45593999997E+02  0.45594000000E+02  0.51100000000E-03 0.  1.
    9900012    2    1    2    0    0 -0.19058944277E+02  0.19872847394E+01 -0.35860478260E+02  0.50528849017E+02  0.29999967073E+02 0.  0.
         12    1    1    2    0    0  0.19058944277E+02 -0.19872847394E+01  0.35860478260E+02  0.40659150983E+02  0.00000000000E+00 0. -1.
         11    1    3    3    0    0 -0.17972831220E+02 -0.46285491450E+01 -0.58268016541E+01  0.19452448356E+02  0.51100000000E-03 0. -1.
        -11    1    3    3    0    0 -0.63661620102E+00  0.50993935310E+01 -0.13145064090E+02  0.14113886947E+02  0.51100000000E-03 0.  1.
         12    1    3    3    0    0 -0.44949685517E+00  0.15164403533E+01 -0.16888612516E+02  0.16962513714E+02  0.00000000000E+00 0. -1.
</event>
<event>
 7    1  0.5006721E-012  0.5052897E+02  0.7816164E-02  0.1300438E+00
        -11   -1    0    0    0    0  0.00000000000E+00  0.00000000000E+00  0.45593999997E+02  0.45594000000E+02  0.51100000000E-03 0. -1.
         11   -1    0    0    0    0 -0.00000000000E+00 -0.00000000000E+00 -0.45593999997E+02  0.45594000000E+02  0.51100000000E-03 0.  1.
    9900012    2    1    2    0    0 -0.32688079923E+01  0.30667416581E+02  0.26494931129E+02  0.50528967536E+02  0.30000327320E+02 0.  0.
        -12    1    1    2    0    0  0.32688079923E+01 -0.30667416581E+02 -0.26494931129E+02  0.40659032464E+02  0.00000000000E+00 0.  1.
         11    1    3    3    0    0  0.79725333381E+01  0.21906382487E+02  0.21200101665E+02  0.31510239484E+02  0.51100000000E-03 0. -1.
        -11    1    3    3    0    0 -0.66061501223E+01  0.76056156666E+01 -0.20273775098E+01  0.10276033716E+02  0.51100000000E-03 0.  1.
         12    1    3    3    0    0 -0.46351912081E+01  0.11554184273E+01  0.73222069740E+01  0.87426943357E+01  0.00000000000E+00 0. -1.
</event>
<event>
 7    1  0.5006721E-012  0.5052886E+02  0.7816164E-02  0.1300439E+00
        -11   -1    0    0    0    0  0.00000000000E+00  0.00000000000E+00  0.45593999997E+02  0.45594000000E+02  0.51100000000E-03 0. -1.
         11   -1    0    0    0    0 -0.00000000000E+00 -0.00000000000E+00 -0.45593999997E+02  0.45594000000E+02  0.51100000000E-03 0.  1.
    9900012    2    1    2    0    0 -0.23608450828E+02  0.28283939542E+02  0.17199574726E+02  0.50528861332E+02  0.30000004504E+02 0.  0.
        -12    1    1    2    0    0  0.23608450828E+02 -0.28283939542E+02 -0.17199574726E+02  0.40659138668E+02  0.00000000000E+00 0.  1.
         11    1    3    3    0    0 -0.24916815630E+02  0.18467342721E+02  0.18194911132E+02  0.35957547743E+02  0.51100000000E-03 0. -1.
        -11    1    3    3    0    0  0.23545089564E+01  0.47665529153E+01 -0.55538151219E+01  0.76882118720E+01  0.51100000000E-03 0.  1.
         12    1    3    3    0    0 -0.10461441540E+01  0.50500439055E+01  0.45584787165E+01  0.68831017171E+01  0.00000000000E+00 0. -1.
</event>
<event>
 7    1  0.5006721E-012  0.5052886E+02  0.7816164E-02  0.1300439E+00
        -11   -1    0    0    0    0  0.00000000000E+00  0.00000000000E+00  0.45593999997E+02  0.45594000000E+02  0.51100000000E-03 0.  1.
         11   -1    0    0    0    0 -0.00000000000E+00 -0.00000000000E+00 -0.45593999997E+02  0.45594000000E+02  0.51100000000E-03 0. -1.
    9900012    2    1    2    0    0 -0.21049880373E+02  0.34085966915E+02 -0.69437048098E+01  0.50528860305E+02  0.30000001384E+02 0.  0.
        -12    1    1    2    0    0  0.21049880373E+02 -0.34085966915E+02  0.69437048098E+01  0.40659139695E+02  0.00000000000E+00 0.  1.
         11    1    3    3    0    0 -0.11253275741E+02  0.86586519878E+01 -0.66701071956E+01  0.15687536435E+02  0.51100000000E-03 0. -1.
        -11    1    3    3    0    0  0.35017212091E+01  0.52548307227E+01  0.71747879651E+01  0.95578700533E+01  0.51100000000E-03 0.  1.
        -12    1    3    3    0    0 -0.13298325841E+02  0.20172484204E+02 -0.74483855793E+01  0.25283453816E+02  0.00000000000E+00 0.  1.
</event>
<event>
 7    1  0.5006721E-012  0.5052886E+02  0.7816164E-02  0.1300439E+00
        -11   -1    0    0    0    0  0.00000000000E+00  0.00000000000E+00  0.45593999997E+02  0.45594000000E+02  0.51100000000E-03 0. -1.
         11   -1    0    0    0    0 -0.00000000000E+00 -0.00000000000E+00 -0.45593999997E+02  0.45594000000E+02  0.51100000000E-03 0.  1.
    9900012    2    1    2    0    0  0.34098662942E+02 -0.10595448415E+02 -0.19446933505E+02  0.50528861245E+02  0.30000004240E+02 0.  0.
         12    1    1    2    0    0 -0.34098662942E+02  0.10595448415E+02  0.19446933505E+02  0.40659138755E+02  0.00000000000E+00 0. -1.
         11    1    3    3    0    0 -0.51183555251E+00  0.79196411234E+00 -0.25396034047E+01  0.27090161502E+01  0.51100000000E-03 0. -1.
        -11    1    3    3    0    0  0.11586915654E+02 -0.16791660397E+02 -0.11992863832E+02  0.23665275329E+02  0.51100000000E-03 0.  1.
        -12    1    3    3    0    0  0.23023582840E+02  0.54042478697E+01 -0.49144662691E+01  0.24154569765E+02  0.00000000000E+00 0.  1.
</event>
<event>
 7    1  0.5006721E-012  0.5052886E+02  0.7816164E-02  0.1300439E+00
        -11   -1    0    0    0    0  0.00000000000E+00  0.00000000000E+00  0.45593999997E+02  0.45594000000E+02  0.51100000000E-03 0. -1.
         11   -1    0    0    0    0 -0.00000000000E+00 -0.00000000000E+00 -0.45593999997E+02  0.45594000000E+02  0.51100000000E-03 0.  1.
    9900012    2    1    2    0    0 -0.25489268022E+02  0.21474114434E+02 -0.23287874273E+02  0.50528862488E+02  0.30000008020E+02 0.  0.
         12    1    1    2    0    0  0.25489268022E+02 -0.21474114434E+02  0.23287874273E+02  0.40659137512E+02  0.00000000000E+00 0. -1.
         11    1    3    3    0    0 -0.13331834568E+02 -0.29711898986E+01 -0.11412083518E+02  0.17798916620E+02  0.51100000000E-03 0. -1.
        -11    1    3    3    0    0 -0.50721236695E+01  0.22176763150E+02 -0.10902396767E+02  0.25226920499E+02  0.51100000000E-03 0.  1.
         12    1    3    3    0    0 -0.70853097844E+01  0.22685411822E+01 -0.97339398897E+00  0.75030253694E+01  0.00000000000E+00 0. -1.
</event>
<event>
 7    1  0.5006721E-012  0.5052886E+02  0.7816164E-02  0.1300439E+00
        -11   -1    0    0    0    0  0.00000000000E+00  0.00000000000E+00  0.45593999997E+02  0.45594000000E+02  0.51100000000E-03 0. -1.
         11   -1    0    0    0    0 -0.00000000000E+00 -0.00000000000E+00 -0.45593999997E+02  0.45594000000E+02  0.51100000000E-03 0.  1.
    9900012    2    1    2    0    0 -0.27712601242E+02  0.13318329032E+02 -0.26604507604E+02  0.50528856125E+02  0.29999988677E+02 0.  0.
         12    1    1    2    0    0  0.27712601242E+02 -0.13318329032E+02  0.26604507604E+02  0.40659143875E+02  0.00000000000E+00 0. -1.
         11    1    3    3    0    0 -0.73874429406E+01  0.94594031306E+01 -0.38474217646E+01  0.12603859539E+02  0.51100000000E-03 0. -1.
        -11    1    3    3    0    0 -0.10605377574E+02  0.57507958131E+01 -0.25011820552E+02  0.27769350975E+02  0.51100000000E-03 0.  1.
        -12    1    3    3    0    0 -0.97197807274E+01 -0.18918699114E+01  0.22547347125E+01  0.10155645611E+02  0.00000000000E+00 0.  1.
</event>
<event>
 7    1  0.5006721E-012  0.5052885E+02  0.7816164E-02  0.1300439E+00
        -11   -1    0    0    0    0  0.00000000000E+00  0.00000000000E+00  0.45593999997E+02  0.45594000000E+02  0.51100000000E-03 0. -1.
         11   -1    0    0    0    0 -0.00000000000E+00 -0.00000000000E+00 -0.45593999997E+02  0.45594000000E+02  0.51100000000E-03 0.  1.
    9900012    2    1    2    0    0  0.22110350001E+02 -0.21993306169E+02 -0.26088179714E+02  0.50528853253E+02  0.29999979947E+02 0.  0.
         12    1    1    2    0    0 -0.22110350001E+02  0.21993306169E+02  0.26088179714E+02  0.40659146747E+02  0.00000000000E+00 0. -1.
         11    1    3    3    0    0  0.47159206173E+01 -0.18118796249E+01  0.51208992445E+01  0.71934987577E+01  0.51100000000E-03 0. -1.
        -11    1    3    3    0    0  0.16803799994E+02 -0.18111854326E+02 -0.19622940143E+02  0.31551018074E+02  0.51100000000E-03 0.  1.
        -12    1    3    3    0    0  0.59062938980E+00 -0.20695722179E+01 -0.11586138815E+02  0.11784336421E+02  0.00000000000E+00 0.  1.
</event>
<event>
 7    1  0.5006721E-012  0.5052886E+02  0.7816164E-02  0.1300439E+00
        -11   -1    0    0    0    0  0.00000000000E+00  0.00000000000E+00  0.45593999997E+02  0.45594000000E+02  0.51100000000E-03 0. -1.
         11   -1    0    0    0    0 -0.00000000000E+00 -0.00000000000E+00 -0.45593999997E+02  0.45594000000E+02  0.51100000000E-03 0.  1.
    9900012    2    1    2    0    0 -0.97604029316E+01  0.26193402673E+02 -0.29526357305E+02  0.50528860995E+02  0.30000003479E+02 0.  0.
         12    1    1    2    0    0  0.97604029316E+01 -0.26193402673E+02  0.29526357305E+02  0.40659139005E+02  0.00000000000E+00 0. -1.
         11    1    3    3    0    0  0.71748589278E+01 -0.10415837708E+01 -0.22554455848E+01  0.75927947709E+01  0.51100000000E-03 0. -1.
        -11    1    3    3    0    0 -0.14125964692E+02  0.20074836979E+02 -0.24708559518E+02  0.34828937278E+02  0.51100000000E-03 0.  1.
        -12    1    3    3    0    0 -0.28092971670E+01  0.71601494649E+01 -0.25623522024E+01  0.81071289457E+01  0.00000000000E+00 0.  1.
</event>
<event>
 7    1  0.5006721E-012  0.5052885E+02  0.7816164E-02  0.1300439E+00
        -11   -1    0    0    0    0  0.00000000000E+00  0.00000000000E+00  0.45593999997E+02  0.45594000000E+02  0.51100000000E-03 0. -1.
         11   -1    0    0    0    0 -0.00000000000E+00 -0.00000000000E+00 -0.45593999997E+02  0.45594000000E+02  0.51100000000E-03 0.  1.
    9900012    2    1    2    0    0 -0.14710271645E+02  0.17296129484E+02  0.33728592694E+02  0.50528854017E+02  0.29999982269E+02 0.  0.
        -12    1    1    2    0    0  0.14710271645E+02 -0.17296129484E+02 -0.33728592694E+02  0.40659145983E+02  0.00000000000E+00 0.  1.
         11    1    3    3    0    0 -0.20558642572E+02  0.14425276807E+02  0.32077385330E+02  0.40739477724E+02  0.51100000000E-03 0. -1.
        -11    1    3    3    0    0  0.44849931077E+01  0.45358089799E+01  0.32015427933E+01  0.71371284700E+01  0.51100000000E-03 0.  1.
         12    1    3    3    0    0  0.13633778191E+01 -0.16649563031E+01 -0.15503354295E+01  0.26522478226E+01  0.00000000000E+00 0. -1.
</event>
<event>
 7    1  0.5006721E-012  0.5052886E+02  0.7816164E-02  0.1300439E+00
        -11   -1    0    0    0    0  0.00000000000E+00  0.00000000000E+00  0.45593999997E+02  0.45594000000E+02  0.51100000000E-03 0. -1.
         11   -1    0    0    0    0 -0.00000000000E+00 -0.00000000000E+00 -0.45593999997E+02  0.45594000000E+02  0.51100000000E-03 0.  1.
    9900012    2    1    2    0    0  0.25123664899E+02 -0.15629276683E+02  0.27887139634E+02  0.50528863455E+02  0.30000010959E+02 0.  0.
        -12    1    1    2    0    0 -0.25123664899E+02  0.15629276683E+02 -0.27887139634E+02  0.40659136545E+02  0.00000000000E+00 0.  1.
         11    1    3    3    0    0  0.15436931515E+02 -0.70245975215E-02  0.91898268878E+01  0.17965294944E+02  0.51100000000E-03 0. -1.
        -11    1    3    3    0    0  0.31501352628E+01 -0.19020399581E+02  0.13049083796E+02  0.23280411091E+02  0.51100000000E-03 0.  1.
        -12    1    3    3    0    0  0.65365981213E+01  0.33981474959E+01  0.56482289510E+01  0.92831574201E+01  0.00000000000E+00 0.  1.
</event>
<event>
 7    1  0.5006721E-012  0.5052886E+02  0.7816164E-02  0.1300439E+00
        -11   -1    0    0    0    0  0.00000000000E+00  0.00000000000E+00  0.45593999997E+02  0.45594000000E+02  0.51100000000E-03 0.  1.
         11   -1    0    0    0    0 -0.00000000000E+00 -0.00000000000E+00 -0.45593999997E+02  0.45594000000E+02  0.51100000000E-03 0. -1.
    9900012    2    1    2    0    0  0.29630080155E+02  0.28420025956E+01 -0.27697417258E+02  0.50528861402E+02  0.30000004718E+02 0.  0.
         12    1    1    2    0    0 -0.29630080155E+02 -0.28420025956E+01  0.27697417258E+02  0.40659138598E+02  0.00000000000E+00 0. -1.
         11    1    3    3    0    0  0.16767853818E+02 -0.48421269504E+01 -0.22591546261E+01  0.17598604915E+02  0.51100000000E-03 0.  1.
        -11    1    3    3    0    0  0.40575541397E+01 -0.17869152110E+01 -0.16809210760E+02  0.17384084049E+02  0.51100000000E-03 0. -1.
         12    1    3    3    0    0  0.88046721974E+01  0.94710447570E+01 -0.86290518716E+01  0.15546172439E+02  0.00000000000E+00 0. -1.
</event>
<event>
 7    1  0.5006721E-012  0.5052889E+02  0.7816164E-02  0.1300439E+00
        -11   -1    0    0    0    0  0.00000000000E+00  0.00000000000E+00  0.45593999997E+02  0.45594000000E+02  0.51100000000E-03 0. -1.
         11   -1    0    0    0    0 -0.00000000000E+00 -0.00000000000E+00 -0.45593999997E+02  0.45594000000E+02  0.51100000000E-03 0.  1.
    9900012    2    1    2    0    0  0.29280445173E+02 -0.19899412612E+02  0.19995807516E+02  0.50528887737E+02  0.30000084765E+02 0.  0.
        -12    1    1    2    0    0 -0.29280445173E+02  0.19899412612E+02 -0.19995807516E+02  0.40659112263E+02  0.00000000000E+00 0.  1.
         11    1    3    3    0    0  0.30318068681E+02 -0.18122133848E+02  0.12766681337E+02  0.37557757872E+02  0.51100000000E-03 0. -1.
        -11    1    3    3    0    0 -0.16882842453E+01 -0.61242952877E+01  0.46746173523E+01  0.78872900362E+01  0.51100000000E-03 0.  1.
         12    1    3    3    0    0  0.65066073718E+00  0.43470165242E+01  0.25545088265E+01  0.50838398284E+01  0.00000000000E+00 0. -1.
</event>
<event>
 7    1  0.5006721E-012  0.5052886E+02  0.7816164E-02  0.1300439E+00
        -11   -1    0    0    0    0  0.00000000000E+00  0.00000000000E+00  0.45593999997E+02  0.45594000000E+02  0.51100000000E-03 0. -1.
         11   -1    0    0    0    0 -0.00000000000E+00 -0.00000000000E+00 -0.45593999997E+02  0.45594000000E+02  0.51100000000E-03 0.  1.
    9900012    2    1    2    0    0  0.42899984141E+01 -0.31449855285E+02  0.25410004043E+02  0.50528858478E+02  0.29999995829E+02 0.  0.
        -12    1    1    2    0    0 -0.42899984141E+01  0.31449855285E+02 -0.25410004043E+02  0.40659141522E+02  0.00000000000E+00 0.  1.
         11    1    3    3    0    0 -0.15190135107E+01 -0.26691114556E+01  0.69992545534E+01  0.76433711524E+01  0.51100000000E-03 0. -1.
        -11    1    3    3    0    0 -0.38684561571E+01 -0.19879162445E+02 -0.11525394324E-01  0.20252066207E+02  0.51100000000E-03 0.  1.
        -12    1    3    3    0    0  0.96774680819E+01 -0.89015813851E+01  0.18422274884E+02  0.22633421119E+02  0.00000000000E+00 0.  1.
</event>
<event>
 7    1  0.5006721E-012  0.5052886E+02  0.7816164E-02  0.1300439E+00
        -11   -1    0    0    0    0  0.00000000000E+00  0.00000000000E+00  0.45593999997E+02  0.45594000000E+02  0.51100000000E-03 0. -1.
         11   -1    0    0    0    0 -0.00000000000E+00 -0.00000000000E+00 -0.45593999997E+02  0.45594000000E+02  0.51100000000E-03 0.  1.
    9900012    2    1    2    0    0  0.53484097482E+01 -0.28474315020E+02  0.28526711022E+02  0.50528863949E+02  0.30000012460E+02 0.  0.
        -12    1    1    2    0    0 -0.53484097482E+01  0.28474315020E+02 -0.28526711022E+02  0.40659136051E+02  0.00000000000E+00 0.  1.
         11    1    3    3    0    0  0.98348633435E+01 -0.22345220690E+02  0.31181985425E+02  0.39602394372E+02  0.51100000000E-03 0. -1.
        -11    1    3    3    0    0 -0.22099857115E+01  0.52413689530E+00 -0.31428634105E+01  0.38776728856E+01  0.51100000000E-03 0.  1.
         12    1    3    3    0    0 -0.22764678838E+01 -0.66532312253E+01  0.48758900681E+00  0.70487966918E+01  0.00000000000E+00 0. -1.
</event>
<event>
 7    1  0.5006721E-012  0.5052875E+02  0.7816164E-02  0.1300439E+00
        -11   -1    0    0    0    0  0.00000000000E+00  0.00000000000E+00  0.45593999997E+02  0.45594000000E+02  0.51100000000E-03 0. -1.
         11   -1    0    0    0    0 -0.00000000000E+00 -0.00000000000E+00 -0.45593999997E+02  0.45594000000E+02  0.51100000000E-03 0.  1.
    9900012    2    1    2    0    0 -0.10869210099E+02  0.79331681219E+01 -0.38367949495E+02  0.50528752182E+02  0.29999672732E+02 0.  0.
         12    1    1    2    0    0  0.10869210099E+02 -0.79331681219E+01  0.38367949495E+02  0.40659247818E+02  0.00000000000E+00 0. -1.
         11    1    3    3    0    0  0.69054771068E+01  0.25144307411E+00 -0.15920576592E+02  0.17355506244E+02  0.51100000000E-03 0. -1.
        -11    1    3    3    0    0 -0.92019879381E+01  0.52936427240E+01 -0.19042350935E+01  0.10785422887E+02  0.51100000000E-03 0.  1.
        -12    1    3    3    0    0 -0.85726992680E+01  0.23880823239E+01 -0.20543137809E+02  0.22387823051E+02  0.00000000000E+00 0.  1.
</event>
<event>
 7    1  0.5006721E-012  0.5052887E+02  0.7816164E-02  0.1300439E+00
        -11   -1    0    0    0    0  0.00000000000E+00  0.00000000000E+00  0.45593999997E+02  0.45594000000E+02  0.51100000000E-03 0. -1.
         11   -1    0    0    0    0 -0.00000000000E+00 -0.00000000000E+00 -0.45593999997E+02  0.45594000000E+02  0.51100000000E-03 0.  1.
    9900012    2    1    2    0    0  0.29167270449E+02 -0.13900057896E+02  0.24682456552E+02  0.50528868966E+02  0.30000027710E+02 0.  0.
        -12    1    1    2    0    0 -0.29167270449E+02  0.13900057896E+02 -0.24682456552E+02  0.40659131034E+02  0.00000000000E+00 0.  1.
         11    1    3    3    0    0  0.28435155119E+02 -0.17263991537E+02  0.17832674298E+02  0.37743975987E+02  0.51100000000E-03 0. -1.
        -11    1    3    3    0    0  0.35071017443E+01  0.60043086885E+01  0.41367304592E+01  0.80909841568E+01  0.51100000000E-03 0.  1.
         12    1    3    3    0    0 -0.27749864142E+01 -0.26403750475E+01  0.27130517947E+01  0.46939088222E+01  0.00000000000E+00 0. -1.
</event>
<event>
 7    1  0.5006721E-012  0.5052886E+02  0.7816164E-02  0.1300439E+00
        -11   -1    0    0    0    0  0.00000000000E+00  0.00000000000E+00  0.45593999997E+02  0.45594000000E+02  0.51100000000E-03 0. -1.
         11   -1    0    0    0    0 -0.00000000000E+00 -0.00000000000E+00 -0.45593999997E+02  0.45594000000E+02  0.51100000000E-03 0.  1.
    9900012    2    1    2    0    0 -0.91212503510E+01 -0.73117430252E+01 -0.38942354540E+02  0.50528858701E+02  0.29999996508E+02 0.  0.
         12    1    1    2    0    0  0.91212503510E+01  0.73117430252E+01  0.38942354540E+02  0.40659141299E+02  0.00000000000E+00 0. -1.
         11    1    3    3    0    0 -0.34535551003E+00 -0.78252934054E+01 -0.12794555376E+02  0.15001837716E+02  0.51100000000E-03 0. -1.
        -11    1    3    3    0    0  0.62224006557E+01  0.54082264519E+01 -0.81388504308E+01  0.11584820666E+02  0.51100000000E-03 0.  1.
        -12    1    3    3    0    0 -0.14998295497E+02 -0.48946760717E+01 -0.18008948733E+02  0.23942200319E+02  0.00000000000E+00 0.  1.
</event>
<event>
 7    1  0.5006721E-012  0.5052886E+02  0.7816164E-02  0.1300439E+00
        -11   -1    0    0    0    0  0.00000000000E+00  0.00000000000E+00  0.45593999997E+02  0.45594000000E+02  0.51100000000E-03 0. -1.
         11   -1    0    0    0    0 -0.00000000000E+00 -0.00000000000E+00 -0.45593999997E+02  0.45594000000E+02  0.51100000000E-03 0.  1.
    9900012    2    1    2    0    0  0.44759426795E+01 -0.39511641919E+02  0.84830250540E+01  0.50528860509E+02  0.30000002005E+02 0.  0.
        -12    1    1    2    0    0 -0.44759426795E+01  0.39511641919E+02 -0.84830250540E+01  0.40659139491E+02  0.00000000000E+00 0.  1.
         11    1    3    3    0    0 -0.52769960529E+01 -0.22103188357E+02  0.11076419541E+02  0.25280124466E+02  0.51100000000E-03 0. -1.
        -11    1    3    3    0    0  0.12679103058E+02 -0.15547494101E+02  0.12141139354E+01  0.20098713892E+02  0.51100000000E-03 0.  1.
        -12    1    3    3    0    0 -0.29261643260E+01 -0.18609594615E+01 -0.38075084226E+01  0.51500221522E+01  0.00000000000E+00 0.  1.
</event>
<event>
 7    1  0.5006721E-012  0.5052885E+02  0.7816164E-02  0.1300439E+00
        -11   -1    0    0    0    0  0.00000000000E+00  0.00000000000E+00  0.45593999997E+02  0.45594000000E+02  0.51100000000E-03 0.  1.
         11   -1    0    0    0    0 -0.00000000000E+00 -0.00000000000E+00 -0.45593999997E+02  0.45594000000E+02  0.51100000000E-03 0. -1.
    9900012    2    1    2    0    0  0.36488916815E+02  0.12093943087E+02 -0.13246194755E+02  0.50528853609E+02  0.29999981030E+02 0.  0.
         12    1    1    2    0    0 -0.36488916815E+02 -0.12093943087E+02  0.13246194755E+02  0.40659146391E+02  0.00000000000E+00 0. -1.
         11    1    3    3    0    0  0.73225000185E-01  0.58300192844E+01  0.94148314953E+00  0.59060035167E+01  0.51100000000E-03 0. -1.
        -11    1    3    3    0    0  0.37430351259E+02  0.51177087551E+01 -0.84869319036E+01  0.38720151752E+02  0.51100000000E-03 0.  1.
        -12    1    3    3    0    0 -0.10146594445E+01  0.11462150480E+01 -0.57007460014E+01  0.59026983404E+01  0.00000000000E+00 0.  1.
</event>
<event>
 7    1  0.5006721E-012  0.5052886E+02  0.7816164E-02  0.1300439E+00
        -11   -1    0    0    0    0  0.00000000000E+00  0.00000000000E+00  0.45593999997E+02  0.45594000000E+02  0.51100000000E-03 0. -1.
         11   -1    0    0    0    0 -0.00000000000E+00 -0.00000000000E+00 -0.45593999997E+02  0.45594000000E+02  0.51100000000E-03 0.  1.
    9900012    2    1    2    0    0 -0.36710936598E+01 -0.29002605213E+02  0.28258402987E+02  0.50528863546E+02  0.30000011235E+02 0.  0.
        -12    1    1    2    0    0  0.36710936598E+01  0.29002605213E+02 -0.28258402987E+02  0.40659136454E+02  0.00000000000E+00 0.  1.
         11    1    3    3    0    0 -0.66410625691E+01 -0.17855414462E+02  0.16314249773E+02  0.25081353304E+02  0.51100000000E-03 0. -1.
        -11    1    3    3    0    0  0.10749551531E+02 -0.68944063545E+01  0.10352656465E+02  0.16439683490E+02  0.51100000000E-03 0.  1.
        -12    1    3    3    0    0 -0.77795826218E+01 -0.42527843966E+01  0.15914967486E+01  0.90078267520E+01  0.00000000000E+00 0.  1.
</event>
<event>
 7    1  0.5006721E-012  0.5052886E+02  0.7816164E-02  0.1300439E+00
        -11   -1    0    0    0    0  0.00000000000E+00  0.00000000000E+00  0.45593999997E+02  0.45594000000E+02  0.51100000000E-03 0. -1.
         11   -1    0    0    0    0 -0.00000000000E+00 -0.00000000000E+00 -0.45593999997E+02  0.45594000000E+02  0.51100000000E-03 0.  1.
    9900012    2    1    2    0    0 -0.32815262998E+02  0.45405259145E+01 -0.23573453351E+02  0.50528861247E+02  0.30000004247E+02 0.  0.
         12    1    1    2    0    0  0.32815262998E+02 -0.45405259145E+01  0.23573453351E+02  0.40659138753E+02  0.00000000000E+00 0. -1.
         11    1    3    3    0    0 -0.95250384430E+01 -0.10417182934E+02 -0.54499083297E+01  0.15130947052E+02  0.51100000000E-03 0. -1.
        -11    1    3    3    0    0 -0.14722107056E+02  0.40247984328E+01 -0.44290494266E+01  0.15892007981E+02  0.51100000000E-03 0.  1.
         12    1    3    3    0    0 -0.85681174991E+01  0.10932910416E+02 -0.13694495595E+02  0.19505906214E+02  0.00000000000E+00 0. -1.
</event>
<event>
 7    1  0.5006721E-012  0.5052886E+02  0.7816164E-02  0.1300439E+00
        -11   -1    0    0    0    0  0.00000000000E+00  0.00000000000E+00  0.45593999997E+02  0.45594000000E+02  0.51100000000E-03 0. -1.
         11   -1    0    0    0    0 -0.00000000000E+00 -0.00000000000E+00 -0.45593999997E+02  0.45594000000E+02  0.51100000000E-03 0.  1.
    9900012    2    1    2    0    0 -0.40058427001E+01 -0.23849827483E+02  0.32684929999E+02  0.50528859628E+02  0.29999999325E+02 0.  0.
        -12    1    1    2    0    0  0.40058427001E+01  0.23849827483E+02 -0.32684929999E+02  0.40659140372E+02  0.00000000000E+00 0.  1.
         11    1    3    3    0    0 -0.14666998371E+01 -0.16422315521E+01 -0.40758088224E+01  0.46325317809E+01  0.51100000000E-03 0. -1.
        -11    1    3    3    0    0 -0.79294569600E+01 -0.18625422410E+02  0.22684180378E+02  0.30403201926E+02  0.51100000000E-03 0.  1.
         12    1    3    3    0    0  0.53903140970E+01 -0.35821735209E+01  0.14076558443E+02  0.15493125921E+02  0.00000000000E+00 0. -1.
</event>
<event>
 7    1  0.5006721E-012  0.5052885E+02  0.7816164E-02  0.1300439E+00
        -11   -1    0    0    0    0  0.00000000000E+00  0.00000000000E+00  0.45593999997E+02  0.45594000000E+02  0.51100000000E-03 0. -1.
         11   -1    0    0    0    0 -0.00000000000E+00 -0.00000000000E+00 -0.45593999997E+02  0.45594000000E+02  0.51100000000E-03 0.  1.
    9900012    2    1    2    0    0 -0.18806120904E+02  0.63151962782E+01 -0.35491045328E+02  0.50528853600E+02  0.29999981003E+02 0.  0.
         12    1    1    2    0    0  0.18806120904E+02 -0.63151962782E+01  0.35491045328E+02  0.40659146400E+02  0.00000000000E+00 0. -1.
         11    1    3    3    0    0  0.37929476442E+00  0.74140804984E+01 -0.14841085462E+02  0.16594284321E+02  0.51100000000E-03 0. -1.
        -11    1    3    3    0    0 -0.20806613145E+02 -0.35073803547E+01 -0.22213104002E+02  0.30637213600E+02  0.51100000000E-03 0.  1.
        -12    1    3    3    0    0  0.16211974759E+01  0.24084961344E+01  0.15631441363E+01  0.32973556794E+01  0.00000000000E+00 0.  1.
</event>
<event>
 7    1  0.5006721E-012  0.5052890E+02  0.7816164E-02  0.1300439E+00
        -11   -1    0    0    0    0  0.00000000000E+00  0.00000000000E+00  0.45593999997E+02  0.45594000000E+02  0.51100000000E-03 0. -1.
         11   -1    0    0    0    0 -0.00000000000E+00 -0.00000000000E+00 -0.45593999997E+02  0.45594000000E+02  0.51100000000E-03 0.  1.
    9900012    2    1    2    0    0 -0.26505324212E+01  0.95993406829E+00 -0.40561261928E+02  0.50528895672E+02  0.30000108886E+02 0.  0.
         12    1    1    2    0    0  0.26505324212E+01 -0.95993406829E+00  0.40561261928E+02  0.40659104328E+02  0.00000000000E+00 0. -1.
         11    1    3    3    0    0 -0.29839926815E+01 -0.31897790493E+01  0.12907263735E+01  0.45546544918E+01  0.51100000000E-03 0. -1.
        -11    1    3    3    0    0  0.55415448127E+01 -0.38550380410E+01 -0.30017321271E+02  0.30767021529E+02  0.51100000000E-03 0.  1.
         12    1    3    3    0    0 -0.52080845524E+01  0.80047511586E+01 -0.11834667031E+02  0.15207219652E+02  0.00000000000E+00 0. -1.
</event>
<event>
 7    1  0.5006721E-012  0.5052886E+02  0.7816164E-02  0.1300439E+00
        -11   -1    0    0    0    0  0.00000000000E+00  0.00000000000E+00  0.45593999997E+02  0.45594000000E+02  0.51100000000E-03 0. -1.
         11   -1    0    0    0    0 -0.00000000000E+00 -0.00000000000E+00 -0.45593999997E+02  0.45594000000E+02  0.51100000000E-03 0.  1.
    9900012    2    1    2    0    0  0.13963171974E+02 -0.15066718032E+02 -0.35088307303E+02  0.50528862365E+02  0.30000007644E+02 0.  0.
         12    1    1    2    0    0 -0.13963171974E+02  0.15066718032E+02  0.35088307303E+02  0.40659137635E+02  0.00000000000E+00 0. -1.
         11    1    3    3    0    0  0.14440123705E+02 -0.10931191330E+02 -0.11714211822E+02  0.21569211284E+02  0.51100000000E-03 0. -1.
        -11    1    3    3    0    0 -0.84872831053E+01 -0.16842804660E+01 -0.10590719931E+02  0.13676041975E+02  0.51100000000E-03 0.  1.
        -12    1    3    3    0    0  0.80103313740E+01 -0.24512462357E+01 -0.12783375550E+02  0.15283609106E+02  0.00000000000E+00 0.  1.
</event>
<event>
 7    1  0.5006721E-012  0.5052887E+02  0.7816164E-02  0.1300439E+00
        -11   -1    0    0    0    0  0.00000000000E+00  0.00000000000E+00  0.45593999997E+02  0.45594000000E+02  0.51100000000E-03 0. -1.
         11   -1    0    0    0    0 -0.00000000000E+00 -0.00000000000E+00 -0.45593999997E+02  0.45594000000E+02  0.51100000000E-03 0.  1.
    9900012    2    1    2    0    0 -0.91158215689E+01 -0.10126834945E+02  0.38308148070E+02  0.50528865756E+02  0.30000017953E+02 0.  0.
        -12    1    1    2    0    0  0.91158215689E+01  0.10126834945E+02 -0.38308148070E+02  0.40659134244E+02  0.00000000000E+00 0.  1.
         11    1    3    3    0    0 -0.61285138741E+01 -0.37920646120E+01  0.31159088631E+02  0.31981670390E+02  0.51100000000E-03 0. -1.
        -11    1    3    3    0    0  0.26005867792E+01 -0.94567194150E+01  0.13317418057E+01  0.98977841050E+01  0.51100000000E-03 0.  1.
        -12    1    3    3    0    0 -0.55878944739E+01  0.31219490822E+01  0.58173176333E+01  0.86494112615E+01  0.00000000000E+00 0.  1.
</event>
<event>
 7    1  0.5006721E-012  0.5052886E+02  0.7816164E-02  0.1300439E+00
        -11   -1    0    0    0    0  0.00000000000E+00  0.00000000000E+00  0.45593999997E+02  0.45594000000E+02  0.51100000000E-03 0. -1.
         11   -1    0    0    0    0 -0.00000000000E+00 -0.00000000000E+00 -0.45593999997E+02  0.45594000000E+02  0.51100000000E-03 0.  1.
    9900012    2    1    2    0    0 -0.18045618081E+02 -0.80009809233E+01  0.35545824122E+02  0.50528860312E+02  0.30000001404E+02 0.  0.
        -12    1    1    2    0    0  0.18045618081E+02  0.80009809233E+01 -0.35545824122E+02  0.40659139688E+02  0.00000000000E+00 0.  1.
         11    1    3    3    0    0 -0.15706017167E+02  0.43852036150E+01  0.10608669112E+02  0.19453864567E+02  0.51100000000E-03 0. -1.
        -11    1    3    3    0    0  0.53766341537E+01 -0.25682315490E+01  0.66241057638E+01  0.89097017651E+01  0.51100000000E-03 0.  1.
        -12    1    3    3    0    0 -0.77162350674E+01 -0.98179529893E+01  0.18313049246E+02  0.22165293980E+02  0.00000000000E+00 0.  1.
</event>
<event>
 7    1  0.5006721E-012  0.5052888E+02  0.7816164E-02  0.1300439E+00
        -11   -1    0    0    0    0  0.00000000000E+00  0.00000000000E+00  0.45593999997E+02  0.45594000000E+02  0.51100000000E-03 0. -1.
         11   -1    0    0    0    0 -0.00000000000E+00 -0.00000000000E+00 -0.45593999997E+02  0.45594000000E+02  0.51100000000E-03 0.  1.
    9900012    2    1    2    0    0  0.19348909158E+02  0.48309825649E+01 -0.35432266376E+02  0.50528878284E+02  0.30000056033E+02 0.  0.
         12    1    1    2    0    0 -0.19348909158E+02 -0.48309825649E+01  0.35432266376E+02  0.40659121716E+02  0.00000000000E+00 0. -1.
         11    1    3    3    0    0 -0.31592126142E+01  0.76250253449E+01 -0.17233242436E+02  0.19107754473E+02  0.51100000000E-03 0. -1.
        -11    1    3    3    0    0  0.12373991558E+02 -0.10962450472E+00 -0.16768832541E+02  0.20840379787E+02  0.51100000000E-03 0.  1.
         12    1    3    3    0    0  0.10134130214E+02 -0.26844182752E+01 -0.14301913983E+01  0.10580744025E+02  0.00000000000E+00 0. -1.
</event>
<event>
 7    1  0.5006721E-012  0.5052885E+02  0.7816164E-02  0.1300439E+00
        -11   -1    0    0    0    0  0.00000000000E+00  0.00000000000E+00  0.45593999997E+02  0.45594000000E+02  0.51100000000E-03 0. -1.
         11   -1    0    0    0    0 -0.00000000000E+00 -0.00000000000E+00 -0.45593999997E+02  0.45594000000E+02  0.51100000000E-03 0.  1.
    9900012    2    1    2    0    0  0.38379040401E+02 -0.96242539891E+01  0.93589158300E+01  0.50528852044E+02  0.29999976273E+02 0.  0.
        -12    1    1    2    0    0 -0.38379040401E+02  0.96242539891E+01 -0.93589158300E+01  0.40659147956E+02  0.00000000000E+00 0.  1.
         11    1    3    3    0    0  0.24515280184E+02  0.17397579941E+01  0.84791765876E+01  0.25998502961E+02  0.51100000000E-03 0. -1.
        -11    1    3    3    0    0  0.27346396120E+01 -0.12569789923E+02 -0.18812057376E+01  0.13000646438E+02  0.51100000000E-03 0.  1.
        -12    1    3    3    0    0  0.11129120606E+02  0.12057779398E+01  0.27609449801E+01  0.11529702645E+02  0.00000000000E+00 0.  1.
</event>
<event>
 7    1  0.5006721E-012  0.5052886E+02  0.7816164E-02  0.1300439E+00
        -11   -1    0    0    0    0  0.00000000000E+00  0.00000000000E+00  0.45593999997E+02  0.45594000000E+02  0.51100000000E-03 0. -1.
         11   -1    0    0    0    0 -0.00000000000E+00 -0.00000000000E+00 -0.45593999997E+02  0.45594000000E+02  0.51100000000E-03 0.  1.
    9900012    2    1    2    0    0 -0.35875339483E+02 -0.18403188671E+02  0.52390977049E+01  0.50528862269E+02  0.30000007352E+02 0.  0.
        -12    1    1    2    0    0  0.35875339483E+02  0.18403188671E+02 -0.52390977049E+01  0.40659137731E+02  0.00000000000E+00 0.  1.
         11    1    3    3    0    0 -0.15700893315E+01  0.46889071847E+01  0.35040887017E+01  0.60605007207E+01  0.51100000000E-03 0. -1.
        -11    1    3    3    0    0 -0.19080304367E+02 -0.19968460061E+02  0.61828127263E+01  0.28302377734E+02  0.51100000000E-03 0.  1.
        -12    1    3    3    0    0 -0.15224945784E+02 -0.31236357954E+01 -0.44478037230E+01  0.16165983814E+02  0.00000000000E+00 0.  1.
</event>
<event>
 7    1  0.5006721E-012  0.5052899E+02  0.7816164E-02  0.1300438E+00
        -11   -1    0    0    0    0  0.00000000000E+00  0.00000000000E+00  0.45593999997E+02  0.45594000000E+02  0.51100000000E-03 0. -1.
         11   -1    0    0    0    0 -0.00000000000E+00 -0.00000000000E+00 -0.45593999997E+02  0.45594000000E+02  0.51100000000E-03 0.  1.
    9900012    2    1    2    0    0  0.18140744970E+02 -0.13672316012E+02 -0.33721445594E+02  0.50528994280E+02  0.30000408610E+02 0.  0.
         12    1    1    2    0    0 -0.18140744970E+02  0.13672316012E+02  0.33721445594E+02  0.40659005720E+02  0.00000000000E+00 0. -1.
         11    1    3    3    0    0  0.34298595966E+01  0.48419238720E+01  0.31562190739E+01  0.67208543161E+01  0.51100000000E-03 0. -1.
        -11    1    3    3    0    0  0.95280052104E+01 -0.11997080068E+02 -0.23945774018E+02  0.28427326765E+02  0.51100000000E-03 0.  1.
         12    1    3    3    0    0  0.51828801625E+01 -0.65171598167E+01 -0.12931890650E+02  0.15380813199E+02  0.00000000000E+00 0. -1.
</event>
<event>
 7    1  0.5006721E-012  0.5052887E+02  0.7816164E-02  0.1300439E+00
        -11   -1    0    0    0    0  0.00000000000E+00  0.00000000000E+00  0.45593999997E+02  0.45594000000E+02  0.51100000000E-03 0. -1.
         11   -1    0    0    0    0 -0.00000000000E+00 -0.00000000000E+00 -0.45593999997E+02  0.45594000000E+02  0.51100000000E-03 0.  1.
    9900012    2    1    2    0    0  0.16681193126E+02 -0.16350491904E+02 -0.33280087446E+02  0.50528868061E+02  0.30000024959E+02 0.  0.
         12    1    1    2    0    0 -0.16681193126E+02  0.16350491904E+02  0.33280087446E+02  0.40659131939E+02  0.00000000000E+00 0. -1.
         11    1    3    3    0    0  0.15013929664E+01  0.11921288292E+01  0.10476125239E+00  0.19199810328E+01  0.51100000000E-03 0. -1.
        -11    1    3    3    0    0  0.12880323110E+02 -0.23398897590E+02 -0.32786320057E+02  0.42288933717E+02  0.51100000000E-03 0.  1.
        -12    1    3    3    0    0  0.22994770497E+01  0.58562768564E+01 -0.59852864189E+00  0.63199533113E+01  0.00000000000E+00 0.  1.
</event>
<event>
 7    1  0.5006721E-012  0.5052886E+02  0.7816164E-02  0.1300439E+00
        -11   -1    0    0    0    0  0.00000000000E+00  0.00000000000E+00  0.45593999997E+02  0.45594000000E+02  0.51100000000E-03 0. -1.
         11   -1    0    0    0    0 -0.00000000000E+00 -0.00000000000E+00 -0.45593999997E+02  0.45594000000E+02  0.51100000000E-03 0.  1.
    9900012    2    1    2    0    0 -0.21606956005E+02  0.77782866885E+01 -0.33552999308E+02  0.50528855221E+02  0.29999985930E+02 0.  0.
         12    1    1    2    0    0  0.21606956005E+02 -0.77782866885E+01  0.33552999308E+02  0.40659144779E+02  0.00000000000E+00 0. -1.
         11    1    3    3    0    0 -0.37386199013E+01 -0.41490513203E+01 -0.23857820824E+02  0.24502806377E+02  0.51100000000E-03 0.  1.
        -11    1    3    3    0    0 -0.16380187025E+02  0.91309803048E+01 -0.11860410599E+02  0.22189066410E+02  0.51100000000E-03 0. -1.
         12    1    3    3    0    0 -0.14881490780E+01  0.27963577041E+01  0.21652321146E+01  0.38369824338E+01  0.00000000000E+00 0. -1.
</event>
<event>
 7    1  0.5006721E-012  0.5052885E+02  0.7816164E-02  0.1300439E+00
        -11   -1    0    0    0    0  0.00000000000E+00  0.00000000000E+00  0.45593999997E+02  0.45594000000E+02  0.51100000000E-03 0. -1.
         11   -1    0    0    0    0 -0.00000000000E+00 -0.00000000000E+00 -0.45593999997E+02  0.45594000000E+02  0.51100000000E-03 0.  1.
    9900012    2    1    2    0    0 -0.36923737976E+02  0.11793768089E+02 -0.12276429646E+02  0.50528854452E+02  0.29999983592E+02 0.  0.
         12    1    1    2    0    0  0.36923737976E+02 -0.11793768089E+02  0.12276429646E+02  0.40659145548E+02  0.00000000000E+00 0. -1.
         11    1    3    3    0    0 -0.24894353628E+02  0.40922566492E+01  0.47849178463E+01  0.25678217347E+02  0.51100000000E-03 0. -1.
        -11    1    3    3    0    0 -0.81264427167E+01  0.33881737316E+01 -0.16871315760E+02  0.19030504150E+02  0.51100000000E-03 0.  1.
         12    1    3    3    0    0 -0.39029416309E+01  0.43133377085E+01 -0.19003173263E+00  0.58201329556E+01  0.00000000000E+00 0. -1.
</event>
<event>
 7    1  0.5006721E-012  0.5052884E+02  0.7816164E-02  0.1300439E+00
        -11   -1    0    0    0    0  0.00000000000E+00  0.00000000000E+00  0.45593999997E+02  0.45594000000E+02  0.51100000000E-03 0. -1.
         11   -1    0    0    0    0 -0.00000000000E+00 -0.00000000000E+00 -0.45593999997E+02  0.45594000000E+02  0.51100000000E-03 0.  1.
    9900012    2    1    2    0    0 -0.30228169011E+02  0.20089505124E+02  0.18325841776E+02  0.50528844885E+02  0.29999954513E+02 0.  0.
        -12    1    1    2    0    0  0.30228169011E+02 -0.20089505124E+02 -0.18325841776E+02  0.40659155115E+02  0.00000000000E+00 0.  1.
         11    1    3    3    0    0 -0.12457686939E+01  0.14581229166E+02  0.68315155414E+01  0.16150349485E+02  0.51100000000E-03 0. -1.
        -11    1    3    3    0    0 -0.20883851894E+02  0.42477511059E+01  0.13741931854E+01  0.21355726786E+02  0.51100000000E-03 0.  1.
        -12    1    3    3    0    0 -0.80985484231E+01  0.12605248519E+01  0.10120133049E+02  0.13022768615E+02  0.00000000000E+00 0.  1.
</event>
<event>
 7    1  0.5006721E-012  0.5052882E+02  0.7816164E-02  0.1300439E+00
        -11   -1    0    0    0    0  0.00000000000E+00  0.00000000000E+00  0.45593999997E+02  0.45594000000E+02  0.51100000000E-03 0. -1.
         11   -1    0    0    0    0 -0.00000000000E+00 -0.00000000000E+00 -0.45593999997E+02  0.45594000000E+02  0.51100000000E-03 0.  1.
    9900012    2    1    2    0    0 -0.66923784632E+01 -0.24508283430E+02  0.31744678873E+02  0.50528824862E+02  0.29999893650E+02 0.  0.
        -12    1    1    2    0    0  0.66923784632E+01  0.24508283430E+02 -0.31744678873E+02  0.40659175138E+02  0.00000000000E+00 0.  1.
         11    1    3    3    0    0 -0.40533539368E+01 -0.15928766716E+02  0.27486756225E+02  0.32026193268E+02  0.51100000000E-03 0. -1.
        -11    1    3    3    0    0  0.12086015459E+01 -0.88036208090E+01 -0.37270624501E+01  0.96361533723E+01  0.51100000000E-03 0.  1.
        -12    1    3    3    0    0 -0.38476260723E+01  0.22410409511E+00  0.79849850983E+01  0.88664782218E+01  0.00000000000E+00 0.  1.
</event>
<event>
 7    1  0.5006721E-012  0.5052886E+02  0.7816164E-02  0.1300439E+00
        -11   -1    0    0    0    0  0.00000000000E+00  0.00000000000E+00  0.45593999997E+02  0.45594000000E+02  0.51100000000E-03 0. -1.
         11   -1    0    0    0    0 -0.00000000000E+00 -0.00000000000E+00 -0.45593999997E+02  0.45594000000E+02  0.51100000000E-03 0.  1.
    9900012    2    1    2    0    0 -0.30214822990E+01  0.13666101702E+02 -0.38174253394E+02  0.50528864332E+02  0.30000013625E+02 0.  0.
         12    1    1    2    0    0  0.30214822990E+01 -0.13666101702E+02  0.38174253394E+02  0.40659135668E+02  0.00000000000E+00 0. -1.
         11    1    3    3    0    0  0.95810807268E+01  0.54530565822E+01 -0.78422887642E+01  0.13529021668E+02  0.51100000000E-03 0. -1.
        -11    1    3    3    0    0 -0.12269864788E+02  0.86438573180E+01 -0.13584785582E+02  0.20243820065E+02  0.51100000000E-03 0.  1.
         12    1    3    3    0    0 -0.33269823772E+00 -0.43081219806E+00 -0.16747179048E+02  0.16756022599E+02  0.00000000000E+00 0. -1.
</event>
<event>
 7    1  0.5006721E-012  0.5052885E+02  0.7816164E-02  0.1300439E+00
        -11   -1    0    0    0    0  0.00000000000E+00  0.00000000000E+00  0.45593999997E+02  0.45594000000E+02  0.51100000000E-03 0. -1.
         11   -1    0    0    0    0 -0.00000000000E+00 -0.00000000000E+00 -0.45593999997E+02  0.45594000000E+02  0.51100000000E-03 0.  1.
    9900012    2    1    2    0    0  0.20518884301E+02  0.24549662232E+02  0.25088953268E+02  0.50528854599E+02  0.29999984039E+02 0.  0.
        -12    1    1    2    0    0 -0.20518884301E+02 -0.24549662232E+02 -0.25088953268E+02  0.40659145401E+02  0.00000000000E+00 0.  1.
         11    1    3    3    0    0  0.11000876976E+02  0.22189765209E+01  0.87811502719E+00  0.11256741860E+02  0.51100000000E-03 0.  1.
        -11    1    3    3    0    0  0.53581643909E+01  0.57111473711E+01  0.20216698640E+02  0.21680452811E+02  0.51100000000E-03 0. -1.
        -12    1    3    3    0    0  0.41598429337E+01  0.16619538340E+02  0.39941396012E+01  0.17591659928E+02  0.00000000000E+00 0.  1.
</event>
<event>
 7    1  0.5006721E-012  0.5052887E+02  0.7816164E-02  0.1300439E+00
        -11   -1    0    0    0    0  0.00000000000E+00  0.00000000000E+00  0.45593999997E+02  0.45594000000E+02  0.51100000000E-03 0. -1.
         11   -1    0    0    0    0 -0.00000000000E+00 -0.00000000000E+00 -0.45593999997E+02  0.45594000000E+02  0.51100000000E-03 0.  1.
    9900012    2    1    2    0    0 -0.15459699525E+01 -0.23102822896E+02 -0.33422070571E+02  0.50528865108E+02  0.30000015983E+02 0.  0.
         12    1    1    2    0    0  0.15459699525E+01  0.23102822896E+02  0.33422070571E+02  0.40659134892E+02  0.00000000000E+00 0. -1.
         11    1    3    3    0    0  0.11223145321E+02 -0.21195028077E+01 -0.79427787891E+01  0.13911830153E+02  0.51100000000E-03 0. -1.
        -11    1    3    3    0    0 -0.97667124228E+01 -0.77667152671E+01 -0.96251184063E+01  0.15759233553E+02  0.51100000000E-03 0.  1.
         12    1    3    3    0    0 -0.30024028507E+01 -0.13216604822E+02 -0.15854173376E+02  0.20857801402E+02  0.00000000000E+00 0. -1.
</event>
<event>
 7    1  0.5006721E-012  0.5052886E+02  0.7816164E-02  0.1300439E+00
        -11   -1    0    0    0    0  0.00000000000E+00  0.00000000000E+00  0.45593999997E+02  0.45594000000E+02  0.51100000000E-03 0.  1.
         11   -1    0    0    0    0 -0.00000000000E+00 -0.00000000000E+00 -0.45593999997E+02  0.45594000000E+02  0.51100000000E-03 0. -1.
    9900012    2    1    2    0    0 -0.32537794168E+02  0.16754237127E+02 -0.17713084465E+02  0.50528857458E+02  0.29999992728E+02 0.  0.
        -12    1    1    2    0    0  0.32537794168E+02 -0.16754237127E+02  0.17713084465E+02  0.40659142542E+02  0.00000000000E+00 0.  1.
         11    1    3    3    0    0 -0.20456914944E+02  0.75921537142E+01 -0.53165595179E+01  0.22458672543E+02  0.51100000000E-03 0. -1.
        -11    1    3    3    0    0  0.14079891894E+01  0.66313111400E+01 -0.12640708009E+02  0.14343786816E+02  0.51100000000E-03 0.  1.
        -12    1    3    3    0    0 -0.13488868414E+02  0.25307722726E+01  0.24418306236E+00  0.13726398098E+02  0.00000000000E+00 0.  1.
</event>
<event>
 7    1  0.5006721E-012  0.5052887E+02  0.7816164E-02  0.1300439E+00
        -11   -1    0    0    0    0  0.00000000000E+00  0.00000000000E+00  0.45593999997E+02  0.45594000000E+02  0.51100000000E-03 0.  1.
         11   -1    0    0    0    0 -0.00000000000E+00 -0.00000000000E+00 -0.45593999997E+02  0.45594000000E+02  0.51100000000E-03 0. -1.
    9900012    2    1    2    0    0 -0.13412903164E+02 -0.31250675310E+01  0.38255629400E+02  0.50528865735E+02  0.30000017888E+02 0.  0.
        -12    1    1    2    0    0  0.13412903164E+02  0.31250675310E+01 -0.38255629400E+02  0.40659134265E+02  0.00000000000E+00 0.  1.
         11    1    3    3    0    0 -0.64804294762E+01  0.27774597265E+01  0.24899119605E+02  0.25878106694E+02  0.51100000000E-03 0. -1.
        -11    1    3    3    0    0  0.37264378762E+01  0.19012771408E+01 -0.17921608519E+01  0.45511575222E+01  0.51100000000E-03 0.  1.
        -12    1    3    3    0    0 -0.10658911564E+02 -0.78038043983E+01  0.15148670647E+02  0.20099601519E+02  0.00000000000E+00 0.  1.
</event>
<event>
 7    1  0.5006721E-012  0.5052886E+02  0.7816164E-02  0.1300439E+00
        -11   -1    0    0    0    0  0.00000000000E+00  0.00000000000E+00  0.45593999997E+02  0.45594000000E+02  0.51100000000E-03 0. -1.
         11   -1    0    0    0    0 -0.00000000000E+00 -0.00000000000E+00 -0.45593999997E+02  0.45594000000E+02  0.51100000000E-03 0.  1.
    9900012    2    1    2    0    0  0.16242430414E+02 -0.82219201094E+01  0.36355872365E+02  0.50528856238E+02  0.29999989020E+02 0.  0.
        -12    1    1    2    0    0 -0.16242430414E+02  0.82219201094E+01 -0.36355872365E+02  0.40659143762E+02  0.00000000000E+00 0.  1.
         11    1    3    3    0    0  0.10872429572E+01  0.88755713839E+01  0.26552624222E+01  0.93278230810E+01  0.51100000000E-03 0. -1.
        -11    1    3    3    0    0  0.24672887890E+01 -0.71040490421E+01  0.97419807566E+01  0.12306958035E+02  0.51100000000E-03 0.  1.
         12    1    3    3    0    0  0.12687898668E+02 -0.99934424512E+01  0.23958629187E+02  0.28894075121E+02  0.00000000000E+00 0. -1.
</event>
<event>
 7    1  0.5006721E-012  0.5052886E+02  0.7816164E-02  0.1300439E+00
        -11   -1    0    0    0    0  0.00000000000E+00  0.00000000000E+00  0.45593999997E+02  0.45594000000E+02  0.51100000000E-03 0. -1.
         11   -1    0    0    0    0 -0.00000000000E+00 -0.00000000000E+00 -0.45593999997E+02  0.45594000000E+02  0.51100000000E-03 0.  1.
    9900012    2    1    2    0    0 -0.26784301093E+02 -0.90445177840E+01 -0.29222657134E+02  0.50528858630E+02  0.29999996292E+02 0.  0.
         12    1    1    2    0    0  0.26784301093E+02  0.90445177840E+01  0.29222657134E+02  0.40659141370E+02  0.00000000000E+00 0. -1.
         11    1    3    3    0    0 -0.26131827003E+01  0.78572808414E+01 -0.13623526401E+02  0.15942586299E+02  0.51100000000E-03 0. -1.
        -11    1    3    3    0    0 -0.18127768907E+02 -0.14818314491E+02 -0.81995356944E+01  0.24807878502E+02  0.51100000000E-03 0.  1.
         12    1    3    3    0    0 -0.60433494857E+01 -0.20834841344E+01 -0.73995950385E+01  0.97783938292E+01  0.00000000000E+00 0. -1.
</event>
<event>
 7    1  0.5006721E-012  0.5052886E+02  0.7816164E-02  0.1300439E+00
        -11   -1    0    0    0    0  0.00000000000E+00  0.00000000000E+00  0.45593999997E+02  0.45594000000E+02  0.51100000000E-03 0.  1.
         11   -1    0    0    0    0 -0.00000000000E+00 -0.00000000000E+00 -0.45593999997E+02  0.45594000000E+02  0.51100000000E-03 0. -1.
    9900012    2    1    2    0    0 -0.31340212960E+02  0.24994354910E+02 -0.67999397017E+01  0.50528857047E+02  0.29999991480E+02 0.  0.
        -12    1    1    2    0    0  0.31340212960E+02 -0.24994354910E+02  0.67999397017E+01  0.40659142953E+02  0.00000000000E+00 0.  1.
         11    1    3    3    0    0 -0.17972960223E+02  0.13768256193E+00 -0.53234531527E+01  0.18745276989E+02  0.51100000000E-03 0. -1.
        -11    1    3    3    0    0 -0.49776209073E+01  0.15814990224E+02 -0.73333824418E+01  0.18129233960E+02  0.51100000000E-03 0.  1.
         12    1    3    3    0    0 -0.83896318298E+01  0.90416821241E+01  0.58568958928E+01  0.13654346098E+02  0.00000000000E+00 0. -1.
</event>
<event>
 7    1  0.5006721E-012  0.5052886E+02  0.7816164E-02  0.1300439E+00
        -11   -1    0    0    0    0  0.00000000000E+00  0.00000000000E+00  0.45593999997E+02  0.45594000000E+02  0.51100000000E-03 0. -1.
         11   -1    0    0    0    0 -0.00000000000E+00 -0.00000000000E+00 -0.45593999997E+02  0.45594000000E+02  0.51100000000E-03 0.  1.
    9900012    2    1    2    0    0  0.20800323510E+02 -0.22462155035E+02 -0.26757502111E+02  0.50528858517E+02  0.29999995948E+02 0.  0.
         12    1    1    2    0    0 -0.20800323510E+02  0.22462155035E+02  0.26757502111E+02  0.40659141483E+02  0.00000000000E+00 0. -1.
         11    1    3    3    0    0  0.79373966607E+01 -0.55039507831E+01  0.53890875964E+00  0.96739941537E+01  0.51100000000E-03 0. -1.
        -11    1    3    3    0    0  0.17343384584E+02 -0.10798113329E+02 -0.26098643787E+02  0.33144101256E+02  0.51100000000E-03 0.  1.
        -12    1    3    3    0    0 -0.44804577351E+01 -0.61600909237E+01 -0.11977670832E+01  0.77107631068E+01  0.00000000000E+00 0.  1.
</event>
<event>
 7    1  0.5006721E-012  0.5052886E+02  0.7816164E-02  0.1300439E+00
        -11   -1    0    0    0    0  0.00000000000E+00  0.00000000000E+00  0.45593999997E+02  0.45594000000E+02  0.51100000000E-03 0. -1.
         11   -1    0    0    0    0 -0.00000000000E+00 -0.00000000000E+00 -0.45593999997E+02  0.45594000000E+02  0.51100000000E-03 0.  1.
    9900012    2    1    2    0    0  0.23580541228E+00  0.36141648257E+02 -0.18625018202E+02  0.50528860242E+02  0.30000001190E+02 0.  0.
         12    1    1    2    0    0 -0.23580541228E+00 -0.36141648257E+02  0.18625018202E+02  0.40659139758E+02  0.00000000000E+00 0. -1.
         11    1    3    3    0    0 -0.74147185899E+01  0.54112082458E+01 -0.77841822958E+01  0.12035477586E+02  0.51100000000E-03 0. -1.
        -11    1    3    3    0    0  0.12628223147E+02  0.14690445353E+02 -0.18945678846E+01  0.19464598435E+02  0.51100000000E-03 0.  1.
        -12    1    3    3    0    0 -0.49776991447E+01  0.16039994658E+02 -0.89462680211E+01  0.19028784220E+02  0.00000000000E+00 0.  1.
</event>
<event>
 7    1  0.5006721E-012  0.5052886E+02  0.7816164E-02  0.1300439E+00
        -11   -1    0    0    0    0  0.00000000000E+00  0.00000000000E+00  0.45593999997E+02  0.45594000000E+02  0.51100000000E-03 0. -1.
         11   -1    0    0    0    0 -0.00000000000E+00 -0.00000000000E+00 -0.45593999997E+02  0.45594000000E+02  0.51100000000E-03 0.  1.
    9900012    2    1    2    0    0  0.26688386200E+02 -0.22594800743E+02  0.20745371687E+02  0.50528862958E+02  0.30000009446E+02 0.  0.
        -12    1    1    2    0    0 -0.26688386200E+02  0.22594800743E+02 -0.20745371687E+02  0.40659137042E+02  0.00000000000E+00 0.  1.
         11    1    3    3    0    0  0.25511874523E+02 -0.21689096930E+02  0.25229804634E+02  0.41926312853E+02  0.51100000000E-03 0. -1.
        -11    1    3    3    0    0 -0.22891739898E+01 -0.20269701724E+01 -0.38314441944E+01  0.49019272242E+01  0.51100000000E-03 0.  1.
         12    1    3    3    0    0  0.34656856669E+01  0.11212663597E+01 -0.65298875259E+00  0.37006228803E+01  0.00000000000E+00 0. -1.
</event>
<event>
 7    1  0.5006721E-012  0.5052885E+02  0.7816164E-02  0.1300439E+00
        -11   -1    0    0    0    0  0.00000000000E+00  0.00000000000E+00  0.45593999997E+02  0.45594000000E+02  0.51100000000E-03 0.  1.
         11   -1    0    0    0    0 -0.00000000000E+00 -0.00000000000E+00 -0.45593999997E+02  0.45594000000E+02  0.51100000000E-03 0. -1.
    9900012    2    1    2    0    0 -0.96387843061E+01 -0.37501933375E+02  0.12404231264E+02  0.50528854374E+02  0.29999983355E+02 0.  0.
        -12    1    1    2    0    0  0.96387843061E+01  0.37501933375E+02 -0.12404231264E+02  0.40659145626E+02  0.00000000000E+00 0.  1.
         11    1    3    3    0    0 -0.40995756048E+01 -0.36863401079E+02  0.93992959132E+01  0.38263084340E+02  0.51100000000E-03 0. -1.
        -11    1    3    3    0    0  0.17540632354E+01  0.29299012408E+01 -0.44514102847E+00  0.34437203590E+01  0.51100000000E-03 0.  1.
         12    1    3    3    0    0 -0.72932719367E+01 -0.35684335369E+01  0.34500763797E+01  0.88220496754E+01  0.00000000000E+00 0. -1.
</event>
<event>
 7    1  0.5006721E-012  0.5052885E+02  0.7816164E-02  0.1300439E+00
        -11   -1    0    0    0    0  0.00000000000E+00  0.00000000000E+00  0.45593999997E+02  0.45594000000E+02  0.51100000000E-03 0. -1.
         11   -1    0    0    0    0 -0.00000000000E+00 -0.00000000000E+00 -0.45593999997E+02  0.45594000000E+02  0.51100000000E-03 0.  1.
    9900012    2    1    2    0    0 -0.16293089212E+02 -0.37257479660E+00 -0.37250004955E+02  0.50528850511E+02  0.29999971612E+02 0.  0.
         12    1    1    2    0    0  0.16293089212E+02  0.37257479660E+00  0.37250004955E+02  0.40659149489E+02  0.00000000000E+00 0. -1.
         11    1    3    3    0    0  0.41624479390E+01 -0.39974420307E+01 -0.27791426650E+01  0.64054000536E+01  0.51100000000E-03 0. -1.
        -11    1    3    3    0    0 -0.19222373252E+02  0.78850722967E+01 -0.19444831502E+02  0.28456554095E+02  0.51100000000E-03 0.  1.
        -12    1    3    3    0    0 -0.12331638992E+01 -0.42602050626E+01 -0.15026030788E+02  0.15666896362E+02  0.00000000000E+00 0.  1.
</event>
<event>
 7    1  0.5006721E-012  0.5052881E+02  0.7816164E-02  0.1300439E+00
        -11   -1    0    0    0    0  0.00000000000E+00  0.00000000000E+00  0.45593999997E+02  0.45594000000E+02  0.51100000000E-03 0. -1.
         11   -1    0    0    0    0 -0.00000000000E+00 -0.00000000000E+00 -0.45593999997E+02  0.45594000000E+02  0.51100000000E-03 0.  1.
    9900012    2    1    2    0    0  0.12607526880E+02 -0.23838733688E+02  0.30429177141E+02  0.50528809411E+02  0.29999846684E+02 0.  0.
        -12    1    1    2    0    0 -0.12607526880E+02  0.23838733688E+02 -0.30429177141E+02  0.40659190589E+02  0.00000000000E+00 0.  1.
         11    1    3    3    0    0  0.74176932282E+01  0.33552241568E+01  0.56457908296E+01  0.99073031811E+01  0.51100000000E-03 0.  1.
        -11    1    3    3    0    0  0.65573061627E+00 -0.13409876783E+02  0.22109321721E+02  0.25866520547E+02  0.51100000000E-03 0. -1.
        -12    1    3    3    0    0  0.45341030352E+01 -0.13784081062E+02  0.26740645907E+01  0.14754985683E+02  0.00000000000E+00 0.  1.
</event>
<event>
 7    1  0.5006721E-012  0.5052885E+02  0.7816164E-02  0.1300439E+00
        -11   -1    0    0    0    0  0.00000000000E+00  0.00000000000E+00  0.45593999997E+02  0.45594000000E+02  0.51100000000E-03 0. -1.
         11   -1    0    0    0    0 -0.00000000000E+00 -0.00000000000E+00 -0.45593999997E+02  0.45594000000E+02  0.51100000000E-03 0.  1.
    9900012    2    1    2    0    0 -0.11461185970E+02  0.56099559029E+01 -0.38604873795E+02  0.50528847651E+02  0.29999962919E+02 0.  0.
         12    1    1    2    0    0  0.11461185970E+02 -0.56099559029E+01  0.38604873795E+02  0.40659152349E+02  0.00000000000E+00 0. -1.
         11    1    3    3    0    0  0.98965842839E+00  0.68470820885E+01 -0.32430093060E+01  0.76406195135E+01  0.51100000000E-03 0. -1.
        -11    1    3    3    0    0 -0.37911197796E+01 -0.43979657372E+01 -0.32814408416E+02  0.33324166783E+02  0.51100000000E-03 0.  1.
        -12    1    3    3    0    0 -0.86597246187E+01  0.31608395517E+01 -0.25474560722E+01  0.95640613540E+01  0.00000000000E+00 0.  1.
</event>
<event>
 7    1  0.5006721E-012  0.5052884E+02  0.7816164E-02  0.1300439E+00
        -11   -1    0    0    0    0  0.00000000000E+00  0.00000000000E+00  0.45593999997E+02  0.45594000000E+02  0.51100000000E-03 0. -1.
         11   -1    0    0    0    0 -0.00000000000E+00 -0.00000000000E+00 -0.45593999997E+02  0.45594000000E+02  0.51100000000E-03 0.  1.
    9900012    2    1    2    0    0 -0.67209972681E+01  0.54850356735E+00  0.40096063277E+02  0.50528844195E+02  0.29999952415E+02 0.  0.
        -12    1    1    2    0    0  0.67209972681E+01 -0.54850356735E+00 -0.40096063277E+02  0.40659155805E+02  0.00000000000E+00 0.  1.
         11    1    3    3    0    0 -0.76281971310E+01 -0.79036870946E+01  0.24942427972E+02  0.27254034097E+02  0.51100000000E-03 0. -1.
        -11    1    3    3    0    0  0.74084351818E+01  0.24136596851E+01  0.32844848933E+01  0.84556789316E+01  0.51100000000E-03 0.  1.
        -12    1    3    3    0    0 -0.65012353189E+01  0.60385309768E+01  0.11869150412E+02  0.14819131166E+02  0.00000000000E+00 0.  1.
</event>
<event>
 7    1  0.5549327E-012  0.5052886E+02  0.7816164E-02  0.1300439E+00
        -11   -1    0    0    0    0  0.00000000000E+00  0.00000000000E+00  0.45593999997E+02  0.45594000000E+02  0.51100000000E-03 0. -1.
         11   -1    0    0    0    0 -0.00000000000E+00 -0.00000000000E+00 -0.45593999997E+02  0.45594000000E+02  0.51100000000E-03 0.  1.
    9900012    2    1    2    0    0 -0.15505198487E+02  0.50106295459E+01  0.37251148209E+02  0.50528860419E+02  0.30000001729E+02 0.  0.
        -12    1    1    2    0    0  0.15505198487E+02 -0.50106295459E+01 -0.37251148209E+02  0.40659139581E+02  0.00000000000E+00 0.  1.
         11    1    3    3    0    0 -0.11391278132E+02 -0.87827258449E+01  0.26129559947E+02  0.29827024559E+02  0.51100000000E-03 0. -1.
        -11    1    3    3    0    0  0.24399891465E+01  0.61039921317E+01  0.74899064003E+01  0.99654887048E+01  0.51100000000E-03 0.  1.
         12    1    3    3    0    0 -0.65539095016E+01  0.76893632590E+01  0.36316818615E+01  0.10736347155E+02  0.00000000000E+00 0. -1.
</event>
<event>
 7    1  0.5006721E-012  0.5052886E+02  0.7816164E-02  0.1300439E+00
        -11   -1    0    0    0    0  0.00000000000E+00  0.00000000000E+00  0.45593999997E+02  0.45594000000E+02  0.51100000000E-03 0. -1.
         11   -1    0    0    0    0 -0.00000000000E+00 -0.00000000000E+00 -0.45593999997E+02  0.45594000000E+02  0.51100000000E-03 0.  1.
    9900012    2    1    2    0    0  0.17875442555E+02 -0.60305427688E+01 -0.36017585326E+02  0.50528863937E+02  0.30000012423E+02 0.  0.
         12    1    1    2    0    0 -0.17875442555E+02  0.60305427688E+01  0.36017585326E+02  0.40659136063E+02  0.00000000000E+00 0. -1.
         11    1    3    3    0    0  0.86625869386E+01 -0.85276159183E+01 -0.78606560017E+01  0.14475861244E+02  0.51100000000E-03 0. -1.
        -11    1    3    3    0    0  0.13345664766E+02  0.78654272096E+01 -0.21941658786E+02  0.26859041379E+02  0.51100000000E-03 0.  1.
        -12    1    3    3    0    0 -0.41328091495E+01 -0.53683540601E+01 -0.62152705387E+01  0.91939613143E+01  0.00000000000E+00 0.  1.
</event>
<event>
 7    1  0.5006721E-012  0.5052890E+02  0.7816164E-02  0.1300439E+00
        -11   -1    0    0    0    0  0.00000000000E+00  0.00000000000E+00  0.45593999997E+02  0.45594000000E+02  0.51100000000E-03 0. -1.
         11   -1    0    0    0    0 -0.00000000000E+00 -0.00000000000E+00 -0.45593999997E+02  0.45594000000E+02  0.51100000000E-03 0.  1.
    9900012    2    1    2    0    0 -0.11718473458E+02 -0.21176736694E+02 -0.32670869194E+02  0.50528899037E+02  0.30000119113E+02 0.  0.
         12    1    1    2    0    0  0.11718473458E+02  0.21176736694E+02  0.32670869194E+02  0.40659100963E+02  0.00000000000E+00 0. -1.
         11    1    3    3    0    0  0.16301501716E+01 -0.39018691986E+01 -0.85712461645E+01  0.95576270014E+01  0.51100000000E-03 0. -1.
        -11    1    3    3    0    0 -0.13968174191E+02 -0.53423298550E+01 -0.10292878388E+01  0.14990323953E+02  0.51100000000E-03 0.  1.
        -12    1    3    3    0    0  0.61955056088E+00 -0.11932537641E+02 -0.23070335191E+02  0.25980948083E+02  0.00000000000E+00 0.  1.
</event>
<event>
 7    1  0.5006721E-012  0.5052887E+02  0.7816164E-02  0.1300439E+00
        -11   -1    0    0    0    0  0.00000000000E+00  0.00000000000E+00  0.45593999997E+02  0.45594000000E+02  0.51100000000E-03 0. -1.
         11   -1    0    0    0    0 -0.00000000000E+00 -0.00000000000E+00 -0.45593999997E+02  0.45594000000E+02  0.51100000000E-03 0.  1.
    9900012    2    1    2    0    0  0.26663917196E+02 -0.26874491087E+02  0.14831131982E+02  0.50528865389E+02  0.30000016838E+02 0.  0.
        -12    1    1    2    0    0 -0.26663917196E+02  0.26874491087E+02 -0.14831131982E+02  0.40659134611E+02  0.00000000000E+00 0.  1.
         11    1    3    3    0    0  0.92616115053E+01 -0.27298303226E+02  0.95265892292E+01  0.30360018269E+02  0.51100000000E-03 0. -1.
        -11    1    3    3    0    0  0.14202492058E+02  0.27475542591E+00  0.77102993759E+01  0.16162765479E+02  0.51100000000E-03 0.  1.
         12    1    3    3    0    0  0.31998136328E+01  0.14905671359E+00 -0.24057566228E+01  0.40060816413E+01  0.00000000000E+00 0. -1.
</event>
<event>
 7    1  0.5006721E-012  0.5052880E+02  0.7816164E-02  0.1300439E+00
        -11   -1    0    0    0    0  0.00000000000E+00  0.00000000000E+00  0.45593999997E+02  0.45594000000E+02  0.51100000000E-03 0. -1.
         11   -1    0    0    0    0 -0.00000000000E+00 -0.00000000000E+00 -0.45593999997E+02  0.45594000000E+02  0.51100000000E-03 0.  1.
    9900012    2    1    2    0    0 -0.17735532358E+02  0.29197367881E+02 -0.22048468831E+02  0.50528802062E+02  0.29999824348E+02 0.  0.
         12    1    1    2    0    0  0.17735532358E+02 -0.29197367881E+02  0.22048468831E+02  0.40659197938E+02  0.00000000000E+00 0. -1.
         11    1    3    3    0    0 -0.19027852923E+02  0.12104858168E+02 -0.17487409304E+02  0.28537628888E+02  0.51100000000E-03 0. -1.
        -11    1    3    3    0    0  0.24250306677E+01  0.17491178499E+02 -0.72170261199E+01  0.19076361427E+02  0.51100000000E-03 0.  1.
         12    1    3    3    0    0 -0.11327101027E+01 -0.39866878641E+00  0.26559665932E+01  0.29148117473E+01  0.00000000000E+00 0. -1.
</event>
<event>
 7    1  0.5006721E-012  0.5052884E+02  0.7816164E-02  0.1300439E+00
        -11   -1    0    0    0    0  0.00000000000E+00  0.00000000000E+00  0.45593999997E+02  0.45594000000E+02  0.51100000000E-03 0. -1.
         11   -1    0    0    0    0 -0.00000000000E+00 -0.00000000000E+00 -0.45593999997E+02  0.45594000000E+02  0.51100000000E-03 0.  1.
    9900012    2    1    2    0    0  0.24065285254E+02 -0.18872399922E+02  0.26792942637E+02  0.50528841028E+02  0.29999942787E+02 0.  0.
        -12    1    1    2    0    0 -0.24065285254E+02  0.18872399922E+02 -0.26792942637E+02  0.40659158972E+02  0.00000000000E+00 0.  1.
         11    1    3    3    0    0  0.26980154892E+02 -0.75205688612E+01  0.24001632621E+02  0.36885852067E+02  0.51100000000E-03 0. -1.
        -11    1    3    3    0    0 -0.33927041450E+01 -0.20317345338E+01  0.20941510035E+00  0.39600810064E+01  0.51100000000E-03 0.  1.
         12    1    3    3    0    0  0.47783450732E+00 -0.93200965274E+01  0.25818949160E+01  0.96829079544E+01  0.00000000000E+00 0. -1.
</event>
<event>
 7    1  0.5006721E-012  0.5052889E+02  0.7816164E-02  0.1300439E+00
        -11   -1    0    0    0    0  0.00000000000E+00  0.00000000000E+00  0.45593999997E+02  0.45594000000E+02  0.51100000000E-03 0. -1.
         11   -1    0    0    0    0 -0.00000000000E+00 -0.00000000000E+00 -0.45593999997E+02  0.45594000000E+02  0.51100000000E-03 0.  1.
    9900012    2    1    2    0    0 -0.20052056186E+01 -0.19816598052E+02  0.35446360026E+02  0.50528894660E+02  0.30000105809E+02 0.  0.
        -12    1    1    2    0    0  0.20052056186E+01  0.19816598052E+02 -0.35446360026E+02  0.40659105340E+02  0.00000000000E+00 0.  1.
         11    1    3    3    0    0  0.39010274790E+01 -0.13707134606E+02  0.59843942410E+01  0.15456924959E+02  0.51100000000E-03 0.  1.
        -11    1    3    3    0    0 -0.85259895105E+01 -0.87065578936E+01  0.28869229183E+02  0.31335747021E+02  0.51100000000E-03 0. -1.
        -12    1    3    3    0    0  0.26197564129E+01  0.25970944477E+01  0.59273660173E+00  0.37362226797E+01  0.00000000000E+00 0.  1.
</event>
<event>
 7    1  0.5006721E-012  0.5052887E+02  0.7816164E-02  0.1300439E+00
        -11   -1    0    0    0    0  0.00000000000E+00  0.00000000000E+00  0.45593999997E+02  0.45594000000E+02  0.51100000000E-03 0. -1.
         11   -1    0    0    0    0 -0.00000000000E+00 -0.00000000000E+00 -0.45593999997E+02  0.45594000000E+02  0.51100000000E-03 0.  1.
    9900012    2    1    2    0    0  0.13111527930E+02 -0.10921529730E+02 -0.36904915105E+02  0.50528871440E+02  0.30000035230E+02 0.  0.
         12    1    1    2    0    0 -0.13111527930E+02  0.10921529730E+02  0.36904915105E+02  0.40659128560E+02  0.00000000000E+00 0. -1.
         11    1    3    3    0    0  0.26930086648E+01  0.47212830828E+01 -0.14435317926E+01  0.56237526541E+01  0.51100000000E-03 0. -1.
        -11    1    3    3    0    0 -0.23923276254E+01 -0.14001899721E+02 -0.14605359403E+02  0.20373830048E+02  0.51100000000E-03 0.  1.
        -12    1    3    3    0    0  0.12810846891E+02 -0.16409130917E+01 -0.20856023909E+02  0.24531288738E+02  0.00000000000E+00 0.  1.
</event>
<event>
 7    1  0.5006721E-012  0.5052886E+02  0.7816164E-02  0.1300439E+00
        -11   -1    0    0    0    0  0.00000000000E+00  0.00000000000E+00  0.45593999997E+02  0.45594000000E+02  0.51100000000E-03 0. -1.
         11   -1    0    0    0    0 -0.00000000000E+00 -0.00000000000E+00 -0.45593999997E+02  0.45594000000E+02  0.51100000000E-03 0.  1.
    9900012    2    1    2    0    0 -0.20902138863E+02 -0.24515229862E+02  0.24804636828E+02  0.50528856964E+02  0.29999991228E+02 0.  0.
        -12    1    1    2    0    0  0.20902138863E+02  0.24515229862E+02 -0.24804636828E+02  0.40659143036E+02  0.00000000000E+00 0.  1.
         11    1    3    3    0    0 -0.19297093100E+02 -0.70905984977E+00  0.14687887676E+02  0.24261381095E+02  0.51100000000E-03 0. -1.
        -11    1    3    3    0    0  0.58322978812E+00 -0.72715340902E+01  0.13280620442E+01  0.74147902239E+01  0.51100000000E-03 0.  1.
         12    1    3    3    0    0 -0.21882755514E+01 -0.16534635922E+02  0.87886871075E+01  0.18852685645E+02  0.00000000000E+00 0. -1.
</event>
<event>
 7    1  0.5006721E-012  0.5052885E+02  0.7816164E-02  0.1300439E+00
        -11   -1    0    0    0    0  0.00000000000E+00  0.00000000000E+00  0.45593999997E+02  0.45594000000E+02  0.51100000000E-03 0. -1.
         11   -1    0    0    0    0 -0.00000000000E+00 -0.00000000000E+00 -0.45593999997E+02  0.45594000000E+02  0.51100000000E-03 0.  1.
    9900012    2    1    2    0    0  0.37915067178E+02  0.54192285459E+01 -0.13647194013E+02  0.50528852670E+02  0.29999978177E+02 0.  0.
         12    1    1    2    0    0 -0.37915067178E+02 -0.54192285459E+01  0.13647194013E+02  0.40659147330E+02  0.00000000000E+00 0. -1.
         11    1    3    3    0    0  0.60510780460E+01  0.58028199228E+00 -0.16687366968E+02  0.17760081343E+02  0.51100000000E-03 0. -1.
        -11    1    3    3    0    0  0.41106138118E+01  0.14945227733E+00  0.20710958847E+01  0.46053143560E+01  0.51100000000E-03 0.  1.
         12    1    3    3    0    0  0.27753375320E+02  0.46894942763E+01  0.96907707038E+00  0.28163456972E+02  0.00000000000E+00 0. -1.
</event>
<event>
 7    1  0.5006721E-012  0.5052893E+02  0.7816164E-02  0.1300439E+00
        -11   -1    0    0    0    0  0.00000000000E+00  0.00000000000E+00  0.45593999997E+02  0.45594000000E+02  0.51100000000E-03 0.  1.
         11   -1    0    0    0    0 -0.00000000000E+00 -0.00000000000E+00 -0.45593999997E+02  0.45594000000E+02  0.51100000000E-03 0. -1.
    9900012    2    1    2    0    0 -0.17076263103E+02 -0.30410507161E+02  0.20898851465E+02  0.50528933362E+02  0.30000223445E+02 0.  0.
        -12    1    1    2    0    0  0.17076263103E+02  0.30410507161E+02 -0.20898851465E+02  0.40659066638E+02  0.00000000000E+00 0.  1.
         11    1    3    3    0    0 -0.18465331938E+00 -0.16010079454E+02  0.20192380000E+01  0.16137969616E+02  0.51100000000E-03 0. -1.
        -11    1    3    3    0    0 -0.12661180224E+02 -0.55015330029E+01  0.20182313290E+02  0.24451955342E+02  0.51100000000E-03 0.  1.
         12    1    3    3    0    0 -0.42304295594E+01 -0.88988947040E+01 -0.13026998245E+01  0.99390084034E+01  0.00000000000E+00 0. -1.
</event>
<event>
 7    1  0.5006721E-012  0.5052885E+02  0.7816164E-02  0.1300439E+00
        -11   -1    0    0    0    0  0.00000000000E+00  0.00000000000E+00  0.45593999997E+02  0.45594000000E+02  0.51100000000E-03 0. -1.
         11   -1    0    0    0    0 -0.00000000000E+00 -0.00000000000E+00 -0.45593999997E+02  0.45594000000E+02  0.51100000000E-03 0.  1.
    9900012    2    1    2    0    0  0.13491301770E+02  0.21582934702E+02  0.31706914272E+02  0.50528847199E+02  0.29999961547E+02 0.  0.
        -12    1    1    2    0    0 -0.13491301770E+02 -0.21582934702E+02 -0.31706914272E+02  0.40659152801E+02  0.00000000000E+00 0.  1.
         11    1    3    3    0    0  0.19629237768E+02  0.16488704443E+02  0.11265194979E+02  0.28001588665E+02  0.51100000000E-03 0. -1.
        -11    1    3    3    0    0 -0.21895986700E+00  0.67917390145E+00 -0.79408334125E-01  0.71800178024E+00  0.51100000000E-03 0.  1.
         12    1    3    3    0    0 -0.59189761314E+01  0.44150563577E+01  0.20521127627E+02  0.21809256754E+02  0.00000000000E+00 0. -1.
</event>
<event>
 7    1  0.5006721E-012  0.5052885E+02  0.7816164E-02  0.1300439E+00
        -11   -1    0    0    0    0  0.00000000000E+00  0.00000000000E+00  0.45593999997E+02  0.45594000000E+02  0.51100000000E-03 0. -1.
         11   -1    0    0    0    0 -0.00000000000E+00 -0.00000000000E+00 -0.45593999997E+02  0.45594000000E+02  0.51100000000E-03 0.  1.
    9900012    2    1    2    0    0 -0.16602871903E+02 -0.25820768617E+02 -0.26660811497E+02  0.50528851987E+02  0.29999976101E+02 0.  0.
         12    1    1    2    0    0  0.16602871903E+02  0.25820768617E+02  0.26660811497E+02  0.40659148013E+02  0.00000000000E+00 0. -1.
         11    1    3    3    0    0 -0.22615718925E+02 -0.19017647630E+02 -0.23443140278E+02  0.37718993759E+02  0.51100000000E-03 0. -1.
        -11    1    3    3    0    0  0.18063710933E+01 -0.23973256087E+01 -0.55317592379E+01  0.62936878797E+01  0.51100000000E-03 0.  1.
         12    1    3    3    0    0  0.42064759280E+01 -0.44057953787E+01  0.23140880188E+01  0.65161703485E+01  0.00000000000E+00 0. -1.
</event>
<event>
 7    1  0.5006721E-012  0.5052886E+02  0.7816164E-02  0.1300439E+00
        -11   -1    0    0    0    0  0.00000000000E+00  0.00000000000E+00  0.45593999997E+02  0.45594000000E+02  0.51100000000E-03 0. -1.
         11   -1    0    0    0    0 -0.00000000000E+00 -0.00000000000E+00 -0.45593999997E+02  0.45594000000E+02  0.51100000000E-03 0.  1.
    9900012    2    1    2    0    0  0.13777069705E+02  0.11473263557E+02 -0.36492775073E+02  0.50528855163E+02  0.29999985754E+02 0.  0.
         12    1    1    2    0    0 -0.13777069705E+02 -0.11473263557E+02  0.36492775073E+02  0.40659144837E+02  0.00000000000E+00 0. -1.
         11    1    3    3    0    0  0.44429206267E+01  0.70142583236E+01  0.13559472010E+01  0.84129636038E+01  0.51100000000E-03 0. -1.
        -11    1    3    3    0    0  0.51726487364E+01 -0.36911451141E+01 -0.27832599984E+02  0.28548808545E+02  0.51100000000E-03 0.  1.
         12    1    3    3    0    0  0.41615003417E+01  0.81501503478E+01 -0.10016122290E+02  0.13567083014E+02  0.00000000000E+00 0. -1.
</event>
<event>
 7    1  0.5006721E-012  0.5052886E+02  0.7816164E-02  0.1300439E+00
        -11   -1    0    0    0    0  0.00000000000E+00  0.00000000000E+00  0.45593999997E+02  0.45594000000E+02  0.51100000000E-03 0. -1.
         11   -1    0    0    0    0 -0.00000000000E+00 -0.00000000000E+00 -0.45593999997E+02  0.45594000000E+02  0.51100000000E-03 0.  1.
    9900012    2    1    2    0    0 -0.22487361498E+01 -0.35216312334E+02 -0.20197028919E+02  0.50528862702E+02  0.30000008669E+02 0.  0.
         12    1    1    2    0    0  0.22487361498E+01  0.35216312334E+02  0.20197028919E+02  0.40659137298E+02  0.00000000000E+00 0. -1.
         11    1    3    3    0    0  0.19341121412E+01 -0.34961742058E+01  0.67395335818E+01  0.78348795149E+01  0.51100000000E-03 0. -1.
        -11    1    3    3    0    0 -0.57041009405E+01 -0.27180933962E+02 -0.25478739039E+02  0.37689601774E+02  0.51100000000E-03 0.  1.
         12    1    3    3    0    0  0.15212526495E+01 -0.45392041661E+01 -0.14578234611E+01  0.50043814132E+01  0.00000000000E+00 0. -1.
</event>
<event>
 7    1  0.5006721E-012  0.5052886E+02  0.7816164E-02  0.1300439E+00
        -11   -1    0    0    0    0  0.00000000000E+00  0.00000000000E+00  0.45593999997E+02  0.45594000000E+02  0.51100000000E-03 0. -1.
         11   -1    0    0    0    0 -0.00000000000E+00 -0.00000000000E+00 -0.45593999997E+02  0.45594000000E+02  0.51100000000E-03 0.  1.
    9900012    2    1    2    0    0 -0.79328198655E+01 -0.34920937210E+02 -0.19255237200E+02  0.50528860237E+02  0.30000001176E+02 0.  0.
         12    1    1    2    0    0  0.79328198655E+01  0.34920937210E+02  0.19255237200E+02  0.40659139763E+02  0.00000000000E+00 0. -1.
         11    1    3    3    0    0  0.29670782699E+01 -0.22702425180E+02 -0.80982420075E+01  0.24285493332E+02  0.51100000000E-03 0. -1.
        -11    1    3    3    0    0 -0.11793118297E+02 -0.10290431609E+02 -0.15110233199E+02  0.21755223959E+02  0.51100000000E-03 0.  1.
        -12    1    3    3    0    0  0.89322016218E+00 -0.19280804203E+01  0.39532380065E+01  0.44881429457E+01  0.00000000000E+00 0.  1.
</event>
<event>
 7    1  0.5006721E-012  0.5052885E+02  0.7816164E-02  0.1300439E+00
        -11   -1    0    0    0    0  0.00000000000E+00  0.00000000000E+00  0.45593999997E+02  0.45594000000E+02  0.51100000000E-03 0.  1.
         11   -1    0    0    0    0 -0.00000000000E+00 -0.00000000000E+00 -0.45593999997E+02  0.45594000000E+02  0.51100000000E-03 0. -1.
    9900012    2    1    2    0    0  0.36126442847E+02  0.47035587438E+01 -0.18053338408E+02  0.50528851395E+02  0.29999974300E+02 0.  0.
         12    1    1    2    0    0 -0.36126442847E+02 -0.47035587438E+01  0.18053338408E+02  0.40659148605E+02  0.00000000000E+00 0. -1.
         11    1    3    3    0    0  0.48699682136E+01 -0.68890876536E+01 -0.10410531236E+02  0.13399823879E+02  0.51100000000E-03 0. -1.
        -11    1    3    3    0    0  0.32011865845E+02  0.10363865906E+02 -0.93222131966E+01  0.34915224910E+02  0.51100000000E-03 0.  1.
        -12    1    3    3    0    0 -0.75539121197E+00  0.12287804914E+01  0.16794060252E+01  0.22138026057E+01  0.00000000000E+00 0.  1.
</event>
<event>
 7    1  0.5006721E-012  0.5052888E+02  0.7816164E-02  0.1300439E+00
        -11   -1    0    0    0    0  0.00000000000E+00  0.00000000000E+00  0.45593999997E+02  0.45594000000E+02  0.51100000000E-03 0. -1.
         11   -1    0    0    0    0 -0.00000000000E+00 -0.00000000000E+00 -0.45593999997E+02  0.45594000000E+02  0.51100000000E-03 0.  1.
    9900012    2    1    2    0    0 -0.18823607581E+02 -0.29406233580E+02  0.20835283216E+02  0.50528882912E+02  0.30000070098E+02 0.  0.
        -12    1    1    2    0    0  0.18823607581E+02  0.29406233580E+02 -0.20835283216E+02  0.40659117088E+02  0.00000000000E+00 0.  1.
         11    1    3    3    0    0  0.14088019196E+01  0.24035717668E+01  0.70652529166E+00  0.28742056878E+01  0.51100000000E-03 0.  1.
        -11    1    3    3    0    0 -0.19723639031E+02 -0.19286929080E+02  0.50457760703E+01  0.28044026572E+02  0.51100000000E-03 0. -1.
        -12    1    3    3    0    0 -0.50877046970E+00 -0.12522876267E+02  0.15082981854E+02  0.19610650652E+02  0.00000000000E+00 0.  1.
</event>
<event>
 7    1  0.5006721E-012  0.5052888E+02  0.7816164E-02  0.1300439E+00
        -11   -1    0    0    0    0  0.00000000000E+00  0.00000000000E+00  0.45593999997E+02  0.45594000000E+02  0.51100000000E-03 0. -1.
         11   -1    0    0    0    0 -0.00000000000E+00 -0.00000000000E+00 -0.45593999997E+02  0.45594000000E+02  0.51100000000E-03 0.  1.
    9900012    2    1    2    0    0 -0.64501832031E+01  0.13998563036E+02 -0.37624454247E+02  0.50528878172E+02  0.30000055693E+02 0.  0.
         12    1    1    2    0    0  0.64501832031E+01 -0.13998563036E+02  0.37624454247E+02  0.40659121828E+02  0.00000000000E+00 0. -1.
         11    1    3    3    0    0 -0.86302250929E+01  0.23197312775E+01 -0.15444030658E+02  0.17843206595E+02  0.51100000000E-03 0. -1.
        -11    1    3    3    0    0 -0.72727724230E+01 -0.17661465469E+01 -0.56704807048E+01  0.93897201251E+01  0.51100000000E-03 0.  1.
        -12    1    3    3    0    0  0.94528143128E+01  0.13444978305E+02 -0.16509942884E+02  0.23295951453E+02  0.00000000000E+00 0.  1.
</event>
<event>
 7    1  0.5006721E-012  0.5052886E+02  0.7816164E-02  0.1300439E+00
        -11   -1    0    0    0    0  0.00000000000E+00  0.00000000000E+00  0.45593999997E+02  0.45594000000E+02  0.51100000000E-03 0. -1.
         11   -1    0    0    0    0 -0.00000000000E+00 -0.00000000000E+00 -0.45593999997E+02  0.45594000000E+02  0.51100000000E-03 0.  1.
    9900012    2    1    2    0    0  0.13985110688E+01 -0.39981070754E+02 -0.72611295725E+01  0.50528857676E+02  0.29999993393E+02 0.  0.
         12    1    1    2    0    0 -0.13985110688E+01  0.39981070754E+02  0.72611295725E+01  0.40659142324E+02  0.00000000000E+00 0. -1.
         11    1    3    3    0    0 -0.28124337145E+01 -0.11965737024E+01  0.67097669261E+00  0.31291823224E+01  0.51100000000E-03 0. -1.
        -11    1    3    3    0    0  0.26822828175E+01 -0.32935337209E+02  0.47176864880E+01  0.33379449430E+02  0.51100000000E-03 0.  1.
        -12    1    3    3    0    0  0.15286619659E+01 -0.58491598424E+01 -0.12649792753E+02  0.14020225924E+02  0.00000000000E+00 0.  1.
</event>
<event>
 7    1  0.5006721E-012  0.5052886E+02  0.7816164E-02  0.1300439E+00
        -11   -1    0    0    0    0  0.00000000000E+00  0.00000000000E+00  0.45593999997E+02  0.45594000000E+02  0.51100000000E-03 0. -1.
         11   -1    0    0    0    0 -0.00000000000E+00 -0.00000000000E+00 -0.45593999997E+02  0.45594000000E+02  0.51100000000E-03 0.  1.
    9900012    2    1    2    0    0  0.26644307399E+02  0.25640437990E+02  0.16906046046E+02  0.50528861174E+02  0.30000004026E+02 0.  0.
        -12    1    1    2    0    0 -0.26644307399E+02 -0.25640437990E+02 -0.16906046046E+02  0.40659138826E+02  0.00000000000E+00 0.  1.
         11    1    3    3    0    0  0.11859655992E+02  0.25970616203E+02  0.28064403684E+01  0.28687984488E+02  0.51100000000E-03 0. -1.
        -11    1    3    3    0    0  0.95758948166E+01  0.83401126631E+00  0.13351212354E+02  0.16451389240E+02  0.51100000000E-03 0.  1.
         12    1    3    3    0    0  0.52087565908E+01 -0.11641894787E+01  0.74839332314E+00  0.53894874460E+01  0.00000000000E+00 0. -1.
</event>
<event>
 7    1  0.5006721E-012  0.5052886E+02  0.7816164E-02  0.1300439E+00
        -11   -1    0    0    0    0  0.00000000000E+00  0.00000000000E+00  0.45593999997E+02  0.45594000000E+02  0.51100000000E-03 0. -1.
         11   -1    0    0    0    0 -0.00000000000E+00 -0.00000000000E+00 -0.45593999997E+02  0.45594000000E+02  0.51100000000E-03 0.  1.
    9900012    2    1    2    0    0 -0.86921645097E+01 -0.31422965506E+02  0.24294220459E+02  0.50528860403E+02  0.30000001681E+02 0.  0.
        -12    1    1    2    0    0  0.86921645097E+01  0.31422965506E+02 -0.24294220459E+02  0.40659139597E+02  0.00000000000E+00 0.  1.
         11    1    3    3    0    0 -0.42750901719E+01 -0.11462183569E+02  0.29999712106E+01  0.12595946795E+02  0.51100000000E-03 0. -1.
        -11    1    3    3    0    0  0.82964696748E+01 -0.61516150095E+01  0.14847076474E+02  0.18086167543E+02  0.51100000000E-03 0.  1.
        -12    1    3    3    0    0 -0.12713544013E+02 -0.13809166928E+02  0.64471727742E+01  0.19846746065E+02  0.00000000000E+00 0.  1.
</event>
<event>
 7    1  0.5006721E-012  0.5052886E+02  0.7816164E-02  0.1300439E+00
        -11   -1    0    0    0    0  0.00000000000E+00  0.00000000000E+00  0.45593999997E+02  0.45594000000E+02  0.51100000000E-03 0. -1.
         11   -1    0    0    0    0 -0.00000000000E+00 -0.00000000000E+00 -0.45593999997E+02  0.45594000000E+02  0.51100000000E-03 0.  1.
    9900012    2    1    2    0    0  0.70404577547E+01  0.37981775156E+02  0.12687885052E+02  0.50528859373E+02  0.29999998551E+02 0.  0.
        -12    1    1    2    0    0 -0.70404577547E+01 -0.37981775156E+02 -0.12687885052E+02  0.40659140627E+02  0.00000000000E+00 0.  1.
         11    1    3    3    0    0  0.13469851096E+02  0.32030844082E+02  0.11804664316E+02  0.36698255558E+02  0.51100000000E-03 0. -1.
        -11    1    3    3    0    0 -0.15448966258E+01 -0.30710711351E+01  0.96596513830E+00  0.35708923830E+01  0.51100000000E-03 0.  1.
        -12    1    3    3    0    0 -0.48844967158E+01  0.90220022095E+01 -0.82744402270E-01  0.10259711432E+02  0.00000000000E+00 0.  1.
</event>
<event>
 7    1  0.5006721E-012  0.5052887E+02  0.7816164E-02  0.1300439E+00
        -11   -1    0    0    0    0  0.00000000000E+00  0.00000000000E+00  0.45593999997E+02  0.45594000000E+02  0.51100000000E-03 0. -1.
         11   -1    0    0    0    0 -0.00000000000E+00 -0.00000000000E+00 -0.45593999997E+02  0.45594000000E+02  0.51100000000E-03 0.  1.
    9900012    2    1    2    0    0 -0.35445169944E+02 -0.84773727556E+01 -0.18026070645E+02  0.50528866412E+02  0.30000019946E+02 0.  0.
         12    1    1    2    0    0  0.35445169944E+02  0.84773727556E+01  0.18026070645E+02  0.40659133588E+02  0.00000000000E+00 0. -1.
         11    1    3    3    0    0 -0.31763380583E+02  0.43835833939E+01 -0.13197469078E+02  0.34674217219E+02  0.51100000000E-03 0.  1.
        -11    1    3    3    0    0 -0.29167803297E+01 -0.13661848140E+02 -0.42323308411E+01  0.14596791658E+02  0.51100000000E-03 0. -1.
        -12    1    3    3    0    0 -0.76500903223E+00  0.80089199085E+00 -0.59627072600E+00  0.12578575353E+01  0.00000000000E+00 0.  1.
</event>
<event>
 7    1  0.5006721E-012  0.5052887E+02  0.7816164E-02  0.1300439E+00
        -11   -1    0    0    0    0  0.00000000000E+00  0.00000000000E+00  0.45593999997E+02  0.45594000000E+02  0.51100000000E-03 0. -1.
         11   -1    0    0    0    0 -0.00000000000E+00 -0.00000000000E+00 -0.45593999997E+02  0.45594000000E+02  0.51100000000E-03 0.  1.
    9900012    2    1    2    0    0 -0.16067931067E+02  0.78038584791E+01 -0.36525141785E+02  0.50528873124E+02  0.30000040346E+02 0.  0.
         12    1    1    2    0    0  0.16067931067E+02 -0.78038584791E+01  0.36525141785E+02  0.40659126876E+02  0.00000000000E+00 0. -1.
         11    1    3    3    0    0 -0.63068863456E+01  0.12539075225E+01  0.87519542673E+00  0.64896122185E+01  0.51100000000E-03 0. -1.
        -11    1    3    3    0    0  0.15403945841E+01  0.45810045418E+01 -0.30002061106E+02  0.30388848102E+02  0.51100000000E-03 0.  1.
        -12    1    3    3    0    0 -0.11301439305E+02  0.19689464147E+01 -0.73982761058E+01  0.13650412803E+02  0.00000000000E+00 0.  1.
</event>
<event>
 7    1  0.5006721E-012  0.5052886E+02  0.7816164E-02  0.1300439E+00
        -11   -1    0    0    0    0  0.00000000000E+00  0.00000000000E+00  0.45593999997E+02  0.45594000000E+02  0.51100000000E-03 0. -1.
         11   -1    0    0    0    0 -0.00000000000E+00 -0.00000000000E+00 -0.45593999997E+02  0.45594000000E+02  0.51100000000E-03 0.  1.
    9900012    2    1    2    0    0  0.21493575625E+02 -0.21658004609E+02  0.26872342110E+02  0.50528859241E+02  0.29999998148E+02 0.  0.
        -12    1    1    2    0    0 -0.21493575625E+02  0.21658004609E+02 -0.26872342110E+02  0.40659140759E+02  0.00000000000E+00 0.  1.
         11    1    3    3    0    0  0.20442710642E+02 -0.16652552348E+02  0.50808840615E+01  0.26851951534E+02  0.51100000000E-03 0. -1.
        -11    1    3    3    0    0  0.38028413306E+01 -0.59841957404E+00  0.11849707223E+02  0.12459344674E+02  0.51100000000E-03 0.  1.
         12    1    3    3    0    0 -0.27519763470E+01 -0.44070326876E+01  0.99417508255E+01  0.11217563033E+02  0.00000000000E+00 0. -1.
</event>
<event>
 7    1  0.5006721E-012  0.5052886E+02  0.7816164E-02  0.1300439E+00
        -11   -1    0    0    0    0  0.00000000000E+00  0.00000000000E+00  0.45593999997E+02  0.45594000000E+02  0.51100000000E-03 0. -1.
         11   -1    0    0    0    0 -0.00000000000E+00 -0.00000000000E+00 -0.45593999997E+02  0.45594000000E+02  0.51100000000E-03 0.  1.
    9900012    2    1    2    0    0  0.50290599975E+00 -0.33378621493E+02 -0.23211640453E+02  0.50528861547E+02  0.30000005158E+02 0.  0.
         12    1    1    2    0    0 -0.50290599975E+00  0.33378621493E+02  0.23211640453E+02  0.40659138453E+02  0.00000000000E+00 0. -1.
         11    1    3    3    0    0 -0.12022179633E+02 -0.18606885738E+02 -0.19517871409E+02  0.29524503461E+02  0.51100000000E-03 0. -1.
        -11    1    3    3    0    0  0.69573995791E+01 -0.87885562713E+01 -0.57196233374E+01  0.12584046313E+02  0.51100000000E-03 0.  1.
         12    1    3    3    0    0  0.55676860538E+01 -0.59831794839E+01  0.20258542932E+01  0.84203117726E+01  0.00000000000E+00 0. -1.
</event>
<event>
 7    1  0.5006721E-012  0.5052886E+02  0.7816164E-02  0.1300439E+00
        -11   -1    0    0    0    0  0.00000000000E+00  0.00000000000E+00  0.45593999997E+02  0.45594000000E+02  0.51100000000E-03 0. -1.
         11   -1    0    0    0    0 -0.00000000000E+00 -0.00000000000E+00 -0.45593999997E+02  0.45594000000E+02  0.51100000000E-03 0.  1.
    9900012    2    1    2    0    0 -0.28443624556E+02  0.11710851593E+02 -0.26589123512E+02  0.50528864347E+02  0.30000013669E+02 0.  0.
         12    1    1    2    0    0  0.28443624556E+02 -0.11710851593E+02  0.26589123512E+02  0.40659135653E+02  0.00000000000E+00 0. -1.
         11    1    3    3    0    0  0.28318721521E+01  0.28734234321E+01 -0.57090171342E+01  0.69906322322E+01  0.51100000000E-03 0. -1.
        -11    1    3    3    0    0 -0.24271196887E+02  0.14145760572E+02 -0.20434328520E+02  0.34738383998E+02  0.51100000000E-03 0.  1.
        -12    1    3    3    0    0 -0.70042998211E+01 -0.53083324115E+01 -0.44577785790E+00  0.87998481165E+01  0.00000000000E+00 0.  1.
</event>
<event>
 7    1  0.5006721E-012  0.5052888E+02  0.7816164E-02  0.1300439E+00
        -11   -1    0    0    0    0  0.00000000000E+00  0.00000000000E+00  0.45593999997E+02  0.45594000000E+02  0.51100000000E-03 0.  1.
         11   -1    0    0    0    0 -0.00000000000E+00 -0.00000000000E+00 -0.45593999997E+02  0.45594000000E+02  0.51100000000E-03 0. -1.
    9900012    2    1    2    0    0  0.34624717219E+02 -0.19658624586E+02  0.82359865803E+01  0.50528880013E+02  0.30000061289E+02 0.  0.
        -12    1    1    2    0    0 -0.34624717219E+02  0.19658624586E+02 -0.82359865803E+01  0.40659119987E+02  0.00000000000E+00 0.  1.
         11    1    3    3    0    0  0.30473877145E+01 -0.17260531174E+01 -0.32799528051E+01  0.47983249068E+01  0.51100000000E-03 0. -1.
        -11    1    3    3    0    0  0.35389490028E+02 -0.15848836968E+02  0.68887097728E+01  0.39383447796E+02  0.51100000000E-03 0.  1.
        -12    1    3    3    0    0 -0.38121605235E+01 -0.20837345004E+01  0.46272296127E+01  0.63471073107E+01  0.00000000000E+00 0.  1.
</event>
<event>
 7    1  0.5006721E-012  0.5052890E+02  0.7816164E-02  0.1300439E+00
        -11   -1    0    0    0    0  0.00000000000E+00  0.00000000000E+00  0.45593999997E+02  0.45594000000E+02  0.51100000000E-03 0. -1.
         11   -1    0    0    0    0 -0.00000000000E+00 -0.00000000000E+00 -0.45593999997E+02  0.45594000000E+02  0.51100000000E-03 0.  1.
    9900012    2    1    2    0    0  0.26504705507E+01 -0.18129673068E+02  0.36296726142E+02  0.50528900547E+02  0.30000123702E+02 0.  0.
        -12    1    1    2    0    0 -0.26504705507E+01  0.18129673068E+02 -0.36296726142E+02  0.40659099453E+02  0.00000000000E+00 0.  1.
         11    1    3    3    0    0 -0.57423848767E+01 -0.82522179010E+01  0.60720959128E+01  0.11744974815E+02  0.51100000000E-03 0. -1.
        -11    1    3    3    0    0  0.11926077562E+02 -0.14149611278E+02  0.25455047392E+02  0.31470657180E+02  0.51100000000E-03 0.  1.
        -12    1    3    3    0    0 -0.35332221341E+01  0.42721561107E+01  0.47695828373E+01  0.73132685528E+01  0.00000000000E+00 0.  1.
</event>
<event>
 7    1  0.5006721E-012  0.5052886E+02  0.7816164E-02  0.1300439E+00
        -11   -1    0    0    0    0  0.00000000000E+00  0.00000000000E+00  0.45593999997E+02  0.45594000000E+02  0.51100000000E-03 0. -1.
         11   -1    0    0    0    0 -0.00000000000E+00 -0.00000000000E+00 -0.45593999997E+02  0.45594000000E+02  0.51100000000E-03 0.  1.
    9900012    2    1    2    0    0 -0.11617188400E+02  0.34546253203E+01  0.38810726051E+02  0.50528856391E+02  0.29999989485E+02 0.  0.
        -12    1    1    2    0    0  0.11617188400E+02 -0.34546253203E+01 -0.38810726051E+02  0.40659143609E+02  0.00000000000E+00 0.  1.
         11    1    3    3    0    0 -0.88458522395E+01  0.67009538193E+01  0.27557748260E+02  0.29708271127E+02  0.51100000000E-03 0. -1.
        -11    1    3    3    0    0 -0.76329220060E+01 -0.72818162741E+01  0.42083643082E+01  0.11357670404E+02  0.51100000000E-03 0.  1.
        -12    1    3    3    0    0  0.48615858450E+01  0.40354877751E+01  0.70446134830E+01  0.94629148594E+01  0.00000000000E+00 0.  1.
</event>
<event>
 7    1  0.5006721E-012  0.5052886E+02  0.7816164E-02  0.1300439E+00
        -11   -1    0    0    0    0  0.00000000000E+00  0.00000000000E+00  0.45593999997E+02  0.45594000000E+02  0.51100000000E-03 0.  1.
         11   -1    0    0    0    0 -0.00000000000E+00 -0.00000000000E+00 -0.45593999997E+02  0.45594000000E+02  0.51100000000E-03 0. -1.
    9900012    2    1    2    0    0 -0.29118911505E+02 -0.23835903504E+02 -0.15398180784E+02  0.50528864808E+02  0.30000015071E+02 0.  0.
        -12    1    1    2    0    0  0.29118911505E+02  0.23835903504E+02  0.15398180784E+02  0.40659135192E+02  0.00000000000E+00 0.  1.
         11    1    3    3    0    0 -0.12534502818E+02 -0.10396296813E+02 -0.18882389809E+02  0.24934742699E+02  0.51100000000E-03 0. -1.
        -11    1    3    3    0    0 -0.18469005857E+01 -0.88281377039E+01  0.45754944263E+01  0.10113466597E+02  0.51100000000E-03 0.  1.
         12    1    3    3    0    0 -0.14737508102E+02 -0.46114689871E+01 -0.10912854011E+01  0.15480655512E+02  0.00000000000E+00 0. -1.
</event>
<event>
 7    1  0.5006721E-012  0.5052887E+02  0.7816164E-02  0.1300439E+00
        -11   -1    0    0    0    0  0.00000000000E+00  0.00000000000E+00  0.45593999997E+02  0.45594000000E+02  0.51100000000E-03 0. -1.
         11   -1    0    0    0    0 -0.00000000000E+00 -0.00000000000E+00 -0.45593999997E+02  0.45594000000E+02  0.51100000000E-03 0.  1.
    9900012    2    1    2    0    0 -0.30380528329E+02  0.22035661496E+02 -0.15640266479E+02  0.50528870463E+02  0.30000032261E+02 0.  0.
        -12    1    1    2    0    0  0.30380528329E+02 -0.22035661496E+02  0.15640266479E+02  0.40659129537E+02  0.00000000000E+00 0.  1.
         11    1    3    3    0    0 -0.17079057871E+02 -0.15883947380E+01 -0.45581158970E+01  0.17748060074E+02  0.51100000000E-03 0. -1.
        -11    1    3    3    0    0 -0.52120388238E+01  0.16822299950E+02 -0.13190919521E+02  0.22003533407E+02  0.51100000000E-03 0.  1.
        -12    1    3    3    0    0 -0.80894316350E+01  0.68017562845E+01  0.21087689393E+01  0.10777276983E+02  0.00000000000E+00 0.  1.
</event>
<event>
 7    1  0.5006721E-012  0.5052887E+02  0.7816164E-02  0.1300439E+00
        -11   -1    0    0    0    0  0.00000000000E+00  0.00000000000E+00  0.45593999997E+02  0.45594000000E+02  0.51100000000E-03 0. -1.
         11   -1    0    0    0    0 -0.00000000000E+00 -0.00000000000E+00 -0.45593999997E+02  0.45594000000E+02  0.51100000000E-03 0.  1.
    9900012    2    1    2    0    0  0.10695472799E+01 -0.19362036912E+02 -0.35736989721E+02  0.50528870163E+02  0.30000031348E+02 0.  0.
         12    1    1    2    0    0 -0.10695472799E+01  0.19362036912E+02  0.35736989721E+02  0.40659129837E+02  0.00000000000E+00 0. -1.
         11    1    3    3    0    0 -0.12601276842E+02 -0.10060492572E+02 -0.16567923685E+02  0.23119294633E+02  0.51100000000E-03 0. -1.
        -11    1    3    3    0    0  0.35163163391E+01 -0.86212355576E+01 -0.77567334766E+01  0.12118461025E+02  0.51100000000E-03 0.  1.
         12    1    3    3    0    0  0.10154507783E+02 -0.68030878308E+00 -0.11412332559E+02  0.15291114505E+02  0.00000000000E+00 0. -1.
</event>
<event>
 7    1  0.5006721E-012  0.5052886E+02  0.7816164E-02  0.1300439E+00
        -11   -1    0    0    0    0  0.00000000000E+00  0.00000000000E+00  0.45593999997E+02  0.45594000000E+02  0.51100000000E-03 0. -1.
         11   -1    0    0    0    0 -0.00000000000E+00 -0.00000000000E+00 -0.45593999997E+02  0.45594000000E+02  0.51100000000E-03 0.  1.
    9900012    2    1    2    0    0 -0.57324650032E+01 -0.28484941555E+02  0.28441387178E+02  0.50528861359E+02  0.30000004588E+02 0.  0.
        -12    1    1    2    0    0  0.57324650032E+01  0.28484941555E+02 -0.28441387178E+02  0.40659138641E+02  0.00000000000E+00 0.  1.
         11    1    3    3    0    0 -0.31038513217E+01 -0.26976910197E+02  0.14911066591E+02  0.30979468749E+02  0.51100000000E-03 0. -1.
        -11    1    3    3    0    0  0.51967393297E+01 -0.15673556353E+01  0.89914130718E+01  0.10502771665E+02  0.51100000000E-03 0.  1.
         12    1    3    3    0    0 -0.78253530112E+01  0.59324277079E-01  0.45389075145E+01  0.90466209463E+01  0.00000000000E+00 0. -1.
</event>
<event>
 7    1  0.5006721E-012  0.5052886E+02  0.7816164E-02  0.1300439E+00
        -11   -1    0    0    0    0  0.00000000000E+00  0.00000000000E+00  0.45593999997E+02  0.45594000000E+02  0.51100000000E-03 0. -1.
         11   -1    0    0    0    0 -0.00000000000E+00 -0.00000000000E+00 -0.45593999997E+02  0.45594000000E+02  0.51100000000E-03 0.  1.
    9900012    2    1    2    0    0 -0.18785995043E+02 -0.13379212421E+02  0.33485053840E+02  0.50528858772E+02  0.29999996722E+02 0.  0.
        -12    1    1    2    0    0  0.18785995043E+02  0.13379212421E+02 -0.33485053840E+02  0.40659141228E+02  0.00000000000E+00 0.  1.
         11    1    3    3    0    0 -0.44850810625E+01 -0.14208411575E+02  0.11974886469E+01  0.14947537956E+02  0.51100000000E-03 0. -1.
        -11    1    3    3    0    0 -0.10693533171E+02  0.24720905282E+01  0.24336478894E+02  0.26696949048E+02  0.51100000000E-03 0.  1.
         12    1    3    3    0    0 -0.36073808092E+01 -0.16428913749E+01  0.79510862991E+01  0.88843717677E+01  0.00000000000E+00 0. -1.
</event>
<event>
 7    1  0.5006721E-012  0.5052886E+02  0.7816164E-02  0.1300439E+00
        -11   -1    0    0    0    0  0.00000000000E+00  0.00000000000E+00  0.45593999997E+02  0.45594000000E+02  0.51100000000E-03 0. -1.
         11   -1    0    0    0    0 -0.00000000000E+00 -0.00000000000E+00 -0.45593999997E+02  0.45594000000E+02  0.51100000000E-03 0.  1.
    9900012    2    1    2    0    0 -0.96876812037E+01  0.21878151858E+02  0.32873405887E+02  0.50528861907E+02  0.30000006253E+02 0.  0.
        -12    1    1    2    0    0  0.96876812037E+01 -0.21878151858E+02 -0.32873405887E+02  0.40659138093E+02  0.00000000000E+00 0.  1.
         11    1    3    3    0    0  0.31715478054E+01  0.98264717498E+01  0.15711446736E+02  0.18800739914E+02  0.51100000000E-03 0. -1.
        -11    1    3    3    0    0 -0.16798107317E+02  0.45299691195E+01  0.14987427143E+02  0.22963449268E+02  0.51100000000E-03 0.  1.
        -12    1    3    3    0    0  0.39388783074E+01  0.75217109891E+01  0.21745320084E+01  0.87646727252E+01  0.00000000000E+00 0.  1.
</event>
<event>
 7    1  0.5006721E-012  0.5052886E+02  0.7816164E-02  0.1300439E+00
        -11   -1    0    0    0    0  0.00000000000E+00  0.00000000000E+00  0.45593999997E+02  0.45594000000E+02  0.51100000000E-03 0. -1.
         11   -1    0    0    0    0 -0.00000000000E+00 -0.00000000000E+00 -0.45593999997E+02  0.45594000000E+02  0.51100000000E-03 0.  1.
    9900012    2    1    2    0    0 -0.15288930763E+02 -0.95087978767E+01 -0.36455411125E+02  0.50528860299E+02  0.30000001365E+02 0.  0.
         12    1    1    2    0    0  0.15288930763E+02  0.95087978767E+01  0.36455411125E+02  0.40659139701E+02  0.00000000000E+00 0. -1.
         11    1    3    3    0    0 -0.10707895366E+02 -0.10436402874E+02 -0.31582560337E+01  0.15282411772E+02  0.51100000000E-03 0. -1.
        -11    1    3    3    0    0 -0.50594626604E+01  0.48940371305E+01 -0.15769677747E+02  0.17269409323E+02  0.51100000000E-03 0.  1.
         12    1    3    3    0    0  0.47842726365E+00 -0.39664321328E+01 -0.17527477344E+02  0.17977039204E+02  0.00000000000E+00 0. -1.
</event>
<event>
 7    1  0.5006721E-012  0.5052886E+02  0.7816164E-02  0.1300439E+00
        -11   -1    0    0    0    0  0.00000000000E+00  0.00000000000E+00  0.45593999997E+02  0.45594000000E+02  0.51100000000E-03 0. -1.
         11   -1    0    0    0    0 -0.00000000000E+00 -0.00000000000E+00 -0.45593999997E+02  0.45594000000E+02  0.51100000000E-03 0.  1.
    9900012    2    1    2    0    0  0.86806993507E+01  0.31181869529E+02  0.24606953172E+02  0.50528859909E+02  0.30000000179E+02 0.  0.
        -12    1    1    2    0    0 -0.86806993507E+01 -0.31181869529E+02 -0.24606953172E+02  0.40659140091E+02  0.00000000000E+00 0.  1.
         11    1    3    3    0    0 -0.52862631920E+01  0.21092842549E+02  0.16193952114E+02  0.27112666240E+02  0.51100000000E-03 0. -1.
        -11    1    3    3    0    0  0.92646756596E+01 -0.23419729832E+00 -0.42675300699E-01  0.92677335360E+01  0.51100000000E-03 0.  1.
        -12    1    3    3    0    0  0.47022868831E+01  0.10323224279E+02  0.84556763589E+01  0.14148460133E+02  0.00000000000E+00 0.  1.
</event>
<event>
 7    1  0.5006721E-012  0.5052885E+02  0.7816164E-02  0.1300439E+00
        -11   -1    0    0    0    0  0.00000000000E+00  0.00000000000E+00  0.45593999997E+02  0.45594000000E+02  0.51100000000E-03 0. -1.
         11   -1    0    0    0    0 -0.00000000000E+00 -0.00000000000E+00 -0.45593999997E+02  0.45594000000E+02  0.51100000000E-03 0.  1.
    9900012    2    1    2    0    0 -0.31226727403E+02  0.28422898049E+01 -0.25883958374E+02  0.50528850762E+02  0.29999972377E+02 0.  0.
         12    1    1    2    0    0  0.31226727403E+02 -0.28422898049E+01  0.25883958374E+02  0.40659149238E+02  0.00000000000E+00 0. -1.
         11    1    3    3    0    0  0.26351197126E+01 -0.48205084871E+01 -0.71748445875E+01  0.90365675503E+01  0.51100000000E-03 0. -1.
        -11    1    3    3    0    0 -0.25017582930E+02 -0.11568987969E+00 -0.14873802643E+02  0.29105374850E+02  0.51100000000E-03 0.  1.
        -12    1    3    3    0    0 -0.88442641854E+01  0.77784881717E+01 -0.38353111432E+01  0.12386908363E+02  0.00000000000E+00 0.  1.
</event>
<event>
 7    1  0.5006721E-012  0.5052891E+02  0.7816164E-02  0.1300439E+00
        -11   -1    0    0    0    0  0.00000000000E+00  0.00000000000E+00  0.45593999997E+02  0.45594000000E+02  0.51100000000E-03 0. -1.
         11   -1    0    0    0    0 -0.00000000000E+00 -0.00000000000E+00 -0.45593999997E+02  0.45594000000E+02  0.51100000000E-03 0.  1.
    9900012    2    1    2    0    0  0.26585341030E+01  0.40661690073E+01  0.40367810735E+02  0.50528909042E+02  0.30000149524E+02 0.  0.
        -12    1    1    2    0    0 -0.26585341030E+01 -0.40661690073E+01 -0.40367810735E+02  0.40659090958E+02  0.00000000000E+00 0.  1.
         11    1    3    3    0    0  0.14787593514E+02  0.68013290505E+01  0.26221704098E+02  0.30862740721E+02  0.51100000000E-03 0. -1.
        -11    1    3    3    0    0 -0.92659436675E+01 -0.84824658066E+00  0.66921475158E+01  0.11461329458E+02  0.51100000000E-03 0.  1.
        -12    1    3    3    0    0 -0.28631157435E+01 -0.18869134625E+01  0.74539591216E+01  0.82048388627E+01  0.00000000000E+00 0.  1.
</event>
<event>
 7    1  0.5006721E-012  0.5052885E+02  0.7816164E-02  0.1300439E+00
        -11   -1    0    0    0    0  0.00000000000E+00  0.00000000000E+00  0.45593999997E+02  0.45594000000E+02  0.51100000000E-03 0. -1.
         11   -1    0    0    0    0 -0.00000000000E+00 -0.00000000000E+00 -0.45593999997E+02  0.45594000000E+02  0.51100000000E-03 0.  1.
    9900012    2    1    2    0    0 -0.57430599507E+01 -0.16488332060E+02  0.36719456840E+02  0.50528851677E+02  0.29999975157E+02 0.  0.
        -12    1    1    2    0    0  0.57430599507E+01  0.16488332060E+02 -0.36719456840E+02  0.40659148323E+02  0.00000000000E+00 0.  1.
         11    1    3    3    0    0  0.10657274587E+01  0.32252199224E+01  0.16492434746E+02  0.16838593251E+02  0.51100000000E-03 0. -1.
        -11    1    3    3    0    0  0.16133498538E+01 -0.12247722313E+02  0.23646370653E+01  0.12577802206E+02  0.51100000000E-03 0.  1.
        -12    1    3    3    0    0 -0.84221372632E+01 -0.74658296692E+01  0.17862385029E+02  0.21112456220E+02  0.00000000000E+00 0.  1.
</event>
<event>
 7    1  0.5006721E-012  0.5052886E+02  0.7816164E-02  0.1300439E+00
        -11   -1    0    0    0    0  0.00000000000E+00  0.00000000000E+00  0.45593999997E+02  0.45594000000E+02  0.51100000000E-03 0. -1.
         11   -1    0    0    0    0 -0.00000000000E+00 -0.00000000000E+00 -0.45593999997E+02  0.45594000000E+02  0.51100000000E-03 0.  1.
    9900012    2    1    2    0    0 -0.36991742751E+02  0.16386080373E+02 -0.40339809722E+01  0.50528860016E+02  0.30000000504E+02 0.  0.
         12    1    1    2    0    0  0.36991742751E+02 -0.16386080373E+02  0.40339809722E+01  0.40659139984E+02  0.00000000000E+00 0. -1.
         11    1    3    3    0    0 -0.37859709644E+02  0.12156827662E+02 -0.40527845844E+01  0.39969627673E+02  0.51100000000E-03 0.  1.
        -11    1    3    3    0    0 -0.49978404140E+00  0.70437267778E+01  0.12960447785E+01  0.71793873930E+01  0.51100000000E-03 0. -1.
         12    1    3    3    0    0  0.13677509348E+01 -0.28144740664E+01 -0.12772411664E+01  0.33798449501E+01  0.00000000000E+00 0. -1.
</event>
<event>
 7    1  0.5006721E-012  0.5052885E+02  0.7816164E-02  0.1300439E+00
        -11   -1    0    0    0    0  0.00000000000E+00  0.00000000000E+00  0.45593999997E+02  0.45594000000E+02  0.51100000000E-03 0. -1.
         11   -1    0    0    0    0 -0.00000000000E+00 -0.00000000000E+00 -0.45593999997E+02  0.45594000000E+02  0.51100000000E-03 0.  1.
    9900012    2    1    2    0    0  0.21238169117E+02  0.97005240462E+01 -0.33286725369E+02  0.50528854904E+02  0.29999984965E+02 0.  0.
         12    1    1    2    0    0 -0.21238169117E+02 -0.97005240462E+01  0.33286725369E+02  0.40659145096E+02  0.00000000000E+00 0. -1.
         11    1    3    3    0    0  0.82271198895E+01 -0.10709781486E+01 -0.16048486353E+02  0.18066167562E+02  0.51100000000E-03 0.  1.
        -11    1    3    3    0    0  0.13885214264E+02  0.27471309987E+01 -0.83260422446E+00  0.14178826959E+02  0.51100000000E-03 0. -1.
        -12    1    3    3    0    0 -0.87416503664E+00  0.80243711962E+01 -0.16405634791E+02  0.18283860383E+02  0.00000000000E+00 0.  1.
</event>
<event>
 7    1  0.5006721E-012  0.5052887E+02  0.7816164E-02  0.1300439E+00
        -11   -1    0    0    0    0  0.00000000000E+00  0.00000000000E+00  0.45593999997E+02  0.45594000000E+02  0.51100000000E-03 0. -1.
         11   -1    0    0    0    0 -0.00000000000E+00 -0.00000000000E+00 -0.45593999997E+02  0.45594000000E+02  0.51100000000E-03 0.  1.
    9900012    2    1    2    0    0 -0.16514970748E+02 -0.34242775241E+02  0.14417101653E+02  0.50528871442E+02  0.30000035236E+02 0.  0.
        -12    1    1    2    0    0  0.16514970748E+02  0.34242775241E+02 -0.14417101653E+02  0.40659128558E+02  0.00000000000E+00 0.  1.
         11    1    3    3    0    0 -0.11941395167E+01 -0.26874126529E+02  0.53219178431E+01  0.27422025010E+02  0.51100000000E-03 0. -1.
        -11    1    3    3    0    0 -0.32498262733E+01  0.24133213158E+01 -0.14826924161E+01  0.43109010244E+01  0.51100000000E-03 0.  1.
         12    1    3    3    0    0 -0.12071004958E+02 -0.97819700274E+01  0.10577876226E+02  0.18795945408E+02  0.00000000000E+00 0. -1.
</event>
<event>
 7    1  0.5006721E-012  0.5052886E+02  0.7816164E-02  0.1300439E+00
        -11   -1    0    0    0    0  0.00000000000E+00  0.00000000000E+00  0.45593999997E+02  0.45594000000E+02  0.51100000000E-03 0. -1.
         11   -1    0    0    0    0 -0.00000000000E+00 -0.00000000000E+00 -0.45593999997E+02  0.45594000000E+02  0.51100000000E-03 0.  1.
    9900012    2    1    2    0    0  0.37154893873E+01  0.25393111366E+02 -0.31536498035E+02  0.50528859889E+02  0.30000000119E+02 0.  0.
         12    1    1    2    0    0 -0.37154893873E+01 -0.25393111366E+02  0.31536498035E+02  0.40659140111E+02  0.00000000000E+00 0. -1.
         11    1    3    3    0    0  0.12681658893E+02  0.13732577646E+02 -0.51244895454E+01  0.19382171045E+02  0.51100000000E-03 0. -1.
        -11    1    3    3    0    0 -0.28554281871E+01 -0.27982859636E+00 -0.29107789101E+01  0.40871026779E+01  0.51100000000E-03 0.  1.
         12    1    3    3    0    0 -0.61107413186E+01  0.11940362317E+02 -0.23501229580E+02  0.27059586166E+02  0.00000000000E+00 0. -1.
</event>
<event>
 7    1  0.5006721E-012  0.5052885E+02  0.7816164E-02  0.1300439E+00
        -11   -1    0    0    0    0  0.00000000000E+00  0.00000000000E+00  0.45593999997E+02  0.45594000000E+02  0.51100000000E-03 0. -1.
         11   -1    0    0    0    0 -0.00000000000E+00 -0.00000000000E+00 -0.45593999997E+02  0.45594000000E+02  0.51100000000E-03 0.  1.
    9900012    2    1    2    0    0 -0.25979545741E+02  0.23037841842E+02  0.21153901208E+02  0.50528849862E+02  0.29999969640E+02 0.  0.
        -12    1    1    2    0    0  0.25979545741E+02 -0.23037841842E+02 -0.21153901208E+02  0.40659150138E+02  0.00000000000E+00 0.  1.
         11    1    3    3    0    0 -0.35536889972E+00  0.41963392527E+01 -0.65556799808E+01  0.77918220238E+01  0.51100000000E-03 0.  1.
        -11    1    3    3    0    0 -0.79522931132E+01  0.91761672257E+01  0.13046311690E+02  0.17822661409E+02  0.51100000000E-03 0. -1.
         12    1    3    3    0    0 -0.17671883728E+02  0.96653353633E+01  0.14663269499E+02  0.24914366430E+02  0.00000000000E+00 0. -1.
</event>
<event>
 7    1  0.5190672E-012  0.5052884E+02  0.7816164E-02  0.1300439E+00
        -11   -1    0    0    0    0  0.00000000000E+00  0.00000000000E+00  0.45593999997E+02  0.45594000000E+02  0.51100000000E-03 0. -1.
         11   -1    0    0    0    0 -0.00000000000E+00 -0.00000000000E+00 -0.45593999997E+02  0.45594000000E+02  0.51100000000E-03 0.  1.
    9900012    2    1    2    0    0 -0.25303496734E+02  0.19987649196E+02  0.24766791817E+02  0.50528843045E+02  0.29999948921E+02 0.  0.
        -12    1    1    2    0    0  0.25303496734E+02 -0.19987649196E+02 -0.24766791817E+02  0.40659156955E+02  0.00000000000E+00 0.  1.
         11    1    3    3    0    0 -0.19946919530E+02  0.93233152035E+01  0.23882881610E+01  0.22147409007E+02  0.51100000000E-03 0. -1.
        -11    1    3    3    0    0  0.13316850819E+01  0.94436126038E+01  0.78923393192E+01  0.12379185125E+02  0.51100000000E-03 0.  1.
         12    1    3    3    0    0 -0.66882622862E+01  0.12207213892E+01  0.14486164336E+02  0.16002248914E+02  0.00000000000E+00 0. -1.
</event>
<event>
 7    1  0.5006721E-012  0.5052886E+02  0.7816164E-02  0.1300439E+00
        -11   -1    0    0    0    0  0.00000000000E+00  0.00000000000E+00  0.45593999997E+02  0.45594000000E+02  0.51100000000E-03 0. -1.
         11   -1    0    0    0    0 -0.00000000000E+00 -0.00000000000E+00 -0.45593999997E+02  0.45594000000E+02  0.51100000000E-03 0.  1.
    9900012    2    1    2    0    0 -0.58732437281E+00 -0.24893051149E+02  0.32142750038E+02  0.50528864182E+02  0.30000013169E+02 0.  0.
        -12    1    1    2    0    0  0.58732437281E+00  0.24893051149E+02 -0.32142750038E+02  0.40659135818E+02  0.00000000000E+00 0.  1.
         11    1    3    3    0    0 -0.16548142265E+01 -0.68265248861E+01  0.14801994282E+02  0.16384104710E+02  0.51100000000E-03 0. -1.
        -11    1    3    3    0    0  0.12037022314E+02 -0.83377333783E+01  0.10131593583E+02  0.17806091454E+02  0.51100000000E-03 0.  1.
        -12    1    3    3    0    0 -0.10969532460E+02 -0.97287928851E+01  0.72091621724E+01  0.16338668019E+02  0.00000000000E+00 0.  1.
</event>
<event>
 7    1  0.5006721E-012  0.5052886E+02  0.7816164E-02  0.1300439E+00
        -11   -1    0    0    0    0  0.00000000000E+00  0.00000000000E+00  0.45593999997E+02  0.45594000000E+02  0.51100000000E-03 0. -1.
         11   -1    0    0    0    0 -0.00000000000E+00 -0.00000000000E+00 -0.45593999997E+02  0.45594000000E+02  0.51100000000E-03 0.  1.
    9900012    2    1    2    0    0  0.22549765985E+02 -0.22024017113E+02 -0.25682990187E+02  0.50528864978E+02  0.30000015587E+02 0.  0.
         12    1    1    2    0    0 -0.22549765985E+02  0.22024017113E+02  0.25682990187E+02  0.40659135022E+02  0.00000000000E+00 0. -1.
         11    1    3    3    0    0  0.94271953835E+01 -0.81764792094E+01  0.36189186933E+01  0.12993205833E+02  0.51100000000E-03 0. -1.
        -11    1    3    3    0    0  0.47254728324E+01 -0.14286997941E+02 -0.18551280651E+02  0.23887201964E+02  0.51100000000E-03 0.  1.
        -12    1    3    3    0    0  0.83970977685E+01  0.43946003694E+00 -0.10750628230E+02  0.13648457180E+02  0.00000000000E+00 0.  1.
</event>
<event>
 7    1  0.5006721E-012  0.5052886E+02  0.7816164E-02  0.1300439E+00
        -11   -1    0    0    0    0  0.00000000000E+00  0.00000000000E+00  0.45593999997E+02  0.45594000000E+02  0.51100000000E-03 0. -1.
         11   -1    0    0    0    0 -0.00000000000E+00 -0.00000000000E+00 -0.45593999997E+02  0.45594000000E+02  0.51100000000E-03 0.  1.
    9900012    2    1    2    0    0  0.22334590890E+02 -0.10535159764E+02  0.32300811037E+02  0.50528856685E+02  0.29999990380E+02 0.  0.
        -12    1    1    2    0    0 -0.22334590890E+02  0.10535159764E+02 -0.32300811037E+02  0.40659143315E+02  0.00000000000E+00 0.  1.
         11    1    3    3    0    0  0.23022795044E+02  0.23579562314E+01  0.15887940363E+02  0.28071973541E+02  0.51100000000E-03 0. -1.
        -11    1    3    3    0    0 -0.42562557163E+01 -0.70512823902E+01  0.69445482857E+01  0.10773256111E+02  0.51100000000E-03 0.  1.
         12    1    3    3    0    0  0.35680515618E+01 -0.58418336052E+01  0.94683223882E+01  0.11683627034E+02  0.00000000000E+00 0. -1.
</event>
<event>
 7    1  0.5006721E-012  0.5052886E+02  0.7816164E-02  0.1300439E+00
        -11   -1    0    0    0    0  0.00000000000E+00  0.00000000000E+00  0.45593999997E+02  0.45594000000E+02  0.51100000000E-03 0. -1.
         11   -1    0    0    0    0 -0.00000000000E+00 -0.00000000000E+00 -0.45593999997E+02  0.45594000000E+02  0.51100000000E-03 0.  1.
    9900012    2    1    2    0    0 -0.13805782795E+02  0.38431425196E+01  0.38049917943E+02  0.50528860333E+02  0.30000001469E+02 0.  0.
        -12    1    1    2    0    0  0.13805782795E+02 -0.38431425196E+01 -0.38049917943E+02  0.40659139667E+02  0.00000000000E+00 0.  1.
         11    1    3    3    0    0 -0.21673393938E+02 -0.23069364941E+00  0.34659030905E+02  0.40878327361E+02  0.51100000000E-03 0. -1.
        -11    1    3    3    0    0  0.75799577123E+01  0.34303270445E+01  0.32466676768E+01  0.89310555824E+01  0.51100000000E-03 0.  1.
         12    1    3    3    0    0  0.28765343086E+00  0.64350912452E+00  0.14421936108E+00  0.71947738931E+00  0.00000000000E+00 0. -1.
</event>
<event>
 7    1  0.5006721E-012  0.5052881E+02  0.7816164E-02  0.1300439E+00
        -11   -1    0    0    0    0  0.00000000000E+00  0.00000000000E+00  0.45593999997E+02  0.45594000000E+02  0.51100000000E-03 0. -1.
         11   -1    0    0    0    0 -0.00000000000E+00 -0.00000000000E+00 -0.45593999997E+02  0.45594000000E+02  0.51100000000E-03 0.  1.
    9900012    2    1    2    0    0 -0.19943018156E+02  0.11497525455E+02  0.33514965852E+02  0.50528806688E+02  0.29999838407E+02 0.  0.
        -12    1    1    2    0    0  0.19943018156E+02 -0.11497525455E+02 -0.33514965852E+02  0.40659193312E+02  0.00000000000E+00 0.  1.
         11    1    3    3    0    0 -0.23154172757E+02  0.39768774934E+01  0.16904927292E+02  0.28943182922E+02  0.51100000000E-03 0. -1.
        -11    1    3    3    0    0  0.10695336044E+01  0.28016998646E+01  0.16101677723E+02  0.16378566788E+02  0.51100000000E-03 0.  1.
         12    1    3    3    0    0  0.21416209958E+01  0.47189480970E+01  0.50836083667E+00  0.52070569780E+01  0.00000000000E+00 0. -1.
</event>
<event>
 7    1  0.5006721E-012  0.5052889E+02  0.7816164E-02  0.1300439E+00
        -11   -1    0    0    0    0  0.00000000000E+00  0.00000000000E+00  0.45593999997E+02  0.45594000000E+02  0.51100000000E-03 0. -1.
         11   -1    0    0    0    0 -0.00000000000E+00 -0.00000000000E+00 -0.45593999997E+02  0.45594000000E+02  0.51100000000E-03 0.  1.
    9900012    2    1    2    0    0 -0.17214272428E+02  0.24997408876E+02  0.27054791658E+02  0.50528888139E+02  0.30000085986E+02 0.  0.
        -12    1    1    2    0    0  0.17214272428E+02 -0.24997408876E+02 -0.27054791658E+02  0.40659111861E+02  0.00000000000E+00 0.  1.
         11    1    3    3    0    0  0.65718339824E+01  0.89694298906E+01  0.69750646062E+01  0.13125974287E+02  0.51100000000E-03 0. -1.
        -11    1    3    3    0    0 -0.17713460418E+02  0.15974893609E+02  0.10502857548E+02  0.26062884006E+02  0.51100000000E-03 0.  1.
         12    1    3    3    0    0 -0.60726459926E+01  0.53085376330E-01  0.95768695039E+01  0.11340029846E+02  0.00000000000E+00 0. -1.
</event>
<event>
 7    1  0.5006721E-012  0.5052884E+02  0.7816164E-02  0.1300439E+00
        -11   -1    0    0    0    0  0.00000000000E+00  0.00000000000E+00  0.45593999997E+02  0.45594000000E+02  0.51100000000E-03 0. -1.
         11   -1    0    0    0    0 -0.00000000000E+00 -0.00000000000E+00 -0.45593999997E+02  0.45594000000E+02  0.51100000000E-03 0.  1.
    9900012    2    1    2    0    0 -0.19017075265E+02  0.16289123955E+02  0.32034090328E+02  0.50528835547E+02  0.29999926129E+02 0.  0.
        -12    1    1    2    0    0  0.19017075265E+02 -0.16289123955E+02 -0.32034090328E+02  0.40659164453E+02  0.00000000000E+00 0.  1.
         11    1    3    3    0    0 -0.10117988887E+02 -0.26998832492E+01  0.15583339601E+02  0.18775077685E+02  0.51100000000E-03 0. -1.
        -11    1    3    3    0    0 -0.13857305330E+02  0.15533713259E+02  0.10673944772E+02  0.23393466094E+02  0.51100000000E-03 0.  1.
         12    1    3    3    0    0  0.49582189521E+01  0.34552939454E+01  0.57768059544E+01  0.83602917689E+01  0.00000000000E+00 0. -1.
</event>
<event>
 7    1  0.5006721E-012  0.5052889E+02  0.7816164E-02  0.1300439E+00
        -11   -1    0    0    0    0  0.00000000000E+00  0.00000000000E+00  0.45593999997E+02  0.45594000000E+02  0.51100000000E-03 0. -1.
         11   -1    0    0    0    0 -0.00000000000E+00 -0.00000000000E+00 -0.45593999997E+02  0.45594000000E+02  0.51100000000E-03 0.  1.
    9900012    2    1    2    0    0  0.23152043029E+01  0.24177124299E+02 -0.32607821929E+02  0.50528885876E+02  0.30000079110E+02 0.  0.
         12    1    1    2    0    0 -0.23152043029E+01 -0.24177124299E+02  0.32607821929E+02  0.40659114124E+02  0.00000000000E+00 0. -1.
         11    1    3    3    0    0  0.36779588809E+01  0.39296394630E+01 -0.22900501387E+01  0.58492544600E+01  0.51100000000E-03 0. -1.
        -11    1    3    3    0    0  0.39233219124E+01  0.84750179844E+01  0.22860440803E+01  0.96148001779E+01  0.51100000000E-03 0.  1.
        -12    1    3    3    0    0 -0.52860764904E+01  0.11772466852E+02 -0.32603815871E+02  0.35064831238E+02  0.00000000000E+00 0.  1.
</event>
<event>
 7    1  0.5006721E-012  0.5052886E+02  0.7816164E-02  0.1300439E+00
        -11   -1    0    0    0    0  0.00000000000E+00  0.00000000000E+00  0.45593999997E+02  0.45594000000E+02  0.51100000000E-03 0. -1.
         11   -1    0    0    0    0 -0.00000000000E+00 -0.00000000000E+00 -0.45593999997E+02  0.45594000000E+02  0.51100000000E-03 0.  1.
    9900012    2    1    2    0    0 -0.15242254989E+02  0.12662626153E+01  0.37672750383E+02  0.50528857368E+02  0.29999992456E+02 0.  0.
        -12    1    1    2    0    0  0.15242254989E+02 -0.12662626153E+01 -0.37672750383E+02  0.40659142632E+02  0.00000000000E+00 0.  1.
         11    1    3    3    0    0 -0.67167860648E+01  0.38665325763E+01 -0.26480432728E+01  0.81900807468E+01  0.51100000000E-03 0. -1.
        -11    1    3    3    0    0 -0.41613601274E+01 -0.55985710107E+01  0.16104337798E+02  0.17550231100E+02  0.51100000000E-03 0.  1.
         12    1    3    3    0    0 -0.43641087963E+01  0.29983010497E+01  0.24216455858E+02  0.24788545522E+02  0.00000000000E+00 0. -1.
</event>
<event>
 7    1  0.5006721E-012  0.5052886E+02  0.7816164E-02  0.1300439E+00
        -11   -1    0    0    0    0  0.00000000000E+00  0.00000000000E+00  0.45593999997E+02  0.45594000000E+02  0.51100000000E-03 0. -1.
         11   -1    0    0    0    0 -0.00000000000E+00 -0.00000000000E+00 -0.45593999997E+02  0.45594000000E+02  0.51100000000E-03 0.  1.
    9900012    2    1    2    0    0 -0.17790537237E+02  0.10285887690E+02  0.35083655014E+02  0.50528861422E+02  0.30000004777E+02 0.  0.
        -12    1    1    2    0    0  0.17790537237E+02 -0.10285887690E+02 -0.35083655014E+02  0.40659138578E+02  0.00000000000E+00 0.  1.
         11    1    3    3    0    0 -0.77521693000E+01  0.36870255480E+01  0.26536115585E+02  0.27890064841E+02  0.51100000000E-03 0. -1.
        -11    1    3    3    0    0 -0.11508419527E+02 -0.78421636719E+00  0.39454960091E+00  0.11541853619E+02  0.51100000000E-03 0.  1.
        -12    1    3    3    0    0  0.14700515893E+01  0.73830785091E+01  0.81529898282E+01  0.11096942961E+02  0.00000000000E+00 0.  1.
</event>
<event>
 7    1  0.5006721E-012  0.5052886E+02  0.7816164E-02  0.1300439E+00
        -11   -1    0    0    0    0  0.00000000000E+00  0.00000000000E+00  0.45593999997E+02  0.45594000000E+02  0.51100000000E-03 0. -1.
         11   -1    0    0    0    0 -0.00000000000E+00 -0.00000000000E+00 -0.45593999997E+02  0.45594000000E+02  0.51100000000E-03 0.  1.
    9900012    2    1    2    0    0 -0.25223785446E+02 -0.28154674010E+02 -0.14974675815E+02  0.50528856667E+02  0.29999990324E+02 0.  0.
         12    1    1    2    0    0  0.25223785446E+02  0.28154674010E+02  0.14974675815E+02  0.40659143333E+02  0.00000000000E+00 0. -1.
         11    1    3    3    0    0  0.38272442131E+01 -0.10891975969E+02  0.31178902546E+01  0.11958435461E+02  0.51100000000E-03 0. -1.
        -11    1    3    3    0    0 -0.13133531717E+02 -0.54562843263E+01 -0.82713038611E+01  0.16452208418E+02  0.51100000000E-03 0.  1.
         12    1    3    3    0    0 -0.15917497942E+02 -0.11806413715E+02 -0.98212622084E+01  0.22118212787E+02  0.00000000000E+00 0. -1.
</event>
<event>
 7    1  0.5006721E-012  0.5052886E+02  0.7816164E-02  0.1300439E+00
        -11   -1    0    0    0    0  0.00000000000E+00  0.00000000000E+00  0.45593999997E+02  0.45594000000E+02  0.51100000000E-03 0. -1.
         11   -1    0    0    0    0 -0.00000000000E+00 -0.00000000000E+00 -0.45593999997E+02  0.45594000000E+02  0.51100000000E-03 0.  1.
    9900012    2    1    2    0    0 -0.24166346813E+02 -0.10346179238E+02  0.31017890863E+02  0.50528864536E+02  0.30000014242E+02 0.  0.
        -12    1    1    2    0    0  0.24166346813E+02  0.10346179238E+02 -0.31017890863E+02  0.40659135464E+02  0.00000000000E+00 0.  1.
         11    1    3    3    0    0 -0.20047334889E+02 -0.96935847521E+00  0.60599079089E+01  0.20965633216E+02  0.51100000000E-03 0. -1.
        -11    1    3    3    0    0 -0.42031848592E+01 -0.12221998996E+02  0.21484374908E+02  0.25072343087E+02  0.51100000000E-03 0.  1.
         12    1    3    3    0    0  0.84172935224E-01  0.28451782331E+01  0.34736080467E+01  0.44908882332E+01  0.00000000000E+00 0. -1.
</event>
<event>
 7    1  0.5006721E-012  0.5052887E+02  0.7816164E-02  0.1300439E+00
        -11   -1    0    0    0    0  0.00000000000E+00  0.00000000000E+00  0.45593999997E+02  0.45594000000E+02  0.51100000000E-03 0. -1.
         11   -1    0    0    0    0 -0.00000000000E+00 -0.00000000000E+00 -0.45593999997E+02  0.45594000000E+02  0.51100000000E-03 0.  1.
    9900012    2    1    2    0    0 -0.38590587548E+02 -0.11835354610E+02  0.48842288180E+01  0.50528871170E+02  0.30000034409E+02 0.  0.
         12    1    1    2    0    0  0.38590587548E+02  0.11835354610E+02 -0.48842288180E+01  0.40659128830E+02  0.00000000000E+00 0. -1.
         11    1    3    3    0    0 -0.27307222915E+02 -0.64293894310E+01 -0.84427123789E+01  0.29296772251E+02  0.51100000000E-03 0. -1.
        -11    1    3    3    0    0 -0.57588123333E+01 -0.75946763506E+01  0.11661126989E+02  0.15060707529E+02  0.51100000000E-03 0.  1.
        -12    1    3    3    0    0 -0.55245523003E+01  0.21887111715E+01  0.16658142077E+01  0.61713913897E+01  0.00000000000E+00 0.  1.
</event>
<event>
 7    1  0.5006721E-012  0.5052887E+02  0.7816164E-02  0.1300439E+00
        -11   -1    0    0    0    0  0.00000000000E+00  0.00000000000E+00  0.45593999997E+02  0.45594000000E+02  0.51100000000E-03 0. -1.
         11   -1    0    0    0    0 -0.00000000000E+00 -0.00000000000E+00 -0.45593999997E+02  0.45594000000E+02  0.51100000000E-03 0.  1.
    9900012    2    1    2    0    0  0.39317336689E+02  0.97401759899E+01  0.35272034726E+01  0.50528866254E+02  0.30000019464E+02 0.  0.
         12    1    1    2    0    0 -0.39317336689E+02 -0.97401759899E+01 -0.35272034726E+01  0.40659133746E+02  0.00000000000E+00 0. -1.
         11    1    3    3    0    0  0.21735250576E+02 -0.61447914223E+01  0.40147668749E+01  0.22941184201E+02  0.51100000000E-03 0. -1.
        -11    1    3    3    0    0  0.72783407181E+01  0.70940086337E+01 -0.72154591521E+01  0.12464431521E+02  0.51100000000E-03 0.  1.
         12    1    3    3    0    0  0.10303745395E+02  0.87909587784E+01  0.67278957499E+01  0.15123250531E+02  0.00000000000E+00 0. -1.
</event>
<event>
 7    1  0.5006721E-012  0.5052886E+02  0.7816164E-02  0.1300439E+00
        -11   -1    0    0    0    0  0.00000000000E+00  0.00000000000E+00  0.45593999997E+02  0.45594000000E+02  0.51100000000E-03 0. -1.
         11   -1    0    0    0    0 -0.00000000000E+00 -0.00000000000E+00 -0.45593999997E+02  0.45594000000E+02  0.51100000000E-03 0.  1.
    9900012    2    1    2    0    0  0.28743026513E+02  0.53315934411E+00  0.28752732897E+02  0.50528862268E+02  0.30000007351E+02 0.  0.
        -12    1    1    2    0    0 -0.28743026513E+02 -0.53315934411E+00 -0.28752732897E+02  0.40659137732E+02  0.00000000000E+00 0.  1.
         11    1    3    3    0    0  0.61527491430E+01 -0.77876265342E+01  0.13558068520E+02  0.16802519790E+02  0.51100000000E-03 0. -1.
        -11    1    3    3    0    0  0.19435118072E+02  0.10812167933E+02  0.18174862427E+02  0.28721984862E+02  0.51100000000E-03 0.  1.
        -12    1    3    3    0    0  0.31551592982E+01 -0.24913820545E+01 -0.29801980499E+01  0.50043576166E+01  0.00000000000E+00 0.  1.
</event>
<event>
 7    1  0.5006721E-012  0.5052888E+02  0.7816164E-02  0.1300439E+00
        -11   -1    0    0    0    0  0.00000000000E+00  0.00000000000E+00  0.45593999997E+02  0.45594000000E+02  0.51100000000E-03 0. -1.
         11   -1    0    0    0    0 -0.00000000000E+00 -0.00000000000E+00 -0.45593999997E+02  0.45594000000E+02  0.51100000000E-03 0.  1.
    9900012    2    1    2    0    0  0.29958509654E+02 -0.13462367523E+02  0.23966989801E+02  0.50528877529E+02  0.30000053737E+02 0.  0.
        -12    1    1    2    0    0 -0.29958509654E+02  0.13462367523E+02 -0.23966989801E+02  0.40659122471E+02  0.00000000000E+00 0.  1.
         11    1    3    3    0    0  0.25035987563E+02 -0.10132129677E+02  0.79674842198E+01  0.28159217498E+02  0.51100000000E-03 0.  1.
        -11    1    3    3    0    0  0.38554352839E+01  0.40378226244E+01  0.10666865674E+01  0.56838554933E+01  0.51100000000E-03 0. -1.
         12    1    3    3    0    0  0.10670868062E+01 -0.73680604699E+01  0.14932819014E+02  0.16685804537E+02  0.00000000000E+00 0. -1.
</event>
<event>
 7    1  0.5006721E-012  0.5052886E+02  0.7816164E-02  0.1300439E+00
        -11   -1    0    0    0    0  0.00000000000E+00  0.00000000000E+00  0.45593999997E+02  0.45594000000E+02  0.51100000000E-03 0. -1.
         11   -1    0    0    0    0 -0.00000000000E+00 -0.00000000000E+00 -0.45593999997E+02  0.45594000000E+02  0.51100000000E-03 0.  1.
    9900012    2    1    2    0    0 -0.11224638300E+02 -0.22332950609E+02  0.32068866638E+02  0.50528863323E+02  0.30000010556E+02 0.  0.
        -12    1    1    2    0    0  0.11224638300E+02  0.22332950609E+02 -0.32068866638E+02  0.40659136677E+02  0.00000000000E+00 0.  1.
         11    1    3    3    0    0 -0.11202370256E+01 -0.81838541944E+01  0.18213530038E+02  0.19999076908E+02  0.51100000000E-03 0. -1.
        -11    1    3    3    0    0  0.20517979939E+01 -0.18444831597E+01 -0.45192380926E+01  0.52948565923E+01  0.51100000000E-03 0.  1.
        -12    1    3    3    0    0 -0.12156199269E+02 -0.12304613255E+02  0.18374574692E+02  0.25234929822E+02  0.00000000000E+00 0.  1.
</event>
<event>
 7    1  0.5006721E-012  0.5052887E+02  0.7816164E-02  0.1300439E+00
        -11   -1    0    0    0    0  0.00000000000E+00  0.00000000000E+00  0.45593999997E+02  0.45594000000E+02  0.51100000000E-03 0. -1.
         11   -1    0    0    0    0 -0.00000000000E+00 -0.00000000000E+00 -0.45593999997E+02  0.45594000000E+02  0.51100000000E-03 0.  1.
    9900012    2    1    2    0    0 -0.28836580107E+02 -0.30531238920E+01  0.28500782195E+02  0.50528874291E+02  0.30000043894E+02 0.  0.
        -12    1    1    2    0    0  0.28836580107E+02  0.30531238920E+01 -0.28500782195E+02  0.40659125709E+02  0.00000000000E+00 0.  1.
         11    1    3    3    0    0 -0.94240308783E+01 -0.28315847018E+01  0.52064285029E+01  0.11132705329E+02  0.51100000000E-03 0. -1.
        -11    1    3    3    0    0 -0.33351207597E+01  0.10116641320E+02  0.15378595302E+02  0.18707502661E+02  0.51100000000E-03 0.  1.
        -12    1    3    3    0    0 -0.16077428469E+02 -0.10338180510E+02  0.79157583896E+01  0.20688666301E+02  0.00000000000E+00 0.  1.
</event>
<event>
 7    1  0.5006721E-012  0.5052882E+02  0.7816164E-02  0.1300439E+00
        -11   -1    0    0    0    0  0.00000000000E+00  0.00000000000E+00  0.45593999997E+02  0.45594000000E+02  0.51100000000E-03 0. -1.
         11   -1    0    0    0    0 -0.00000000000E+00 -0.00000000000E+00 -0.45593999997E+02  0.45594000000E+02  0.51100000000E-03 0.  1.
    9900012    2    1    2    0    0 -0.80994242154E+01  0.70559525427E+01  0.39214558905E+02  0.50528821836E+02  0.29999884451E+02 0.  0.
        -12    1    1    2    0    0  0.80994242154E+01 -0.70559525427E+01 -0.39214558905E+02  0.40659178164E+02  0.00000000000E+00 0.  1.
         11    1    3    3    0    0 -0.11494434023E+02  0.14179680896E+02  0.37688064506E+02  0.41875715759E+02  0.51100000000E-03 0. -1.
        -11    1    3    3    0    0  0.18658350174E+01 -0.52737789056E+01  0.24158706231E+01  0.60934813847E+01  0.51100000000E-03 0.  1.
         12    1    3    3    0    0  0.15291747900E+01 -0.18499494474E+01 -0.88937622456E+00  0.25596246922E+01  0.00000000000E+00 0. -1.
</event>
<event>
 7    1  0.7211793E-012  0.5052886E+02  0.7816164E-02  0.1300439E+00
        -11   -1    0    0    0    0  0.00000000000E+00  0.00000000000E+00  0.45593999997E+02  0.45594000000E+02  0.51100000000E-03 0. -1.
         11   -1    0    0    0    0 -0.00000000000E+00 -0.00000000000E+00 -0.45593999997E+02  0.45594000000E+02  0.51100000000E-03 0.  1.
    9900012    2    1    2    0    0  0.35438327494E+01 -0.68858391468E+01  0.39914809332E+02  0.50528861601E+02  0.30000005323E+02 0.  0.
        -12    1    1    2    0    0 -0.35438327494E+01  0.68858391468E+01 -0.39914809332E+02  0.40659138399E+02  0.00000000000E+00 0.  1.
         11    1    3    3    0    0  0.36146327001E+01 -0.19165031448E+01  0.38879963294E+02  0.39094630064E+02  0.51100000000E-03 0. -1.
        -11    1    3    3    0    0 -0.80355426554E-01  0.29537020883E+01 -0.12197351441E+01  0.31966493557E+01  0.51100000000E-03 0.  1.
         12    1    3    3    0    0  0.95554758171E-02 -0.79230380903E+01  0.22545811826E+01  0.82375821815E+01  0.00000000000E+00 0. -1.
</event>
<event>
 7    1  0.5006721E-012  0.5052886E+02  0.7816164E-02  0.1300439E+00
        -11   -1    0    0    0    0  0.00000000000E+00  0.00000000000E+00  0.45593999997E+02  0.45594000000E+02  0.51100000000E-03 0. -1.
         11   -1    0    0    0    0 -0.00000000000E+00 -0.00000000000E+00 -0.45593999997E+02  0.45594000000E+02  0.51100000000E-03 0.  1.
    9900012    2    1    2    0    0 -0.34651182423E+01  0.20734353504E+02 -0.34802949578E+02  0.50528858851E+02  0.29999996963E+02 0.  0.
         12    1    1    2    0    0  0.34651182423E+01 -0.20734353504E+02  0.34802949578E+02  0.40659141149E+02  0.00000000000E+00 0. -1.
         11    1    3    3    0    0 -0.10725163325E+02  0.38297322368E+01 -0.17166211695E+02  0.20600359259E+02  0.51100000000E-03 0. -1.
        -11    1    3    3    0    0  0.87829370577E+01  0.12939849319E+02 -0.19743900071E+02  0.25187323678E+02  0.51100000000E-03 0.  1.
         12    1    3    3    0    0 -0.15228919747E+01  0.39647719478E+01  0.21071621884E+01  0.47411759146E+01  0.00000000000E+00 0. -1.
</event>
<event>
 7    1  0.5006721E-012  0.5052885E+02  0.7816164E-02  0.1300439E+00
        -11   -1    0    0    0    0  0.00000000000E+00  0.00000000000E+00  0.45593999997E+02  0.45594000000E+02  0.51100000000E-03 0. -1.
         11   -1    0    0    0    0 -0.00000000000E+00 -0.00000000000E+00 -0.45593999997E+02  0.45594000000E+02  0.51100000000E-03 0.  1.
    9900012    2    1    2    0    0 -0.76467423480E+01  0.34087059269E+02 -0.20803031594E+02  0.50528850948E+02  0.29999972941E+02 0.  0.
         12    1    1    2    0    0  0.76467423480E+01 -0.34087059269E+02  0.20803031594E+02  0.40659149052E+02  0.00000000000E+00 0. -1.
         11    1    3    3    0    0 -0.40129221188E+00  0.75477393873E+01 -0.11429358342E+02  0.13702541285E+02  0.51100000000E-03 0. -1.
        -11    1    3    3    0    0 -0.15270537881E+02  0.14907841372E+02 -0.40278057383E+01  0.21717649064E+02  0.51100000000E-03 0.  1.
        -12    1    3    3    0    0  0.80250877444E+01  0.11631478509E+02 -0.53458675140E+01  0.15108660599E+02  0.00000000000E+00 0.  1.
</event>
<event>
 7    1  0.5006721E-012  0.5052886E+02  0.7816164E-02  0.1300439E+00
        -11   -1    0    0    0    0  0.00000000000E+00  0.00000000000E+00  0.45593999997E+02  0.45594000000E+02  0.51100000000E-03 0. -1.
         11   -1    0    0    0    0 -0.00000000000E+00 -0.00000000000E+00 -0.45593999997E+02  0.45594000000E+02  0.51100000000E-03 0.  1.
    9900012    2    1    2    0    0  0.19053688427E+02  0.89630435200E+01  0.34781981359E+02  0.50528863031E+02  0.30000009668E+02 0.  0.
        -12    1    1    2    0    0 -0.19053688427E+02 -0.89630435200E+01 -0.34781981359E+02  0.40659136969E+02  0.00000000000E+00 0.  1.
         11    1    3    3    0    0  0.81740911624E+01 -0.14836218320E+01  0.17636499867E+02  0.19495205254E+02  0.51100000000E-03 0. -1.
        -11    1    3    3    0    0  0.51985428622E+01  0.13494247697E+02  0.20325477805E+01  0.14603109927E+02  0.51100000000E-03 0.  1.
        -12    1    3    3    0    0  0.56810544028E+01 -0.30475823451E+01  0.15112933711E+02  0.16430547850E+02  0.00000000000E+00 0.  1.
</event>
<event>
 7    1  0.5006721E-012  0.5052885E+02  0.7816164E-02  0.1300439E+00
        -11   -1    0    0    0    0  0.00000000000E+00  0.00000000000E+00  0.45593999997E+02  0.45594000000E+02  0.51100000000E-03 0. -1.
         11   -1    0    0    0    0 -0.00000000000E+00 -0.00000000000E+00 -0.45593999997E+02  0.45594000000E+02  0.51100000000E-03 0.  1.
    9900012    2    1    2    0    0  0.29406630968E+02  0.58568154772E+00  0.28072641803E+02  0.50528853605E+02  0.29999981018E+02 0.  0.
        -12    1    1    2    0    0 -0.29406630968E+02 -0.58568154772E+00 -0.28072641803E+02  0.40659146395E+02  0.00000000000E+00 0.  1.
         11    1    3    3    0    0  0.20587606640E+02  0.22148568057E+01  0.98409877303E+01  0.22925971682E+02  0.51100000000E-03 0. -1.
        -11    1    3    3    0    0  0.36707107474E+01 -0.89925828254E+01  0.15354601898E+02  0.18168777146E+02  0.51100000000E-03 0.  1.
        -12    1    3    3    0    0  0.51483135809E+01  0.73634075674E+01  0.28770521749E+01  0.94341047773E+01  0.00000000000E+00 0.  1.
</event>
<event>
 7    1  0.5006721E-012  0.5052886E+02  0.7816164E-02  0.1300439E+00
        -11   -1    0    0    0    0  0.00000000000E+00  0.00000000000E+00  0.45593999997E+02  0.45594000000E+02  0.51100000000E-03 0. -1.
         11   -1    0    0    0    0 -0.00000000000E+00 -0.00000000000E+00 -0.45593999997E+02  0.45594000000E+02  0.51100000000E-03 0.  1.
    9900012    2    1    2    0    0 -0.25702934136E+01 -0.37997238968E+02  0.14239692501E+02  0.50528863020E+02  0.30000009637E+02 0.  0.
        -12    1    1    2    0    0  0.25702934136E+01  0.37997238968E+02 -0.14239692501E+02  0.40659136980E+02  0.00000000000E+00 0.  1.
         11    1    3    3    0    0  0.72797009733E+01 -0.14387581817E+02  0.80845594769E+01  0.18037645606E+02  0.51100000000E-03 0. -1.
        -11    1    3    3    0    0 -0.11044224658E+02 -0.32624998306E+01  0.19551243493E+01  0.11680809686E+02  0.51100000000E-03 0.  1.
        -12    1    3    3    0    0  0.11942302713E+01 -0.20347157320E+02  0.42000086744E+01  0.20810407728E+02  0.00000000000E+00 0.  1.
</event>
<event>
 7    1  0.5006721E-012  0.5052886E+02  0.7816164E-02  0.1300439E+00
        -11   -1    0    0    0    0  0.00000000000E+00  0.00000000000E+00  0.45593999997E+02  0.45594000000E+02  0.51100000000E-03 0. -1.
         11   -1    0    0    0    0 -0.00000000000E+00 -0.00000000000E+00 -0.45593999997E+02  0.45594000000E+02  0.51100000000E-03 0.  1.
    9900012    2    1    2    0    0  0.23308333723E+02 -0.26503689531E+02 -0.20185176334E+02  0.50528864208E+02  0.30000013247E+02 0.  0.
         12    1    1    2    0    0 -0.23308333723E+02  0.26503689531E+02  0.20185176334E+02  0.40659135792E+02  0.00000000000E+00 0. -1.
         11    1    3    3    0    0 -0.41621590752E+01  0.16452265966E+01 -0.38264211801E+01  0.58882797174E+01  0.51100000000E-03 0. -1.
        -11    1    3    3    0    0  0.20173078561E+02 -0.18235238053E+02 -0.45289809147E+01  0.27567892082E+02  0.51100000000E-03 0.  1.
         12    1    3    3    0    0  0.72974142372E+01 -0.99136780745E+01 -0.11829774240E+02  0.17072692409E+02  0.00000000000E+00 0. -1.
</event>
<event>
 7    1  0.5006721E-012  0.5052886E+02  0.7816164E-02  0.1300439E+00
        -11   -1    0    0    0    0  0.00000000000E+00  0.00000000000E+00  0.45593999997E+02  0.45594000000E+02  0.51100000000E-03 0. -1.
         11   -1    0    0    0    0 -0.00000000000E+00 -0.00000000000E+00 -0.45593999997E+02  0.45594000000E+02  0.51100000000E-03 0.  1.
    9900012    2    1    2    0    0 -0.44188929926E+01 -0.19879120091E+02  0.35191752464E+02  0.50528862375E+02  0.30000007676E+02 0.  0.
        -12    1    1    2    0    0  0.44188929926E+01  0.19879120091E+02 -0.35191752464E+02  0.40659137625E+02  0.00000000000E+00 0.  1.
         11    1    3    3    0    0 -0.70687867280E+01 -0.21260306975E+02  0.38762245911E+02  0.44771420648E+02  0.51100000000E-03 0. -1.
        -11    1    3    3    0    0  0.29680072601E+01  0.70718221358E+00 -0.12103163162E+01  0.32823832234E+01  0.51100000000E-03 0.  1.
         12    1    3    3    0    0 -0.31811352477E+00  0.67400467065E+00 -0.23601771305E+01  0.24750585040E+01  0.00000000000E+00 0. -1.
</event>
<event>
 7    1  0.5006721E-012  0.5052886E+02  0.7816164E-02  0.1300439E+00
        -11   -1    0    0    0    0  0.00000000000E+00  0.00000000000E+00  0.45593999997E+02  0.45594000000E+02  0.51100000000E-03 0. -1.
         11   -1    0    0    0    0 -0.00000000000E+00 -0.00000000000E+00 -0.45593999997E+02  0.45594000000E+02  0.51100000000E-03 0.  1.
    9900012    2    1    2    0    0  0.26112753928E+02  0.38221617231E+01  0.30930261058E+02  0.50528857276E+02  0.29999992175E+02 0.  0.
        -12    1    1    2    0    0 -0.26112753928E+02 -0.38221617231E+01 -0.30930261058E+02  0.40659142724E+02  0.00000000000E+00 0.  1.
         11    1    3    3    0    0  0.39377430101E+01 -0.17369231413E+01  0.18365753884E+02  0.18863288101E+02  0.51100000000E-03 0. -1.
        -11    1    3    3    0    0  0.14319490777E+02  0.12163620983E+02  0.76405581623E+01  0.20282495428E+02  0.51100000000E-03 0.  1.
        -12    1    3    3    0    0  0.78555201416E+01 -0.66045361183E+01  0.49239490117E+01  0.11383073746E+02  0.00000000000E+00 0.  1.
</event>
<event>
 7    1  0.5006721E-012  0.5052882E+02  0.7816164E-02  0.1300439E+00
        -11   -1    0    0    0    0  0.00000000000E+00  0.00000000000E+00  0.45593999997E+02  0.45594000000E+02  0.51100000000E-03 0. -1.
         11   -1    0    0    0    0 -0.00000000000E+00 -0.00000000000E+00 -0.45593999997E+02  0.45594000000E+02  0.51100000000E-03 0.  1.
    9900012    2    1    2    0    0  0.38632997503E+02 -0.47222645728E+01  0.11762690149E+02  0.50528817049E+02  0.29999869901E+02 0.  0.
        -12    1    1    2    0    0 -0.38632997503E+02  0.47222645728E+01 -0.11762690149E+02  0.40659182951E+02  0.00000000000E+00 0.  1.
         11    1    3    3    0    0  0.14250685490E+02 -0.29494663163E+01  0.16431171814E+02  0.21949141120E+02  0.51100000000E-03 0. -1.
        -11    1    3    3    0    0  0.10228733304E+02 -0.46900602324E+01 -0.79286030744E+01  0.13765405804E+02  0.51100000000E-03 0.  1.
         12    1    3    3    0    0  0.14153578709E+02  0.29172619759E+01  0.32601214096E+01  0.14814270124E+02  0.00000000000E+00 0. -1.
</event>
<event>
 7    1  0.5006721E-012  0.5052884E+02  0.7816164E-02  0.1300439E+00
        -11   -1    0    0    0    0  0.00000000000E+00  0.00000000000E+00  0.45593999997E+02  0.45594000000E+02  0.51100000000E-03 0. -1.
         11   -1    0    0    0    0 -0.00000000000E+00 -0.00000000000E+00 -0.45593999997E+02  0.45594000000E+02  0.51100000000E-03 0.  1.
    9900012    2    1    2    0    0 -0.20152628840E+02 -0.13442536222E+02 -0.32654815155E+02  0.50528841351E+02  0.29999943771E+02 0.  0.
         12    1    1    2    0    0  0.20152628840E+02  0.13442536222E+02  0.32654815155E+02  0.40659158649E+02  0.00000000000E+00 0. -1.
         11    1    3    3    0    0 -0.12960226369E+02 -0.12122972881E+02 -0.12565120284E+01  0.17790805539E+02  0.51100000000E-03 0. -1.
        -11    1    3    3    0    0 -0.68829213151E+01 -0.13712242793E+01 -0.17763948968E+02  0.19100071860E+02  0.51100000000E-03 0.  1.
         12    1    3    3    0    0 -0.30948115596E+00  0.51660937558E-01 -0.13634354158E+02  0.13637963952E+02  0.00000000000E+00 0. -1.
</event>
<event>
 7    1  0.5006721E-012  0.5052886E+02  0.7816164E-02  0.1300439E+00
        -11   -1    0    0    0    0  0.00000000000E+00  0.00000000000E+00  0.45593999997E+02  0.45594000000E+02  0.51100000000E-03 0. -1.
         11   -1    0    0    0    0 -0.00000000000E+00 -0.00000000000E+00 -0.45593999997E+02  0.45594000000E+02  0.51100000000E-03 0.  1.
    9900012    2    1    2    0    0 -0.31875028505E+01 -0.36880258397E+02 -0.16818201542E+02  0.50528861582E+02  0.30000005264E+02 0.  0.
         12    1    1    2    0    0  0.31875028505E+01  0.36880258397E+02  0.16818201542E+02  0.40659138418E+02  0.00000000000E+00 0. -1.
         11    1    3    3    0    0 -0.12089983854E+00 -0.27209839478E+02 -0.24494144911E+02  0.36610833320E+02  0.51100000000E-03 0.  1.
        -11    1    3    3    0    0  0.97799691475E+00 -0.21634973945E+00  0.18387175997E+01  0.20938404542E+01  0.51100000000E-03 0. -1.
         12    1    3    3    0    0 -0.40445999267E+01 -0.94540691795E+01  0.58372257701E+01  0.11824187808E+02  0.00000000000E+00 0. -1.
</event>
<event>
 7    1  0.5006721E-012  0.5052886E+02  0.7816164E-02  0.1300439E+00
        -11   -1    0    0    0    0  0.00000000000E+00  0.00000000000E+00  0.45593999997E+02  0.45594000000E+02  0.51100000000E-03 0.  1.
         11   -1    0    0    0    0 -0.00000000000E+00 -0.00000000000E+00 -0.45593999997E+02  0.45594000000E+02  0.51100000000E-03 0. -1.
    9900012    2    1    2    0    0 -0.37447627388E+02 -0.15593075318E+02 -0.27743291892E+01  0.50528859609E+02  0.29999999268E+02 0.  0.
         12    1    1    2    0    0  0.37447627388E+02  0.15593075318E+02  0.27743291892E+01  0.40659140391E+02  0.00000000000E+00 0. -1.
         11    1    3    3    0    0 -0.15035061979E+02 -0.15946818988E+02  0.59367143841E+00  0.21925021564E+02  0.51100000000E-03 0. -1.
        -11    1    3    3    0    0 -0.23515782057E+02  0.17914552615E+01  0.12763669957E+01  0.23618434128E+02  0.51100000000E-03 0.  1.
         12    1    3    3    0    0  0.11032166477E+01 -0.14377115919E+01 -0.46443676233E+01  0.49854039168E+01  0.00000000000E+00 0. -1.
</event>
<event>
 7    1  0.5006721E-012  0.5052885E+02  0.7816164E-02  0.1300439E+00
        -11   -1    0    0    0    0  0.00000000000E+00  0.00000000000E+00  0.45593999997E+02  0.45594000000E+02  0.51100000000E-03 0. -1.
         11   -1    0    0    0    0 -0.00000000000E+00 -0.00000000000E+00 -0.45593999997E+02  0.45594000000E+02  0.51100000000E-03 0.  1.
    9900012    2    1    2    0    0 -0.46363837818E+01  0.22989394086E+02 -0.33213822225E+02  0.50528852422E+02  0.29999977421E+02 0.  0.
         12    1    1    2    0    0  0.46363837818E+01 -0.22989394086E+02  0.33213822225E+02  0.40659147578E+02  0.00000000000E+00 0. -1.
         11    1    3    3    0    0  0.23234692918E+00 -0.98761178907E+00  0.46687114117E+01  0.47776802580E+01  0.51100000000E-03 0. -1.
        -11    1    3    3    0    0 -0.14641730155E+01  0.10031859675E+02 -0.92593635629E+01  0.13730179351E+02  0.51100000000E-03 0.  1.
         12    1    3    3    0    0 -0.34045576955E+01  0.13945146200E+02 -0.28623170074E+02  0.32020992813E+02  0.00000000000E+00 0. -1.
</event>
<event>
 7    1  0.5006721E-012  0.5052884E+02  0.7816164E-02  0.1300439E+00
        -11   -1    0    0    0    0  0.00000000000E+00  0.00000000000E+00  0.45593999997E+02  0.45594000000E+02  0.51100000000E-03 0. -1.
         11   -1    0    0    0    0 -0.00000000000E+00 -0.00000000000E+00 -0.45593999997E+02  0.45594000000E+02  0.51100000000E-03 0.  1.
    9900012    2    1    2    0    0  0.25937483013E+01  0.92766259247E+01 -0.39501694008E+02  0.50528841766E+02  0.29999945032E+02 0.  0.
         12    1    1    2    0    0 -0.25937483013E+01 -0.92766259247E+01  0.39501694008E+02  0.40659158234E+02  0.00000000000E+00 0. -1.
         11    1    3    3    0    0 -0.11291034428E+02  0.87565712296E+01 -0.15262458578E+02  0.20907119368E+02  0.51100000000E-03 0. -1.
        -11    1    3    3    0    0  0.12484018165E+02  0.31591853066E+01 -0.14302882681E+02  0.19245872664E+02  0.51100000000E-03 0.  1.
        -12    1    3    3    0    0  0.14007645642E+01 -0.26391306115E+01 -0.99363527487E+01  0.10375849734E+02  0.00000000000E+00 0.  1.
</event>
<event>
 7    1  0.5006721E-012  0.5052885E+02  0.7816164E-02  0.1300439E+00
        -11   -1    0    0    0    0  0.00000000000E+00  0.00000000000E+00  0.45593999997E+02  0.45594000000E+02  0.51100000000E-03 0. -1.
         11   -1    0    0    0    0 -0.00000000000E+00 -0.00000000000E+00 -0.45593999997E+02  0.45594000000E+02  0.51100000000E-03 0.  1.
    9900012    2    1    2    0    0  0.31274986045E+02  0.22639541945E+02  0.12747268139E+02  0.50528850271E+02  0.29999970885E+02 0.  0.
        -12    1    1    2    0    0 -0.31274986045E+02 -0.22639541945E+02 -0.12747268139E+02  0.40659149729E+02  0.00000000000E+00 0.  1.
         11    1    3    3    0    0  0.22882931794E+02  0.16793200676E+02  0.18138736510E+02  0.33684624369E+02  0.51100000000E-03 0. -1.
        -11    1    3    3    0    0  0.11447322779E+02  0.31485427526E+01 -0.42690115183E+01  0.12616615231E+02  0.51100000000E-03 0.  1.
        -12    1    3    3    0    0 -0.30552685276E+01  0.26977985165E+01 -0.11224568520E+01  0.42276106722E+01  0.00000000000E+00 0.  1.
</event>
<event>
 7    1  0.5006721E-012  0.5052886E+02  0.7816164E-02  0.1300439E+00
        -11   -1    0    0    0    0  0.00000000000E+00  0.00000000000E+00  0.45593999997E+02  0.45594000000E+02  0.51100000000E-03 0. -1.
         11   -1    0    0    0    0 -0.00000000000E+00 -0.00000000000E+00 -0.45593999997E+02  0.45594000000E+02  0.51100000000E-03 0.  1.
    9900012    2    1    2    0    0 -0.10492219716E+02 -0.37652093273E+02 -0.11198156454E+02  0.50528861908E+02  0.30000006257E+02 0.  0.
         12    1    1    2    0    0  0.10492219716E+02  0.37652093273E+02  0.11198156454E+02  0.40659138092E+02  0.00000000000E+00 0. -1.
         11    1    3    3    0    0 -0.67872937385E+01 -0.80921122897E+01  0.82843115985E+01  0.13423094149E+02  0.51100000000E-03 0. -1.
        -11    1    3    3    0    0 -0.72156562362E+00 -0.22775974780E+02 -0.95367818682E+01  0.24702548305E+02  0.51100000000E-03 0.  1.
        -12    1    3    3    0    0 -0.29833603535E+01 -0.67840062036E+01 -0.99456861838E+01  0.12403219455E+02  0.00000000000E+00 0.  1.
</event>
<event>
 7    1  0.5006721E-012  0.5052887E+02  0.7816164E-02  0.1300439E+00
        -11   -1    0    0    0    0  0.00000000000E+00  0.00000000000E+00  0.45593999997E+02  0.45594000000E+02  0.51100000000E-03 0. -1.
         11   -1    0    0    0    0 -0.00000000000E+00 -0.00000000000E+00 -0.45593999997E+02  0.45594000000E+02  0.51100000000E-03 0.  1.
    9900012    2    1    2    0    0  0.28727895147E+02 -0.24501064360E+02 -0.15085445227E+02  0.50528870987E+02  0.30000033853E+02 0.  0.
         12    1    1    2    0    0 -0.28727895147E+02  0.24501064360E+02  0.15085445227E+02  0.40659129013E+02  0.00000000000E+00 0. -1.
         11    1    3    3    0    0  0.61931403334E+01  0.59445934211E+01 -0.50299386281E+01  0.99495457683E+01  0.51100000000E-03 0. -1.
        -11    1    3    3    0    0  0.12366834966E+02 -0.15367891482E+02 -0.10583625284E+02  0.22385795052E+02  0.51100000000E-03 0.  1.
         12    1    3    3    0    0  0.10167919848E+02 -0.15077766299E+02  0.52811868505E+00  0.18193530167E+02  0.00000000000E+00 0. -1.
</event>
<event>
 7    1  0.5006721E-012  0.5052886E+02  0.7816164E-02  0.1300439E+00
        -11   -1    0    0    0    0  0.00000000000E+00  0.00000000000E+00  0.45593999997E+02  0.45594000000E+02  0.51100000000E-03 0. -1.
         11   -1    0    0    0    0 -0.00000000000E+00 -0.00000000000E+00 -0.45593999997E+02  0.45594000000E+02  0.51100000000E-03 0.  1.
    9900012    2    1    2    0    0 -0.28816052786E+02 -0.16554518527E+02 -0.23425376902E+02  0.50528864928E+02  0.30000015434E+02 0.  0.
         12    1    1    2    0    0  0.28816052786E+02  0.16554518527E+02  0.23425376902E+02  0.40659135072E+02  0.00000000000E+00 0. -1.
         11    1    3    3    0    0  0.76530486094E+00  0.60521313626E+00 -0.10650650001E+02  0.10695247551E+02  0.51100000000E-03 0. -1.
        -11    1    3    3    0    0 -0.29919904298E+02 -0.11524984215E+02 -0.10373197428E+02  0.33699097310E+02  0.51100000000E-03 0.  1.
        -12    1    3    3    0    0  0.33854665090E+00 -0.56347474480E+01 -0.24015294729E+01  0.61345200665E+01  0.00000000000E+00 0.  1.
</event>
<event>
 7    1  0.5006721E-012  0.5052885E+02  0.7816164E-02  0.1300439E+00
        -11   -1    0    0    0    0  0.00000000000E+00  0.00000000000E+00  0.45593999997E+02  0.45594000000E+02  0.51100000000E-03 0. -1.
         11   -1    0    0    0    0 -0.00000000000E+00 -0.00000000000E+00 -0.45593999997E+02  0.45594000000E+02  0.51100000000E-03 0.  1.
    9900012    2    1    2    0    0 -0.11074747727E+02  0.11884290196E-01  0.39121818549E+02  0.50528845249E+02  0.29999955620E+02 0.  0.
        -12    1    1    2    0    0  0.11074747727E+02 -0.11884290196E-01 -0.39121818549E+02  0.40659154751E+02  0.00000000000E+00 0.  1.
         11    1    3    3    0    0 -0.98600563662E+01 -0.84713480338E+01  0.20467241436E+02  0.24246492969E+02  0.51100000000E-03 0. -1.
        -11    1    3    3    0    0 -0.85171617068E+01  0.57605910641E+01  0.77352096550E+01  0.12867009039E+02  0.51100000000E-03 0.  1.
         12    1    3    3    0    0  0.73024703462E+01  0.27226412599E+01  0.10919367458E+02  0.13415343241E+02  0.00000000000E+00 0. -1.
</event>
<event>
 7    1  0.5006721E-012  0.5052887E+02  0.7816164E-02  0.1300439E+00
        -11   -1    0    0    0    0  0.00000000000E+00  0.00000000000E+00  0.45593999997E+02  0.45594000000E+02  0.51100000000E-03 0. -1.
         11   -1    0    0    0    0 -0.00000000000E+00 -0.00000000000E+00 -0.45593999997E+02  0.45594000000E+02  0.51100000000E-03 0.  1.
    9900012    2    1    2    0    0 -0.67252436507E+01  0.96357514377E+01  0.38924129929E+02  0.50528874350E+02  0.30000044073E+02 0.  0.
        -12    1    1    2    0    0  0.67252436507E+01 -0.96357514377E+01 -0.38924129929E+02  0.40659125650E+02  0.00000000000E+00 0.  1.
         11    1    3    3    0    0 -0.43763163070E+01 -0.30157445497E+01  0.18836961998E+02  0.19572378424E+02  0.51100000000E-03 0. -1.
        -11    1    3    3    0    0  0.25359294146E+01  0.14790289386E+02  0.20723527891E+02  0.25586094008E+02  0.51100000000E-03 0.  1.
        -12    1    3    3    0    0 -0.48848567584E+01 -0.21387933982E+01 -0.63635996001E+00  0.53704019168E+01  0.00000000000E+00 0.  1.
</event>
<event>
 7    1  0.5006721E-012  0.5052885E+02  0.7816164E-02  0.1300439E+00
        -11   -1    0    0    0    0  0.00000000000E+00  0.00000000000E+00  0.45593999997E+02  0.45594000000E+02  0.51100000000E-03 0.  1.
         11   -1    0    0    0    0 -0.00000000000E+00 -0.00000000000E+00 -0.45593999997E+02  0.45594000000E+02  0.51100000000E-03 0. -1.
    9900012    2    1    2    0    0  0.37028247679E+02 -0.11807222658E+02  0.11944235487E+02  0.50528851037E+02  0.29999973211E+02 0.  0.
        -12    1    1    2    0    0 -0.37028247679E+02  0.11807222658E+02 -0.11944235487E+02  0.40659148963E+02  0.00000000000E+00 0.  1.
         11    1    3    3    0    0  0.27537732082E+02 -0.24012708747E+01  0.20060058300E+01  0.27714921066E+02  0.51100000000E-03 0. -1.
        -11    1    3    3    0    0 -0.32188429184E+01  0.37750091879E+00  0.51334271496E+01  0.60708756566E+01  0.51100000000E-03 0.  1.
        -12    1    3    3    0    0  0.12709358515E+02 -0.97834527018E+01  0.48048025074E+01  0.16743054314E+02  0.00000000000E+00 0.  1.
</event>
<event>
 7    1  0.5006721E-012  0.5052886E+02  0.7816164E-02  0.1300439E+00
        -11   -1    0    0    0    0  0.00000000000E+00  0.00000000000E+00  0.45593999997E+02  0.45594000000E+02  0.51100000000E-03 0. -1.
         11   -1    0    0    0    0 -0.00000000000E+00 -0.00000000000E+00 -0.45593999997E+02  0.45594000000E+02  0.51100000000E-03 0.  1.
    9900012    2    1    2    0    0 -0.47542096082E+01 -0.29873734794E+02  0.27168417602E+02  0.50528862595E+02  0.30000008344E+02 0.  0.
        -12    1    1    2    0    0  0.47542096082E+01  0.29873734794E+02 -0.27168417602E+02  0.40659137405E+02  0.00000000000E+00 0.  1.
         11    1    3    3    0    0 -0.11602809148E+02 -0.10709335573E+02  0.23594159513E+02  0.28390128776E+02  0.51100000000E-03 0. -1.
        -11    1    3    3    0    0  0.39318824203E+01 -0.22790824490E+01  0.18857583292E+01  0.49203659329E+01  0.51100000000E-03 0.  1.
         12    1    3    3    0    0  0.29167171191E+01 -0.16885316772E+02  0.16884997598E+01  0.17218367886E+02  0.00000000000E+00 0. -1.
</event>
<event>
 7    1  0.5006721E-012  0.5052886E+02  0.7816164E-02  0.1300439E+00
        -11   -1    0    0    0    0  0.00000000000E+00  0.00000000000E+00  0.45593999997E+02  0.45594000000E+02  0.51100000000E-03 0. -1.
         11   -1    0    0    0    0 -0.00000000000E+00 -0.00000000000E+00 -0.45593999997E+02  0.45594000000E+02  0.51100000000E-03 0.  1.
    9900012    2    1    2    0    0  0.21034557453E+01 -0.14252738239E+02 -0.38021052722E+02  0.50528861748E+02  0.30000005768E+02 0.  0.
         12    1    1    2    0    0 -0.21034557453E+01  0.14252738239E+02  0.38021052722E+02  0.40659138252E+02  0.00000000000E+00 0. -1.
         11    1    3    3    0    0  0.57856705629E+01 -0.72125708513E+01 -0.69780894315E+00  0.92726533274E+01  0.51100000000E-03 0. -1.
        -11    1    3    3    0    0  0.18623475631E+01 -0.73716516202E+01 -0.33876437131E+02  0.34719196117E+02  0.51100000000E-03 0.  1.
        -12    1    3    3    0    0 -0.55445623807E+01  0.33148423283E+00 -0.34468066476E+01  0.65370123035E+01  0.00000000000E+00 0.  1.
</event>
<event>
 7    1  0.5006721E-012  0.5052886E+02  0.7816164E-02  0.1300439E+00
        -11   -1    0    0    0    0  0.00000000000E+00  0.00000000000E+00  0.45593999997E+02  0.45594000000E+02  0.51100000000E-03 0. -1.
         11   -1    0    0    0    0 -0.00000000000E+00 -0.00000000000E+00 -0.45593999997E+02  0.45594000000E+02  0.51100000000E-03 0.  1.
    9900012    2    1    2    0    0  0.20606746071E+02 -0.80172755274E+01 -0.34121127349E+02  0.50528855616E+02  0.29999987130E+02 0.  0.
         12    1    1    2    0    0 -0.20606746071E+02  0.80172755274E+01  0.34121127349E+02  0.40659144384E+02  0.00000000000E+00 0. -1.
         11    1    3    3    0    0  0.10571486154E+02  0.21367248276E+01 -0.75634975058E+01  0.13173018154E+02  0.51100000000E-03 0. -1.
        -11    1    3    3    0    0  0.44941294276E+01 -0.92089572423E+01 -0.29344208799E+02  0.31081902823E+02  0.51100000000E-03 0.  1.
        -12    1    3    3    0    0  0.55411304891E+01 -0.94504311265E+00  0.27865789557E+01  0.62739346393E+01  0.00000000000E+00 0.  1.
</event>
<event>
 7    1  0.5006721E-012  0.5052886E+02  0.7816164E-02  0.1300439E+00
        -11   -1    0    0    0    0  0.00000000000E+00  0.00000000000E+00  0.45593999997E+02  0.45594000000E+02  0.51100000000E-03 0. -1.
         11   -1    0    0    0    0 -0.00000000000E+00 -0.00000000000E+00 -0.45593999997E+02  0.45594000000E+02  0.51100000000E-03 0.  1.
    9900012    2    1    2    0    0 -0.12153038488E+02 -0.17216461896E+02 -0.34771584432E+02  0.50528856027E+02  0.29999988381E+02 0.  0.
         12    1    1    2    0    0  0.12153038488E+02  0.17216461896E+02  0.34771584432E+02  0.40659143973E+02  0.00000000000E+00 0. -1.
         11    1    3    3    0    0 -0.18424466070E+02 -0.14069527862E+02 -0.21565155208E+02  0.31661782698E+02  0.51100000000E-03 0. -1.
        -11    1    3    3    0    0  0.78484339356E+01  0.12096583534E+01 -0.11402047574E+02  0.13894886747E+02  0.51100000000E-03 0.  1.
        -12    1    3    3    0    0 -0.15770063535E+01 -0.43565923871E+01 -0.18043816496E+01  0.49721865817E+01  0.00000000000E+00 0.  1.
</event>
<event>
 7    1  0.5006721E-012  0.5052886E+02  0.7816164E-02  0.1300439E+00
        -11   -1    0    0    0    0  0.00000000000E+00  0.00000000000E+00  0.45593999997E+02  0.45594000000E+02  0.51100000000E-03 0. -1.
         11   -1    0    0    0    0 -0.00000000000E+00 -0.00000000000E+00 -0.45593999997E+02  0.45594000000E+02  0.51100000000E-03 0.  1.
    9900012    2    1    2    0    0 -0.15962566519E+02  0.14671711111E+02 -0.34396263592E+02  0.50528860980E+02  0.30000003435E+02 0.  0.
         12    1    1    2    0    0  0.15962566519E+02 -0.14671711111E+02  0.34396263592E+02  0.40659139020E+02  0.00000000000E+00 0. -1.
         11    1    3    3    0    0 -0.50707585528E+00  0.15714508789E+00 -0.24579601656E+02  0.24585333805E+02  0.51100000000E-03 0. -1.
        -11    1    3    3    0    0 -0.15000539415E+02  0.14746482842E+02 -0.56977784058E+01  0.21793109415E+02  0.51100000000E-03 0.  1.
        -12    1    3    3    0    0 -0.45495124849E+00 -0.23191681891E+00 -0.41188835303E+01  0.41504177603E+01  0.00000000000E+00 0.  1.
</event>
<event>
 7    1  0.5006721E-012  0.5052886E+02  0.7816164E-02  0.1300439E+00
        -11   -1    0    0    0    0  0.00000000000E+00  0.00000000000E+00  0.45593999997E+02  0.45594000000E+02  0.51100000000E-03 0. -1.
         11   -1    0    0    0    0 -0.00000000000E+00 -0.00000000000E+00 -0.45593999997E+02  0.45594000000E+02  0.51100000000E-03 0.  1.
    9900012    2    1    2    0    0  0.16744976870E+02  0.27185007699E+01 -0.36951059049E+02  0.50528864967E+02  0.30000015553E+02 0.  0.
         12    1    1    2    0    0 -0.16744976870E+02 -0.27185007699E+01  0.36951059049E+02  0.40659135033E+02  0.00000000000E+00 0. -1.
         11    1    3    3    0    0 -0.18735122719E+01  0.82375851407E+01 -0.44880475153E+01  0.95661082966E+01  0.51100000000E-03 0. -1.
        -11    1    3    3    0    0  0.21118826398E+02 -0.51267766228E+01 -0.25227569470E+02  0.33297431262E+02  0.51100000000E-03 0.  1.
        -12    1    3    3    0    0 -0.25003372565E+01 -0.39230774800E+00 -0.72354420634E+01  0.76653254085E+01  0.00000000000E+00 0.  1.
</event>
<event>
 7    1  0.5006721E-012  0.5052885E+02  0.7816164E-02  0.1300439E+00
        -11   -1    0    0    0    0  0.00000000000E+00  0.00000000000E+00  0.45593999997E+02  0.45594000000E+02  0.51100000000E-03 0. -1.
         11   -1    0    0    0    0 -0.00000000000E+00 -0.00000000000E+00 -0.45593999997E+02  0.45594000000E+02  0.51100000000E-03 0.  1.
    9900012    2    1    2    0    0 -0.13948071316E+02 -0.35591599168E+02 -0.13851201134E+02  0.50528850997E+02  0.29999973092E+02 0.  0.
         12    1    1    2    0    0  0.13948071316E+02  0.35591599168E+02  0.13851201134E+02  0.40659149003E+02  0.00000000000E+00 0. -1.
         11    1    3    3    0    0  0.65350577048E+01 -0.58405301680E+01  0.24551035539E+01  0.91019945929E+01  0.51100000000E-03 0. -1.
        -11    1    3    3    0    0 -0.13027392753E+02 -0.21950801116E+02 -0.16911654552E+02  0.30619514881E+02  0.51100000000E-03 0.  1.
         12    1    3    3    0    0 -0.74557362678E+01 -0.78002678840E+01  0.60534986459E+00  0.10807341524E+02  0.00000000000E+00 0. -1.
</event>
<event>
 7    1  0.5006721E-012  0.5052888E+02  0.7816164E-02  0.1300439E+00
        -11   -1    0    0    0    0  0.00000000000E+00  0.00000000000E+00  0.45593999997E+02  0.45594000000E+02  0.51100000000E-03 0. -1.
         11   -1    0    0    0    0 -0.00000000000E+00 -0.00000000000E+00 -0.45593999997E+02  0.45594000000E+02  0.51100000000E-03 0.  1.
    9900012    2    1    2    0    0  0.16208363520E+02 -0.22596442796E+01 -0.37220254870E+02  0.50528875405E+02  0.30000047281E+02 0.  0.
         12    1    1    2    0    0 -0.16208363520E+02  0.22596442796E+01  0.37220254870E+02  0.40659124595E+02  0.00000000000E+00 0. -1.
         11    1    3    3    0    0 -0.59638268715E+01  0.22691015404E+01 -0.25983083281E+01  0.68896486981E+01  0.51100000000E-03 0. -1.
        -11    1    3    3    0    0  0.17763216529E+02  0.21118599782E+01 -0.28236751300E+02  0.33426126582E+02  0.51100000000E-03 0.  1.
         12    1    3    3    0    0  0.44089738628E+01 -0.66406057983E+01 -0.63851952420E+01  0.10213100125E+02  0.00000000000E+00 0. -1.
</event>
<event>
 7    1  0.5006721E-012  0.5052887E+02  0.7816164E-02  0.1300439E+00
        -11   -1    0    0    0    0  0.00000000000E+00  0.00000000000E+00  0.45593999997E+02  0.45594000000E+02  0.51100000000E-03 0. -1.
         11   -1    0    0    0    0 -0.00000000000E+00 -0.00000000000E+00 -0.45593999997E+02  0.45594000000E+02  0.51100000000E-03 0.  1.
    9900012    2    1    2    0    0  0.90070985324E+01  0.26620500186E+02 -0.29383437475E+02  0.50528865086E+02  0.30000015914E+02 0.  0.
         12    1    1    2    0    0 -0.90070985324E+01 -0.26620500186E+02  0.29383437475E+02  0.40659134914E+02  0.00000000000E+00 0. -1.
         11    1    3    3    0    0 -0.18074090248E+01  0.60816825375E+01 -0.66687463133E+01  0.92046600982E+01  0.51100000000E-03 0. -1.
        -11    1    3    3    0    0  0.13424955969E+02  0.10657574574E+02 -0.25505127843E+02  0.30729869591E+02  0.51100000000E-03 0.  1.
        -12    1    3    3    0    0 -0.26104484120E+01  0.98812430747E+01  0.27904366809E+01  0.10594335396E+02  0.00000000000E+00 0.  1.
</event>
<event>
 7    1  0.5006721E-012  0.5052886E+02  0.7816164E-02  0.1300439E+00
        -11   -1    0    0    0    0  0.00000000000E+00  0.00000000000E+00  0.45593999997E+02  0.45594000000E+02  0.51100000000E-03 0. -1.
         11   -1    0    0    0    0 -0.00000000000E+00 -0.00000000000E+00 -0.45593999997E+02  0.45594000000E+02  0.51100000000E-03 0.  1.
    9900012    2    1    2    0    0  0.11023361079E+02 -0.84362890407E+01 -0.38216230876E+02  0.50528858782E+02  0.29999996753E+02 0.  0.
         12    1    1    2    0    0 -0.11023361079E+02  0.84362890407E+01  0.38216230876E+02  0.40659141218E+02  0.00000000000E+00 0. -1.
         11    1    3    3    0    0 -0.62277094201E+01  0.14939531335E+01 -0.26764121264E+02  0.27519710171E+02  0.51100000000E-03 0. -1.
        -11    1    3    3    0    0  0.57022415739E+01 -0.29146026290E+01 -0.43707825368E+01  0.77533352628E+01  0.51100000000E-03 0.  1.
         12    1    3    3    0    0  0.11548828925E+02 -0.70156395452E+01 -0.70813270743E+01  0.15255813348E+02  0.00000000000E+00 0. -1.
</event>
<event>
 7    1  0.5006721E-012  0.5052893E+02  0.7816164E-02  0.1300439E+00
        -11   -1    0    0    0    0  0.00000000000E+00  0.00000000000E+00  0.45593999997E+02  0.45594000000E+02  0.51100000000E-03 0. -1.
         11   -1    0    0    0    0 -0.00000000000E+00 -0.00000000000E+00 -0.45593999997E+02  0.45594000000E+02  0.51100000000E-03 0.  1.
    9900012    2    1    2    0    0 -0.27285091815E+02  0.16782692058E+02 -0.25040466015E+02  0.50528930578E+02  0.30000214983E+02 0.  0.
         12    1    1    2    0    0  0.27285091815E+02 -0.16782692058E+02  0.25040466015E+02  0.40659069422E+02  0.00000000000E+00 0. -1.
         11    1    3    3    0    0  0.34668061671E+01  0.30902833756E+01  0.97671659206E+00  0.47457951815E+01  0.51100000000E-03 0. -1.
        -11    1    3    3    0    0 -0.24266893916E+02  0.15285837449E+02 -0.26552004313E+02  0.39083857284E+02  0.51100000000E-03 0.  1.
        -12    1    3    3    0    0 -0.64850040660E+01 -0.15934287672E+01  0.53482170599E+00  0.66992781125E+01  0.00000000000E+00 0.  1.
</event>
<event>
 7    1  0.5006721E-012  0.5052894E+02  0.7816164E-02  0.1300439E+00
        -11   -1    0    0    0    0  0.00000000000E+00  0.00000000000E+00  0.45593999997E+02  0.45594000000E+02  0.51100000000E-03 0.  1.
         11   -1    0    0    0    0 -0.00000000000E+00 -0.00000000000E+00 -0.45593999997E+02  0.45594000000E+02  0.51100000000E-03 0. -1.
    9900012    2    1    2    0    0  0.12127583314E+02 -0.38718204119E+02 -0.26423079838E+01  0.50528937065E+02  0.30000234702E+02 0.  0.
        -12    1    1    2    0    0 -0.12127583314E+02  0.38718204119E+02  0.26423079838E+01  0.40659062935E+02  0.00000000000E+00 0.  1.
         11    1    3    3    0    0 -0.15668964900E+01 -0.26734182866E+02 -0.42555644115E+01  0.27116075064E+02  0.51100000000E-03 0. -1.
        -11    1    3    3    0    0  0.12445255627E+02 -0.13855525699E+02  0.50575831977E+01  0.19298682030E+02  0.51100000000E-03 0.  1.
        -12    1    3    3    0    0  0.12492241772E+01  0.18715044465E+01 -0.34443267700E+01  0.41141799714E+01  0.00000000000E+00 0.  1.
</event>
<event>
 7    1  0.5006721E-012  0.5052886E+02  0.7816164E-02  0.1300439E+00
        -11   -1    0    0    0    0  0.00000000000E+00  0.00000000000E+00  0.45593999997E+02  0.45594000000E+02  0.51100000000E-03 0. -1.
         11   -1    0    0    0    0 -0.00000000000E+00 -0.00000000000E+00 -0.45593999997E+02  0.45594000000E+02  0.51100000000E-03 0.  1.
    9900012    2    1    2    0    0  0.84214638037E+01 -0.14960582779E+02 -0.36856829602E+02  0.50528856158E+02  0.29999988777E+02 0.  0.
         12    1    1    2    0    0 -0.84214638037E+01  0.14960582779E+02  0.36856829602E+02  0.40659143842E+02  0.00000000000E+00 0. -1.
         11    1    3    3    0    0 -0.26261624292E+01  0.58789770892E+01 -0.15608379085E+01  0.66253540251E+01  0.51100000000E-03 0. -1.
        -11    1    3    3    0    0  0.47541869715E+01 -0.10559162532E+02 -0.80295747896E+01  0.14091567645E+02  0.51100000000E-03 0.  1.
         12    1    3    3    0    0  0.62934392615E+01 -0.10280397337E+02 -0.27266416904E+02  0.29811934488E+02  0.00000000000E+00 0. -1.
</event>
<event>
 7    1  0.5006721E-012  0.5052886E+02  0.7816164E-02  0.1300439E+00
        -11   -1    0    0    0    0  0.00000000000E+00  0.00000000000E+00  0.45593999997E+02  0.45594000000E+02  0.51100000000E-03 0.  1.
         11   -1    0    0    0    0 -0.00000000000E+00 -0.00000000000E+00 -0.45593999997E+02  0.45594000000E+02  0.51100000000E-03 0. -1.
    9900012    2    1    2    0    0 -0.11674337822E+02 -0.35481329637E+02 -0.16060841451E+02  0.50528861488E+02  0.30000004979E+02 0.  0.
         12    1    1    2    0    0  0.11674337822E+02  0.35481329637E+02  0.16060841451E+02  0.40659138512E+02  0.00000000000E+00 0. -1.
         11    1    3    3    0    0  0.17718752045E+01 -0.64881171730E+01 -0.16598681772E+02  0.17909534975E+02  0.51100000000E-03 0. -1.
        -11    1    3    3    0    0 -0.28969259482E+00 -0.57369564834E+01  0.12965079498E+01  0.58887625709E+01  0.51100000000E-03 0.  1.
         12    1    3    3    0    0 -0.13156520431E+02 -0.23256255981E+02 -0.75866762935E+00  0.26730563942E+02  0.00000000000E+00 0. -1.
</event>
<event>
 7    1  0.8219162E-012  0.5052890E+02  0.7816164E-02  0.1300439E+00
        -11   -1    0    0    0    0  0.00000000000E+00  0.00000000000E+00  0.45593999997E+02  0.45594000000E+02  0.51100000000E-03 0. -1.
         11   -1    0    0    0    0 -0.00000000000E+00 -0.00000000000E+00 -0.45593999997E+02  0.45594000000E+02  0.51100000000E-03 0.  1.
    9900012    2    1    2    0    0 -0.16755066409E+02  0.16555695506E+02  0.33141200924E+02  0.50528898894E+02  0.30000118677E+02 0.  0.
        -12    1    1    2    0    0  0.16755066409E+02 -0.16555695506E+02 -0.33141200924E+02  0.40659101106E+02  0.00000000000E+00 0.  1.
         11    1    3    3    0    0 -0.12098944758E+02  0.16311327957E+02  0.97050258915E+01  0.22508474222E+02  0.51100000000E-03 0. -1.
        -11    1    3    3    0    0  0.20039248079E+01 -0.29407843641E+01  0.11701233880E+00  0.35605644862E+01  0.51100000000E-03 0.  1.
         12    1    3    3    0    0 -0.66600464590E+01  0.31851519133E+01  0.23319162694E+02  0.24459860186E+02  0.00000000000E+00 0. -1.
</event>
<event>
 7    1  0.5006721E-012  0.5052894E+02  0.7816164E-02  0.1300439E+00
        -11   -1    0    0    0    0  0.00000000000E+00  0.00000000000E+00  0.45593999997E+02  0.45594000000E+02  0.51100000000E-03 0. -1.
         11   -1    0    0    0    0 -0.00000000000E+00 -0.00000000000E+00 -0.45593999997E+02  0.45594000000E+02  0.51100000000E-03 0.  1.
    9900012    2    1    2    0    0 -0.14322455887E+02  0.17126520460E+02 -0.33981007239E+02  0.50528938295E+02  0.30000238442E+02 0.  0.
         12    1    1    2    0    0  0.14322455887E+02 -0.17126520460E+02  0.33981007239E+02  0.40659061705E+02  0.00000000000E+00 0. -1.
         11    1    3    3    0    0 -0.59842404040E+00  0.83852397968E+01  0.23896277599E+01  0.87396040456E+01  0.51100000000E-03 0. -1.
        -11    1    3    3    0    0 -0.79236508034E+01 -0.10160740564E-01 -0.25387152056E+02  0.26594958828E+02  0.51100000000E-03 0.  1.
        -12    1    3    3    0    0 -0.58003810428E+01  0.87514414041E+01 -0.10983482944E+02  0.15194375422E+02  0.00000000000E+00 0.  1.
</event>
<event>
 7    1  0.5006721E-012  0.5052885E+02  0.7816164E-02  0.1300439E+00
        -11   -1    0    0    0    0  0.00000000000E+00  0.00000000000E+00  0.45593999997E+02  0.45594000000E+02  0.51100000000E-03 0. -1.
         11   -1    0    0    0    0 -0.00000000000E+00 -0.00000000000E+00 -0.45593999997E+02  0.45594000000E+02  0.51100000000E-03 0.  1.
    9900012    2    1    2    0    0  0.93229195790E+01 -0.36749635726E+02 -0.14687191538E+02  0.50528854033E+02  0.29999982320E+02 0.  0.
         12    1    1    2    0    0 -0.93229195790E+01  0.36749635726E+02  0.14687191538E+02  0.40659145967E+02  0.00000000000E+00 0. -1.
         11    1    3    3    0    0  0.22102422512E+00 -0.17839351836E+02  0.31727284541E+01  0.18120638282E+02  0.51100000000E-03 0. -1.
        -11    1    3    3    0    0  0.10949347671E+02 -0.54853060127E+01 -0.13372978346E+02  0.18133211149E+02  0.51100000000E-03 0.  1.
         12    1    3    3    0    0 -0.18474523170E+01 -0.13424977877E+02 -0.44869416460E+01  0.14275004602E+02  0.00000000000E+00 0. -1.
</event>
<event>
 7    1  0.5006721E-012  0.5052886E+02  0.7816164E-02  0.1300439E+00
        -11   -1    0    0    0    0  0.00000000000E+00  0.00000000000E+00  0.45593999997E+02  0.45594000000E+02  0.51100000000E-03 0. -1.
         11   -1    0    0    0    0 -0.00000000000E+00 -0.00000000000E+00 -0.45593999997E+02  0.45594000000E+02  0.51100000000E-03 0.  1.
    9900012    2    1    2    0    0 -0.43615353286E+01  0.12372815478E+02 -0.38484493133E+02  0.50528858777E+02  0.29999996738E+02 0.  0.
         12    1    1    2    0    0  0.43615353286E+01 -0.12372815478E+02  0.38484493133E+02  0.40659141223E+02  0.00000000000E+00 0. -1.
         11    1    3    3    0    0  0.43195703887E+01  0.17024718415E+02 -0.31411854070E+02  0.35988946940E+02  0.51100000000E-03 0. -1.
        -11    1    3    3    0    0 -0.48384509410E+01 -0.21708306702E+00  0.60024188912E+00  0.48803712105E+01  0.51100000000E-03 0.  1.
         12    1    3    3    0    0 -0.38426547764E+01 -0.44348198697E+01 -0.76728809520E+01  0.96595406262E+01  0.00000000000E+00 0. -1.
</event>
<event>
 7    1  0.5006721E-012  0.5052882E+02  0.7816164E-02  0.1300439E+00
        -11   -1    0    0    0    0  0.00000000000E+00  0.00000000000E+00  0.45593999997E+02  0.45594000000E+02  0.51100000000E-03 0.  1.
         11   -1    0    0    0    0 -0.00000000000E+00 -0.00000000000E+00 -0.45593999997E+02  0.45594000000E+02  0.51100000000E-03 0. -1.
    9900012    2    1    2    0    0  0.35279836367E+02  0.49211499697E+01  0.19603162443E+02  0.50528824543E+02  0.29999892679E+02 0.  0.
         12    1    1    2    0    0 -0.35279836367E+02 -0.49211499697E+01 -0.19603162443E+02  0.40659175457E+02  0.00000000000E+00 0. -1.
         11    1    3    3    0    0 -0.19844543956E+01  0.73533146251E+01 -0.11150607514E+01  0.76975746806E+01  0.51100000000E-03 0. -1.
        -11    1    3    3    0    0  0.30007715558E+02 -0.26257088001E+01  0.15387465335E+02  0.33825011891E+02  0.51100000000E-03 0.  1.
         12    1    3    3    0    0  0.72565752045E+01  0.19354414476E+00  0.53307578599E+01  0.90062379713E+01  0.00000000000E+00 0. -1.
</event>
<event>
 7    1  0.5006721E-012  0.5052886E+02  0.7816164E-02  0.1300439E+00
        -11   -1    0    0    0    0  0.00000000000E+00  0.00000000000E+00  0.45593999997E+02  0.45594000000E+02  0.51100000000E-03 0. -1.
         11   -1    0    0    0    0 -0.00000000000E+00 -0.00000000000E+00 -0.45593999997E+02  0.45594000000E+02  0.51100000000E-03 0.  1.
    9900012    2    1    2    0    0  0.11916880900E+02 -0.91965905422E+01 -0.37770047085E+02  0.50528858533E+02  0.29999995998E+02 0.  0.
         12    1    1    2    0    0 -0.11916880900E+02  0.91965905422E+01  0.37770047085E+02  0.40659141467E+02  0.00000000000E+00 0. -1.
         11    1    3    3    0    0  0.10309184138E+02  0.21923902216E+01 -0.11914159466E+02  0.15907012558E+02  0.51100000000E-03 0. -1.
        -11    1    3    3    0    0  0.32293456141E+01 -0.16583030298E+02 -0.22812534503E+02  0.28387273516E+02  0.51100000000E-03 0.  1.
        -12    1    3    3    0    0 -0.16216488518E+01  0.51940495344E+01 -0.30433531164E+01  0.62345724597E+01  0.00000000000E+00 0.  1.
</event>
<event>
 7    1  0.5006721E-012  0.5052885E+02  0.7816164E-02  0.1300439E+00
        -11   -1    0    0    0    0  0.00000000000E+00  0.00000000000E+00  0.45593999997E+02  0.45594000000E+02  0.51100000000E-03 0. -1.
         11   -1    0    0    0    0 -0.00000000000E+00 -0.00000000000E+00 -0.45593999997E+02  0.45594000000E+02  0.51100000000E-03 0.  1.
    9900012    2    1    2    0    0  0.99263966246E+01  0.92386628140E+01  0.38331189242E+02  0.50528852085E+02  0.29999976396E+02 0.  0.
        -12    1    1    2    0    0 -0.99263966246E+01 -0.92386628140E+01 -0.38331189242E+02  0.40659147915E+02  0.00000000000E+00 0.  1.
         11    1    3    3    0    0  0.74579002094E+01  0.17665085959E+01  0.73842347385E+01  0.10642732313E+02  0.51100000000E-03 0.  1.
        -11    1    3    3    0    0 -0.43541187124E+01  0.13456647483E+02  0.25878613083E+02  0.29491394111E+02  0.51100000000E-03 0. -1.
        -12    1    3    3    0    0  0.68226151277E+01 -0.59844932645E+01  0.50683414198E+01  0.10394725661E+02  0.00000000000E+00 0.  1.
</event>
<event>
 7    1  0.5006721E-012  0.5052885E+02  0.7816164E-02  0.1300439E+00
        -11   -1    0    0    0    0  0.00000000000E+00  0.00000000000E+00  0.45593999997E+02  0.45594000000E+02  0.51100000000E-03 0. -1.
         11   -1    0    0    0    0 -0.00000000000E+00 -0.00000000000E+00 -0.45593999997E+02  0.45594000000E+02  0.51100000000E-03 0.  1.
    9900012    2    1    2    0    0 -0.19954936389E+02 -0.14358601014E+02 -0.32385149046E+02  0.50528846195E+02  0.29999958495E+02 0.  0.
         12    1    1    2    0    0  0.19954936389E+02  0.14358601014E+02  0.32385149046E+02  0.40659153805E+02  0.00000000000E+00 0. -1.
         11    1    3    3    0    0 -0.87936762379E+01 -0.49437448396E+01 -0.58243691901E+01  0.11648718021E+02  0.51100000000E-03 0. -1.
        -11    1    3    3    0    0 -0.61705296923E+01 -0.97688703215E+01 -0.30433532363E+02  0.32553128212E+02  0.51100000000E-03 0.  1.
        -12    1    3    3    0    0 -0.49907304592E+01  0.35401414666E+00  0.38727525072E+01  0.63269999616E+01  0.00000000000E+00 0.  1.
</event>
<event>
 7    1  0.5006721E-012  0.5052874E+02  0.7816164E-02  0.1300439E+00
        -11   -1    0    0    0    0  0.00000000000E+00  0.00000000000E+00  0.45593999997E+02  0.45594000000E+02  0.51100000000E-03 0.  1.
         11   -1    0    0    0    0 -0.00000000000E+00 -0.00000000000E+00 -0.45593999997E+02  0.45594000000E+02  0.51100000000E-03 0. -1.
    9900012    2    1    2    0    0  0.14968309787E+02  0.32856277535E+02 -0.18697340223E+02  0.50528735339E+02  0.29999621535E+02 0.  0.
         12    1    1    2    0    0 -0.14968309787E+02 -0.32856277535E+02  0.18697340223E+02  0.40659264661E+02  0.00000000000E+00 0. -1.
         11    1    3    3    0    0  0.46584455033E+01  0.20106351183E+02  0.52432832277E-01  0.20639021824E+02  0.51100000000E-03 0.  1.
        -11    1    3    3    0    0  0.10878623051E+02  0.89552969627E+01 -0.21113183289E+02  0.25383228558E+02  0.51100000000E-03 0. -1.
         12    1    3    3    0    0 -0.56875876711E+00  0.37946293894E+01  0.23634102336E+01  0.45064849573E+01  0.00000000000E+00 0. -1.
</event>
<event>
 7    1  0.5006721E-012  0.5052884E+02  0.7816164E-02  0.1300439E+00
        -11   -1    0    0    0    0  0.00000000000E+00  0.00000000000E+00  0.45593999997E+02  0.45594000000E+02  0.51100000000E-03 0. -1.
         11   -1    0    0    0    0 -0.00000000000E+00 -0.00000000000E+00 -0.45593999997E+02  0.45594000000E+02  0.51100000000E-03 0.  1.
    9900012    2    1    2    0    0  0.15380385892E+02 -0.13592984422E+02 -0.35097603974E+02  0.50528839896E+02  0.29999939347E+02 0.  0.
         12    1    1    2    0    0 -0.15380385892E+02  0.13592984422E+02  0.35097603974E+02  0.40659160104E+02  0.00000000000E+00 0. -1.
         11    1    3    3    0    0 -0.19386170689E+01  0.22022529471E+01 -0.22465853279E+02  0.22656626360E+02  0.51100000000E-03 0. -1.
        -11    1    3    3    0    0  0.36222362064E+01 -0.83493961578E+01 -0.31791065552E+01  0.96405254050E+01  0.51100000000E-03 0.  1.
         12    1    3    3    0    0  0.13696766754E+02 -0.74458412117E+01 -0.94526441396E+01  0.18231688131E+02  0.00000000000E+00 0. -1.
</event>
<event>
 7    1  0.5006721E-012  0.5052888E+02  0.7816164E-02  0.1300439E+00
        -11   -1    0    0    0    0  0.00000000000E+00  0.00000000000E+00  0.45593999997E+02  0.45594000000E+02  0.51100000000E-03 0. -1.
         11   -1    0    0    0    0 -0.00000000000E+00 -0.00000000000E+00 -0.45593999997E+02  0.45594000000E+02  0.51100000000E-03 0.  1.
    9900012    2    1    2    0    0  0.17854349817E+02 -0.12568432260E+02 -0.34298986721E+02  0.50528883102E+02  0.30000070677E+02 0.  0.
         12    1    1    2    0    0 -0.17854349817E+02  0.12568432260E+02  0.34298986721E+02  0.40659116898E+02  0.00000000000E+00 0. -1.
         11    1    3    3    0    0  0.13120709155E+02 -0.18704328849E+02 -0.11077871537E+02  0.25391419111E+02  0.51100000000E-03 0. -1.
        -11    1    3    3    0    0  0.57931255589E+01  0.39796074156E+01 -0.14864637239E+02  0.16442476073E+02  0.51100000000E-03 0.  1.
         12    1    3    3    0    0 -0.10594848974E+01  0.21562891730E+01 -0.83564779448E+01  0.86949879177E+01  0.00000000000E+00 0. -1.
</event>
<event>
 7    1  0.5006721E-012  0.5052886E+02  0.7816164E-02  0.1300439E+00
        -11   -1    0    0    0    0  0.00000000000E+00  0.00000000000E+00  0.45593999997E+02  0.45594000000E+02  0.51100000000E-03 0. -1.
         11   -1    0    0    0    0 -0.00000000000E+00 -0.00000000000E+00 -0.45593999997E+02  0.45594000000E+02  0.51100000000E-03 0.  1.
    9900012    2    1    2    0    0 -0.20843360380E+02  0.58067855908E+01 -0.34423844961E+02  0.50528861633E+02  0.30000005420E+02 0.  0.
         12    1    1    2    0    0  0.20843360380E+02 -0.58067855908E+01  0.34423844961E+02  0.40659138367E+02  0.00000000000E+00 0. -1.
         11    1    3    3    0    0 -0.15993093316E+02  0.67453938428E+00 -0.79780256841E+01  0.17885271350E+02  0.51100000000E-03 0. -1.
        -11    1    3    3    0    0  0.29127470287E+01  0.37503717216E+01  0.30155262348E+00  0.47581842702E+01  0.51100000000E-03 0.  1.
        -12    1    3    3    0    0 -0.77630140929E+01  0.13818744849E+01 -0.26747371901E+02  0.27885406013E+02  0.00000000000E+00 0.  1.
</event>
<event>
 7    1  0.5006721E-012  0.5052885E+02  0.7816164E-02  0.1300439E+00
        -11   -1    0    0    0    0  0.00000000000E+00  0.00000000000E+00  0.45593999997E+02  0.45594000000E+02  0.51100000000E-03 0. -1.
         11   -1    0    0    0    0 -0.00000000000E+00 -0.00000000000E+00 -0.45593999997E+02  0.45594000000E+02  0.51100000000E-03 0.  1.
    9900012    2    1    2    0    0 -0.20345148268E+02  0.15311703409E+02 -0.31698467151E+02  0.50528854177E+02  0.29999982757E+02 0.  0.
         12    1    1    2    0    0  0.20345148268E+02 -0.15311703409E+02  0.31698467151E+02  0.40659145823E+02  0.00000000000E+00 0. -1.
         11    1    3    3    0    0  0.28306667623E+00  0.97338555905E+01 -0.24402761147E+01  0.10039074618E+02  0.51100000000E-03 0. -1.
        -11    1    3    3    0    0 -0.10656102425E+02  0.10309458730E+01 -0.17100737949E+01  0.10841573730E+02  0.51100000000E-03 0.  1.
        -12    1    3    3    0    0 -0.99721125188E+01  0.45469019452E+01 -0.27548117241E+02  0.29648205830E+02  0.00000000000E+00 0.  1.
</event>
<event>
 7    1  0.5006721E-012  0.5052886E+02  0.7816164E-02  0.1300439E+00
        -11   -1    0    0    0    0  0.00000000000E+00  0.00000000000E+00  0.45593999997E+02  0.45594000000E+02  0.51100000000E-03 0. -1.
         11   -1    0    0    0    0 -0.00000000000E+00 -0.00000000000E+00 -0.45593999997E+02  0.45594000000E+02  0.51100000000E-03 0.  1.
    9900012    2    1    2    0    0 -0.10840195714E+02 -0.15270054149E+02 -0.36089900799E+02  0.50528864047E+02  0.30000012756E+02 0.  0.
         12    1    1    2    0    0  0.10840195714E+02  0.15270054149E+02  0.36089900799E+02  0.40659135953E+02  0.00000000000E+00 0. -1.
         11    1    3    3    0    0  0.12093947273E+00 -0.44602015547E+01 -0.31421984509E+02  0.31737188518E+02  0.51100000000E-03 0. -1.
        -11    1    3    3    0    0 -0.96063879378E+01 -0.12512721776E+02 -0.50884564120E+01  0.16575381877E+02  0.51100000000E-03 0.  1.
         12    1    3    3    0    0 -0.13547472488E+01  0.17028691816E+01  0.42054012216E+00  0.22162936521E+01  0.00000000000E+00 0. -1.
</event>
<event>
 7    1  0.5006721E-012  0.5052886E+02  0.7816164E-02  0.1300439E+00
        -11   -1    0    0    0    0  0.00000000000E+00  0.00000000000E+00  0.45593999997E+02  0.45594000000E+02  0.51100000000E-03 0. -1.
         11   -1    0    0    0    0 -0.00000000000E+00 -0.00000000000E+00 -0.45593999997E+02  0.45594000000E+02  0.51100000000E-03 0.  1.
    9900012    2    1    2    0    0 -0.10543219953E+02  0.50119704156E+01 -0.38947224716E+02  0.50528860222E+02  0.30000001132E+02 0.  0.
         12    1    1    2    0    0  0.10543219953E+02 -0.50119704156E+01  0.38947224716E+02  0.40659139778E+02  0.00000000000E+00 0. -1.
         11    1    3    3    0    0 -0.83961528078E+01 -0.64177452516E+01 -0.25785490874E+01  0.10878039885E+02  0.51100000000E-03 0. -1.
        -11    1    3    3    0    0 -0.46854264955E+01  0.11061034512E+01 -0.15497686460E+02  0.16228215310E+02  0.51100000000E-03 0.  1.
         12    1    3    3    0    0  0.25383593506E+01  0.10323612216E+02 -0.20870989168E+02  0.23422605027E+02  0.00000000000E+00 0. -1.
</event>
<event>
 7    1  0.5006721E-012  0.5052888E+02  0.7816164E-02  0.1300439E+00
        -11   -1    0    0    0    0  0.00000000000E+00  0.00000000000E+00  0.45593999997E+02  0.45594000000E+02  0.51100000000E-03 0. -1.
         11   -1    0    0    0    0 -0.00000000000E+00 -0.00000000000E+00 -0.45593999997E+02  0.45594000000E+02  0.51100000000E-03 0.  1.
    9900012    2    1    2    0    0  0.34304367190E+02 -0.13259734769E+02  0.17336492268E+02  0.50528878778E+02  0.30000057532E+02 0.  0.
        -12    1    1    2    0    0 -0.34304367190E+02  0.13259734769E+02 -0.17336492268E+02  0.40659121222E+02  0.00000000000E+00 0.  1.
         11    1    3    3    0    0  0.73253912629E+01  0.30712307047E+01  0.16507362166E+02  0.18319028935E+02  0.51100000000E-03 0. -1.
        -11    1    3    3    0    0 -0.30440382587E+00 -0.57008076292E+00  0.25877321398E+00  0.69614481457E+00  0.51100000000E-03 0.  1.
         12    1    3    3    0    0  0.27283379753E+02 -0.15760884711E+02  0.57035688786E+00  0.31513705028E+02  0.00000000000E+00 0. -1.
</event>
<event>
 7    1  0.5006721E-012  0.5052886E+02  0.7816164E-02  0.1300439E+00
        -11   -1    0    0    0    0  0.00000000000E+00  0.00000000000E+00  0.45593999997E+02  0.45594000000E+02  0.51100000000E-03 0. -1.
         11   -1    0    0    0    0 -0.00000000000E+00 -0.00000000000E+00 -0.45593999997E+02  0.45594000000E+02  0.51100000000E-03 0.  1.
    9900012    2    1    2    0    0  0.34835247302E+02 -0.11818157951E+02 -0.17320579436E+02  0.50528858544E+02  0.29999996031E+02 0.  0.
         12    1    1    2    0    0 -0.34835247302E+02  0.11818157951E+02  0.17320579436E+02  0.40659141456E+02  0.00000000000E+00 0. -1.
         11    1    3    3    0    0 -0.87535384678E+00  0.42650173890E+01 -0.85533578011E+00  0.44371406607E+01  0.51100000000E-03 0.  1.
        -11    1    3    3    0    0  0.17426044665E+02 -0.12930554295E+02 -0.64596102513E+00  0.21709065686E+02  0.51100000000E-03 0. -1.
        -12    1    3    3    0    0  0.18284556484E+02 -0.31526210451E+01 -0.15819282630E+02  0.24382652198E+02  0.00000000000E+00 0.  1.
</event>
<event>
 7    1  0.5006721E-012  0.5052887E+02  0.7816164E-02  0.1300439E+00
        -11   -1    0    0    0    0  0.00000000000E+00  0.00000000000E+00  0.45593999997E+02  0.45594000000E+02  0.51100000000E-03 0. -1.
         11   -1    0    0    0    0 -0.00000000000E+00 -0.00000000000E+00 -0.45593999997E+02  0.45594000000E+02  0.51100000000E-03 0.  1.
    9900012    2    1    2    0    0  0.18072061865E+02 -0.17145825125E+02 -0.32133884263E+02  0.50528865022E+02  0.30000015722E+02 0.  0.
         12    1    1    2    0    0 -0.18072061865E+02  0.17145825125E+02  0.32133884263E+02  0.40659134978E+02  0.00000000000E+00 0. -1.
         11    1    3    3    0    0  0.42327464010E+01  0.22598990972E+01 -0.21387760468E+02  0.21919388316E+02  0.51100000000E-03 0.  1.
        -11    1    3    3    0    0  0.14464190124E+02 -0.11252387158E+02 -0.70362085951E+01  0.19630008771E+02  0.51100000000E-03 0. -1.
        -12    1    3    3    0    0 -0.62487465939E+00 -0.81533370639E+01 -0.37099152002E+01  0.89794679358E+01  0.00000000000E+00 0.  1.
</event>
<event>
 7    1  0.5006721E-012  0.5052886E+02  0.7816164E-02  0.1300439E+00
        -11   -1    0    0    0    0  0.00000000000E+00  0.00000000000E+00  0.45593999997E+02  0.45594000000E+02  0.51100000000E-03 0. -1.
         11   -1    0    0    0    0 -0.00000000000E+00 -0.00000000000E+00 -0.45593999997E+02  0.45594000000E+02  0.51100000000E-03 0.  1.
    9900012    2    1    2    0    0  0.10015615500E+02  0.10830997251E+02  0.37888551936E+02  0.50528862981E+02  0.30000009518E+02 0.  0.
        -12    1    1    2    0    0 -0.10015615500E+02 -0.10830997251E+02 -0.37888551936E+02  0.40659137019E+02  0.00000000000E+00 0.  1.
         11    1    3    3    0    0  0.14436570510E+02  0.85410166503E+01  0.40540039595E+02  0.43873207589E+02  0.51100000000E-03 0. -1.
        -11    1    3    3    0    0 -0.20198023541E+01  0.27381095351E+01 -0.57712460993E+00  0.34510749706E+01  0.51100000000E-03 0.  1.
         12    1    3    3    0    0 -0.24011526559E+01 -0.44812893416E+00 -0.20743630491E+01  0.32045804216E+01  0.00000000000E+00 0. -1.
</event>
<event>
 7    1  0.5006721E-012  0.5052886E+02  0.7816164E-02  0.1300439E+00
        -11   -1    0    0    0    0  0.00000000000E+00  0.00000000000E+00  0.45593999997E+02  0.45594000000E+02  0.51100000000E-03 0.  1.
         11   -1    0    0    0    0 -0.00000000000E+00 -0.00000000000E+00 -0.45593999997E+02  0.45594000000E+02  0.51100000000E-03 0. -1.
    9900012    2    1    2    0    0 -0.24393649881E+02 -0.24027871369E+01  0.32439819297E+02  0.50528863061E+02  0.30000009761E+02 0.  0.
        -12    1    1    2    0    0  0.24393649881E+02  0.24027871369E+01 -0.32439819297E+02  0.40659136939E+02  0.00000000000E+00 0.  1.
         11    1    3    3    0    0 -0.17740383553E+02 -0.58334260350E+01  0.34169370603E+02  0.38939645037E+02  0.51100000000E-03 0. -1.
        -11    1    3    3    0    0  0.38511391201E+00  0.43389206718E+01 -0.85061165902E+00  0.44382525589E+01  0.51100000000E-03 0.  1.
         12    1    3    3    0    0 -0.70383802399E+01 -0.90828177369E+00 -0.87893964706E+00  0.71509654653E+01  0.00000000000E+00 0. -1.
</event>
<event>
 7    1  0.5006721E-012  0.5052886E+02  0.7816164E-02  0.1300439E+00
        -11   -1    0    0    0    0  0.00000000000E+00  0.00000000000E+00  0.45593999997E+02  0.45594000000E+02  0.51100000000E-03 0. -1.
         11   -1    0    0    0    0 -0.00000000000E+00 -0.00000000000E+00 -0.45593999997E+02  0.45594000000E+02  0.51100000000E-03 0.  1.
    9900012    2    1    2    0    0 -0.48511067733E+01  0.16834767664E+01 -0.40333586132E+02  0.50528862020E+02  0.30000006597E+02 0.  0.
         12    1    1    2    0    0  0.48511067733E+01 -0.16834767664E+01  0.40333586132E+02  0.40659137980E+02  0.00000000000E+00 0. -1.
         11    1    3    3    0    0 -0.18134165012E+01 -0.11964050731E+02 -0.82065578026E+01  0.14621032130E+02  0.51100000000E-03 0. -1.
        -11    1    3    3    0    0 -0.37956136050E+01  0.81712957223E+01 -0.26624821524E+02  0.28107968227E+02  0.51100000000E-03 0.  1.
         12    1    3    3    0    0  0.75792333297E+00  0.54762317753E+01 -0.55022068058E+01  0.77998616635E+01  0.00000000000E+00 0. -1.
</event>
<event>
 7    1  0.5006721E-012  0.5052886E+02  0.7816164E-02  0.1300439E+00
        -11   -1    0    0    0    0  0.00000000000E+00  0.00000000000E+00  0.45593999997E+02  0.45594000000E+02  0.51100000000E-03 0. -1.
         11   -1    0    0    0    0 -0.00000000000E+00 -0.00000000000E+00 -0.45593999997E+02  0.45594000000E+02  0.51100000000E-03 0.  1.
    9900012    2    1    2    0    0 -0.10362226796E+02 -0.21293988649E+02  0.33050805217E+02  0.50528862992E+02  0.30000009550E+02 0.  0.
        -12    1    1    2    0    0  0.10362226796E+02  0.21293988649E+02 -0.33050805217E+02  0.40659137008E+02  0.00000000000E+00 0.  1.
         11    1    3    3    0    0  0.58511396355E+01  0.65468528959E+00  0.12675270268E+02  0.13975940916E+02  0.51100000000E-03 0. -1.
        -11    1    3    3    0    0 -0.13295557770E+02 -0.20004412213E+02  0.10763055969E+02  0.26320937264E+02  0.51100000000E-03 0.  1.
        -12    1    3    3    0    0 -0.29178086610E+01 -0.19442617252E+01  0.96124789808E+01  0.10231984812E+02  0.00000000000E+00 0.  1.
</event>
<event>
 7    1  0.5006721E-012  0.5052886E+02  0.7816164E-02  0.1300439E+00
        -11   -1    0    0    0    0  0.00000000000E+00  0.00000000000E+00  0.45593999997E+02  0.45594000000E+02  0.51100000000E-03 0. -1.
         11   -1    0    0    0    0 -0.00000000000E+00 -0.00000000000E+00 -0.45593999997E+02  0.45594000000E+02  0.51100000000E-03 0.  1.
    9900012    2    1    2    0    0 -0.44126209134E+01 -0.15606918394E+02  0.37284295257E+02  0.50528858372E+02  0.29999995508E+02 0.  0.
        -12    1    1    2    0    0  0.44126209134E+01  0.15606918394E+02 -0.37284295257E+02  0.40659141628E+02  0.00000000000E+00 0.  1.
         11    1    3    3    0    0 -0.25517388818E+01 -0.19032747904E+02  0.27301427986E+02  0.33378508571E+02  0.51100000000E-03 0. -1.
        -11    1    3    3    0    0 -0.16531784575E+01  0.12802055719E+01  0.13152217016E+02  0.13317384804E+02  0.51100000000E-03 0.  1.
         12    1    3    3    0    0 -0.20770357403E+00  0.21456239380E+01 -0.31693497450E+01  0.38329649965E+01  0.00000000000E+00 0. -1.
</event>
<event>
 7    1  0.5006721E-012  0.5052887E+02  0.7816164E-02  0.1300439E+00
        -11   -1    0    0    0    0  0.00000000000E+00  0.00000000000E+00  0.45593999997E+02  0.45594000000E+02  0.51100000000E-03 0.  1.
         11   -1    0    0    0    0 -0.00000000000E+00 -0.00000000000E+00 -0.45593999997E+02  0.45594000000E+02  0.51100000000E-03 0. -1.
    9900012    2    1    2    0    0  0.28047959664E+02  0.23133870617E+02  0.18201667893E+02  0.50528871564E+02  0.30000035607E+02 0.  0.
        -12    1    1    2    0    0 -0.28047959664E+02 -0.23133870617E+02 -0.18201667893E+02  0.40659128436E+02  0.00000000000E+00 0.  1.
         11    1    3    3    0    0  0.19831791022E+02  0.22275005970E+02 -0.54518166366E+00  0.29829063837E+02  0.51100000000E-03 0. -1.
        -11    1    3    3    0    0  0.71067058480E+01  0.94480539805E+00  0.17956864163E+02  0.19335120793E+02  0.51100000000E-03 0.  1.
         12    1    3    3    0    0  0.11094627943E+01 -0.85940751538E-01  0.78998539376E+00  0.13646869337E+01  0.00000000000E+00 0. -1.
</event>
<event>
 7    1  0.5006721E-012  0.5052885E+02  0.7816164E-02  0.1300439E+00
        -11   -1    0    0    0    0  0.00000000000E+00  0.00000000000E+00  0.45593999997E+02  0.45594000000E+02  0.51100000000E-03 0. -1.
         11   -1    0    0    0    0 -0.00000000000E+00 -0.00000000000E+00 -0.45593999997E+02  0.45594000000E+02  0.51100000000E-03 0.  1.
    9900012    2    1    2    0    0 -0.16029065324E+02 -0.78018548889E+01  0.36542668244E+02  0.50528850018E+02  0.29999970116E+02 0.  0.
        -12    1    1    2    0    0  0.16029065324E+02  0.78018548889E+01 -0.36542668244E+02  0.40659149982E+02  0.00000000000E+00 0.  1.
         11    1    3    3    0    0  0.64853295528E+01 -0.27031813724E+00  0.84323597746E+01  0.10641299870E+02  0.51100000000E-03 0. -1.
        -11    1    3    3    0    0 -0.15789709870E+02 -0.11752828580E+02  0.15807797525E+02  0.25245403151E+02  0.51100000000E-03 0.  1.
        -12    1    3    3    0    0 -0.67246850074E+01  0.42212918286E+01  0.12302510944E+02  0.14642146997E+02  0.00000000000E+00 0.  1.
</event>
<event>
 7    1  0.5006721E-012  0.5052884E+02  0.7816164E-02  0.1300439E+00
        -11   -1    0    0    0    0  0.00000000000E+00  0.00000000000E+00  0.45593999997E+02  0.45594000000E+02  0.51100000000E-03 0. -1.
         11   -1    0    0    0    0 -0.00000000000E+00 -0.00000000000E+00 -0.45593999997E+02  0.45594000000E+02  0.51100000000E-03 0.  1.
    9900012    2    1    2    0    0  0.30831751932E+02  0.21642983978E+01  0.26417539733E+02  0.50528837191E+02  0.29999931126E+02 0.  0.
        -12    1    1    2    0    0 -0.30831751932E+02 -0.21642983978E+01 -0.26417539733E+02  0.40659162809E+02  0.00000000000E+00 0.  1.
         11    1    3    3    0    0  0.85945003815E+01 -0.68536249739E+01  0.16541233917E+02  0.19860766145E+02  0.51100000000E-03 0. -1.
        -11    1    3    3    0    0  0.18018081540E+02  0.74584115907E+00  0.13875289569E+01  0.18086812275E+02  0.51100000000E-03 0.  1.
        -12    1    3    3    0    0  0.42191700111E+01  0.82720822126E+01  0.84887768588E+01  0.12581258771E+02  0.00000000000E+00 0.  1.
</event>
<event>
 7    1  0.5006721E-012  0.5052888E+02  0.7816164E-02  0.1300439E+00
        -11   -1    0    0    0    0  0.00000000000E+00  0.00000000000E+00  0.45593999997E+02  0.45594000000E+02  0.51100000000E-03 0. -1.
         11   -1    0    0    0    0 -0.00000000000E+00 -0.00000000000E+00 -0.45593999997E+02  0.45594000000E+02  0.51100000000E-03 0.  1.
    9900012    2    1    2    0    0  0.26671381437E+02 -0.69172068869E+01  0.29899063469E+02  0.50528876359E+02  0.30000050182E+02 0.  0.
        -12    1    1    2    0    0 -0.26671381437E+02  0.69172068869E+01 -0.29899063469E+02  0.40659123641E+02  0.00000000000E+00 0.  1.
         11    1    3    3    0    0  0.17360573000E+02 -0.10884859209E+02  0.15599270244E+02  0.25752803485E+02  0.51100000000E-03 0. -1.
        -11    1    3    3    0    0  0.74320207321E+01  0.76522038556E+01  0.16831268776E+02  0.19926935662E+02  0.51100000000E-03 0.  1.
        -12    1    3    3    0    0  0.18787877048E+01 -0.36845515334E+01 -0.25314755510E+01  0.48491372127E+01  0.00000000000E+00 0.  1.
</event>
<event>
 7    1  0.5006721E-012  0.5052885E+02  0.7816164E-02  0.1300439E+00
        -11   -1    0    0    0    0  0.00000000000E+00  0.00000000000E+00  0.45593999997E+02  0.45594000000E+02  0.51100000000E-03 0. -1.
         11   -1    0    0    0    0 -0.00000000000E+00 -0.00000000000E+00 -0.45593999997E+02  0.45594000000E+02  0.51100000000E-03 0.  1.
    9900012    2    1    2    0    0 -0.23210447687E+02  0.14471613046E+01 -0.33351871889E+02  0.50528849540E+02  0.29999968661E+02 0.  0.
         12    1    1    2    0    0  0.23210447687E+02 -0.14471613046E+01  0.33351871889E+02  0.40659150460E+02  0.00000000000E+00 0. -1.
         11    1    3    3    0    0  0.40067776400E+01 -0.38544123028E+00 -0.71467886229E+00  0.40882267715E+01  0.51100000000E-03 0. -1.
        -11    1    3    3    0    0 -0.19484930120E+02 -0.71412667913E+01 -0.17019710791E+02  0.26838978163E+02  0.51100000000E-03 0.  1.
        -12    1    3    3    0    0 -0.77322952063E+01  0.89738693262E+01 -0.15617482236E+02  0.19601644605E+02  0.00000000000E+00 0.  1.
</event>
<event>
 7    1  0.5006721E-012  0.5052886E+02  0.7816164E-02  0.1300439E+00
        -11   -1    0    0    0    0  0.00000000000E+00  0.00000000000E+00  0.45593999997E+02  0.45594000000E+02  0.51100000000E-03 0. -1.
         11   -1    0    0    0    0 -0.00000000000E+00 -0.00000000000E+00 -0.45593999997E+02  0.45594000000E+02  0.51100000000E-03 0.  1.
    9900012    2    1    2    0    0 -0.40163775747E+02 -0.10980263115E+01  0.62314689875E+01  0.50528858964E+02  0.29999997308E+02 0.  0.
        -12    1    1    2    0    0  0.40163775747E+02  0.10980263115E+01 -0.62314689875E+01  0.40659141036E+02  0.00000000000E+00 0.  1.
         11    1    3    3    0    0 -0.22081639442E+02 -0.34051690485E+01  0.15080480009E+02  0.26955794446E+02  0.51100000000E-03 0. -1.
        -11    1    3    3    0    0 -0.59737215370E+01 -0.48557091174E+01 -0.41179690444E+01  0.87304598588E+01  0.51100000000E-03 0.  1.
         12    1    3    3    0    0 -0.12108414768E+02  0.71628518544E+01 -0.47310419769E+01  0.14842604659E+02  0.00000000000E+00 0. -1.
</event>
<event>
 7    1  0.5058910E-012  0.5052884E+02  0.7816164E-02  0.1300439E+00
        -11   -1    0    0    0    0  0.00000000000E+00  0.00000000000E+00  0.45593999997E+02  0.45594000000E+02  0.51100000000E-03 0. -1.
         11   -1    0    0    0    0 -0.00000000000E+00 -0.00000000000E+00 -0.45593999997E+02  0.45594000000E+02  0.51100000000E-03 0.  1.
    9900012    2    1    2    0    0  0.21536685186E+02 -0.17492071364E+01  0.34442392065E+02  0.50528844751E+02  0.29999954106E+02 0.  0.
        -12    1    1    2    0    0 -0.21536685186E+02  0.17492071364E+01 -0.34442392065E+02  0.40659155249E+02  0.00000000000E+00 0.  1.
         11    1    3    3    0    0 -0.68165256778E+00  0.58142708025E+01 -0.89093320437E-01  0.58547701124E+01  0.51100000000E-03 0. -1.
        -11    1    3    3    0    0  0.12892056684E+02 -0.10668477725E+02  0.13651057324E+02  0.21595668752E+02  0.51100000000E-03 0.  1.
         12    1    3    3    0    0  0.93262810692E+01  0.31049997860E+01  0.20880428061E+02  0.23078405887E+02  0.00000000000E+00 0. -1.
</event>
<event>
 7    1  0.5006721E-012  0.5052884E+02  0.7816164E-02  0.1300439E+00
        -11   -1    0    0    0    0  0.00000000000E+00  0.00000000000E+00  0.45593999997E+02  0.45594000000E+02  0.51100000000E-03 0. -1.
         11   -1    0    0    0    0 -0.00000000000E+00 -0.00000000000E+00 -0.45593999997E+02  0.45594000000E+02  0.51100000000E-03 0.  1.
    9900012    2    1    2    0    0 -0.87129229480E+01  0.88753444710E+01  0.38710214350E+02  0.50528837923E+02  0.29999933351E+02 0.  0.
        -12    1    1    2    0    0  0.87129229480E+01 -0.88753444710E+01 -0.38710214350E+02  0.40659162077E+02  0.00000000000E+00 0.  1.
         11    1    3    3    0    0 -0.11919539398E+02  0.17449589866E+02  0.19350140033E+02  0.28652949683E+02  0.51100000000E-03 0. -1.
        -11    1    3    3    0    0 -0.95314762684E+00 -0.27465037054E+01  0.71944897914E+01  0.77596685897E+01  0.51100000000E-03 0.  1.
         12    1    3    3    0    0  0.41597640770E+01 -0.58277416900E+01  0.12165584525E+02  0.14116219651E+02  0.00000000000E+00 0. -1.
</event>
<event>
 7    1  0.5006721E-012  0.5052884E+02  0.7816164E-02  0.1300439E+00
        -11   -1    0    0    0    0  0.00000000000E+00  0.00000000000E+00  0.45593999997E+02  0.45594000000E+02  0.51100000000E-03 0. -1.
         11   -1    0    0    0    0 -0.00000000000E+00 -0.00000000000E+00 -0.45593999997E+02  0.45594000000E+02  0.51100000000E-03 0.  1.
    9900012    2    1    2    0    0 -0.18900564347E+02 -0.38695573769E+01 -0.35790537990E+02  0.50528838467E+02  0.29999935005E+02 0.  0.
         12    1    1    2    0    0  0.18900564347E+02  0.38695573769E+01  0.35790537990E+02  0.40659161533E+02  0.00000000000E+00 0. -1.
         11    1    3    3    0    0  0.21627662075E+01 -0.57806016253E+01  0.25960613971E+01  0.66957036865E+01  0.51100000000E-03 0. -1.
        -11    1    3    3    0    0 -0.19255123104E+02  0.15809526988E+01 -0.34819299108E+02  0.39820130184E+02  0.51100000000E-03 0.  1.
         12    1    3    3    0    0 -0.18082074505E+01  0.33009154952E+00 -0.35673002790E+01  0.40130045971E+01  0.00000000000E+00 0. -1.
</event>
<event>
 7    1  0.8079981E-012  0.5052886E+02  0.7816164E-02  0.1300439E+00
        -11   -1    0    0    0    0  0.00000000000E+00  0.00000000000E+00  0.45593999997E+02  0.45594000000E+02  0.51100000000E-03 0. -1.
         11   -1    0    0    0    0 -0.00000000000E+00 -0.00000000000E+00 -0.45593999997E+02  0.45594000000E+02  0.51100000000E-03 0.  1.
    9900012    2    1    2    0    0 -0.69647843411E+01 -0.19316966961E+02  0.35092903563E+02  0.50528864323E+02  0.30000013598E+02 0.  0.
        -12    1    1    2    0    0  0.69647843411E+01  0.19316966961E+02 -0.35092903563E+02  0.40659135677E+02  0.00000000000E+00 0.  1.
         11    1    3    3    0    0  0.17047661278E+01 -0.13301084055E+02  0.28619295882E+02  0.31605207824E+02  0.51100000000E-03 0. -1.
        -11    1    3    3    0    0  0.23616954772E+01  0.17380002940E+01 -0.14635879254E+01  0.32772458598E+01  0.51100000000E-03 0.  1.
         12    1    3    3    0    0 -0.11031245946E+02 -0.77538831995E+01  0.79371956067E+01  0.15646410639E+02  0.00000000000E+00 0. -1.
</event>
<event>
 7    1  0.5006721E-012  0.5052886E+02  0.7816164E-02  0.1300439E+00
        -11   -1    0    0    0    0  0.00000000000E+00  0.00000000000E+00  0.45593999997E+02  0.45594000000E+02  0.51100000000E-03 0. -1.
         11   -1    0    0    0    0 -0.00000000000E+00 -0.00000000000E+00 -0.45593999997E+02  0.45594000000E+02  0.51100000000E-03 0.  1.
    9900012    2    1    2    0    0 -0.24089233293E+02 -0.11899019132E+02  0.30517003421E+02  0.50528864313E+02  0.30000013567E+02 0.  0.
        -12    1    1    2    0    0  0.24089233293E+02  0.11899019132E+02 -0.30517003421E+02  0.40659135687E+02  0.00000000000E+00 0.  1.
         11    1    3    3    0    0 -0.11127599841E+02 -0.67518466336E+01 -0.96872179570E+00  0.13051794259E+02  0.51100000000E-03 0.  1.
        -11    1    3    3    0    0 -0.15469758712E+02 -0.67924428239E+01  0.23471813629E+02  0.28920178931E+02  0.51100000000E-03 0. -1.
         12    1    3    3    0    0  0.25081252595E+01  0.16452703254E+01  0.80139115881E+01  0.85568911237E+01  0.00000000000E+00 0. -1.
</event>
<event>
 7    1  0.5006721E-012  0.5052886E+02  0.7816164E-02  0.1300439E+00
        -11   -1    0    0    0    0  0.00000000000E+00  0.00000000000E+00  0.45593999997E+02  0.45594000000E+02  0.51100000000E-03 0. -1.
         11   -1    0    0    0    0 -0.00000000000E+00 -0.00000000000E+00 -0.45593999997E+02  0.45594000000E+02  0.51100000000E-03 0.  1.
    9900012    2    1    2    0    0  0.17098649799E+02 -0.37104551161E+01 -0.36701964359E+02  0.50528862160E+02  0.30000007020E+02 0.  0.
         12    1    1    2    0    0 -0.17098649799E+02  0.37104551161E+01  0.36701964359E+02  0.40659137840E+02  0.00000000000E+00 0. -1.
         11    1    3    3    0    0  0.51536614288E+00 -0.32763604867E+01 -0.35427312555E-02  0.33166478728E+01  0.51100000000E-03 0. -1.
        -11    1    3    3    0    0  0.19776232653E+02  0.38529754689E+01 -0.15696369742E+02  0.25540572062E+02  0.51100000000E-03 0.  1.
        -12    1    3    3    0    0 -0.31929489966E+01 -0.42870700984E+01 -0.21002051886E+02  0.21671642225E+02  0.00000000000E+00 0.  1.
</event>
<event>
 7    1  0.5006721E-012  0.5052886E+02  0.7816164E-02  0.1300439E+00
        -11   -1    0    0    0    0  0.00000000000E+00  0.00000000000E+00  0.45593999997E+02  0.45594000000E+02  0.51100000000E-03 0.  1.
         11   -1    0    0    0    0 -0.00000000000E+00 -0.00000000000E+00 -0.45593999997E+02  0.45594000000E+02  0.51100000000E-03 0. -1.
    9900012    2    1    2    0    0 -0.27045306529E+02  0.25280749048E+02 -0.16810724877E+02  0.50528863898E+02  0.30000012305E+02 0.  0.
         12    1    1    2    0    0  0.27045306529E+02 -0.25280749048E+02  0.16810724877E+02  0.40659136102E+02  0.00000000000E+00 0. -1.
         11    1    3    3    0    0 -0.38396904180E+00  0.11039799607E+02 -0.50657312235E+01  0.12152622790E+02  0.51100000000E-03 0. -1.
        -11    1    3    3    0    0 -0.36967633092E+01 -0.52417263615E+01 -0.23063183821E+01  0.68162202836E+01  0.51100000000E-03 0.  1.
        -12    1    3    3    0    0 -0.22964574177E+02  0.19482675803E+02 -0.94386752717E+01  0.31560020825E+02  0.00000000000E+00 0.  1.
</event>
<event>
 7    1  0.5006721E-012  0.5052886E+02  0.7816164E-02  0.1300439E+00
        -11   -1    0    0    0    0  0.00000000000E+00  0.00000000000E+00  0.45593999997E+02  0.45594000000E+02  0.51100000000E-03 0. -1.
         11   -1    0    0    0    0 -0.00000000000E+00 -0.00000000000E+00 -0.45593999997E+02  0.45594000000E+02  0.51100000000E-03 0.  1.
    9900012    2    1    2    0    0 -0.58711945015E+01  0.34814321680E+02  0.20165750140E+02  0.50528863295E+02  0.30000010471E+02 0.  0.
        -12    1    1    2    0    0  0.58711945015E+01 -0.34814321680E+02 -0.20165750140E+02  0.40659136705E+02  0.00000000000E+00 0.  1.
         11    1    3    3    0    0 -0.15933886145E+01  0.25153926501E+02  0.24623378171E+02  0.35235914328E+02  0.51100000000E-03 0. -1.
        -11    1    3    3    0    0 -0.35129937893E+01  0.67373513753E+00 -0.51242077237E+01  0.62492039057E+01  0.51100000000E-03 0.  1.
         12    1    3    3    0    0 -0.76481209770E+00  0.89866600411E+01  0.66657969219E+00  0.90437450608E+01  0.00000000000E+00 0. -1.
</event>
<event>
 7    1  0.5006721E-012  0.5052887E+02  0.7816164E-02  0.1300439E+00
        -11   -1    0    0    0    0  0.00000000000E+00  0.00000000000E+00  0.45593999997E+02  0.45594000000E+02  0.51100000000E-03 0. -1.
         11   -1    0    0    0    0 -0.00000000000E+00 -0.00000000000E+00 -0.45593999997E+02  0.45594000000E+02  0.51100000000E-03 0.  1.
    9900012    2    1    2    0    0 -0.39610133679E+02  0.76923266173E+01 -0.50030500469E+01  0.50528867094E+02  0.30000022020E+02 0.  0.
         12    1    1    2    0    0  0.39610133679E+02 -0.76923266173E+01  0.50030500469E+01  0.40659132906E+02  0.00000000000E+00 0. -1.
         11    1    3    3    0    0 -0.55774521984E+01 -0.65766252856E+01  0.24042297649E+00  0.86265738646E+01  0.51100000000E-03 0. -1.
        -11    1    3    3    0    0 -0.26587604772E+02  0.17103576644E+02 -0.93124418458E+01  0.32956860210E+02  0.51100000000E-03 0.  1.
        -12    1    3    3    0    0 -0.74450767088E+01 -0.28346247415E+01  0.40689688225E+01  0.89454330193E+01  0.00000000000E+00 0.  1.
</event>
<event>
 7    1  0.5006721E-012  0.5052887E+02  0.7816164E-02  0.1300439E+00
        -11   -1    0    0    0    0  0.00000000000E+00  0.00000000000E+00  0.45593999997E+02  0.45594000000E+02  0.51100000000E-03 0. -1.
         11   -1    0    0    0    0 -0.00000000000E+00 -0.00000000000E+00 -0.45593999997E+02  0.45594000000E+02  0.51100000000E-03 0.  1.
    9900012    2    1    2    0    0  0.49294397857E+01 -0.30694851503E+02  0.26204807173E+02  0.50528865671E+02  0.30000017694E+02 0.  0.
        -12    1    1    2    0    0 -0.49294397857E+01  0.30694851503E+02 -0.26204807173E+02  0.40659134329E+02  0.00000000000E+00 0.  1.
         11    1    3    3    0    0 -0.41242136518E+01 -0.17912663173E+02  0.50633970577E+01  0.19065954742E+02  0.51100000000E-03 0. -1.
        -11    1    3    3    0    0  0.18816850793E+00  0.27247000726E+01 -0.10933917216E+01  0.29419217513E+01  0.51100000000E-03 0.  1.
         12    1    3    3    0    0  0.88654849296E+01 -0.15506888402E+02  0.22234801837E+02  0.28520989178E+02  0.00000000000E+00 0. -1.
</event>
<event>
 7    1  0.5006721E-012  0.5052886E+02  0.7816164E-02  0.1300439E+00
        -11   -1    0    0    0    0  0.00000000000E+00  0.00000000000E+00  0.45593999997E+02  0.45594000000E+02  0.51100000000E-03 0. -1.
         11   -1    0    0    0    0 -0.00000000000E+00 -0.00000000000E+00 -0.45593999997E+02  0.45594000000E+02  0.51100000000E-03 0.  1.
    9900012    2    1    2    0    0 -0.29008965962E+02 -0.38156798226E+01  0.28232717593E+02  0.50528857592E+02  0.29999993136E+02 0.  0.
        -12    1    1    2    0    0  0.29008965962E+02  0.38156798226E+01 -0.28232717593E+02  0.40659142408E+02  0.00000000000E+00 0.  1.
         11    1    3    3    0    0  0.32098504697E+01 -0.20785638064E+01  0.34336835024E+01  0.51394309209E+01  0.51100000000E-03 0. -1.
        -11    1    3    3    0    0 -0.14135651080E+02  0.18082286830E+01 -0.29773532247E+00  0.14253945735E+02  0.51100000000E-03 0.  1.
        -12    1    3    3    0    0 -0.18083165351E+02 -0.35453446992E+01  0.25096769413E+02  0.31135480936E+02  0.00000000000E+00 0.  1.
</event>
<event>
 7    1  0.5006721E-012  0.5052885E+02  0.7816164E-02  0.1300439E+00
        -11   -1    0    0    0    0  0.00000000000E+00  0.00000000000E+00  0.45593999997E+02  0.45594000000E+02  0.51100000000E-03 0. -1.
         11   -1    0    0    0    0 -0.00000000000E+00 -0.00000000000E+00 -0.45593999997E+02  0.45594000000E+02  0.51100000000E-03 0.  1.
    9900012    2    1    2    0    0 -0.19331985661E+02  0.12883229574E+02  0.33368596535E+02  0.50528849633E+02  0.29999968945E+02 0.  0.
        -12    1    1    2    0    0  0.19331985661E+02 -0.12883229574E+02 -0.33368596535E+02  0.40659150367E+02  0.00000000000E+00 0.  1.
         11    1    3    3    0    0 -0.72437245642E+01  0.74145761380E+01 -0.23373158064E+01  0.10625936679E+02  0.51100000000E-03 0. -1.
        -11    1    3    3    0    0 -0.96832589080E+01 -0.18784612231E+01  0.23062642919E+02  0.25083453078E+02  0.51100000000E-03 0.  1.
        -12    1    3    3    0    0 -0.24050021889E+01  0.73471146592E+01  0.12643269422E+02  0.14819459877E+02  0.00000000000E+00 0.  1.
</event>
<event>
 7    1  0.5006721E-012  0.5052887E+02  0.7816164E-02  0.1300439E+00
        -11   -1    0    0    0    0  0.00000000000E+00  0.00000000000E+00  0.45593999997E+02  0.45594000000E+02  0.51100000000E-03 0. -1.
         11   -1    0    0    0    0 -0.00000000000E+00 -0.00000000000E+00 -0.45593999997E+02  0.45594000000E+02  0.51100000000E-03 0.  1.
    9900012    2    1    2    0    0  0.55177054745E+00  0.16170259847E+01 -0.40623218959E+02  0.50528866434E+02  0.30000020013E+02 0.  0.
         12    1    1    2    0    0 -0.55177054745E+00 -0.16170259847E+01  0.40623218959E+02  0.40659133566E+02  0.00000000000E+00 0. -1.
         11    1    3    3    0    0 -0.37322125061E+01  0.20638978893E+01 -0.58469977332E+00  0.43047600135E+01  0.51100000000E-03 0. -1.
        -11    1    3    3    0    0  0.19425393659E+01  0.77893601324E+00 -0.42536232044E+02  0.42587688799E+02  0.51100000000E-03 0.  1.
        -12    1    3    3    0    0  0.23414436876E+01 -0.12258079178E+01  0.24977128585E+01  0.36364176214E+01  0.00000000000E+00 0.  1.
</event>
<event>
 7    1  0.5006721E-012  0.5052886E+02  0.7816164E-02  0.1300439E+00
        -11   -1    0    0    0    0  0.00000000000E+00  0.00000000000E+00  0.45593999997E+02  0.45594000000E+02  0.51100000000E-03 0.  1.
         11   -1    0    0    0    0 -0.00000000000E+00 -0.00000000000E+00 -0.45593999997E+02  0.45594000000E+02  0.51100000000E-03 0. -1.
    9900012    2    1    2    0    0  0.43539199265E+01  0.39746403564E+02  0.73778376125E+01  0.50528859542E+02  0.29999999063E+02 0.  0.
        -12    1    1    2    0    0 -0.43539199265E+01 -0.39746403564E+02 -0.73778376125E+01  0.40659140458E+02  0.00000000000E+00 0.  1.
         11    1    3    3    0    0  0.14991010274E+01 -0.21441983416E+01 -0.28974363662E+01  0.39038478679E+01  0.51100000000E-03 0. -1.
        -11    1    3    3    0    0  0.59697230996E+01  0.28344517786E+02 -0.60615397024E+00  0.28972688956E+02  0.51100000000E-03 0.  1.
        -12    1    3    3    0    0 -0.31149042005E+01  0.13546084119E+02  0.10881427949E+02  0.17652322718E+02  0.00000000000E+00 0.  1.
</event>
<event>
 7    1  0.5006721E-012  0.5052885E+02  0.7816164E-02  0.1300439E+00
        -11   -1    0    0    0    0  0.00000000000E+00  0.00000000000E+00  0.45593999997E+02  0.45594000000E+02  0.51100000000E-03 0.  1.
         11   -1    0    0    0    0 -0.00000000000E+00 -0.00000000000E+00 -0.45593999997E+02  0.45594000000E+02  0.51100000000E-03 0. -1.
    9900012    2    1    2    0    0  0.28403623905E+02 -0.25362442461E+02  0.14252955719E+02  0.50528854838E+02  0.29999984766E+02 0.  0.
        -12    1    1    2    0    0 -0.28403623905E+02  0.25362442461E+02 -0.14252955719E+02  0.40659145162E+02  0.00000000000E+00 0.  1.
         11    1    3    3    0    0  0.51497311343E+00 -0.13294625841E+02  0.64020512439E+01  0.14764773413E+02  0.51100000000E-03 0. -1.
        -11    1    3    3    0    0  0.20913052963E+02 -0.79072176480E+01  0.13270546238E+02  0.25999755246E+02  0.51100000000E-03 0.  1.
        -12    1    3    3    0    0  0.69755978289E+01 -0.41605989727E+01 -0.54196417630E+01  0.97643261785E+01  0.00000000000E+00 0.  1.
</event>
<event>
 7    1  0.5006721E-012  0.5052887E+02  0.7816164E-02  0.1300439E+00
        -11   -1    0    0    0    0  0.00000000000E+00  0.00000000000E+00  0.45593999997E+02  0.45594000000E+02  0.51100000000E-03 0. -1.
         11   -1    0    0    0    0 -0.00000000000E+00 -0.00000000000E+00 -0.45593999997E+02  0.45594000000E+02  0.51100000000E-03 0.  1.
    9900012    2    1    2    0    0 -0.31031626571E+02 -0.19991416887E+02 -0.17045421453E+02  0.50528868317E+02  0.30000025735E+02 0.  0.
         12    1    1    2    0    0  0.31031626571E+02  0.19991416887E+02  0.17045421453E+02  0.40659131683E+02  0.00000000000E+00 0. -1.
         11    1    3    3    0    0 -0.22428256639E+02 -0.13961834599E+02 -0.67279975002E+01  0.27262161908E+02  0.51100000000E-03 0. -1.
        -11    1    3    3    0    0 -0.19261642006E+01 -0.17219117601E+01 -0.14192709430E+02  0.14425951957E+02  0.51100000000E-03 0.  1.
        -12    1    3    3    0    0 -0.66772057305E+01 -0.43076705276E+01  0.38752854779E+01  0.88407544518E+01  0.00000000000E+00 0.  1.
</event>
<event>
 7    1  0.5006721E-012  0.5052885E+02  0.7816164E-02  0.1300439E+00
        -11   -1    0    0    0    0  0.00000000000E+00  0.00000000000E+00  0.45593999997E+02  0.45594000000E+02  0.51100000000E-03 0. -1.
         11   -1    0    0    0    0 -0.00000000000E+00 -0.00000000000E+00 -0.45593999997E+02  0.45594000000E+02  0.51100000000E-03 0.  1.
    9900012    2    1    2    0    0 -0.76619047012E+01  0.21608231453E+02 -0.33578950625E+02  0.50528851273E+02  0.29999973928E+02 0.  0.
         12    1    1    2    0    0  0.76619047012E+01 -0.21608231453E+02  0.33578950625E+02  0.40659148727E+02  0.00000000000E+00 0. -1.
         11    1    3    3    0    0 -0.15867417700E+02  0.20078653932E+02 -0.15473450633E+02  0.29905768055E+02  0.51100000000E-03 0. -1.
        -11    1    3    3    0    0  0.87889427261E+01  0.75041418686E+00 -0.15393856910E+02  0.17742025435E+02  0.51100000000E-03 0.  1.
        -12    1    3    3    0    0 -0.58342972727E+00  0.77916333372E+00 -0.27116430815E+01  0.28810577830E+01  0.00000000000E+00 0.  1.
</event>
<event>
 7    1  0.5006721E-012  0.5052899E+02  0.7816164E-02  0.1300438E+00
        -11   -1    0    0    0    0  0.00000000000E+00  0.00000000000E+00  0.45593999997E+02  0.45594000000E+02  0.51100000000E-03 0. -1.
         11   -1    0    0    0    0 -0.00000000000E+00 -0.00000000000E+00 -0.45593999997E+02  0.45594000000E+02  0.51100000000E-03 0.  1.
    9900012    2    1    2    0    0 -0.27538533270E+01 -0.32978649542E+02 -0.23621603472E+02  0.50528988892E+02  0.30000392232E+02 0.  0.
         12    1    1    2    0    0  0.27538533270E+01  0.32978649542E+02  0.23621603472E+02  0.40659011108E+02  0.00000000000E+00 0. -1.
         11    1    3    3    0    0 -0.12040598858E+01 -0.22262989293E+02  0.10905219488E+01  0.22322179348E+02  0.51100000000E-03 0. -1.
        -11    1    3    3    0    0 -0.38220404538E+01 -0.52949710749E+01 -0.18662596623E+02  0.19772132532E+02  0.51100000000E-03 0.  1.
         12    1    3    3    0    0  0.22722470126E+01 -0.54206891740E+01 -0.60495287979E+01  0.84346770113E+01  0.00000000000E+00 0. -1.
</event>
<event>
 7    1  0.5006721E-012  0.5052886E+02  0.7816164E-02  0.1300439E+00
        -11   -1    0    0    0    0  0.00000000000E+00  0.00000000000E+00  0.45593999997E+02  0.45594000000E+02  0.51100000000E-03 0. -1.
         11   -1    0    0    0    0 -0.00000000000E+00 -0.00000000000E+00 -0.45593999997E+02  0.45594000000E+02  0.51100000000E-03 0.  1.
    9900012    2    1    2    0    0 -0.54535849718E+01  0.12399279995E+02  0.38336431475E+02  0.50528859433E+02  0.29999998731E+02 0.  0.
        -12    1    1    2    0    0  0.54535849718E+01 -0.12399279995E+02 -0.38336431475E+02  0.40659140567E+02  0.00000000000E+00 0.  1.
         11    1    3    3    0    0  0.29437056027E+01 -0.71292545506E+01  0.20723767294E+02  0.22112580226E+02  0.51100000000E-03 0. -1.
        -11    1    3    3    0    0 -0.11867784153E+01  0.99164410926E+01  0.10315712888E+02  0.14358209484E+02  0.51100000000E-03 0.  1.
         12    1    3    3    0    0 -0.72105121592E+01  0.96120934526E+01  0.72969512934E+01  0.14058069722E+02  0.00000000000E+00 0. -1.
</event>
<event>
 7    1  0.5006721E-012  0.5052886E+02  0.7816164E-02  0.1300439E+00
        -11   -1    0    0    0    0  0.00000000000E+00  0.00000000000E+00  0.45593999997E+02  0.45594000000E+02  0.51100000000E-03 0. -1.
         11   -1    0    0    0    0 -0.00000000000E+00 -0.00000000000E+00 -0.45593999997E+02  0.45594000000E+02  0.51100000000E-03 0.  1.
    9900012    2    1    2    0    0  0.11130571564E+01 -0.15986957182E+02 -0.37367689927E+02  0.50528856543E+02  0.29999989947E+02 0.  0.
         12    1    1    2    0    0 -0.11130571564E+01  0.15986957182E+02  0.37367689927E+02  0.40659143457E+02  0.00000000000E+00 0. -1.
         11    1    3    3    0    0  0.41005806129E+01  0.12121900330E+01 -0.71806004967E+01  0.83573434651E+01  0.51100000000E-03 0. -1.
        -11    1    3    3    0    0 -0.12731015386E+02 -0.63765496881E+01 -0.10536516816E+02  0.17713196368E+02  0.51100000000E-03 0.  1.
        -12    1    3    3    0    0  0.97434919293E+01 -0.10822597527E+02 -0.19650572615E+02  0.24458316710E+02  0.00000000000E+00 0.  1.
</event>
<event>
 7    1  0.5006721E-012  0.5052884E+02  0.7816164E-02  0.1300439E+00
        -11   -1    0    0    0    0  0.00000000000E+00  0.00000000000E+00  0.45593999997E+02  0.45594000000E+02  0.51100000000E-03 0. -1.
         11   -1    0    0    0    0 -0.00000000000E+00 -0.00000000000E+00 -0.45593999997E+02  0.45594000000E+02  0.51100000000E-03 0.  1.
    9900012    2    1    2    0    0  0.24140312565E+02 -0.32243578681E+02  0.55465251782E+01  0.50528843609E+02  0.29999950633E+02 0.  0.
        -12    1    1    2    0    0 -0.24140312565E+02  0.32243578681E+02 -0.55465251782E+01  0.40659156391E+02  0.00000000000E+00 0.  1.
         11    1    3    3    0    0  0.15772266341E+02 -0.11943293653E+02  0.15048073602E+02  0.24856612162E+02  0.51100000000E-03 0. -1.
        -11    1    3    3    0    0  0.49701726290E+01 -0.15647947220E+02 -0.25038253824E+01  0.16608130839E+02  0.51100000000E-03 0.  1.
         12    1    3    3    0    0  0.33978735951E+01 -0.46523378077E+01 -0.69977230415E+01  0.90641006068E+01  0.00000000000E+00 0. -1.
</event>
<event>
 7    1  0.5006721E-012  0.5052885E+02  0.7816164E-02  0.1300439E+00
        -11   -1    0    0    0    0  0.00000000000E+00  0.00000000000E+00  0.45593999997E+02  0.45594000000E+02  0.51100000000E-03 0. -1.
         11   -1    0    0    0    0 -0.00000000000E+00 -0.00000000000E+00 -0.45593999997E+02  0.45594000000E+02  0.51100000000E-03 0.  1.
    9900012    2    1    2    0    0 -0.13334262105E+02 -0.14738089159E+02  0.35470446236E+02  0.50528851287E+02  0.29999973970E+02 0.  0.
        -12    1    1    2    0    0  0.13334262105E+02  0.14738089159E+02 -0.35470446236E+02  0.40659148713E+02  0.00000000000E+00 0.  1.
         11    1    3    3    0    0  0.13837325926E+01  0.14386310028E+01  0.96624078586E+01  0.98664330402E+01  0.51100000000E-03 0. -1.
        -11    1    3    3    0    0 -0.12232298388E+02 -0.29900059912E+01  0.12205031666E+01  0.12651438176E+02  0.51100000000E-03 0.  1.
        -12    1    3    3    0    0 -0.24856963092E+01 -0.13186714171E+02  0.24587535211E+02  0.28010980070E+02  0.00000000000E+00 0.  1.
</event>
<event>
 7    1  0.5006721E-012  0.5052885E+02  0.7816164E-02  0.1300439E+00
        -11   -1    0    0    0    0  0.00000000000E+00  0.00000000000E+00  0.45593999997E+02  0.45594000000E+02  0.51100000000E-03 0. -1.
         11   -1    0    0    0    0 -0.00000000000E+00 -0.00000000000E+00 -0.45593999997E+02  0.45594000000E+02  0.51100000000E-03 0.  1.
    9900012    2    1    2    0    0  0.43445075265E+01  0.11931787118E+02 -0.38625434600E+02  0.50528849892E+02  0.29999969732E+02 0.  0.
         12    1    1    2    0    0 -0.43445075265E+01 -0.11931787118E+02  0.38625434600E+02  0.40659150108E+02  0.00000000000E+00 0. -1.
         11    1    3    3    0    0 -0.37400971852E+00 -0.34911177296E+01  0.32693736034E+01  0.47975608689E+01  0.51100000000E-03 0. -1.
        -11    1    3    3    0    0  0.58830543636E+01  0.70800360503E+01 -0.28084485515E+02  0.29554620046E+02  0.51100000000E-03 0.  1.
         12    1    3    3    0    0 -0.11645371186E+01  0.83428687969E+01 -0.13810322688E+02  0.16176668978E+02  0.00000000000E+00 0. -1.
</event>
<event>
 7    1  0.7684546E-012  0.5052881E+02  0.7816164E-02  0.1300439E+00
        -11   -1    0    0    0    0  0.00000000000E+00  0.00000000000E+00  0.45593999997E+02  0.45594000000E+02  0.51100000000E-03 0. -1.
         11   -1    0    0    0    0 -0.00000000000E+00 -0.00000000000E+00 -0.45593999997E+02  0.45594000000E+02  0.51100000000E-03 0.  1.
    9900012    2    1    2    0    0  0.23631787896E+02 -0.16969674027E+02  0.28403143862E+02  0.50528808948E+02  0.29999845279E+02 0.  0.
        -12    1    1    2    0    0 -0.23631787896E+02  0.16969674027E+02 -0.28403143862E+02  0.40659191052E+02  0.00000000000E+00 0.  1.
         11    1    3    3    0    0  0.24957485954E+02 -0.17273212647E+02  0.26689396540E+02  0.40417370872E+02  0.51100000000E-03 0. -1.
        -11    1    3    3    0    0  0.15743919648E+01  0.19471935562E+01 -0.32681418699E+01  0.41171621716E+01  0.51100000000E-03 0.  1.
         12    1    3    3    0    0 -0.29000900235E+01 -0.16436549358E+01  0.49818891926E+01  0.59942759045E+01  0.00000000000E+00 0. -1.
</event>
<event>
 7    1  0.5006721E-012  0.5052886E+02  0.7816164E-02  0.1300439E+00
        -11   -1    0    0    0    0  0.00000000000E+00  0.00000000000E+00  0.45593999997E+02  0.45594000000E+02  0.51100000000E-03 0. -1.
         11   -1    0    0    0    0 -0.00000000000E+00 -0.00000000000E+00 -0.45593999997E+02  0.45594000000E+02  0.51100000000E-03 0.  1.
    9900012    2    1    2    0    0  0.20561136421E+02  0.25640605692E+02  0.23936675625E+02  0.50528862882E+02  0.30000009217E+02 0.  0.
        -12    1    1    2    0    0 -0.20561136421E+02 -0.25640605692E+02 -0.23936675625E+02  0.40659137118E+02  0.00000000000E+00 0.  1.
         11    1    3    3    0    0  0.20806925896E+02  0.17833648534E+02  0.11922655575E+02  0.29885061511E+02  0.51100000000E-03 0. -1.
        -11    1    3    3    0    0 -0.65285389773E+01  0.18178013827E+01  0.13782222673E+01  0.69156142117E+01  0.51100000000E-03 0.  1.
         12    1    3    3    0    0  0.62827495021E+01  0.59891557751E+01  0.10635797783E+02  0.13728187160E+02  0.00000000000E+00 0. -1.
</event>
<event>
 7    1  0.5006721E-012  0.5052886E+02  0.7816164E-02  0.1300439E+00
        -11   -1    0    0    0    0  0.00000000000E+00  0.00000000000E+00  0.45593999997E+02  0.45594000000E+02  0.51100000000E-03 0. -1.
         11   -1    0    0    0    0 -0.00000000000E+00 -0.00000000000E+00 -0.45593999997E+02  0.45594000000E+02  0.51100000000E-03 0.  1.
    9900012    2    1    2    0    0 -0.55237160650E+01 -0.16195199673E+01 -0.40249609173E+02  0.50528864216E+02  0.30000013271E+02 0.  0.
         12    1    1    2    0    0  0.55237160650E+01  0.16195199673E+01  0.40249609173E+02  0.40659135784E+02  0.00000000000E+00 0. -1.
         11    1    3    3    0    0  0.40274282831E+01 -0.80532394137E+00 -0.40792062984E+01  0.57886656072E+01  0.51100000000E-03 0. -1.
        -11    1    3    3    0    0 -0.11429211830E+02 -0.10886041370E+02 -0.25152698581E+02  0.29694966340E+02  0.51100000000E-03 0.  1.
        -12    1    3    3    0    0  0.18780674823E+01  0.10071845344E+02 -0.11017704294E+02  0.15045232269E+02  0.00000000000E+00 0.  1.
</event>
<event>
 7    1  0.5006721E-012  0.5052886E+02  0.7816164E-02  0.1300439E+00
        -11   -1    0    0    0    0  0.00000000000E+00  0.00000000000E+00  0.45593999997E+02  0.45594000000E+02  0.51100000000E-03 0. -1.
         11   -1    0    0    0    0 -0.00000000000E+00 -0.00000000000E+00 -0.45593999997E+02  0.45594000000E+02  0.51100000000E-03 0.  1.
    9900012    2    1    2    0    0 -0.29407300090E+02 -0.17807979776E+02 -0.21708336399E+02  0.50528864354E+02  0.30000013690E+02 0.  0.
         12    1    1    2    0    0  0.29407300090E+02  0.17807979776E+02  0.21708336399E+02  0.40659135646E+02  0.00000000000E+00 0. -1.
         11    1    3    3    0    0 -0.21247661395E+02  0.41364202554E+01 -0.90688925992E+01  0.23469510019E+02  0.51100000000E-03 0. -1.
        -11    1    3    3    0    0 -0.39775403954E+01 -0.15834291596E+02 -0.70555802328E+01  0.17785579288E+02  0.51100000000E-03 0.  1.
         12    1    3    3    0    0 -0.41820982994E+01 -0.61101084355E+01 -0.55838635666E+01  0.92737750464E+01  0.00000000000E+00 0. -1.
</event>
<event>
 7    1  0.5006721E-012  0.5052889E+02  0.7816164E-02  0.1300439E+00
        -11   -1    0    0    0    0  0.00000000000E+00  0.00000000000E+00  0.45593999997E+02  0.45594000000E+02  0.51100000000E-03 0. -1.
         11   -1    0    0    0    0 -0.00000000000E+00 -0.00000000000E+00 -0.45593999997E+02  0.45594000000E+02  0.51100000000E-03 0.  1.
    9900012    2    1    2    0    0 -0.23538572961E+02  0.14124681352E+02 -0.29993204799E+02  0.50528888174E+02  0.30000086094E+02 0.  0.
         12    1    1    2    0    0  0.23538572961E+02 -0.14124681352E+02  0.29993204799E+02  0.40659111826E+02  0.00000000000E+00 0. -1.
         11    1    3    3    0    0 -0.10224827397E+02  0.98770875458E+01  0.20105428058E+01  0.14357793574E+02  0.51100000000E-03 0. -1.
        -11    1    3    3    0    0 -0.11844219996E+02 -0.40637007310E+00 -0.20578373944E+02  0.23747003146E+02  0.51100000000E-03 0.  1.
         12    1    3    3    0    0 -0.14695255684E+01  0.46539638795E+01 -0.11425373660E+02  0.12424091454E+02  0.00000000000E+00 0. -1.
</event>
<event>
 7    1  0.5006721E-012  0.5052886E+02  0.7816164E-02  0.1300439E+00
        -11   -1    0    0    0    0  0.00000000000E+00  0.00000000000E+00  0.45593999997E+02  0.45594000000E+02  0.51100000000E-03 0. -1.
         11   -1    0    0    0    0 -0.00000000000E+00 -0.00000000000E+00 -0.45593999997E+02  0.45594000000E+02  0.51100000000E-03 0.  1.
    9900012    2    1    2    0    0 -0.36281834895E+02 -0.17692221184E+00  0.18351103509E+02  0.50528857796E+02  0.29999993756E+02 0.  0.
        -12    1    1    2    0    0  0.36281834895E+02  0.17692221184E+00 -0.18351103509E+02  0.40659142204E+02  0.00000000000E+00 0.  1.
         11    1    3    3    0    0 -0.66286297250E+01 -0.76085447010E+01  0.49549194795E+01  0.11241882040E+02  0.51100000000E-03 0. -1.
        -11    1    3    3    0    0 -0.14633510534E+02  0.91944470636E+01  0.16449258302E+02  0.23859077649E+02  0.51100000000E-03 0.  1.
        -12    1    3    3    0    0 -0.15019694636E+02 -0.17628245745E+01 -0.30530742727E+01  0.15427898106E+02  0.00000000000E+00 0.  1.
</event>
<event>
 7    1  0.5006721E-012  0.5052885E+02  0.7816164E-02  0.1300439E+00
        -11   -1    0    0    0    0  0.00000000000E+00  0.00000000000E+00  0.45593999997E+02  0.45594000000E+02  0.51100000000E-03 0. -1.
         11   -1    0    0    0    0 -0.00000000000E+00 -0.00000000000E+00 -0.45593999997E+02  0.45594000000E+02  0.51100000000E-03 0.  1.
    9900012    2    1    2    0    0 -0.39140674582E+02 -0.43528554405E+01  0.10110717632E+02  0.50528851359E+02  0.29999974191E+02 0.  0.
        -12    1    1    2    0    0  0.39140674582E+02  0.43528554405E+01 -0.10110717632E+02  0.40659148641E+02  0.00000000000E+00 0.  1.
         11    1    3    3    0    0 -0.12806959638E+02  0.50938674200E+01 -0.42173622842E+01  0.14413599320E+02  0.51100000000E-03 0. -1.
        -11    1    3    3    0    0 -0.16662913545E+02 -0.13370000665E+02  0.14247192804E+02  0.25678631362E+02  0.51100000000E-03 0.  1.
        -12    1    3    3    0    0 -0.96708013993E+01  0.39232778042E+01  0.80887111623E-01  0.10436620677E+02  0.00000000000E+00 0.  1.
</event>
<event>
 7    1  0.5006721E-012  0.5052887E+02  0.7816164E-02  0.1300439E+00
        -11   -1    0    0    0    0  0.00000000000E+00  0.00000000000E+00  0.45593999997E+02  0.45594000000E+02  0.51100000000E-03 0. -1.
         11   -1    0    0    0    0 -0.00000000000E+00 -0.00000000000E+00 -0.45593999997E+02  0.45594000000E+02  0.51100000000E-03 0.  1.
    9900012    2    1    2    0    0  0.13434304182E+02 -0.82131915505E+01 -0.37486369182E+02  0.50528869183E+02  0.30000028370E+02 0.  0.
         12    1    1    2    0    0 -0.13434304182E+02  0.82131915505E+01  0.37486369182E+02  0.40659130817E+02  0.00000000000E+00 0. -1.
         11    1    3    3    0    0 -0.80397146330E+00  0.51256132198E+01 -0.14160552482E+02  0.15081098364E+02  0.51100000000E-03 0. -1.
        -11    1    3    3    0    0  0.63132513573E+01 -0.12860125517E+02 -0.23481541079E+02  0.27506776305E+02  0.51100000000E-03 0.  1.
        -12    1    3    3    0    0  0.79250242883E+01 -0.47867925355E+00  0.15572437872E+00  0.79409945146E+01  0.00000000000E+00 0.  1.
</event>
<event>
 7    1  0.5006721E-012  0.5052885E+02  0.7816164E-02  0.1300439E+00
        -11   -1    0    0    0    0  0.00000000000E+00  0.00000000000E+00  0.45593999997E+02  0.45594000000E+02  0.51100000000E-03 0. -1.
         11   -1    0    0    0    0 -0.00000000000E+00 -0.00000000000E+00 -0.45593999997E+02  0.45594000000E+02  0.51100000000E-03 0.  1.
    9900012    2    1    2    0    0 -0.54853046387E+01  0.17939602305E+02  0.36072819155E+02  0.50528853678E+02  0.29999981240E+02 0.  0.
        -12    1    1    2    0    0  0.54853046387E+01 -0.17939602305E+02 -0.36072819155E+02  0.40659146322E+02  0.00000000000E+00 0.  1.
         11    1    3    3    0    0 -0.20982138890E+01 -0.17001038279E+01  0.49822965350E+01  0.56671098078E+01  0.51100000000E-03 0. -1.
        -11    1    3    3    0    0 -0.52479427650E+01  0.17534998284E+02  0.54921961385E+01  0.19109717077E+02  0.51100000000E-03 0.  1.
        -12    1    3    3    0    0  0.18608520153E+01  0.21047078498E+01  0.25598326481E+02  0.25752026794E+02  0.00000000000E+00 0.  1.
</event>
<event>
 7    1  0.5006721E-012  0.5052885E+02  0.7816164E-02  0.1300439E+00
        -11   -1    0    0    0    0  0.00000000000E+00  0.00000000000E+00  0.45593999997E+02  0.45594000000E+02  0.51100000000E-03 0. -1.
         11   -1    0    0    0    0 -0.00000000000E+00 -0.00000000000E+00 -0.45593999997E+02  0.45594000000E+02  0.51100000000E-03 0.  1.
    9900012    2    1    2    0    0  0.27904644783E+01  0.20602167643E+02 -0.34941820456E+02  0.50528845799E+02  0.29999957291E+02 0.  0.
         12    1    1    2    0    0 -0.27904644783E+01 -0.20602167643E+02  0.34941820456E+02  0.40659154201E+02  0.00000000000E+00 0. -1.
         11    1    3    3    0    0  0.62237506133E+01  0.39822287628E+01 -0.15761853864E+02  0.17407735496E+02  0.51100000000E-03 0. -1.
        -11    1    3    3    0    0  0.51667362691E+01  0.54991715326E+01  0.19021549546E+01  0.77816608094E+01  0.51100000000E-03 0.  1.
        -12    1    3    3    0    0 -0.86000224041E+01  0.11120767347E+02 -0.21082121546E+02  0.25339449494E+02  0.00000000000E+00 0.  1.
</event>
<event>
 7    1  0.5006721E-012  0.5052886E+02  0.7816164E-02  0.1300439E+00
        -11   -1    0    0    0    0  0.00000000000E+00  0.00000000000E+00  0.45593999997E+02  0.45594000000E+02  0.51100000000E-03 0.  1.
         11   -1    0    0    0    0 -0.00000000000E+00 -0.00000000000E+00 -0.45593999997E+02  0.45594000000E+02  0.51100000000E-03 0. -1.
    9900012    2    1    2    0    0  0.32409248580E+02 -0.24540012286E+02  0.77067610181E+00  0.50528861566E+02  0.30000005217E+02 0.  0.
         12    1    1    2    0    0 -0.32409248580E+02  0.24540012286E+02 -0.77067610181E+00  0.40659138434E+02  0.00000000000E+00 0. -1.
         11    1    3    3    0    0  0.25898518899E+02 -0.11836872051E+02 -0.42925792015E+01  0.28797066822E+02  0.51100000000E-03 0.  1.
        -11    1    3    3    0    0  0.50040233501E+01 -0.10943920473E+02 -0.37616981460E+01  0.12607934732E+02  0.51100000000E-03 0. -1.
         12    1    3    3    0    0  0.15067063311E+01 -0.17592197629E+01  0.88249534493E+01  0.91238600124E+01  0.00000000000E+00 0. -1.
</event>
<event>
 7    1  0.5006721E-012  0.5052884E+02  0.7816164E-02  0.1300439E+00
        -11   -1    0    0    0    0  0.00000000000E+00  0.00000000000E+00  0.45593999997E+02  0.45594000000E+02  0.51100000000E-03 0. -1.
         11   -1    0    0    0    0 -0.00000000000E+00 -0.00000000000E+00 -0.45593999997E+02  0.45594000000E+02  0.51100000000E-03 0.  1.
    9900012    2    1    2    0    0 -0.28463057553E+02  0.78248581783E+01  0.27960570204E+02  0.50528836987E+02  0.29999930506E+02 0.  0.
        -12    1    1    2    0    0  0.28463057553E+02 -0.78248581783E+01 -0.27960570204E+02  0.40659163013E+02  0.00000000000E+00 0.  1.
         11    1    3    3    0    0 -0.71456446359E+01 -0.20682879719E+01  0.14240010902E+02  0.16065987774E+02  0.51100000000E-03 0. -1.
        -11    1    3    3    0    0 -0.13423591481E+02 -0.41225082346E+00 -0.25277209428E+01  0.13665728390E+02  0.51100000000E-03 0.  1.
        -12    1    3    3    0    0 -0.78938214357E+01  0.10305396974E+02  0.16248280244E+02  0.20797120823E+02  0.00000000000E+00 0.  1.
</event>
<event>
 7    1  0.5006721E-012  0.5052884E+02  0.7816164E-02  0.1300439E+00
        -11   -1    0    0    0    0  0.00000000000E+00  0.00000000000E+00  0.45593999997E+02  0.45594000000E+02  0.51100000000E-03 0. -1.
         11   -1    0    0    0    0 -0.00000000000E+00 -0.00000000000E+00 -0.45593999997E+02  0.45594000000E+02  0.51100000000E-03 0.  1.
    9900012    2    1    2    0    0  0.12745325865E+01  0.27243298468E+02  0.30155354157E+02  0.50528842003E+02  0.29999945752E+02 0.  0.
        -12    1    1    2    0    0 -0.12745325865E+01 -0.27243298468E+02 -0.30155354157E+02  0.40659157997E+02  0.00000000000E+00 0.  1.
         11    1    3    3    0    0 -0.48736804623E+01  0.21015673569E+01  0.17574787691E+02  0.18358717528E+02  0.51100000000E-03 0. -1.
        -11    1    3    3    0    0  0.50131039575E+01  0.26238337223E+02  0.88852947399E+01  0.28151909605E+02  0.51100000000E-03 0.  1.
        -12    1    3    3    0    0  0.11351090913E+01 -0.10966061127E+01  0.36952717257E+01  0.40182148700E+01  0.00000000000E+00 0.  1.
</event>
<event>
 7    1  0.5006721E-012  0.5052885E+02  0.7816164E-02  0.1300439E+00
        -11   -1    0    0    0    0  0.00000000000E+00  0.00000000000E+00  0.45593999997E+02  0.45594000000E+02  0.51100000000E-03 0. -1.
         11   -1    0    0    0    0 -0.00000000000E+00 -0.00000000000E+00 -0.45593999997E+02  0.45594000000E+02  0.51100000000E-03 0.  1.
    9900012    2    1    2    0    0  0.14146393387E+01  0.33464818340E+02  0.23049312759E+02  0.50528854785E+02  0.29999984604E+02 0.  0.
        -12    1    1    2    0    0 -0.14146393387E+01 -0.33464818340E+02 -0.23049312759E+02  0.40659145215E+02  0.00000000000E+00 0.  1.
         11    1    3    3    0    0 -0.20863178819E+01 -0.47261539230E+01  0.19853490925E+01  0.55345157411E+01  0.51100000000E-03 0. -1.
        -11    1    3    3    0    0  0.67231093595E+01  0.30072234627E+02  0.14429949005E+02  0.34025915469E+02  0.51100000000E-03 0.  1.
        -12    1    3    3    0    0 -0.32221521389E+01  0.81187376353E+01  0.66340146613E+01  0.10968423575E+02  0.00000000000E+00 0.  1.
</event>
<event>
 7    1  0.5006721E-012  0.5052886E+02  0.7816164E-02  0.1300439E+00
        -11   -1    0    0    0    0  0.00000000000E+00  0.00000000000E+00  0.45593999997E+02  0.45594000000E+02  0.51100000000E-03 0.  1.
         11   -1    0    0    0    0 -0.00000000000E+00 -0.00000000000E+00 -0.45593999997E+02  0.45594000000E+02  0.51100000000E-03 0. -1.
    9900012    2    1    2    0    0 -0.39379244382E+02 -0.83026199136E+01 -0.57885816933E+01  0.50528855106E+02  0.29999985580E+02 0.  0.
         12    1    1    2    0    0  0.39379244382E+02  0.83026199136E+01  0.57885816933E+01  0.40659144894E+02  0.00000000000E+00 0. -1.
         11    1    3    3    0    0 -0.13277814998E+02 -0.10202507110E+02  0.81458159560E+01  0.18621112756E+02  0.51100000000E-03 0. -1.
        -11    1    3    3    0    0 -0.15117617811E+02  0.13926940346E+01 -0.14182245615E+01  0.15247731835E+02  0.51100000000E-03 0.  1.
         12    1    3    3    0    0 -0.10983811573E+02  0.50719316164E+00 -0.12516173088E+02  0.16660010514E+02  0.00000000000E+00 0. -1.
</event>
<event>
 7    1  0.5006721E-012  0.5052886E+02  0.7816164E-02  0.1300439E+00
        -11   -1    0    0    0    0  0.00000000000E+00  0.00000000000E+00  0.45593999997E+02  0.45594000000E+02  0.51100000000E-03 0. -1.
         11   -1    0    0    0    0 -0.00000000000E+00 -0.00000000000E+00 -0.45593999997E+02  0.45594000000E+02  0.51100000000E-03 0.  1.
    9900012    2    1    2    0    0  0.36210775515E+02  0.51476324897E+01  0.17760824459E+02  0.50528864875E+02  0.30000015274E+02 0.  0.
        -12    1    1    2    0    0 -0.36210775515E+02 -0.51476324897E+01 -0.17760824459E+02  0.40659135125E+02  0.00000000000E+00 0.  1.
         11    1    3    3    0    0  0.18067624890E+02  0.14637963926E+02  0.54517156865E+01  0.23883681903E+02  0.51100000000E-03 0. -1.
        -11    1    3    3    0    0  0.12572403542E+02 -0.89130810185E+01  0.28798362551E+01  0.15678067521E+02  0.51100000000E-03 0.  1.
        -12    1    3    3    0    0  0.55707470837E+01 -0.57725041786E+00  0.94292725174E+01  0.10967115451E+02  0.00000000000E+00 0.  1.
</event>
<event>
 7    1  0.5006721E-012  0.5052883E+02  0.7816164E-02  0.1300439E+00
        -11   -1    0    0    0    0  0.00000000000E+00  0.00000000000E+00  0.45593999997E+02  0.45594000000E+02  0.51100000000E-03 0. -1.
         11   -1    0    0    0    0 -0.00000000000E+00 -0.00000000000E+00 -0.45593999997E+02  0.45594000000E+02  0.51100000000E-03 0.  1.
    9900012    2    1    2    0    0 -0.20919411877E+02 -0.11790696601E+02 -0.32810446242E+02  0.50528834954E+02  0.29999924326E+02 0.  0.
         12    1    1    2    0    0  0.20919411877E+02  0.11790696601E+02  0.32810446242E+02  0.40659165046E+02  0.00000000000E+00 0. -1.
         11    1    3    3    0    0 -0.58802226817E+01 -0.15933832035E+02 -0.18113642247E+02  0.24830788506E+02  0.51100000000E-03 0. -1.
        -11    1    3    3    0    0 -0.15931712469E+01  0.55304756142E+01 -0.97150263915E+01  0.11291859598E+02  0.51100000000E-03 0.  1.
         12    1    3    3    0    0 -0.13446017949E+02 -0.13873401805E+01 -0.49817776036E+01  0.14406186850E+02  0.00000000000E+00 0. -1.
</event>
<event>
 7    1  0.5006721E-012  0.5052887E+02  0.7816164E-02  0.1300439E+00
        -11   -1    0    0    0    0  0.00000000000E+00  0.00000000000E+00  0.45593999997E+02  0.45594000000E+02  0.51100000000E-03 0. -1.
         11   -1    0    0    0    0 -0.00000000000E+00 -0.00000000000E+00 -0.45593999997E+02  0.45594000000E+02  0.51100000000E-03 0.  1.
    9900012    2    1    2    0    0  0.14316668552E+02 -0.17272297445E+02 -0.33909667659E+02  0.50528870420E+02  0.30000032128E+02 0.  0.
         12    1    1    2    0    0 -0.14316668552E+02  0.17272297445E+02  0.33909667659E+02  0.40659129580E+02  0.00000000000E+00 0. -1.
         11    1    3    3    0    0  0.40487945183E+01  0.40645032713E+01  0.18312316165E+01  0.60221535507E+01  0.51100000000E-03 0. -1.
        -11    1    3    3    0    0  0.12517557134E+02 -0.14857324506E+02 -0.28871573727E+02  0.34799383584E+02  0.51100000000E-03 0.  1.
         12    1    3    3    0    0 -0.22496831006E+01 -0.64794762102E+01 -0.68693255490E+01  0.97073332852E+01  0.00000000000E+00 0. -1.
</event>
<event>
 7    1  0.5006721E-012  0.5052887E+02  0.7816164E-02  0.1300439E+00
        -11   -1    0    0    0    0  0.00000000000E+00  0.00000000000E+00  0.45593999997E+02  0.45594000000E+02  0.51100000000E-03 0. -1.
         11   -1    0    0    0    0 -0.00000000000E+00 -0.00000000000E+00 -0.45593999997E+02  0.45594000000E+02  0.51100000000E-03 0.  1.
    9900012    2    1    2    0    0 -0.35181322046E+02  0.13956848996E+02 -0.14854153534E+02  0.50528869021E+02  0.30000027875E+02 0.  0.
         12    1    1    2    0    0  0.35181322046E+02 -0.13956848996E+02  0.14854153534E+02  0.40659130979E+02  0.00000000000E+00 0. -1.
         11    1    3    3    0    0 -0.15930098273E+02 -0.61873986491E+00 -0.18766462115E+02  0.24623788713E+02  0.51100000000E-03 0. -1.
        -11    1    3    3    0    0 -0.15373674638E+02  0.14439973971E+02  0.11137030488E+01  0.21121151836E+02  0.51100000000E-03 0.  1.
         12    1    3    3    0    0 -0.38775491354E+01  0.13561488981E+00  0.27986055325E+01  0.47839284717E+01  0.00000000000E+00 0. -1.
</event>
<event>
 7    1  0.5006721E-012  0.5052886E+02  0.7816164E-02  0.1300439E+00
        -11   -1    0    0    0    0  0.00000000000E+00  0.00000000000E+00  0.45593999997E+02  0.45594000000E+02  0.51100000000E-03 0. -1.
         11   -1    0    0    0    0 -0.00000000000E+00 -0.00000000000E+00 -0.45593999997E+02  0.45594000000E+02  0.51100000000E-03 0.  1.
    9900012    2    1    2    0    0 -0.15575178188E+02  0.11352740372E+02  0.35800767134E+02  0.50528858138E+02  0.29999994798E+02 0.  0.
        -12    1    1    2    0    0  0.15575178188E+02 -0.11352740372E+02 -0.35800767134E+02  0.40659141862E+02  0.00000000000E+00 0.  1.
         11    1    3    3    0    0 -0.13314423472E+02  0.13672500317E+02  0.16855268733E+02  0.25461956359E+02  0.51100000000E-03 0. -1.
        -11    1    3    3    0    0 -0.33538976671E+01  0.30921688246E+00  0.21180902216E+02  0.21447024586E+02  0.51100000000E-03 0.  1.
        -12    1    3    3    0    0  0.10931429508E+01 -0.26289768276E+01 -0.22354038159E+01  0.36198771928E+01  0.00000000000E+00 0.  1.
</event>
<event>
 7    1  0.5006721E-012  0.5052886E+02  0.7816164E-02  0.1300439E+00
        -11   -1    0    0    0    0  0.00000000000E+00  0.00000000000E+00  0.45593999997E+02  0.45594000000E+02  0.51100000000E-03 0. -1.
         11   -1    0    0    0    0 -0.00000000000E+00 -0.00000000000E+00 -0.45593999997E+02  0.45594000000E+02  0.51100000000E-03 0.  1.
    9900012    2    1    2    0    0  0.12013164333E+02  0.37881884761E+02  0.85914002683E+01  0.50528862419E+02  0.30000007808E+02 0.  0.
        -12    1    1    2    0    0 -0.12013164333E+02 -0.37881884761E+02 -0.85914002683E+01  0.40659137581E+02  0.00000000000E+00 0.  1.
         11    1    3    3    0    0  0.81077583764E+01  0.23292134345E+02  0.13610231115E+02  0.28169090499E+02  0.51100000000E-03 0. -1.
        -11    1    3    3    0    0  0.51206117976E+01  0.12836095931E-02 -0.57537333823E+01  0.77023447680E+01  0.51100000000E-03 0.  1.
        -12    1    3    3    0    0 -0.12152058415E+01  0.14588466806E+02  0.73490253513E+00  0.14657427152E+02  0.00000000000E+00 0.  1.
</event>
<event>
 7    1  0.5006721E-012  0.5052886E+02  0.7816164E-02  0.1300439E+00
        -11   -1    0    0    0    0  0.00000000000E+00  0.00000000000E+00  0.45593999997E+02  0.45594000000E+02  0.51100000000E-03 0. -1.
         11   -1    0    0    0    0 -0.00000000000E+00 -0.00000000000E+00 -0.45593999997E+02  0.45594000000E+02  0.51100000000E-03 0.  1.
    9900012    2    1    2    0    0 -0.31525464884E+01 -0.14263258138E+02 -0.37944517496E+02  0.50528862158E+02  0.30000007015E+02 0.  0.
         12    1    1    2    0    0  0.31525464884E+01  0.14263258138E+02  0.37944517496E+02  0.40659137842E+02  0.00000000000E+00 0. -1.
         11    1    3    3    0    0  0.27657711466E+01 -0.11321093345E+02 -0.10806669439E+02  0.15893418424E+02  0.51100000000E-03 0. -1.
        -11    1    3    3    0    0 -0.12571462108E+02 -0.38099164789E+01 -0.23698746539E+02  0.27095898415E+02  0.51100000000E-03 0.  1.
         12    1    3    3    0    0  0.66531444732E+01  0.86775168597E+00 -0.34391015174E+01  0.75395453190E+01  0.00000000000E+00 0. -1.
</event>
<event>
 7    1  0.5006721E-012  0.5052888E+02  0.7816164E-02  0.1300439E+00
        -11   -1    0    0    0    0  0.00000000000E+00  0.00000000000E+00  0.45593999997E+02  0.45594000000E+02  0.51100000000E-03 0. -1.
         11   -1    0    0    0    0 -0.00000000000E+00 -0.00000000000E+00 -0.45593999997E+02  0.45594000000E+02  0.51100000000E-03 0.  1.
    9900012    2    1    2    0    0  0.23750733026E+02  0.16662866325E+02  0.28485350814E+02  0.50528884854E+02  0.30000076002E+02 0.  0.
        -12    1    1    2    0    0 -0.23750733026E+02 -0.16662866325E+02 -0.28485350814E+02  0.40659115146E+02  0.00000000000E+00 0.  1.
         11    1    3    3    0    0  0.26683283329E+01  0.17304630507E+02  0.56588128230E+01  0.18400879759E+02  0.51100000000E-03 0.  1.
        -11    1    3    3    0    0  0.21747238933E+02 -0.63801936605E+00  0.21229226223E+02  0.30397853809E+02  0.51100000000E-03 0. -1.
        -12    1    3    3    0    0 -0.66483423938E+00 -0.37448151926E-02  0.15973117676E+01  0.17301512860E+01  0.00000000000E+00 0.  1.
</event>
<event>
 7    1  0.5006721E-012  0.5052885E+02  0.7816164E-02  0.1300439E+00
        -11   -1    0    0    0    0  0.00000000000E+00  0.00000000000E+00  0.45593999997E+02  0.45594000000E+02  0.51100000000E-03 0. -1.
         11   -1    0    0    0    0 -0.00000000000E+00 -0.00000000000E+00 -0.45593999997E+02  0.45594000000E+02  0.51100000000E-03 0.  1.
    9900012    2    1    2    0    0 -0.34240215779E+02  0.10262132901E+02 -0.19376851619E+02  0.50528854327E+02  0.29999983212E+02 0.  0.
         12    1    1    2    0    0  0.34240215779E+02 -0.10262132901E+02  0.19376851619E+02  0.40659145673E+02  0.00000000000E+00 0. -1.
         11    1    3    3    0    0 -0.95947903967E+01 -0.86013970861E+00 -0.63981013429E+00  0.96544912007E+01  0.51100000000E-03 0. -1.
        -11    1    3    3    0    0 -0.50736854814E+01  0.14491506143E+02 -0.32604083438E+01  0.15696378483E+02  0.51100000000E-03 0.  1.
        -12    1    3    3    0    0 -0.19571739900E+02 -0.33692335334E+01 -0.15476633140E+02  0.25177984643E+02  0.00000000000E+00 0.  1.
</event>
<event>
 7    1  0.5006721E-012  0.5052886E+02  0.7816164E-02  0.1300439E+00
        -11   -1    0    0    0    0  0.00000000000E+00  0.00000000000E+00  0.45593999997E+02  0.45594000000E+02  0.51100000000E-03 0. -1.
         11   -1    0    0    0    0 -0.00000000000E+00 -0.00000000000E+00 -0.45593999997E+02  0.45594000000E+02  0.51100000000E-03 0.  1.
    9900012    2    1    2    0    0  0.95710533552E+01 -0.12654576192E+02  0.37435573717E+02  0.50528861538E+02  0.30000005130E+02 0.  0.
        -12    1    1    2    0    0 -0.95710533552E+01  0.12654576192E+02 -0.37435573717E+02  0.40659138462E+02  0.00000000000E+00 0.  1.
         11    1    3    3    0    0  0.14766488788E+02 -0.10384517888E+02  0.20102685247E+02  0.27018611313E+02  0.51100000000E-03 0. -1.
        -11    1    3    3    0    0 -0.73117085134E+01  0.23666822048E+01  0.16688226746E+02  0.18372783627E+02  0.51100000000E-03 0.  1.
        -12    1    3    3    0    0  0.21162730805E+01 -0.46367405086E+01  0.64466172468E+00  0.51374665970E+01  0.00000000000E+00 0.  1.
</event>
<event>
 7    1  0.5104816E-012  0.5052884E+02  0.7816164E-02  0.1300439E+00
        -11   -1    0    0    0    0  0.00000000000E+00  0.00000000000E+00  0.45593999997E+02  0.45594000000E+02  0.51100000000E-03 0. -1.
         11   -1    0    0    0    0 -0.00000000000E+00 -0.00000000000E+00 -0.45593999997E+02  0.45594000000E+02  0.51100000000E-03 0.  1.
    9900012    2    1    2    0    0 -0.14226044247E+02  0.11775375626E+02  0.36223297502E+02  0.50528842507E+02  0.29999947285E+02 0.  0.
        -12    1    1    2    0    0  0.14226044247E+02 -0.11775375626E+02 -0.36223297502E+02  0.40659157493E+02  0.00000000000E+00 0.  1.
         11    1    3    3    0    0 -0.32748886479E+01  0.17911809660E+02  0.23724395415E+02  0.29906600593E+02  0.51100000000E-03 0. -1.
        -11    1    3    3    0    0 -0.27403266374E+01 -0.68654015022E+01  0.90536507196E+01  0.11688101620E+02  0.51100000000E-03 0.  1.
         12    1    3    3    0    0 -0.82108289621E+01  0.72896746866E+00  0.34452513674E+01  0.89341402944E+01  0.00000000000E+00 0. -1.
</event>
<event>
 7    1  0.5006721E-012  0.5052886E+02  0.7816164E-02  0.1300439E+00
        -11   -1    0    0    0    0  0.00000000000E+00  0.00000000000E+00  0.45593999997E+02  0.45594000000E+02  0.51100000000E-03 0. -1.
         11   -1    0    0    0    0 -0.00000000000E+00 -0.00000000000E+00 -0.45593999997E+02  0.45594000000E+02  0.51100000000E-03 0.  1.
    9900012    2    1    2    0    0 -0.17282183361E+02  0.22395908509E+02 -0.29204711427E+02  0.50528858971E+02  0.29999997329E+02 0.  0.
         12    1    1    2    0    0  0.17282183361E+02 -0.22395908509E+02  0.29204711427E+02  0.40659141029E+02  0.00000000000E+00 0. -1.
         11    1    3    3    0    0 -0.14426823773E+02  0.17921882171E+01 -0.20559439737E+02  0.25180066428E+02  0.51100000000E-03 0. -1.
        -11    1    3    3    0    0  0.32929357509E+01  0.94909653927E+01 -0.10930012709E+00  0.10046581345E+02  0.51100000000E-03 0.  1.
         12    1    3    3    0    0 -0.61482953380E+01  0.11112754899E+02 -0.85359715633E+01  0.15302211198E+02  0.00000000000E+00 0. -1.
</event>
<event>
 7    1  0.5006721E-012  0.5052885E+02  0.7816164E-02  0.1300439E+00
        -11   -1    0    0    0    0  0.00000000000E+00  0.00000000000E+00  0.45593999997E+02  0.45594000000E+02  0.51100000000E-03 0. -1.
         11   -1    0    0    0    0 -0.00000000000E+00 -0.00000000000E+00 -0.45593999997E+02  0.45594000000E+02  0.51100000000E-03 0.  1.
    9900012    2    1    2    0    0 -0.28606326803E+02 -0.18718913237E+00  0.28893066128E+02  0.50528852897E+02  0.29999978864E+02 0.  0.
        -12    1    1    2    0    0  0.28606326803E+02  0.18718913237E+00 -0.28893066128E+02  0.40659147103E+02  0.00000000000E+00 0.  1.
         11    1    3    3    0    0 -0.53940099032E+01  0.75239268960E+01 -0.24730940604E+01  0.95823281756E+01  0.51100000000E-03 0.  1.
        -11    1    3    3    0    0 -0.19827704689E+02 -0.69682675069E+01  0.31013104238E+02  0.37463412284E+02  0.51100000000E-03 0. -1.
        -12    1    3    3    0    0 -0.33846122105E+01 -0.74284852144E+00  0.35305595074E+00  0.34831124366E+01  0.00000000000E+00 0.  1.
</event>
<event>
 7    1  0.5006721E-012  0.5052886E+02  0.7816164E-02  0.1300439E+00
        -11   -1    0    0    0    0  0.00000000000E+00  0.00000000000E+00  0.45593999997E+02  0.45594000000E+02  0.51100000000E-03 0. -1.
         11   -1    0    0    0    0 -0.00000000000E+00 -0.00000000000E+00 -0.45593999997E+02  0.45594000000E+02  0.51100000000E-03 0.  1.
    9900012    2    1    2    0    0 -0.13364638523E+02  0.16241786745E+02  0.34795922701E+02  0.50528862821E+02  0.30000009030E+02 0.  0.
        -12    1    1    2    0    0  0.13364638523E+02 -0.16241786745E+02 -0.34795922701E+02  0.40659137179E+02  0.00000000000E+00 0.  1.
         11    1    3    3    0    0 -0.15182540521E+01  0.42377675608E+01  0.27537647299E+02  0.27903150150E+02  0.51100000000E-03 0. -1.
        -11    1    3    3    0    0 -0.95618534280E+01  0.30311850515E+01  0.86714687630E+01  0.13259392692E+02  0.51100000000E-03 0.  1.
         12    1    3    3    0    0 -0.22845310433E+01  0.89728341332E+01 -0.14131933611E+01  0.93663199788E+01  0.00000000000E+00 0. -1.
</event>
<event>
 7    1  0.5006721E-012  0.5052887E+02  0.7816164E-02  0.1300439E+00
        -11   -1    0    0    0    0  0.00000000000E+00  0.00000000000E+00  0.45593999997E+02  0.45594000000E+02  0.51100000000E-03 0.  1.
         11   -1    0    0    0    0 -0.00000000000E+00 -0.00000000000E+00 -0.45593999997E+02  0.45594000000E+02  0.51100000000E-03 0. -1.
    9900012    2    1    2    0    0 -0.28539632409E+02  0.20057170529E+02 -0.20889330184E+02  0.50528870358E+02  0.30000031941E+02 0.  0.
         12    1    1    2    0    0  0.28539632409E+02 -0.20057170529E+02  0.20889330184E+02  0.40659129642E+02  0.00000000000E+00 0. -1.
         11    1    3    3    0    0  0.16302445044E+01  0.95287228223E+01 -0.30129788695E+01  0.10125823310E+02  0.51100000000E-03 0. -1.
        -11    1    3    3    0    0 -0.12119121203E+02 -0.18571892392E+01 -0.13204059733E+02  0.18018586079E+02  0.51100000000E-03 0.  1.
        -12    1    3    3    0    0 -0.18050755711E+02  0.12385636946E+02 -0.46722915817E+01  0.22384460970E+02  0.00000000000E+00 0.  1.
</event>
<event>
 7    1  0.5006721E-012  0.5052886E+02  0.7816164E-02  0.1300439E+00
        -11   -1    0    0    0    0  0.00000000000E+00  0.00000000000E+00  0.45593999997E+02  0.45594000000E+02  0.51100000000E-03 0. -1.
         11   -1    0    0    0    0 -0.00000000000E+00 -0.00000000000E+00 -0.45593999997E+02  0.45594000000E+02  0.51100000000E-03 0.  1.
    9900012    2    1    2    0    0 -0.28592708906E+02 -0.68585981427E+00 -0.28899003726E+02  0.50528858068E+02  0.29999994585E+02 0.  0.
         12    1    1    2    0    0  0.28592708906E+02  0.68585981427E+00  0.28899003726E+02  0.40659141932E+02  0.00000000000E+00 0. -1.
         11    1    3    3    0    0 -0.37087343815E+01  0.84990131109E+01  0.12808930826E+00  0.92738525815E+01  0.51100000000E-03 0. -1.
        -11    1    3    3    0    0 -0.16387564792E+02 -0.11804298432E+02 -0.17697099292E+02  0.26852952629E+02  0.51100000000E-03 0.  1.
        -12    1    3    3    0    0 -0.84964097323E+01  0.26194255068E+01 -0.11329993742E+02  0.14402052858E+02  0.00000000000E+00 0.  1.
</event>
<event>
 7    1  0.5208003E-012  0.5052890E+02  0.7816164E-02  0.1300439E+00
        -11   -1    0    0    0    0  0.00000000000E+00  0.00000000000E+00  0.45593999997E+02  0.45594000000E+02  0.51100000000E-03 0. -1.
         11   -1    0    0    0    0 -0.00000000000E+00 -0.00000000000E+00 -0.45593999997E+02  0.45594000000E+02  0.51100000000E-03 0.  1.
    9900012    2    1    2    0    0  0.26927698883E+01 -0.12956798526E+02  0.38445192401E+02  0.50528899463E+02  0.30000120407E+02 0.  0.
        -12    1    1    2    0    0 -0.26927698883E+01  0.12956798526E+02 -0.38445192401E+02  0.40659100537E+02  0.00000000000E+00 0.  1.
         11    1    3    3    0    0  0.84204812688E+00 -0.16740995202E+02  0.19911786637E+02  0.26027854555E+02  0.51100000000E-03 0. -1.
        -11    1    3    3    0    0  0.76290679797E+01  0.40600807704E+01  0.16001887021E+02  0.18186459870E+02  0.51100000000E-03 0.  1.
         12    1    3    3    0    0 -0.57783462183E+01 -0.27588409413E+00  0.25315187434E+01  0.63145850379E+01  0.00000000000E+00 0. -1.
</event>
<event>
 7    1  0.5006721E-012  0.5052886E+02  0.7816164E-02  0.1300439E+00
        -11   -1    0    0    0    0  0.00000000000E+00  0.00000000000E+00  0.45593999997E+02  0.45594000000E+02  0.51100000000E-03 0. -1.
         11   -1    0    0    0    0 -0.00000000000E+00 -0.00000000000E+00 -0.45593999997E+02  0.45594000000E+02  0.51100000000E-03 0.  1.
    9900012    2    1    2    0    0 -0.19844694337E+01  0.11419495293E+02  0.38972071592E+02  0.50528863808E+02  0.30000012030E+02 0.  0.
        -12    1    1    2    0    0  0.19844694337E+01 -0.11419495293E+02 -0.38972071592E+02  0.40659136192E+02  0.00000000000E+00 0.  1.
         11    1    3    3    0    0 -0.73038796194E+01  0.24098620291E+00  0.35891026504E+02  0.36627455763E+02  0.51100000000E-03 0. -1.
        -11    1    3    3    0    0  0.34987290900E+01  0.96555313886E+01  0.34009387546E+00  0.10275507566E+02  0.51100000000E-03 0.  1.
         12    1    3    3    0    0  0.18206810957E+01  0.15229777018E+01  0.27409512127E+01  0.36259004789E+01  0.00000000000E+00 0. -1.
</event>
<event>
 7    1  0.5006721E-012  0.5052886E+02  0.7816164E-02  0.1300439E+00
        -11   -1    0    0    0    0  0.00000000000E+00  0.00000000000E+00  0.45593999997E+02  0.45594000000E+02  0.51100000000E-03 0. -1.
         11   -1    0    0    0    0 -0.00000000000E+00 -0.00000000000E+00 -0.45593999997E+02  0.45594000000E+02  0.51100000000E-03 0.  1.
    9900012    2    1    2    0    0  0.19164216972E+02  0.17738199087E+02 -0.31164957340E+02  0.50528862220E+02  0.30000007204E+02 0.  0.
         12    1    1    2    0    0 -0.19164216972E+02 -0.17738199087E+02  0.31164957340E+02  0.40659137780E+02  0.00000000000E+00 0. -1.
         11    1    3    3    0    0  0.15956249374E+02 -0.21016151047E+00 -0.57440362424E+01  0.16959953259E+02  0.51100000000E-03 0. -1.
        -11    1    3    3    0    0  0.73920087104E+01  0.83665745594E+01 -0.15899391340E+02  0.19427609423E+02  0.51100000000E-03 0.  1.
         12    1    3    3    0    0 -0.41840411119E+01  0.95817860386E+01 -0.95215297571E+01  0.14141299538E+02  0.00000000000E+00 0. -1.
</event>
<event>
 7    1  0.5006721E-012  0.5052886E+02  0.7816164E-02  0.1300439E+00
        -11   -1    0    0    0    0  0.00000000000E+00  0.00000000000E+00  0.45593999997E+02  0.45594000000E+02  0.51100000000E-03 0. -1.
         11   -1    0    0    0    0 -0.00000000000E+00 -0.00000000000E+00 -0.45593999997E+02  0.45594000000E+02  0.51100000000E-03 0.  1.
    9900012    2    1    2    0    0  0.20504273226E+01 -0.35639234492E+02  0.19462951637E+02  0.50528858668E+02  0.29999996408E+02 0.  0.
        -12    1    1    2    0    0 -0.20504273226E+01  0.35639234492E+02 -0.19462951637E+02  0.40659141332E+02  0.00000000000E+00 0.  1.
         11    1    3    3    0    0 -0.57604605510E+01 -0.59030218862E+01  0.17789518532E+02  0.19608557902E+02  0.51100000000E-03 0. -1.
        -11    1    3    3    0    0  0.32996227918E+01 -0.11273478900E+02 -0.69729833933E+00  0.11767117842E+02  0.51100000000E-03 0.  1.
         12    1    3    3    0    0  0.45112650818E+01 -0.18462733707E+02  0.23707314446E+01  0.19153182925E+02  0.00000000000E+00 0. -1.
</event>
<event>
 7    1  0.5006721E-012  0.5052884E+02  0.7816164E-02  0.1300439E+00
        -11   -1    0    0    0    0  0.00000000000E+00  0.00000000000E+00  0.45593999997E+02  0.45594000000E+02  0.51100000000E-03 0. -1.
         11   -1    0    0    0    0 -0.00000000000E+00 -0.00000000000E+00 -0.45593999997E+02  0.45594000000E+02  0.51100000000E-03 0.  1.
    9900012    2    1    2    0    0 -0.23661178697E+02  0.23255512458E+02 -0.23505254840E+02  0.50528840612E+02  0.29999941524E+02 0.  0.
         12    1    1    2    0    0  0.23661178697E+02 -0.23255512458E+02  0.23505254840E+02  0.40659159388E+02  0.00000000000E+00 0. -1.
         11    1    3    3    0    0  0.16108686968E+01 -0.56467459805E-01 -0.54923644433E+01  0.57239980758E+01  0.51100000000E-03 0. -1.
        -11    1    3    3    0    0 -0.13696273749E+02  0.71897895642E+01  0.31554017557E+01  0.15787259075E+02  0.51100000000E-03 0.  1.
        -12    1    3    3    0    0 -0.11575773645E+02  0.16122190354E+02 -0.21168292153E+02  0.29017583461E+02  0.00000000000E+00 0.  1.
</event>
<event>
 7    1  0.5006721E-012  0.5052886E+02  0.7816164E-02  0.1300439E+00
        -11   -1    0    0    0    0  0.00000000000E+00  0.00000000000E+00  0.45593999997E+02  0.45594000000E+02  0.51100000000E-03 0.  1.
         11   -1    0    0    0    0 -0.00000000000E+00 -0.00000000000E+00 -0.45593999997E+02  0.45594000000E+02  0.51100000000E-03 0. -1.
    9900012    2    1    2    0    0 -0.28438532538E+02 -0.28968550102E+02 -0.22887982802E+01  0.50528860492E+02  0.30000001953E+02 0.  0.
         12    1    1    2    0    0  0.28438532538E+02  0.28968550102E+02  0.22887982802E+01  0.40659139508E+02  0.00000000000E+00 0. -1.
         11    1    3    3    0    0 -0.26959476811E+02 -0.29689060264E+02  0.77791827073E+00  0.40110582723E+02  0.51100000000E-03 0.  1.
        -11    1    3    3    0    0 -0.40410093222E+01  0.21927933356E+01  0.16226752351E+01  0.48755691088E+01  0.51100000000E-03 0. -1.
        -12    1    3    3    0    0  0.25619535957E+01 -0.14722831739E+01 -0.46893917860E+01  0.55427086604E+01  0.00000000000E+00 0.  1.
</event>
<event>
 7    1  0.5006721E-012  0.5052886E+02  0.7816164E-02  0.1300439E+00
        -11   -1    0    0    0    0  0.00000000000E+00  0.00000000000E+00  0.45593999997E+02  0.45594000000E+02  0.51100000000E-03 0. -1.
         11   -1    0    0    0    0 -0.00000000000E+00 -0.00000000000E+00 -0.45593999997E+02  0.45594000000E+02  0.51100000000E-03 0.  1.
    9900012    2    1    2    0    0  0.94144327695E+01  0.33119914429E+01 -0.39415286985E+02  0.50528859825E+02  0.29999999923E+02 0.  0.
         12    1    1    2    0    0 -0.94144327695E+01 -0.33119914429E+01  0.39415286985E+02  0.40659140175E+02  0.00000000000E+00 0. -1.
         11    1    3    3    0    0 -0.17333200834E+01  0.57680349462E+01  0.19315483844E+01  0.63249905197E+01  0.51100000000E-03 0. -1.
        -11    1    3    3    0    0  0.12395363413E+02 -0.14165831097E+01 -0.26742638352E+02  0.29509667028E+02  0.51100000000E-03 0.  1.
         12    1    3    3    0    0 -0.12476105600E+01 -0.10394603936E+01 -0.14604197018E+02  0.14694202277E+02  0.00000000000E+00 0. -1.
</event>
<event>
 7    1  0.5006721E-012  0.5052887E+02  0.7816164E-02  0.1300439E+00
        -11   -1    0    0    0    0  0.00000000000E+00  0.00000000000E+00  0.45593999997E+02  0.45594000000E+02  0.51100000000E-03 0. -1.
         11   -1    0    0    0    0 -0.00000000000E+00 -0.00000000000E+00 -0.45593999997E+02  0.45594000000E+02  0.51100000000E-03 0.  1.
    9900012    2    1    2    0    0 -0.25193266520E+02 -0.31476730925E+02 -0.52611664018E+01  0.50528866468E+02  0.30000020116E+02 0.  0.
         12    1    1    2    0    0  0.25193266520E+02  0.31476730925E+02  0.52611664018E+01  0.40659133532E+02  0.00000000000E+00 0. -1.
         11    1    3    3    0    0  0.54495365771E+00  0.42292881987E+01 -0.22252074700E+01  0.48099274114E+01  0.51100000000E-03 0. -1.
        -11    1    3    3    0    0 -0.24285414380E+02 -0.29746322150E+02 -0.60662809664E+01  0.38877047188E+02  0.51100000000E-03 0.  1.
         12    1    3    3    0    0 -0.14528057979E+01 -0.59596969739E+01  0.30303220347E+01  0.68418918686E+01  0.00000000000E+00 0. -1.
</event>
<event>
 7    1  0.5006721E-012  0.5052885E+02  0.7816164E-02  0.1300439E+00
        -11   -1    0    0    0    0  0.00000000000E+00  0.00000000000E+00  0.45593999997E+02  0.45594000000E+02  0.51100000000E-03 0. -1.
         11   -1    0    0    0    0 -0.00000000000E+00 -0.00000000000E+00 -0.45593999997E+02  0.45594000000E+02  0.51100000000E-03 0.  1.
    9900012    2    1    2    0    0  0.36475509139E+01 -0.38770175762E+02 -0.11693373455E+02  0.50528854177E+02  0.29999982756E+02 0.  0.
         12    1    1    2    0    0 -0.36475509139E+01  0.38770175762E+02  0.11693373455E+02  0.40659145823E+02  0.00000000000E+00 0. -1.
         11    1    3    3    0    0  0.34507015622E+01 -0.27771265849E+02 -0.91567575865E+01  0.29444808675E+02  0.51100000000E-03 0. -1.
        -11    1    3    3    0    0 -0.39791564839E+01  0.23700166366E+01 -0.50523079493E+01  0.68539390906E+01  0.51100000000E-03 0.  1.
         12    1    3    3    0    0  0.41760058356E+01 -0.13368926550E+02  0.25156920812E+01  0.14230106412E+02  0.00000000000E+00 0. -1.
</event>
<event>
 7    1  0.5006721E-012  0.5052886E+02  0.7816164E-02  0.1300439E+00
        -11   -1    0    0    0    0  0.00000000000E+00  0.00000000000E+00  0.45593999997E+02  0.45594000000E+02  0.51100000000E-03 0. -1.
         11   -1    0    0    0    0 -0.00000000000E+00 -0.00000000000E+00 -0.45593999997E+02  0.45594000000E+02  0.51100000000E-03 0.  1.
    9900012    2    1    2    0    0  0.99147328997E+01 -0.34868824506E+02 -0.18412725312E+02  0.50528864442E+02  0.30000013959E+02 0.  0.
         12    1    1    2    0    0 -0.99147328997E+01  0.34868824506E+02  0.18412725312E+02  0.40659135558E+02  0.00000000000E+00 0. -1.
         11    1    3    3    0    0  0.18201835075E+02 -0.24455073614E+02 -0.14213715607E+02  0.33636098721E+02  0.51100000000E-03 0.  1.
        -11    1    3    3    0    0 -0.69986128904E+01 -0.46506194093E+01  0.16696713765E+01  0.85671842542E+01  0.51100000000E-03 0. -1.
        -12    1    3    3    0    0 -0.12884892852E+01 -0.57631314819E+01 -0.58686810821E+01  0.83255814667E+01  0.00000000000E+00 0.  1.
</event>
<event>
 7    1  0.5006721E-012  0.5052886E+02  0.7816164E-02  0.1300439E+00
        -11   -1    0    0    0    0  0.00000000000E+00  0.00000000000E+00  0.45593999997E+02  0.45594000000E+02  0.51100000000E-03 0. -1.
         11   -1    0    0    0    0 -0.00000000000E+00 -0.00000000000E+00 -0.45593999997E+02  0.45594000000E+02  0.51100000000E-03 0.  1.
    9900012    2    1    2    0    0 -0.19173829761E+00 -0.84152041739E+01 -0.39778299933E+02  0.50528861170E+02  0.30000004012E+02 0.  0.
         12    1    1    2    0    0  0.19173829761E+00  0.84152041739E+01  0.39778299933E+02  0.40659138830E+02  0.00000000000E+00 0. -1.
         11    1    3    3    0    0  0.10109076063E+02 -0.13946252471E+02 -0.17650858717E+02  0.24662607132E+02  0.51100000000E-03 0. -1.
        -11    1    3    3    0    0  0.90148070006E+00  0.77039655736E+00 -0.14602582372E+01  0.18810987982E+01  0.51100000000E-03 0.  1.
         12    1    3    3    0    0 -0.11202295061E+02  0.47606517396E+01 -0.20667182978E+02  0.23985155240E+02  0.00000000000E+00 0. -1.
</event>
<event>
 7    1  0.5006721E-012  0.5052886E+02  0.7816164E-02  0.1300439E+00
        -11   -1    0    0    0    0  0.00000000000E+00  0.00000000000E+00  0.45593999997E+02  0.45594000000E+02  0.51100000000E-03 0. -1.
         11   -1    0    0    0    0 -0.00000000000E+00 -0.00000000000E+00 -0.45593999997E+02  0.45594000000E+02  0.51100000000E-03 0.  1.
    9900012    2    1    2    0    0 -0.20737028952E+02  0.23719525075E+02  0.25700682434E+02  0.50528864285E+02  0.30000013480E+02 0.  0.
        -12    1    1    2    0    0  0.20737028952E+02 -0.23719525075E+02 -0.25700682434E+02  0.40659135715E+02  0.00000000000E+00 0.  1.
         11    1    3    3    0    0 -0.59865793128E+01  0.37209179577E+01  0.14857608979E+02  0.16444844394E+02  0.51100000000E-03 0. -1.
        -11    1    3    3    0    0 -0.14481441006E+02  0.16393639680E+02 -0.80425866968E+00  0.21888590358E+02  0.51100000000E-03 0.  1.
        -12    1    3    3    0    0 -0.26900863343E+00  0.36049674365E+01  0.11647332124E+02  0.12195429532E+02  0.00000000000E+00 0.  1.
</event>
<event>
 7    1  0.5006721E-012  0.5052886E+02  0.7816164E-02  0.1300439E+00
        -11   -1    0    0    0    0  0.00000000000E+00  0.00000000000E+00  0.45593999997E+02  0.45594000000E+02  0.51100000000E-03 0. -1.
         11   -1    0    0    0    0 -0.00000000000E+00 -0.00000000000E+00 -0.45593999997E+02  0.45594000000E+02  0.51100000000E-03 0.  1.
    9900012    2    1    2    0    0 -0.12450018949E+02 -0.33188059677E+02  0.19917705357E+02  0.50528864942E+02  0.30000015479E+02 0.  0.
        -12    1    1    2    0    0  0.12450018949E+02  0.33188059677E+02 -0.19917705357E+02  0.40659135058E+02  0.00000000000E+00 0.  1.
         11    1    3    3    0    0 -0.79155385405E+01 -0.25077094852E+01  0.82991866643E+01  0.11739712807E+02  0.51100000000E-03 0. -1.
        -11    1    3    3    0    0 -0.49176913159E+01 -0.33491143549E+02  0.12026412279E+02  0.35923181606E+02  0.51100000000E-03 0.  1.
        -12    1    3    3    0    0  0.38321090741E+00  0.28107933575E+01 -0.40789358589E+00  0.28659705295E+01  0.00000000000E+00 0.  1.
</event>
<event>
 7    1  0.5006721E-012  0.5052886E+02  0.7816164E-02  0.1300439E+00
        -11   -1    0    0    0    0  0.00000000000E+00  0.00000000000E+00  0.45593999997E+02  0.45594000000E+02  0.51100000000E-03 0.  1.
         11   -1    0    0    0    0 -0.00000000000E+00 -0.00000000000E+00 -0.45593999997E+02  0.45594000000E+02  0.51100000000E-03 0. -1.
    9900012    2    1    2    0    0 -0.17586868774E+02 -0.34090763940E+02  0.13479158035E+02  0.50528857848E+02  0.29999993914E+02 0.  0.
        -12    1    1    2    0    0  0.17586868774E+02  0.34090763940E+02 -0.13479158035E+02  0.40659142152E+02  0.00000000000E+00 0.  1.
         11    1    3    3    0    0 -0.22043809777E+02 -0.34434964532E+02  0.11174284038E+02  0.42385857970E+02  0.51100000000E-03 0. -1.
        -11    1    3    3    0    0  0.19501290177E+01  0.11761138212E+01 -0.20405787019E+01  0.30578110808E+01  0.51100000000E-03 0.  1.
         12    1    3    3    0    0  0.25068119857E+01 -0.83191322905E+00  0.43454526982E+01  0.50851887973E+01  0.00000000000E+00 0. -1.
</event>
<event>
 7    1  0.5006721E-012  0.5052886E+02  0.7816164E-02  0.1300439E+00
        -11   -1    0    0    0    0  0.00000000000E+00  0.00000000000E+00  0.45593999997E+02  0.45594000000E+02  0.51100000000E-03 0. -1.
         11   -1    0    0    0    0 -0.00000000000E+00 -0.00000000000E+00 -0.45593999997E+02  0.45594000000E+02  0.51100000000E-03 0.  1.
    9900012    2    1    2    0    0 -0.13965449947E+02  0.16548134742E+02  0.34413530110E+02  0.50528860679E+02  0.30000002520E+02 0.  0.
        -12    1    1    2    0    0  0.13965449947E+02 -0.16548134742E+02 -0.34413530110E+02  0.40659139321E+02  0.00000000000E+00 0.  1.
         11    1    3    3    0    0 -0.15068520516E+02 -0.30661415091E+01  0.10944202470E+02  0.18874244416E+02  0.51100000000E-03 0. -1.
        -11    1    3    3    0    0  0.20116561536E+01  0.13943061606E+02  0.10822363245E+02  0.17764551047E+02  0.51100000000E-03 0.  1.
         12    1    3    3    0    0 -0.90858558455E+00  0.56712146458E+01  0.12646964394E+02  0.13890065216E+02  0.00000000000E+00 0. -1.
</event>
<event>
 7    1  0.5006721E-012  0.5052887E+02  0.7816164E-02  0.1300439E+00
        -11   -1    0    0    0    0  0.00000000000E+00  0.00000000000E+00  0.45593999997E+02  0.45594000000E+02  0.51100000000E-03 0. -1.
         11   -1    0    0    0    0 -0.00000000000E+00 -0.00000000000E+00 -0.45593999997E+02  0.45594000000E+02  0.51100000000E-03 0.  1.
    9900012    2    1    2    0    0 -0.49394573528E+00 -0.53878673069E+01 -0.40297541675E+02  0.50528868657E+02  0.30000026769E+02 0.  0.
         12    1    1    2    0    0  0.49394573528E+00  0.53878673069E+01  0.40297541675E+02  0.40659131343E+02  0.00000000000E+00 0. -1.
         11    1    3    3    0    0 -0.14561603478E+01 -0.43105207531E+01 -0.16230408505E+01  0.48306577177E+01  0.51100000000E-03 0. -1.
        -11    1    3    3    0    0  0.56804345319E+01 -0.67602445843E+01 -0.37112654376E+02  0.38148621973E+02  0.51100000000E-03 0.  1.
        -12    1    3    3    0    0 -0.47182199193E+01  0.56828980305E+01 -0.15618464488E+01  0.75495889665E+01  0.00000000000E+00 0.  1.
</event>
<event>
 7    1  0.5006721E-012  0.5052885E+02  0.7816164E-02  0.1300439E+00
        -11   -1    0    0    0    0  0.00000000000E+00  0.00000000000E+00  0.45593999997E+02  0.45594000000E+02  0.51100000000E-03 0. -1.
         11   -1    0    0    0    0 -0.00000000000E+00 -0.00000000000E+00 -0.45593999997E+02  0.45594000000E+02  0.51100000000E-03 0.  1.
    9900012    2    1    2    0    0  0.29613868607E+02 -0.12751280338E+02  0.24770747123E+02  0.50528852479E+02  0.29999977594E+02 0.  0.
        -12    1    1    2    0    0 -0.29613868607E+02  0.12751280338E+02 -0.24770747123E+02  0.40659147521E+02  0.00000000000E+00 0.  1.
         11    1    3    3    0    0  0.40375141406E+01 -0.99775415704E+01  0.38984295109E+01  0.11447733799E+02  0.51100000000E-03 0. -1.
        -11    1    3    3    0    0  0.24802995048E+02  0.23191368586E+01  0.22612765072E+02  0.33643782540E+02  0.51100000000E-03 0.  1.
        -12    1    3    3    0    0  0.77335941866E+00 -0.50928756264E+01 -0.17404474600E+01  0.54373361398E+01  0.00000000000E+00 0.  1.
</event>
<event>
 7    1  0.5006721E-012  0.5052886E+02  0.7816164E-02  0.1300439E+00
        -11   -1    0    0    0    0  0.00000000000E+00  0.00000000000E+00  0.45593999997E+02  0.45594000000E+02  0.51100000000E-03 0. -1.
         11   -1    0    0    0    0 -0.00000000000E+00 -0.00000000000E+00 -0.45593999997E+02  0.45594000000E+02  0.51100000000E-03 0.  1.
    9900012    2    1    2    0    0 -0.24714573379E+02 -0.27678489420E+02 -0.16620973488E+02  0.50528859901E+02  0.30000000156E+02 0.  0.
         12    1    1    2    0    0  0.24714573379E+02  0.27678489420E+02  0.16620973488E+02  0.40659140099E+02  0.00000000000E+00 0. -1.
         11    1    3    3    0    0 -0.11383890098E+02 -0.55251338838E+01 -0.45989460889E+00  0.12662209977E+02  0.51100000000E-03 0.  1.
        -11    1    3    3    0    0 -0.46468820547E+00 -0.11110642195E+02 -0.17634157020E+02  0.20847680906E+02  0.51100000000E-03 0. -1.
         12    1    3    3    0    0 -0.12865995076E+02 -0.11042713341E+02  0.14730781410E+01  0.17018969018E+02  0.00000000000E+00 0. -1.
</event>
<event>
 7    1  0.5006721E-012  0.5052887E+02  0.7816164E-02  0.1300439E+00
        -11   -1    0    0    0    0  0.00000000000E+00  0.00000000000E+00  0.45593999997E+02  0.45594000000E+02  0.51100000000E-03 0. -1.
         11   -1    0    0    0    0 -0.00000000000E+00 -0.00000000000E+00 -0.45593999997E+02  0.45594000000E+02  0.51100000000E-03 0.  1.
    9900012    2    1    2    0    0  0.24541717766E+01  0.54807189566E+01  0.40213226986E+02  0.50528869857E+02  0.30000030417E+02 0.  0.
        -12    1    1    2    0    0 -0.24541717766E+01 -0.54807189566E+01 -0.40213226986E+02  0.40659130143E+02  0.00000000000E+00 0.  1.
         11    1    3    3    0    0  0.39312768917E+01  0.88108657532E+01  0.19006969585E+01  0.98335620459E+01  0.51100000000E-03 0. -1.
        -11    1    3    3    0    0 -0.59361995792E+01 -0.36130313082E+01  0.33137437889E+02  0.33858267097E+02  0.51100000000E-03 0.  1.
        -12    1    3    3    0    0  0.44590944640E+01  0.28288451154E+00  0.51750921380E+01  0.68370407138E+01  0.00000000000E+00 0.  1.
</event>
<event>
 7    1  0.5006721E-012  0.5052886E+02  0.7816164E-02  0.1300439E+00
        -11   -1    0    0    0    0  0.00000000000E+00  0.00000000000E+00  0.45593999997E+02  0.45594000000E+02  0.51100000000E-03 0. -1.
         11   -1    0    0    0    0 -0.00000000000E+00 -0.00000000000E+00 -0.45593999997E+02  0.45594000000E+02  0.51100000000E-03 0.  1.
    9900012    2    1    2    0    0  0.27477733884E+01  0.40475243743E+02  0.27147614427E+01  0.50528861490E+02  0.30000004986E+02 0.  0.
         12    1    1    2    0    0 -0.27477733884E+01 -0.40475243743E+02 -0.27147614427E+01  0.40659138510E+02  0.00000000000E+00 0. -1.
         11    1    3    3    0    0 -0.85327164112E+01  0.24027678486E+02  0.73674293642E+01  0.26540828895E+02  0.51100000000E-03 0. -1.
        -11    1    3    3    0    0  0.17440854688E+01  0.63080990799E+00 -0.51895366230E+01  0.55109931850E+01  0.51100000000E-03 0.  1.
        -12    1    3    3    0    0  0.95364043308E+01  0.15816755350E+02  0.53686870154E+00  0.18477039410E+02  0.00000000000E+00 0.  1.
</event>
<event>
 7    1  0.5006721E-012  0.5052886E+02  0.7816164E-02  0.1300439E+00
        -11   -1    0    0    0    0  0.00000000000E+00  0.00000000000E+00  0.45593999997E+02  0.45594000000E+02  0.51100000000E-03 0. -1.
         11   -1    0    0    0    0 -0.00000000000E+00 -0.00000000000E+00 -0.45593999997E+02  0.45594000000E+02  0.51100000000E-03 0.  1.
    9900012    2    1    2    0    0  0.14976755895E+02  0.23879059611E+02 -0.29302785930E+02  0.50528856276E+02  0.29999989137E+02 0.  0.
         12    1    1    2    0    0 -0.14976755895E+02 -0.23879059611E+02  0.29302785930E+02  0.40659143724E+02  0.00000000000E+00 0. -1.
         11    1    3    3    0    0 -0.22724648081E+01  0.59175398511E+01  0.47922670274E+01  0.79465211078E+01  0.51100000000E-03 0. -1.
        -11    1    3    3    0    0  0.89770230871E+01  0.12186089396E+02 -0.17266184769E+02  0.22961029050E+02  0.51100000000E-03 0.  1.
        -12    1    3    3    0    0  0.82721976163E+01  0.57754303639E+01 -0.16828868189E+02  0.19621306119E+02  0.00000000000E+00 0.  1.
</event>
<event>
 7    1  0.5006721E-012  0.5052883E+02  0.7816164E-02  0.1300439E+00
        -11   -1    0    0    0    0  0.00000000000E+00  0.00000000000E+00  0.45593999997E+02  0.45594000000E+02  0.51100000000E-03 0.  1.
         11   -1    0    0    0    0 -0.00000000000E+00 -0.00000000000E+00 -0.45593999997E+02  0.45594000000E+02  0.51100000000E-03 0. -1.
    9900012    2    1    2    0    0 -0.34167535985E+02 -0.38248175212E+01  0.21705267529E+02  0.50528826584E+02  0.29999898886E+02 0.  0.
        -12    1    1    2    0    0  0.34167535985E+02  0.38248175212E+01 -0.21705267529E+02  0.40659173416E+02  0.00000000000E+00 0.  1.
         11    1    3    3    0    0 -0.12277530048E+02  0.32236017128E+01 -0.37552991721E+01  0.13237508233E+02  0.51100000000E-03 0. -1.
        -11    1    3    3    0    0 -0.16792822791E+02 -0.92126535214E+01  0.25324282301E+02  0.31752026022E+02  0.51100000000E-03 0.  1.
        -12    1    3    3    0    0 -0.50971831460E+01  0.21642342875E+01  0.13628440017E+00  0.55392923295E+01  0.00000000000E+00 0.  1.
</event>
<event>
 7    1  0.5006721E-012  0.5052884E+02  0.7816164E-02  0.1300439E+00
        -11   -1    0    0    0    0  0.00000000000E+00  0.00000000000E+00  0.45593999997E+02  0.45594000000E+02  0.51100000000E-03 0. -1.
         11   -1    0    0    0    0 -0.00000000000E+00 -0.00000000000E+00 -0.45593999997E+02  0.45594000000E+02  0.51100000000E-03 0.  1.
    9900012    2    1    2    0    0 -0.46933763080E+01 -0.13160494182E+02 -0.38182995076E+02  0.50528837426E+02  0.29999931840E+02 0.  0.
         12    1    1    2    0    0  0.46933763080E+01  0.13160494182E+02  0.38182995076E+02  0.40659162574E+02  0.00000000000E+00 0. -1.
         11    1    3    3    0    0  0.70152768970E+01 -0.98155077286E+01 -0.56085119443E+01  0.13304649879E+02  0.51100000000E-03 0. -1.
        -11    1    3    3    0    0 -0.30125057352E+01 -0.63094658023E+01 -0.22628835100E+02  0.23684356182E+02  0.51100000000E-03 0.  1.
         12    1    3    3    0    0 -0.86961474698E+01  0.29644793486E+01 -0.99456480309E+01  0.13539831365E+02  0.00000000000E+00 0. -1.
</event>
<event>
 7    1  0.5006721E-012  0.5052887E+02  0.7816164E-02  0.1300439E+00
        -11   -1    0    0    0    0  0.00000000000E+00  0.00000000000E+00  0.45593999997E+02  0.45594000000E+02  0.51100000000E-03 0. -1.
         11   -1    0    0    0    0 -0.00000000000E+00 -0.00000000000E+00 -0.45593999997E+02  0.45594000000E+02  0.51100000000E-03 0.  1.
    9900012    2    1    2    0    0 -0.88514212744E+01  0.28131362983E+02  0.27990069090E+02  0.50528865608E+02  0.30000017501E+02 0.  0.
        -12    1    1    2    0    0  0.88514212744E+01 -0.28131362983E+02 -0.27990069090E+02  0.40659134392E+02  0.00000000000E+00 0.  1.
         11    1    3    3    0    0 -0.87961844041E+01  0.35953734941E+01  0.14828464380E+02  0.17612010867E+02  0.51100000000E-03 0. -1.
        -11    1    3    3    0    0  0.53203728795E+01  0.13278311345E+02 -0.63209916128E+00  0.14318500946E+02  0.51100000000E-03 0.  1.
        -12    1    3    3    0    0 -0.53756097498E+01  0.11257678144E+02  0.13793703871E+02  0.18598353795E+02  0.00000000000E+00 0.  1.
</event>
<event>
 7    1  0.5006721E-012  0.5052885E+02  0.7816164E-02  0.1300439E+00
        -11   -1    0    0    0    0  0.00000000000E+00  0.00000000000E+00  0.45593999997E+02  0.45594000000E+02  0.51100000000E-03 0. -1.
         11   -1    0    0    0    0 -0.00000000000E+00 -0.00000000000E+00 -0.45593999997E+02  0.45594000000E+02  0.51100000000E-03 0.  1.
    9900012    2    1    2    0    0  0.65710524270E+01 -0.25766462779E+02  0.30758360983E+02  0.50528854602E+02  0.29999984047E+02 0.  0.
        -12    1    1    2    0    0 -0.65710524270E+01  0.25766462779E+02 -0.30758360983E+02  0.40659145398E+02  0.00000000000E+00 0.  1.
         11    1    3    3    0    0 -0.12412366468E+01 -0.19528079823E+02  0.49743236473E+01  0.20189860475E+02  0.51100000000E-03 0. -1.
        -11    1    3    3    0    0  0.48181160016E+01  0.21607676135E+01  0.17082279222E+02  0.17879804869E+02  0.51100000000E-03 0.  1.
        -12    1    3    3    0    0  0.29941730722E+01 -0.83991505695E+01  0.87017581139E+01  0.12459189257E+02  0.00000000000E+00 0.  1.
</event>
<event>
 7    1  0.5006721E-012  0.5052888E+02  0.7816164E-02  0.1300439E+00
        -11   -1    0    0    0    0  0.00000000000E+00  0.00000000000E+00  0.45593999997E+02  0.45594000000E+02  0.51100000000E-03 0. -1.
         11   -1    0    0    0    0 -0.00000000000E+00 -0.00000000000E+00 -0.45593999997E+02  0.45594000000E+02  0.51100000000E-03 0.  1.
    9900012    2    1    2    0    0 -0.96905827448E+00 -0.32396523230E+02 -0.24549758330E+02  0.50528875250E+02  0.30000046811E+02 0.  0.
         12    1    1    2    0    0  0.96905827448E+00  0.32396523230E+02  0.24549758330E+02  0.40659124750E+02  0.00000000000E+00 0. -1.
         11    1    3    3    0    0 -0.48704535970E+01  0.36363413826E+01 -0.87707653563E+00  0.61411367353E+01  0.51100000000E-03 0. -1.
        -11    1    3    3    0    0 -0.21952770819E+01 -0.19337409101E+02 -0.95076313557E+01  0.21659863492E+02  0.51100000000E-03 0.  1.
         12    1    3    3    0    0  0.60966724045E+01 -0.16695455511E+02 -0.14165050439E+02  0.22727875023E+02  0.00000000000E+00 0. -1.
</event>
<event>
 7    1  0.5006721E-012  0.5052886E+02  0.7816164E-02  0.1300439E+00
        -11   -1    0    0    0    0  0.00000000000E+00  0.00000000000E+00  0.45593999997E+02  0.45594000000E+02  0.51100000000E-03 0. -1.
         11   -1    0    0    0    0 -0.00000000000E+00 -0.00000000000E+00 -0.45593999997E+02  0.45594000000E+02  0.51100000000E-03 0.  1.
    9900012    2    1    2    0    0  0.41040909047E+01  0.83223301576E+01 -0.39586119498E+02  0.50528860827E+02  0.30000002970E+02 0.  0.
         12    1    1    2    0    0 -0.41040909047E+01 -0.83223301576E+01  0.39586119498E+02  0.40659139173E+02  0.00000000000E+00 0. -1.
         11    1    3    3    0    0  0.55096287787E+01 -0.51508647188E+01 -0.67080997886E+01  0.10093860494E+02  0.51100000000E-03 0. -1.
        -11    1    3    3    0    0  0.35704811042E+01  0.16950560554E+02 -0.22284102529E+02  0.28225007781E+02  0.51100000000E-03 0.  1.
        -12    1    3    3    0    0 -0.49760189781E+01 -0.34773656781E+01 -0.10593917180E+02  0.12209992553E+02  0.00000000000E+00 0.  1.
</event>
<event>
 7    1  0.5006721E-012  0.5052883E+02  0.7816164E-02  0.1300439E+00
        -11   -1    0    0    0    0  0.00000000000E+00  0.00000000000E+00  0.45593999997E+02  0.45594000000E+02  0.51100000000E-03 0. -1.
         11   -1    0    0    0    0 -0.00000000000E+00 -0.00000000000E+00 -0.45593999997E+02  0.45594000000E+02  0.51100000000E-03 0.  1.
    9900012    2    1    2    0    0  0.11037511252E+02 -0.11096846002E+01  0.39116620277E+02  0.50528830844E+02  0.29999911835E+02 0.  0.
        -12    1    1    2    0    0 -0.11037511252E+02  0.11096846002E+01 -0.39116620277E+02  0.40659169156E+02  0.00000000000E+00 0.  1.
         11    1    3    3    0    0  0.96807163074E+01  0.13107497004E+02  0.24941919998E+02  0.29792987756E+02  0.51100000000E-03 0. -1.
        -11    1    3    3    0    0 -0.13590296485E+01 -0.10138823382E+02  0.98349401322E+01  0.14190445688E+02  0.51100000000E-03 0.  1.
         12    1    3    3    0    0  0.27158245933E+01 -0.40783582224E+01  0.43397601460E+01  0.65453974010E+01  0.00000000000E+00 0. -1.
</event>
<event>
 7    1  0.5006721E-012  0.5052886E+02  0.7816164E-02  0.1300439E+00
        -11   -1    0    0    0    0  0.00000000000E+00  0.00000000000E+00  0.45593999997E+02  0.45594000000E+02  0.51100000000E-03 0. -1.
         11   -1    0    0    0    0 -0.00000000000E+00 -0.00000000000E+00 -0.45593999997E+02  0.45594000000E+02  0.51100000000E-03 0.  1.
    9900012    2    1    2    0    0 -0.20476286816E+02  0.20478981091E+02 -0.28539419470E+02  0.50528862626E+02  0.30000008439E+02 0.  0.
         12    1    1    2    0    0  0.20476286816E+02 -0.20478981091E+02  0.28539419470E+02  0.40659137374E+02  0.00000000000E+00 0. -1.
         11    1    3    3    0    0  0.14285095383E+01  0.12371036014E+02 -0.14946889193E+02  0.19454888033E+02  0.51100000000E-03 0. -1.
        -11    1    3    3    0    0 -0.19231842754E+02  0.51974616821E+00 -0.12528757445E+02  0.22958738536E+02  0.51100000000E-03 0.  1.
         12    1    3    3    0    0 -0.26729536001E+01  0.75881989084E+01 -0.10637728319E+01  0.81152360569E+01  0.00000000000E+00 0. -1.
</event>
<event>
 7    1  0.5006721E-012  0.5052886E+02  0.7816164E-02  0.1300439E+00
        -11   -1    0    0    0    0  0.00000000000E+00  0.00000000000E+00  0.45593999997E+02  0.45594000000E+02  0.51100000000E-03 0. -1.
         11   -1    0    0    0    0 -0.00000000000E+00 -0.00000000000E+00 -0.45593999997E+02  0.45594000000E+02  0.51100000000E-03 0.  1.
    9900012    2    1    2    0    0 -0.60155970015E+01  0.31402489754E+02  0.25116965382E+02  0.50528859330E+02  0.29999998420E+02 0.  0.
        -12    1    1    2    0    0  0.60155970015E+01 -0.31402489754E+02 -0.25116965382E+02  0.40659140670E+02  0.00000000000E+00 0.  1.
         11    1    3    3    0    0 -0.14978543358E+02  0.24782021810E+02  0.22676243588E+02  0.36779306541E+02  0.51100000000E-03 0. -1.
        -11    1    3    3    0    0  0.18367799079E+01  0.27737222915E+01 -0.25899583564E+01  0.42160621828E+01  0.51100000000E-03 0.  1.
         12    1    3    3    0    0  0.71261664486E+01  0.38467456522E+01  0.50306801501E+01  0.95334906062E+01  0.00000000000E+00 0. -1.
</event>
<event>
 7    1  0.5006721E-012  0.5052888E+02  0.7816164E-02  0.1300439E+00
        -11   -1    0    0    0    0  0.00000000000E+00  0.00000000000E+00  0.45593999997E+02  0.45594000000E+02  0.51100000000E-03 0. -1.
         11   -1    0    0    0    0 -0.00000000000E+00 -0.00000000000E+00 -0.45593999997E+02  0.45594000000E+02  0.51100000000E-03 0.  1.
    9900012    2    1    2    0    0  0.37412358379E+02  0.13873288150E+02  0.78109682513E+01  0.50528881606E+02  0.30000066130E+02 0.  0.
        -12    1    1    2    0    0 -0.37412358379E+02 -0.13873288150E+02 -0.78109682513E+01  0.40659118394E+02  0.00000000000E+00 0.  1.
         11    1    3    3    0    0  0.12895972926E+02 -0.14217004524E+01 -0.67136514711E+01  0.14608232823E+02  0.51100000000E-03 0.  1.
        -11    1    3    3    0    0  0.22105980308E+02  0.17598137860E+02  0.15774118252E+02  0.32360340363E+02  0.51100000000E-03 0. -1.
         12    1    3    3    0    0  0.24104051445E+01 -0.23031492586E+01 -0.12494985295E+01  0.35603084197E+01  0.00000000000E+00 0. -1.
</event>
<event>
 7    1  0.5006721E-012  0.5052888E+02  0.7816164E-02  0.1300439E+00
        -11   -1    0    0    0    0  0.00000000000E+00  0.00000000000E+00  0.45593999997E+02  0.45594000000E+02  0.51100000000E-03 0. -1.
         11   -1    0    0    0    0 -0.00000000000E+00 -0.00000000000E+00 -0.45593999997E+02  0.45594000000E+02  0.51100000000E-03 0.  1.
    9900012    2    1    2    0    0  0.31743981948E+02 -0.10394659974E+02  0.23182637842E+02  0.50528879951E+02  0.30000061098E+02 0.  0.
        -12    1    1    2    0    0 -0.31743981948E+02  0.10394659974E+02 -0.23182637842E+02  0.40659120049E+02  0.00000000000E+00 0.  1.
         11    1    3    3    0    0  0.19629503181E+02  0.22559657352E+01  0.86711360100E+01  0.21577659198E+02  0.51100000000E-03 0. -1.
        -11    1    3    3    0    0  0.79474831222E+01 -0.12238828350E+02  0.18229888212E+02  0.23351236195E+02  0.51100000000E-03 0.  1.
        -12    1    3    3    0    0  0.41669956449E+01 -0.41179735939E+00 -0.37183863801E+01  0.55999845573E+01  0.00000000000E+00 0.  1.
</event>
<event>
 7    1  0.5006721E-012  0.5052886E+02  0.7816164E-02  0.1300439E+00
        -11   -1    0    0    0    0  0.00000000000E+00  0.00000000000E+00  0.45593999997E+02  0.45594000000E+02  0.51100000000E-03 0. -1.
         11   -1    0    0    0    0 -0.00000000000E+00 -0.00000000000E+00 -0.45593999997E+02  0.45594000000E+02  0.51100000000E-03 0.  1.
    9900012    2    1    2    0    0 -0.36203802084E+01 -0.12683648997E+02  0.38460151960E+02  0.50528863345E+02  0.30000010624E+02 0.  0.
        -12    1    1    2    0    0  0.36203802084E+01  0.12683648997E+02 -0.38460151960E+02  0.40659136655E+02  0.00000000000E+00 0.  1.
         11    1    3    3    0    0 -0.61248690139E+01  0.42985053701E+01  0.18997103285E+02  0.20417666428E+02  0.51100000000E-03 0.  1.
        -11    1    3    3    0    0 -0.49070452511E+01 -0.14214275275E+02  0.12058364317E+02  0.19275084045E+02  0.51100000000E-03 0. -1.
        -12    1    3    3    0    0  0.74115340566E+01 -0.27678790921E+01  0.74046843576E+01  0.10836112872E+02  0.00000000000E+00 0.  1.
</event>
<event>
 7    1  0.5006721E-012  0.5052886E+02  0.7816164E-02  0.1300439E+00
        -11   -1    0    0    0    0  0.00000000000E+00  0.00000000000E+00  0.45593999997E+02  0.45594000000E+02  0.51100000000E-03 0. -1.
         11   -1    0    0    0    0 -0.00000000000E+00 -0.00000000000E+00 -0.45593999997E+02  0.45594000000E+02  0.51100000000E-03 0.  1.
    9900012    2    1    2    0    0  0.33541247006E+01 -0.15657357458E+02 -0.37373288149E+02  0.50528860042E+02  0.30000000583E+02 0.  0.
         12    1    1    2    0    0 -0.33541247006E+01  0.15657357458E+02  0.37373288149E+02  0.40659139958E+02  0.00000000000E+00 0. -1.
         11    1    3    3    0    0 -0.87895292396E+01 -0.21603729089E+01 -0.50943315897E+01  0.10386301072E+02  0.51100000000E-03 0. -1.
        -11    1    3    3    0    0  0.94281830147E+01 -0.10248673223E+00 -0.18337217748E+02  0.20619279655E+02  0.51100000000E-03 0.  1.
         12    1    3    3    0    0  0.27154709255E+01 -0.13394497817E+02 -0.13941738812E+02  0.19523279315E+02  0.00000000000E+00 0. -1.
</event>
<event>
 7    1  0.5006721E-012  0.5052886E+02  0.7816164E-02  0.1300439E+00
        -11   -1    0    0    0    0  0.00000000000E+00  0.00000000000E+00  0.45593999997E+02  0.45594000000E+02  0.51100000000E-03 0. -1.
         11   -1    0    0    0    0 -0.00000000000E+00 -0.00000000000E+00 -0.45593999997E+02  0.45594000000E+02  0.51100000000E-03 0.  1.
    9900012    2    1    2    0    0 -0.35167726076E+02  0.43221871626E+01  0.19942813219E+02  0.50528855170E+02  0.29999985774E+02 0.  0.
        -12    1    1    2    0    0  0.35167726076E+02 -0.43221871626E+01 -0.19942813219E+02  0.40659144830E+02  0.00000000000E+00 0.  1.
         11    1    3    3    0    0 -0.13464016683E+02  0.13491406849E+02  0.17877728019E+02  0.26132565189E+02  0.51100000000E-03 0. -1.
        -11    1    3    3    0    0 -0.12912952659E+02 -0.78334687022E+01  0.31818940180E+01  0.15434766862E+02  0.51100000000E-03 0.  1.
         12    1    3    3    0    0 -0.87907567350E+01 -0.13357509838E+01 -0.11168088186E+01  0.89615231185E+01  0.00000000000E+00 0. -1.
</event>
<event>
 7    1  0.5693647E-012  0.5052886E+02  0.7816164E-02  0.1300439E+00
        -11   -1    0    0    0    0  0.00000000000E+00  0.00000000000E+00  0.45593999997E+02  0.45594000000E+02  0.51100000000E-03 0. -1.
         11   -1    0    0    0    0 -0.00000000000E+00 -0.00000000000E+00 -0.45593999997E+02  0.45594000000E+02  0.51100000000E-03 0.  1.
    9900012    2    1    2    0    0 -0.21876627361E+01 -0.36380400390E+01  0.40436915153E+02  0.50528864364E+02  0.30000013722E+02 0.  0.
        -12    1    1    2    0    0  0.21876627361E+01  0.36380400390E+01 -0.40436915153E+02  0.40659135636E+02  0.00000000000E+00 0.  1.
         11    1    3    3    0    0 -0.12086760811E+02 -0.10729657341E+02  0.27416559370E+02  0.31825823815E+02  0.51100000000E-03 0. -1.
        -11    1    3    3    0    0  0.28768781047E+01  0.10514615399E+01  0.46098277599E+00  0.30974996981E+01  0.51100000000E-03 0.  1.
         12    1    3    3    0    0  0.70222199704E+01  0.60401557621E+01  0.12559373006E+02  0.15605540851E+02  0.00000000000E+00 0. -1.
</event>
<event>
 7    1  0.5006721E-012  0.5052886E+02  0.7816164E-02  0.1300439E+00
        -11   -1    0    0    0    0  0.00000000000E+00  0.00000000000E+00  0.45593999997E+02  0.45594000000E+02  0.51100000000E-03 0. -1.
         11   -1    0    0    0    0 -0.00000000000E+00 -0.00000000000E+00 -0.45593999997E+02  0.45594000000E+02  0.51100000000E-03 0.  1.
    9900012    2    1    2    0    0  0.21971992639E+02 -0.85865314379E+01  0.33115988802E+02  0.50528859613E+02  0.29999999279E+02 0.  0.
        -12    1    1    2    0    0 -0.21971992639E+02  0.85865314379E+01 -0.33115988802E+02  0.40659140387E+02  0.00000000000E+00 0.  1.
         11    1    3    3    0    0  0.14047844690E+02 -0.72242650368E+01  0.32678075321E+02  0.36295847595E+02  0.51100000000E-03 0. -1.
        -11    1    3    3    0    0  0.37737632916E+01  0.17271962411E+01 -0.51522476192E+01  0.66159014524E+01  0.51100000000E-03 0.  1.
        -12    1    3    3    0    0  0.41503846581E+01 -0.30894626423E+01  0.55901611007E+01  0.76171105650E+01  0.00000000000E+00 0.  1.
</event>
<event>
 7    1  0.5006721E-012  0.5052886E+02  0.7816164E-02  0.1300439E+00
        -11   -1    0    0    0    0  0.00000000000E+00  0.00000000000E+00  0.45593999997E+02  0.45594000000E+02  0.51100000000E-03 0. -1.
         11   -1    0    0    0    0 -0.00000000000E+00 -0.00000000000E+00 -0.45593999997E+02  0.45594000000E+02  0.51100000000E-03 0.  1.
    9900012    2    1    2    0    0 -0.28735994784E+02  0.99154877815E+01 -0.27001691092E+02  0.50528860609E+02  0.30000002306E+02 0.  0.
         12    1    1    2    0    0  0.28735994784E+02 -0.99154877815E+01  0.27001691092E+02  0.40659139391E+02  0.00000000000E+00 0. -1.
         11    1    3    3    0    0 -0.94875881667E+01 -0.82019731592E+01 -0.59903572531E+00  0.12555697391E+02  0.51100000000E-03 0. -1.
        -11    1    3    3    0    0 -0.11594925700E+02  0.64129457818E+01 -0.14075396065E+02  0.19330932472E+02  0.51100000000E-03 0.  1.
         12    1    3    3    0    0 -0.76534809180E+01  0.11704515159E+02 -0.12327259302E+02  0.18642230745E+02  0.00000000000E+00 0. -1.
</event>
<event>
 7    1  0.5006721E-012  0.5052886E+02  0.7816164E-02  0.1300439E+00
        -11   -1    0    0    0    0  0.00000000000E+00  0.00000000000E+00  0.45593999997E+02  0.45594000000E+02  0.51100000000E-03 0. -1.
         11   -1    0    0    0    0 -0.00000000000E+00 -0.00000000000E+00 -0.45593999997E+02  0.45594000000E+02  0.51100000000E-03 0.  1.
    9900012    2    1    2    0    0  0.10368938904E+02 -0.59519546992E+00 -0.39310262131E+02  0.50528857603E+02  0.29999993169E+02 0.  0.
         12    1    1    2    0    0 -0.10368938904E+02  0.59519546992E+00  0.39310262131E+02  0.40659142397E+02  0.00000000000E+00 0. -1.
         11    1    3    3    0    0 -0.41198297323E+01 -0.69096627815E+01 -0.20579901737E+01  0.83037196842E+01  0.51100000000E-03 0. -1.
        -11    1    3    3    0    0  0.92528458803E+01  0.13092079976E+00 -0.29846179875E+02  0.31247827933E+02  0.51100000000E-03 0.  1.
        -12    1    3    3    0    0  0.52359227564E+01  0.61835465119E+01 -0.74060920826E+01  0.10977309985E+02  0.00000000000E+00 0.  1.
</event>
<event>
 7    1  0.5006721E-012  0.5052888E+02  0.7816164E-02  0.1300439E+00
        -11   -1    0    0    0    0  0.00000000000E+00  0.00000000000E+00  0.45593999997E+02  0.45594000000E+02  0.51100000000E-03 0.  1.
         11   -1    0    0    0    0 -0.00000000000E+00 -0.00000000000E+00 -0.45593999997E+02  0.45594000000E+02  0.51100000000E-03 0. -1.
    9900012    2    1    2    0    0 -0.22862076643E+02  0.70348749535E+01 -0.32878562395E+02  0.50528881968E+02  0.30000067228E+02 0.  0.
         12    1    1    2    0    0  0.22862076643E+02 -0.70348749535E+01  0.32878562395E+02  0.40659118032E+02  0.00000000000E+00 0. -1.
         11    1    3    3    0    0  0.66511755964E-01 -0.47887145655E+01  0.10594050078E+01  0.49049516037E+01  0.51100000000E-03 0. -1.
        -11    1    3    3    0    0 -0.14339103105E+02  0.27810207891E+01 -0.75615469236E+01  0.16447520987E+02  0.51100000000E-03 0.  1.
         12    1    3    3    0    0 -0.85894852943E+01  0.90425687299E+01 -0.26376420479E+02  0.29176409377E+02  0.00000000000E+00 0. -1.
</event>
<event>
 7    1  0.5006721E-012  0.5052886E+02  0.7816164E-02  0.1300439E+00
        -11   -1    0    0    0    0  0.00000000000E+00  0.00000000000E+00  0.45593999997E+02  0.45594000000E+02  0.51100000000E-03 0. -1.
         11   -1    0    0    0    0 -0.00000000000E+00 -0.00000000000E+00 -0.45593999997E+02  0.45594000000E+02  0.51100000000E-03 0.  1.
    9900012    2    1    2    0    0  0.20396385843E+02 -0.48314637564E+01 -0.34839778777E+02  0.50528858559E+02  0.29999996075E+02 0.  0.
         12    1    1    2    0    0 -0.20396385843E+02  0.48314637564E+01  0.34839778777E+02  0.40659141441E+02  0.00000000000E+00 0. -1.
         11    1    3    3    0    0  0.66106612731E+01  0.77512371135E+01 -0.81456232544E+00  0.10219884114E+02  0.51100000000E-03 0. -1.
        -11    1    3    3    0    0  0.15101654508E+02 -0.11537460015E+02 -0.33556358837E+02  0.38564260282E+02  0.51100000000E-03 0.  1.
        -12    1    3    3    0    0 -0.13159299377E+01 -0.10452408552E+01 -0.46885761474E+00  0.17447141627E+01  0.00000000000E+00 0.  1.
</event>
<event>
 7    1  0.5006721E-012  0.5052886E+02  0.7816164E-02  0.1300439E+00
        -11   -1    0    0    0    0  0.00000000000E+00  0.00000000000E+00  0.45593999997E+02  0.45594000000E+02  0.51100000000E-03 0. -1.
         11   -1    0    0    0    0 -0.00000000000E+00 -0.00000000000E+00 -0.45593999997E+02  0.45594000000E+02  0.51100000000E-03 0.  1.
    9900012    2    1    2    0    0  0.10551771829E+02  0.90027876786E+01  0.38220098664E+02  0.50528855683E+02  0.29999987335E+02 0.  0.
        -12    1    1    2    0    0 -0.10551771829E+02 -0.90027876786E+01 -0.38220098664E+02  0.40659144317E+02  0.00000000000E+00 0.  1.
         11    1    3    3    0    0 -0.54859303153E+01 -0.23113565279E+01  0.48863475535E+01  0.77015708202E+01  0.51100000000E-03 0. -1.
        -11    1    3    3    0    0  0.16698961825E+02  0.12871182913E+02  0.34733418304E+02  0.40631675118E+02  0.51100000000E-03 0.  1.
         12    1    3    3    0    0 -0.66125968105E+00 -0.15570387061E+01 -0.13996671936E+01  0.21956097447E+01  0.00000000000E+00 0. -1.
</event>
<event>
 7    1  0.6038035E-012  0.5052886E+02  0.7816164E-02  0.1300439E+00
        -11   -1    0    0    0    0  0.00000000000E+00  0.00000000000E+00  0.45593999997E+02  0.45594000000E+02  0.51100000000E-03 0. -1.
         11   -1    0    0    0    0 -0.00000000000E+00 -0.00000000000E+00 -0.45593999997E+02  0.45594000000E+02  0.51100000000E-03 0.  1.
    9900012    2    1    2    0    0 -0.50052357828E+00 -0.29061918358E+02  0.28430973327E+02  0.50528857525E+02  0.29999992932E+02 0.  0.
        -12    1    1    2    0    0  0.50052357828E+00  0.29061918358E+02 -0.28430973327E+02  0.40659142475E+02  0.00000000000E+00 0.  1.
         11    1    3    3    0    0  0.33022046794E+01 -0.23794625486E+02  0.28735303852E+02  0.37454057797E+02  0.51100000000E-03 0. -1.
        -11    1    3    3    0    0  0.65408287100E+00 -0.53557102584E+01 -0.44450308848E+01  0.69906907099E+01  0.51100000000E-03 0.  1.
         12    1    3    3    0    0 -0.44568111287E+01  0.88417385724E-01  0.41407003593E+01  0.60841090175E+01  0.00000000000E+00 0. -1.
</event>
<event>
 7    1  0.5006721E-012  0.5052886E+02  0.7816164E-02  0.1300439E+00
        -11   -1    0    0    0    0  0.00000000000E+00  0.00000000000E+00  0.45593999997E+02  0.45594000000E+02  0.51100000000E-03 0. -1.
         11   -1    0    0    0    0 -0.00000000000E+00 -0.00000000000E+00 -0.45593999997E+02  0.45594000000E+02  0.51100000000E-03 0.  1.
    9900012    2    1    2    0    0 -0.10237334691E+01  0.36322099907E+02 -0.18243424279E+02  0.50528862020E+02  0.30000006597E+02 0.  0.
         12    1    1    2    0    0  0.10237334691E+01 -0.36322099907E+02  0.18243424279E+02  0.40659137980E+02  0.00000000000E+00 0. -1.
         11    1    3    3    0    0 -0.21743230512E+01 -0.19434916871E+01  0.10742333111E+01  0.31078639186E+01  0.51100000000E-03 0. -1.
        -11    1    3    3    0    0  0.82465878307E+00  0.34955209302E+02 -0.23461756190E+02  0.42107015131E+02  0.51100000000E-03 0.  1.
        -12    1    3    3    0    0  0.32593079901E+00  0.33103822914E+01  0.41440986002E+01  0.53139829704E+01  0.00000000000E+00 0.  1.
</event>
<event>
 7    1  0.5006721E-012  0.5052887E+02  0.7816164E-02  0.1300439E+00
        -11   -1    0    0    0    0  0.00000000000E+00  0.00000000000E+00  0.45593999997E+02  0.45594000000E+02  0.51100000000E-03 0. -1.
         11   -1    0    0    0    0 -0.00000000000E+00 -0.00000000000E+00 -0.45593999997E+02  0.45594000000E+02  0.51100000000E-03 0.  1.
    9900012    2    1    2    0    0  0.28679380320E+00  0.34048941091E+02  0.22220537681E+02  0.50528868984E+02  0.30000027764E+02 0.  0.
        -12    1    1    2    0    0 -0.28679380320E+00 -0.34048941091E+02 -0.22220537681E+02  0.40659131016E+02  0.00000000000E+00 0.  1.
         11    1    3    3    0    0  0.61170954888E+01  0.85246300506E+01  0.88313602946E+01  0.13714266281E+02  0.51100000000E-03 0. -1.
        -11    1    3    3    0    0 -0.12274997720E+02  0.58897869453E+01  0.58236346233E+01  0.14808101829E+02  0.51100000000E-03 0.  1.
        -12    1    3    3    0    0  0.64446960342E+01  0.19634524095E+02  0.75655427636E+01  0.22006500874E+02  0.00000000000E+00 0.  1.
</event>
<event>
 7    1  0.5006721E-012  0.5052889E+02  0.7816164E-02  0.1300439E+00
        -11   -1    0    0    0    0  0.00000000000E+00  0.00000000000E+00  0.45593999997E+02  0.45594000000E+02  0.51100000000E-03 0. -1.
         11   -1    0    0    0    0 -0.00000000000E+00 -0.00000000000E+00 -0.45593999997E+02  0.45594000000E+02  0.51100000000E-03 0.  1.
    9900012    2    1    2    0    0 -0.36059944529E+02  0.77044421737E+01 -0.17131404867E+02  0.50528892024E+02  0.30000097796E+02 0.  0.
         12    1    1    2    0    0  0.36059944529E+02 -0.77044421737E+01  0.17131404867E+02  0.40659107976E+02  0.00000000000E+00 0. -1.
         11    1    3    3    0    0 -0.21762183255E+02 -0.12302410938E+01  0.18781899702E+01  0.21877698942E+02  0.51100000000E-03 0. -1.
        -11    1    3    3    0    0 -0.62491670758E+01 -0.13012230766E+01 -0.12629319616E+02  0.14150794496E+02  0.51100000000E-03 0.  1.
         12    1    3    3    0    0 -0.80485941985E+01  0.10235906344E+02 -0.63802752215E+01  0.14500398586E+02  0.00000000000E+00 0. -1.
</event>
<event>
 7    1  0.5006721E-012  0.5052886E+02  0.7816164E-02  0.1300439E+00
        -11   -1    0    0    0    0  0.00000000000E+00  0.00000000000E+00  0.45593999997E+02  0.45594000000E+02  0.51100000000E-03 0. -1.
         11   -1    0    0    0    0 -0.00000000000E+00 -0.00000000000E+00 -0.45593999997E+02  0.45594000000E+02  0.51100000000E-03 0.  1.
    9900012    2    1    2    0    0 -0.38212956656E+02 -0.76714081443E+01  0.11579510293E+02  0.50528860585E+02  0.30000002234E+02 0.  0.
        -12    1    1    2    0    0  0.38212956656E+02  0.76714081443E+01 -0.11579510293E+02  0.40659139415E+02  0.00000000000E+00 0.  1.
         11    1    3    3    0    0 -0.19194945627E+02 -0.22407976624E+01 -0.83744581676E+01  0.21061782015E+02  0.51100000000E-03 0.  1.
        -11    1    3    3    0    0 -0.93175397590E+01 -0.83793862137E+00  0.14924882861E+02  0.17614505868E+02  0.51100000000E-03 0. -1.
        -12    1    3    3    0    0 -0.97004712701E+01 -0.45926718606E+01  0.50290855996E+01  0.11852572702E+02  0.00000000000E+00 0.  1.
</event>
<event>
 7    1  0.5006721E-012  0.5052886E+02  0.7816164E-02  0.1300439E+00
        -11   -1    0    0    0    0  0.00000000000E+00  0.00000000000E+00  0.45593999997E+02  0.45594000000E+02  0.51100000000E-03 0. -1.
         11   -1    0    0    0    0 -0.00000000000E+00 -0.00000000000E+00 -0.45593999997E+02  0.45594000000E+02  0.51100000000E-03 0.  1.
    9900012    2    1    2    0    0  0.20976685692E+02  0.34778675602E+02 -0.18942328399E+01  0.50528859117E+02  0.29999997773E+02 0.  0.
        -12    1    1    2    0    0 -0.20976685692E+02 -0.34778675602E+02  0.18942328399E+01  0.40659140883E+02  0.00000000000E+00 0.  1.
         11    1    3    3    0    0 -0.11933185364E+01  0.61279630518E+01  0.59004535450E+01  0.85901858298E+01  0.51100000000E-03 0. -1.
        -11    1    3    3    0    0  0.12156276804E+02  0.15769622725E+02 -0.14152160752E+02  0.24428256606E+02  0.51100000000E-03 0.  1.
        -12    1    3    3    0    0  0.10013727425E+02  0.12881089825E+02  0.63574743668E+01  0.17510416681E+02  0.00000000000E+00 0.  1.
</event>
<event>
 7    1  0.5006721E-012  0.5052885E+02  0.7816164E-02  0.1300439E+00
        -11   -1    0    0    0    0  0.00000000000E+00  0.00000000000E+00  0.45593999997E+02  0.45594000000E+02  0.51100000000E-03 0.  1.
         11   -1    0    0    0    0 -0.00000000000E+00 -0.00000000000E+00 -0.45593999997E+02  0.45594000000E+02  0.51100000000E-03 0. -1.
    9900012    2    1    2    0    0 -0.31493114172E+02  0.39707875914E+01  0.25408320603E+02  0.50528854040E+02  0.29999982340E+02 0.  0.
        -12    1    1    2    0    0  0.31493114172E+02 -0.39707875914E+01 -0.25408320603E+02  0.40659145960E+02  0.00000000000E+00 0.  1.
         11    1    3    3    0    0  0.40163808559E+00 -0.55314721192E+01 -0.33375368250E+01  0.64728393520E+01  0.51100000000E-03 0. -1.
        -11    1    3    3    0    0 -0.84103774226E+01  0.13037849251E+01  0.74446299328E+01  0.11307378946E+02  0.51100000000E-03 0.  1.
         12    1    3    3    0    0 -0.23484374835E+02  0.81984747855E+01  0.21301227495E+02  0.32748635742E+02  0.00000000000E+00 0. -1.
</event>
<event>
 7    1  0.5006721E-012  0.5052886E+02  0.7816164E-02  0.1300439E+00
        -11   -1    0    0    0    0  0.00000000000E+00  0.00000000000E+00  0.45593999997E+02  0.45594000000E+02  0.51100000000E-03 0. -1.
         11   -1    0    0    0    0 -0.00000000000E+00 -0.00000000000E+00 -0.45593999997E+02  0.45594000000E+02  0.51100000000E-03 0.  1.
    9900012    2    1    2    0    0  0.19596916467E+02 -0.10232286624E+02 -0.34123704202E+02  0.50528855727E+02  0.29999987467E+02 0.  0.
         12    1    1    2    0    0 -0.19596916467E+02  0.10232286624E+02  0.34123704202E+02  0.40659144273E+02  0.00000000000E+00 0. -1.
         11    1    3    3    0    0 -0.42023191354E+01 -0.29704246162E+01  0.13443232352E+01  0.53188451508E+01  0.51100000000E-03 0. -1.
        -11    1    3    3    0    0  0.98385428535E+01 -0.20013287124E+01 -0.25124109764E+02  0.27055926038E+02  0.51100000000E-03 0.  1.
        -12    1    3    3    0    0  0.13960692749E+02 -0.52605332958E+01 -0.10343917674E+02  0.18154084538E+02  0.00000000000E+00 0.  1.
</event>
<event>
 7    1  0.5006721E-012  0.5052884E+02  0.7816164E-02  0.1300439E+00
        -11   -1    0    0    0    0  0.00000000000E+00  0.00000000000E+00  0.45593999997E+02  0.45594000000E+02  0.51100000000E-03 0. -1.
         11   -1    0    0    0    0 -0.00000000000E+00 -0.00000000000E+00 -0.45593999997E+02  0.45594000000E+02  0.51100000000E-03 0.  1.
    9900012    2    1    2    0    0  0.66800885690E+01 -0.31895627569E+02 -0.24314866565E+02  0.50528838949E+02  0.29999936470E+02 0.  0.
         12    1    1    2    0    0 -0.66800885690E+01  0.31895627569E+02  0.24314866565E+02  0.40659161051E+02  0.00000000000E+00 0. -1.
         11    1    3    3    0    0  0.66638649759E+01 -0.45043676617E+01 -0.19063149838E+02  0.20690580138E+02  0.51100000000E-03 0. -1.
        -11    1    3    3    0    0 -0.18274982283E+01 -0.14464448328E+02 -0.77992166033E+01  0.16534442691E+02  0.51100000000E-03 0.  1.
         12    1    3    3    0    0  0.18437218214E+01 -0.12926811578E+02  0.25474998759E+01  0.13303816120E+02  0.00000000000E+00 0. -1.
</event>
<event>
 7    1  0.5006721E-012  0.5052886E+02  0.7816164E-02  0.1300439E+00
        -11   -1    0    0    0    0  0.00000000000E+00  0.00000000000E+00  0.45593999997E+02  0.45594000000E+02  0.51100000000E-03 0. -1.
         11   -1    0    0    0    0 -0.00000000000E+00 -0.00000000000E+00 -0.45593999997E+02  0.45594000000E+02  0.51100000000E-03 0.  1.
    9900012    2    1    2    0    0 -0.20372228706E+02 -0.45328054524E+01  0.34894003344E+02  0.50528862071E+02  0.30000006752E+02 0.  0.
        -12    1    1    2    0    0  0.20372228706E+02  0.45328054524E+01 -0.34894003344E+02  0.40659137929E+02  0.00000000000E+00 0.  1.
         11    1    3    3    0    0  0.16238291003E+01 -0.32498504397E-01  0.14441763678E+02  0.14532804804E+02  0.51100000000E-03 0. -1.
        -11    1    3    3    0    0 -0.17122331842E+02  0.58923565206E+01  0.11662456487E+02  0.21538500520E+02  0.51100000000E-03 0.  1.
        -12    1    3    3    0    0 -0.48737259650E+01 -0.10392663469E+02  0.87897831796E+01  0.14457556747E+02  0.00000000000E+00 0.  1.
</event>
<event>
 7    1  0.5728714E-012  0.5052885E+02  0.7816164E-02  0.1300439E+00
        -11   -1    0    0    0    0  0.00000000000E+00  0.00000000000E+00  0.45593999997E+02  0.45594000000E+02  0.51100000000E-03 0. -1.
         11   -1    0    0    0    0 -0.00000000000E+00 -0.00000000000E+00 -0.45593999997E+02  0.45594000000E+02  0.51100000000E-03 0.  1.
    9900012    2    1    2    0    0 -0.78370952879E+01  0.19518200388E+02  0.34796349981E+02  0.50528853661E+02  0.29999981189E+02 0.  0.
        -12    1    1    2    0    0  0.78370952879E+01 -0.19518200388E+02 -0.34796349981E+02  0.40659146339E+02  0.00000000000E+00 0.  1.
         11    1    3    3    0    0 -0.10426711306E+02  0.23956040680E+02  0.31021569372E+02  0.40557933382E+02  0.51100000000E-03 0. -1.
        -11    1    3    3    0    0 -0.22397521441E+01 -0.67186460524E+00 -0.63648499374E+00  0.24234283821E+01  0.51100000000E-03 0.  1.
         12    1    3    3    0    0  0.48293681619E+01 -0.37659756861E+01  0.44112656034E+01  0.75474918969E+01  0.00000000000E+00 0. -1.
</event>
<event>
 7    1  0.5006721E-012  0.5052886E+02  0.7816164E-02  0.1300439E+00
        -11   -1    0    0    0    0  0.00000000000E+00  0.00000000000E+00  0.45593999997E+02  0.45594000000E+02  0.51100000000E-03 0. -1.
         11   -1    0    0    0    0 -0.00000000000E+00 -0.00000000000E+00 -0.45593999997E+02  0.45594000000E+02  0.51100000000E-03 0.  1.
    9900012    2    1    2    0    0  0.22432734737E+01  0.12879150615E+01 -0.40576777822E+02  0.50528857123E+02  0.29999991712E+02 0.  0.
         12    1    1    2    0    0 -0.22432734737E+01 -0.12879150615E+01  0.40576777822E+02  0.40659142877E+02  0.00000000000E+00 0. -1.
         11    1    3    3    0    0  0.12365921399E+02 -0.14799916339E+01 -0.53279908549E+01  0.13545991071E+02  0.51100000000E-03 0. -1.
        -11    1    3    3    0    0 -0.63084937375E+01  0.16466532250E+01 -0.15129142430E+02  0.16474207447E+02  0.51100000000E-03 0.  1.
         12    1    3    3    0    0 -0.38141541876E+01  0.11212534704E+01 -0.20119644537E+02  0.20508658606E+02  0.00000000000E+00 0. -1.
</event>
<event>
 7    1  0.5006721E-012  0.5052886E+02  0.7816164E-02  0.1300439E+00
        -11   -1    0    0    0    0  0.00000000000E+00  0.00000000000E+00  0.45593999997E+02  0.45594000000E+02  0.51100000000E-03 0.  1.
         11   -1    0    0    0    0 -0.00000000000E+00 -0.00000000000E+00 -0.45593999997E+02  0.45594000000E+02  0.51100000000E-03 0. -1.
    9900012    2    1    2    0    0 -0.12356382566E+02 -0.36133798068E+02  0.13958308931E+02  0.50528856611E+02  0.29999990154E+02 0.  0.
         12    1    1    2    0    0  0.12356382566E+02  0.36133798068E+02 -0.13958308931E+02  0.40659143389E+02  0.00000000000E+00 0. -1.
         11    1    3    3    0    0 -0.46049009575E+00  0.35607778205E+01  0.74837909846E+01  0.83005010438E+01  0.51100000000E-03 0. -1.
        -11    1    3    3    0    0 -0.45761975121E+01 -0.10208464613E+02  0.33980784362E+01  0.11691931865E+02  0.51100000000E-03 0.  1.
         12    1    3    3    0    0 -0.73196949585E+01 -0.29486111276E+02  0.30764395101E+01  0.30536423702E+02  0.00000000000E+00 0. -1.
</event>
<event>
 7    1  0.5006721E-012  0.5052886E+02  0.7816164E-02  0.1300439E+00
        -11   -1    0    0    0    0  0.00000000000E+00  0.00000000000E+00  0.45593999997E+02  0.45594000000E+02  0.51100000000E-03 0. -1.
         11   -1    0    0    0    0 -0.00000000000E+00 -0.00000000000E+00 -0.45593999997E+02  0.45594000000E+02  0.51100000000E-03 0.  1.
    9900012    2    1    2    0    0 -0.10507518159E+02  0.15694883548E+02 -0.36005946049E+02  0.50528862548E+02  0.30000008201E+02 0.  0.
         12    1    1    2    0    0  0.10507518159E+02 -0.15694883548E+02  0.36005946049E+02  0.40659137452E+02  0.00000000000E+00 0. -1.
         11    1    3    3    0    0  0.49993850136E+01  0.59183585409E+01 -0.24332205414E+01  0.81204298407E+01  0.51100000000E-03 0. -1.
        -11    1    3    3    0    0 -0.18852330292E+02  0.72731087944E+01 -0.32191041786E+02  0.38007520841E+02  0.51100000000E-03 0.  1.
        -12    1    3    3    0    0  0.33454271197E+01  0.25034162125E+01 -0.13816837222E+01  0.44009118662E+01  0.00000000000E+00 0.  1.
</event>
<event>
 7    1  0.5006721E-012  0.5052886E+02  0.7816164E-02  0.1300439E+00
        -11   -1    0    0    0    0  0.00000000000E+00  0.00000000000E+00  0.45593999997E+02  0.45594000000E+02  0.51100000000E-03 0. -1.
         11   -1    0    0    0    0 -0.00000000000E+00 -0.00000000000E+00 -0.45593999997E+02  0.45594000000E+02  0.51100000000E-03 0.  1.
    9900012    2    1    2    0    0 -0.25572799163E+02 -0.11491649479E+02  0.29447231068E+02  0.50528862253E+02  0.30000007303E+02 0.  0.
        -12    1    1    2    0    0  0.25572799163E+02  0.11491649479E+02 -0.29447231068E+02  0.40659137747E+02  0.00000000000E+00 0.  1.
         11    1    3    3    0    0 -0.12728385787E+02 -0.16457152769E+02  0.12732894463E+02  0.24392135693E+02  0.51100000000E-03 0. -1.
        -11    1    3    3    0    0  0.65314065097E+00  0.36496306021E+01  0.10657667440E+02  0.11284160215E+02  0.51100000000E-03 0.  1.
        -12    1    3    3    0    0 -0.13497554027E+02  0.13158726875E+01  0.60566691647E+01  0.14852566345E+02  0.00000000000E+00 0.  1.
</event>
<event>
 7    1  0.5006721E-012  0.5052886E+02  0.7816164E-02  0.1300439E+00
        -11   -1    0    0    0    0  0.00000000000E+00  0.00000000000E+00  0.45593999997E+02  0.45594000000E+02  0.51100000000E-03 0. -1.
         11   -1    0    0    0    0 -0.00000000000E+00 -0.00000000000E+00 -0.45593999997E+02  0.45594000000E+02  0.51100000000E-03 0.  1.
    9900012    2    1    2    0    0 -0.63147354114E+01 -0.39646600353E+02 -0.64371549422E+01  0.50528858757E+02  0.29999996677E+02 0.  0.
         12    1    1    2    0    0  0.63147354114E+01  0.39646600353E+02  0.64371549422E+01  0.40659141243E+02  0.00000000000E+00 0. -1.
         11    1    3    3    0    0 -0.86401156389E+01 -0.38303417276E+02 -0.62184042410E+01  0.39755149664E+02  0.51100000000E-03 0. -1.
        -11    1    3    3    0    0 -0.37013453048E+01 -0.19671410127E+01  0.15385801225E+01  0.44650677356E+01  0.51100000000E-03 0.  1.
         12    1    3    3    0    0  0.60267255323E+01  0.62395793546E+00 -0.17573308236E+01  0.63086413570E+01  0.00000000000E+00 0. -1.
</event>
<event>
 7    1  0.5006721E-012  0.5052888E+02  0.7816164E-02  0.1300439E+00
        -11   -1    0    0    0    0  0.00000000000E+00  0.00000000000E+00  0.45593999997E+02  0.45594000000E+02  0.51100000000E-03 0. -1.
         11   -1    0    0    0    0 -0.00000000000E+00 -0.00000000000E+00 -0.45593999997E+02  0.45594000000E+02  0.51100000000E-03 0.  1.
    9900012    2    1    2    0    0  0.20869248133E+02  0.10014540069E+02  0.33426754098E+02  0.50528875317E+02  0.30000047014E+02 0.  0.
        -12    1    1    2    0    0 -0.20869248133E+02 -0.10014540069E+02 -0.33426754098E+02  0.40659124683E+02  0.00000000000E+00 0.  1.
         11    1    3    3    0    0 -0.50033559870E+01  0.19981233341E+01  0.41341999289E+01  0.67909997278E+01  0.51100000000E-03 0.  1.
        -11    1    3    3    0    0  0.12090062624E+02 -0.54016889976E+01  0.11673022112E+02  0.17652402209E+02  0.51100000000E-03 0. -1.
        -12    1    3    3    0    0  0.13782541497E+02  0.13418105733E+02  0.17619532057E+02  0.26085473380E+02  0.00000000000E+00 0.  1.
</event>
<event>
 7    1  0.5006721E-012  0.5052885E+02  0.7816164E-02  0.1300439E+00
        -11   -1    0    0    0    0  0.00000000000E+00  0.00000000000E+00  0.45593999997E+02  0.45594000000E+02  0.51100000000E-03 0. -1.
         11   -1    0    0    0    0 -0.00000000000E+00 -0.00000000000E+00 -0.45593999997E+02  0.45594000000E+02  0.51100000000E-03 0.  1.
    9900012    2    1    2    0    0  0.30693927769E+02  0.18821713825E+02 -0.18888951065E+02  0.50528848687E+02  0.29999966068E+02 0.  0.
         12    1    1    2    0    0 -0.30693927769E+02 -0.18821713825E+02  0.18888951065E+02  0.40659151313E+02  0.00000000000E+00 0. -1.
         11    1    3    3    0    0  0.56017656768E+00 -0.18913181302E+01 -0.21136187038E+01  0.28910666445E+01  0.51100000000E-03 0. -1.
        -11    1    3    3    0    0  0.24606760835E+02  0.25422017510E+02 -0.80467353189E+01  0.36283902803E+02  0.51100000000E-03 0.  1.
        -12    1    3    3    0    0  0.55269903667E+01 -0.47089855545E+01 -0.87285970419E+01  0.11353879240E+02  0.00000000000E+00 0.  1.
</event>
<event>
 7    1  0.5006721E-012  0.5052886E+02  0.7816164E-02  0.1300439E+00
        -11   -1    0    0    0    0  0.00000000000E+00  0.00000000000E+00  0.45593999997E+02  0.45594000000E+02  0.51100000000E-03 0. -1.
         11   -1    0    0    0    0 -0.00000000000E+00 -0.00000000000E+00 -0.45593999997E+02  0.45594000000E+02  0.51100000000E-03 0.  1.
    9900012    2    1    2    0    0 -0.32417211997E+02  0.12146902031E+02  0.21324692270E+02  0.50528863721E+02  0.30000011765E+02 0.  0.
        -12    1    1    2    0    0  0.32417211997E+02 -0.12146902031E+02 -0.21324692270E+02  0.40659136279E+02  0.00000000000E+00 0.  1.
         11    1    3    3    0    0 -0.11848567641E+02  0.64538410929E+01  0.14354017538E+02  0.19699706590E+02  0.51100000000E-03 0. -1.
        -11    1    3    3    0    0  0.54319188670E+00  0.82651808721E+01 -0.47223631911E+00  0.82964618770E+01  0.51100000000E-03 0.  1.
        -12    1    3    3    0    0 -0.21111836242E+02 -0.25721199342E+01  0.74429110516E+01  0.22532695254E+02  0.00000000000E+00 0.  1.
</event>
<event>
 7    1  0.5006721E-012  0.5052886E+02  0.7816164E-02  0.1300439E+00
        -11   -1    0    0    0    0  0.00000000000E+00  0.00000000000E+00  0.45593999997E+02  0.45594000000E+02  0.51100000000E-03 0.  1.
         11   -1    0    0    0    0 -0.00000000000E+00 -0.00000000000E+00 -0.45593999997E+02  0.45594000000E+02  0.51100000000E-03 0. -1.
    9900012    2    1    2    0    0 -0.14229019431E+02 -0.35416379251E+02  0.14013599444E+02  0.50528857331E+02  0.29999992342E+02 0.  0.
        -12    1    1    2    0    0  0.14229019431E+02  0.35416379251E+02 -0.14013599444E+02  0.40659142669E+02  0.00000000000E+00 0.  1.
         11    1    3    3    0    0  0.51273993701E+00 -0.44361498035E+01 -0.48626945875E+01  0.66021304315E+01  0.51100000000E-03 0. -1.
        -11    1    3    3    0    0 -0.19202657098E+02 -0.22965905561E+02  0.11188083702E+02  0.31958536810E+02  0.51100000000E-03 0.  1.
        -12    1    3    3    0    0  0.44608977308E+01 -0.80143238867E+01  0.76882103297E+01  0.11968190089E+02  0.00000000000E+00 0.  1.
</event>
<event>
 7    1  0.5006721E-012  0.5052886E+02  0.7816164E-02  0.1300439E+00
        -11   -1    0    0    0    0  0.00000000000E+00  0.00000000000E+00  0.45593999997E+02  0.45594000000E+02  0.51100000000E-03 0.  1.
         11   -1    0    0    0    0 -0.00000000000E+00 -0.00000000000E+00 -0.45593999997E+02  0.45594000000E+02  0.51100000000E-03 0. -1.
    9900012    2    1    2    0    0 -0.67787898992E+01  0.37103058061E+02  0.15184753692E+02  0.50528860134E+02  0.30000000863E+02 0.  0.
        -12    1    1    2    0    0  0.67787898992E+01 -0.37103058061E+02 -0.15184753692E+02  0.40659139866E+02  0.00000000000E+00 0.  1.
         11    1    3    3    0    0 -0.71481454492E+01  0.25575783012E+02 -0.73662513854E+00  0.26566130258E+02  0.51100000000E-03 0. -1.
        -11    1    3    3    0    0  0.58125149136E+01  0.85234100769E+01  0.14124970366E+02  0.17491387511E+02  0.51100000000E-03 0.  1.
        -12    1    3    3    0    0 -0.54431593637E+01  0.30038649725E+01  0.17964084643E+01  0.64713423648E+01  0.00000000000E+00 0.  1.
</event>
<event>
 7    1  0.5006721E-012  0.5052889E+02  0.7816164E-02  0.1300439E+00
        -11   -1    0    0    0    0  0.00000000000E+00  0.00000000000E+00  0.45593999997E+02  0.45594000000E+02  0.51100000000E-03 0.  1.
         11   -1    0    0    0    0 -0.00000000000E+00 -0.00000000000E+00 -0.45593999997E+02  0.45594000000E+02  0.51100000000E-03 0. -1.
    9900012    2    1    2    0    0 -0.18898349103E+02  0.31919666427E+02 -0.16647845229E+02  0.50528887191E+02  0.30000083105E+02 0.  0.
         12    1    1    2    0    0  0.18898349103E+02 -0.31919666427E+02  0.16647845229E+02  0.40659112809E+02  0.00000000000E+00 0. -1.
         11    1    3    3    0    0 -0.83404762612E+00  0.10992426377E+02 -0.17165261746E+01  0.11156860467E+02  0.51100000000E-03 0. -1.
        -11    1    3    3    0    0 -0.30227951921E+01 -0.30700455819E+01 -0.96418306719E+01  0.10560651950E+02  0.51100000000E-03 0.  1.
        -12    1    3    3    0    0 -0.15041506285E+02  0.23997285631E+02 -0.52894883829E+01  0.28811374774E+02  0.00000000000E+00 0.  1.
</event>
<event>
 7    1  0.5006721E-012  0.5052885E+02  0.7816164E-02  0.1300439E+00
        -11   -1    0    0    0    0  0.00000000000E+00  0.00000000000E+00  0.45593999997E+02  0.45594000000E+02  0.51100000000E-03 0. -1.
         11   -1    0    0    0    0 -0.00000000000E+00 -0.00000000000E+00 -0.45593999997E+02  0.45594000000E+02  0.51100000000E-03 0.  1.
    9900012    2    1    2    0    0  0.26909203091E+02  0.17240032459E+02  0.25136473605E+02  0.50528852991E+02  0.29999979152E+02 0.  0.
        -12    1    1    2    0    0 -0.26909203091E+02 -0.17240032459E+02 -0.25136473605E+02  0.40659147009E+02  0.00000000000E+00 0.  1.
         11    1    3    3    0    0  0.19582586178E+02 -0.35837734962E+01  0.18120290057E+02  0.26919621578E+02  0.51100000000E-03 0. -1.
        -11    1    3    3    0    0  0.51822531288E+01  0.12929569694E+02  0.21595284348E+01  0.14095853407E+02  0.51100000000E-03 0.  1.
        -12    1    3    3    0    0  0.21443637839E+01  0.78942362613E+01  0.48566551135E+01  0.95133780057E+01  0.00000000000E+00 0.  1.
</event>
<event>
 7    1  0.5006721E-012  0.5052888E+02  0.7816164E-02  0.1300439E+00
        -11   -1    0    0    0    0  0.00000000000E+00  0.00000000000E+00  0.45593999997E+02  0.45594000000E+02  0.51100000000E-03 0. -1.
         11   -1    0    0    0    0 -0.00000000000E+00 -0.00000000000E+00 -0.45593999997E+02  0.45594000000E+02  0.51100000000E-03 0.  1.
    9900012    2    1    2    0    0 -0.73381698889E+00  0.13022074795E+02  0.38510398912E+02  0.50528883634E+02  0.30000072293E+02 0.  0.
        -12    1    1    2    0    0  0.73381698889E+00 -0.13022074795E+02 -0.38510398912E+02  0.40659116366E+02  0.00000000000E+00 0.  1.
         11    1    3    3    0    0  0.52405490158E-01 -0.81941248078E+01  0.18319139530E+02  0.20068315851E+02  0.51100000000E-03 0. -1.
        -11    1    3    3    0    0 -0.41333315693E+01  0.15712066017E+02  0.15812628815E+02  0.22671406632E+02  0.51100000000E-03 0.  1.
        -12    1    3    3    0    0  0.33471090902E+01  0.55041335857E+01  0.43786305669E+01  0.77891611507E+01  0.00000000000E+00 0.  1.
</event>
<event>
 7    1  0.5006721E-012  0.5052886E+02  0.7816164E-02  0.1300439E+00
        -11   -1    0    0    0    0  0.00000000000E+00  0.00000000000E+00  0.45593999997E+02  0.45594000000E+02  0.51100000000E-03 0. -1.
         11   -1    0    0    0    0 -0.00000000000E+00 -0.00000000000E+00 -0.45593999997E+02  0.45594000000E+02  0.51100000000E-03 0.  1.
    9900012    2    1    2    0    0 -0.32554287690E+02 -0.13939253617E+02  0.19977016887E+02  0.50528860288E+02  0.30000001332E+02 0.  0.
        -12    1    1    2    0    0  0.32554287690E+02  0.13939253617E+02 -0.19977016887E+02  0.40659139712E+02  0.00000000000E+00 0.  1.
         11    1    3    3    0    0 -0.26917626527E+02 -0.52318801403E+01  0.18920092714E+02  0.33315178165E+02  0.51100000000E-03 0. -1.
        -11    1    3    3    0    0  0.24792568189E+01 -0.79233220070E+01 -0.19414871411E+01  0.85261432419E+01  0.51100000000E-03 0.  1.
        -12    1    3    3    0    0 -0.81159179822E+01 -0.78405147019E+00  0.29984113139E+01  0.86875388810E+01  0.00000000000E+00 0.  1.
</event>
<event>
 7    1  0.5006721E-012  0.5052886E+02  0.7816164E-02  0.1300439E+00
        -11   -1    0    0    0    0  0.00000000000E+00  0.00000000000E+00  0.45593999997E+02  0.45594000000E+02  0.51100000000E-03 0. -1.
         11   -1    0    0    0    0 -0.00000000000E+00 -0.00000000000E+00 -0.45593999997E+02  0.45594000000E+02  0.51100000000E-03 0.  1.
    9900012    2    1    2    0    0  0.17355620180E+02  0.17031910813E+02  0.32586220645E+02  0.50528864327E+02  0.30000013609E+02 0.  0.
        -12    1    1    2    0    0 -0.17355620180E+02 -0.17031910813E+02 -0.32586220645E+02  0.40659135673E+02  0.00000000000E+00 0.  1.
         11    1    3    3    0    0  0.17852252070E+02  0.12736830598E+02  0.18877461120E+02  0.28935934342E+02  0.51100000000E-03 0. -1.
        -11    1    3    3    0    0 -0.70732279581E+01  0.36146897319E+01  0.12591262303E+02  0.14887458556E+02  0.51100000000E-03 0.  1.
         12    1    3    3    0    0  0.65765960676E+01  0.68039048342E+00  0.11174972215E+01  0.67054714291E+01  0.00000000000E+00 0. -1.
</event>
<event>
 7    1  0.5006721E-012  0.5052886E+02  0.7816164E-02  0.1300439E+00
        -11   -1    0    0    0    0  0.00000000000E+00  0.00000000000E+00  0.45593999997E+02  0.45594000000E+02  0.51100000000E-03 0. -1.
         11   -1    0    0    0    0 -0.00000000000E+00 -0.00000000000E+00 -0.45593999997E+02  0.45594000000E+02  0.51100000000E-03 0.  1.
    9900012    2    1    2    0    0 -0.15272675041E+02  0.35840871982E+02 -0.11633689385E+02  0.50528862822E+02  0.30000009034E+02 0.  0.
         12    1    1    2    0    0  0.15272675041E+02 -0.35840871982E+02  0.11633689385E+02  0.40659137178E+02  0.00000000000E+00 0. -1.
         11    1    3    3    0    0 -0.12377911777E+01  0.11603858422E+02 -0.13278726859E+02  0.17677846151E+02  0.51100000000E-03 0. -1.
        -11    1    3    3    0    0 -0.63551894410E-01  0.96621359300E+01  0.70375101395E+01  0.11953554233E+02  0.51100000000E-03 0.  1.
        -12    1    3    3    0    0 -0.13971331969E+02  0.14574877630E+02 -0.53924726656E+01  0.20897462438E+02  0.00000000000E+00 0.  1.
</event>
<event>
 7    1  0.5006721E-012  0.5052894E+02  0.7816164E-02  0.1300439E+00
        -11   -1    0    0    0    0  0.00000000000E+00  0.00000000000E+00  0.45593999997E+02  0.45594000000E+02  0.51100000000E-03 0. -1.
         11   -1    0    0    0    0 -0.00000000000E+00 -0.00000000000E+00 -0.45593999997E+02  0.45594000000E+02  0.51100000000E-03 0.  1.
    9900012    2    1    2    0    0  0.17208524424E+02  0.10522514905E+02 -0.35303012455E+02  0.50528938018E+02  0.30000237600E+02 0.  0.
         12    1    1    2    0    0 -0.17208524424E+02 -0.10522514905E+02  0.35303012455E+02  0.40659061982E+02  0.00000000000E+00 0. -1.
         11    1    3    3    0    0  0.15927388280E+02 -0.17022700480E+01 -0.12691512401E+02  0.20436582592E+02  0.51100000000E-03 0.  1.
        -11    1    3    3    0    0 -0.20641173320E+01  0.11702406484E+02 -0.63326189515E+01  0.13465101593E+02  0.51100000000E-03 0. -1.
         12    1    3    3    0    0  0.33452534769E+01  0.52237846936E+00 -0.16278881103E+02  0.16627253833E+02  0.00000000000E+00 0. -1.
</event>
<event>
 7    1  0.5006721E-012  0.5052886E+02  0.7816164E-02  0.1300439E+00
        -11   -1    0    0    0    0  0.00000000000E+00  0.00000000000E+00  0.45593999997E+02  0.45594000000E+02  0.51100000000E-03 0.  1.
         11   -1    0    0    0    0 -0.00000000000E+00 -0.00000000000E+00 -0.45593999997E+02  0.45594000000E+02  0.51100000000E-03 0. -1.
    9900012    2    1    2    0    0  0.21174621704E+02 -0.11114005259E+02  0.32882822997E+02  0.50528858771E+02  0.29999996720E+02 0.  0.
        -12    1    1    2    0    0 -0.21174621704E+02  0.11114005259E+02 -0.32882822997E+02  0.40659141229E+02  0.00000000000E+00 0.  1.
         11    1    3    3    0    0  0.33166738150E+01  0.59430645961E+01 -0.25758919383E+01  0.72770572024E+01  0.51100000000E-03 0. -1.
        -11    1    3    3    0    0  0.10383778798E+02 -0.10921336480E+02  0.20605182931E+02  0.25527867449E+02  0.51100000000E-03 0.  1.
         12    1    3    3    0    0  0.74741690919E+01 -0.61357333751E+01  0.14853532005E+02  0.17723934120E+02  0.00000000000E+00 0. -1.
</event>
<event>
 7    1  0.5006721E-012  0.5052886E+02  0.7816164E-02  0.1300439E+00
        -11   -1    0    0    0    0  0.00000000000E+00  0.00000000000E+00  0.45593999997E+02  0.45594000000E+02  0.51100000000E-03 0. -1.
         11   -1    0    0    0    0 -0.00000000000E+00 -0.00000000000E+00 -0.45593999997E+02  0.45594000000E+02  0.51100000000E-03 0.  1.
    9900012    2    1    2    0    0  0.11387116799E+02  0.86974803457E+01 -0.38050661854E+02  0.50528862516E+02  0.30000008105E+02 0.  0.
         12    1    1    2    0    0 -0.11387116799E+02 -0.86974803457E+01  0.38050661854E+02  0.40659137484E+02  0.00000000000E+00 0. -1.
         11    1    3    3    0    0  0.64009668071E+01  0.85548876022E+01 -0.33885677621E+01  0.11208963810E+02  0.51100000000E-03 0. -1.
        -11    1    3    3    0    0  0.11404304767E+02 -0.22433266753E+01 -0.19866953713E+02  0.23017092168E+02  0.51100000000E-03 0.  1.
        -12    1    3    3    0    0 -0.64181547749E+01  0.23859194189E+01 -0.14795140379E+02  0.16302806539E+02  0.00000000000E+00 0.  1.
</event>
<event>
 7    1  0.5006721E-012  0.5052886E+02  0.7816164E-02  0.1300439E+00
        -11   -1    0    0    0    0  0.00000000000E+00  0.00000000000E+00  0.45593999997E+02  0.45594000000E+02  0.51100000000E-03 0. -1.
         11   -1    0    0    0    0 -0.00000000000E+00 -0.00000000000E+00 -0.45593999997E+02  0.45594000000E+02  0.51100000000E-03 0.  1.
    9900012    2    1    2    0    0 -0.56270621995E+01  0.17869027593E+02 -0.36086004956E+02  0.50528859210E+02  0.29999998054E+02 0.  0.
         12    1    1    2    0    0  0.56270621995E+01 -0.17869027593E+02  0.36086004956E+02  0.40659140790E+02  0.00000000000E+00 0. -1.
         11    1    3    3    0    0 -0.17904401362E+01  0.21405681411E+01  0.12713923220E+01  0.30666180958E+01  0.51100000000E-03 0. -1.
        -11    1    3    3    0    0  0.54544770424E+01  0.16804068850E+01 -0.27203262400E+02  0.27795549510E+02  0.51100000000E-03 0.  1.
        -12    1    3    3    0    0 -0.92910991057E+01  0.14048052567E+02 -0.10154134878E+02  0.19666691604E+02  0.00000000000E+00 0.  1.
</event>
<event>
 7    1  0.5006721E-012  0.5052886E+02  0.7816164E-02  0.1300439E+00
        -11   -1    0    0    0    0  0.00000000000E+00  0.00000000000E+00  0.45593999997E+02  0.45594000000E+02  0.51100000000E-03 0. -1.
         11   -1    0    0    0    0 -0.00000000000E+00 -0.00000000000E+00 -0.45593999997E+02  0.45594000000E+02  0.51100000000E-03 0.  1.
    9900012    2    1    2    0    0 -0.38535807982E+02  0.28908838854E+01 -0.12641207226E+02  0.50528858019E+02  0.29999994435E+02 0.  0.
         12    1    1    2    0    0  0.38535807982E+02 -0.28908838854E+01  0.12641207226E+02  0.40659141981E+02  0.00000000000E+00 0. -1.
         11    1    3    3    0    0 -0.12355600902E+02  0.68403142045E+01 -0.17783894025E+02  0.22709417848E+02  0.51100000000E-03 0. -1.
        -11    1    3    3    0    0 -0.12082663652E+02 -0.52587532192E+01  0.22324766983E+01  0.13365223486E+02  0.51100000000E-03 0.  1.
         12    1    3    3    0    0 -0.14097543427E+02  0.13093229001E+01  0.29102101001E+01  0.14454216685E+02  0.00000000000E+00 0. -1.
</event>
<event>
 7    1  0.5006721E-012  0.5052886E+02  0.7816164E-02  0.1300439E+00
        -11   -1    0    0    0    0  0.00000000000E+00  0.00000000000E+00  0.45593999997E+02  0.45594000000E+02  0.51100000000E-03 0. -1.
         11   -1    0    0    0    0 -0.00000000000E+00 -0.00000000000E+00 -0.45593999997E+02  0.45594000000E+02  0.51100000000E-03 0.  1.
    9900012    2    1    2    0    0  0.20066733906E+02  0.34625988019E+02 -0.71786181545E+01  0.50528863086E+02  0.30000009837E+02 0.  0.
         12    1    1    2    0    0 -0.20066733906E+02 -0.34625988019E+02  0.71786181545E+01  0.40659136914E+02  0.00000000000E+00 0. -1.
         11    1    3    3    0    0  0.94823777107E+01  0.22140323241E+02  0.94989721011E+01  0.25890922570E+02  0.51100000000E-03 0. -1.
        -11    1    3    3    0    0  0.83625335800E+01  0.13189683158E+02 -0.15586764829E+02  0.22064608489E+02  0.51100000000E-03 0.  1.
         12    1    3    3    0    0  0.22218226151E+01 -0.70401837983E+00 -0.10908254266E+01  0.25733320275E+01  0.00000000000E+00 0. -1.
</event>
<event>
 7    1  0.5006721E-012  0.5052887E+02  0.7816164E-02  0.1300439E+00
        -11   -1    0    0    0    0  0.00000000000E+00  0.00000000000E+00  0.45593999997E+02  0.45594000000E+02  0.51100000000E-03 0. -1.
         11   -1    0    0    0    0 -0.00000000000E+00 -0.00000000000E+00 -0.45593999997E+02  0.45594000000E+02  0.51100000000E-03 0.  1.
    9900012    2    1    2    0    0  0.93026986896E+01  0.11802579516E+02 -0.37779937017E+02  0.50528871540E+02  0.30000035532E+02 0.  0.
         12    1    1    2    0    0 -0.93026986896E+01 -0.11802579516E+02  0.37779937017E+02  0.40659128460E+02  0.00000000000E+00 0. -1.
         11    1    3    3    0    0  0.60666631429E+01  0.25854840619E+01 -0.45288638380E+00  0.66101615609E+01  0.51100000000E-03 0. -1.
        -11    1    3    3    0    0 -0.51455535149E+01  0.12794974955E+02 -0.19322926792E+02  0.23739494626E+02  0.51100000000E-03 0.  1.
        -12    1    3    3    0    0  0.83815890616E+01 -0.35778795009E+01 -0.18004123842E+02  0.20179215352E+02  0.00000000000E+00 0.  1.
</event>
<event>
 7    1  0.7026611E-012  0.5052885E+02  0.7816164E-02  0.1300439E+00
        -11   -1    0    0    0    0  0.00000000000E+00  0.00000000000E+00  0.45593999997E+02  0.45594000000E+02  0.51100000000E-03 0. -1.
         11   -1    0    0    0    0 -0.00000000000E+00 -0.00000000000E+00 -0.45593999997E+02  0.45594000000E+02  0.51100000000E-03 0.  1.
    9900012    2    1    2    0    0 -0.15583257116E+02  0.42444092128E+01  0.37313714320E+02  0.50528853572E+02  0.29999980918E+02 0.  0.
        -12    1    1    2    0    0  0.15583257116E+02 -0.42444092128E+01 -0.37313714320E+02  0.40659146428E+02  0.00000000000E+00 0.  1.
         11    1    3    3    0    0 -0.14556939016E+02  0.50533788039E+01  0.39704780692E+02  0.42590030769E+02  0.51100000000E-03 0. -1.
        -11    1    3    3    0    0  0.25284355386E+01  0.33162237850E+00  0.11462683002E+01  0.27958703389E+01  0.51100000000E-03 0.  1.
         12    1    3    3    0    0 -0.35547536387E+01 -0.11405919695E+01 -0.35373346719E+01  0.51429524646E+01  0.00000000000E+00 0. -1.
</event>
<event>
 7    1  0.5006721E-012  0.5052884E+02  0.7816164E-02  0.1300439E+00
        -11   -1    0    0    0    0  0.00000000000E+00  0.00000000000E+00  0.45593999997E+02  0.45594000000E+02  0.51100000000E-03 0. -1.
         11   -1    0    0    0    0 -0.00000000000E+00 -0.00000000000E+00 -0.45593999997E+02  0.45594000000E+02  0.51100000000E-03 0.  1.
    9900012    2    1    2    0    0  0.54155214140E+01  0.35753971388E+02  0.18587432478E+02  0.50528843733E+02  0.29999951011E+02 0.  0.
        -12    1    1    2    0    0 -0.54155214140E+01 -0.35753971388E+02 -0.18587432478E+02  0.40659156267E+02  0.00000000000E+00 0.  1.
         11    1    3    3    0    0 -0.27237651519E+01  0.10137252873E+02 -0.40527192868E+01  0.11251992103E+02  0.51100000000E-03 0. -1.
        -11    1    3    3    0    0  0.49355423085E+01  0.25550596671E+02  0.24355290197E+02  0.35642288492E+02  0.51100000000E-03 0.  1.
        -12    1    3    3    0    0  0.32037442573E+01  0.66121844382E-01 -0.17151384318E+01  0.36345631381E+01  0.00000000000E+00 0.  1.
</event>
<event>
 7    1  0.5006721E-012  0.5052887E+02  0.7816164E-02  0.1300439E+00
        -11   -1    0    0    0    0  0.00000000000E+00  0.00000000000E+00  0.45593999997E+02  0.45594000000E+02  0.51100000000E-03 0. -1.
         11   -1    0    0    0    0 -0.00000000000E+00 -0.00000000000E+00 -0.45593999997E+02  0.45594000000E+02  0.51100000000E-03 0.  1.
    9900012    2    1    2    0    0 -0.21563982427E+02  0.20080716906E+02 -0.28016503846E+02  0.50528867972E+02  0.30000024686E+02 0.  0.
         12    1    1    2    0    0  0.21563982427E+02 -0.20080716906E+02  0.28016503846E+02  0.40659132028E+02  0.00000000000E+00 0. -1.
         11    1    3    3    0    0 -0.72743566268E+01 -0.54611248743E+00 -0.10392846695E+02  0.12697470846E+02  0.51100000000E-03 0. -1.
        -11    1    3    3    0    0  0.36709898184E+01  0.84564498651E+01  0.95470370567E+00  0.92681805116E+01  0.51100000000E-03 0.  1.
        -12    1    3    3    0    0 -0.17960615619E+02  0.12170379528E+02 -0.18578360856E+02  0.28563216614E+02  0.00000000000E+00 0.  1.
</event>
<event>
 7    1  0.5006721E-012  0.5052898E+02  0.7816164E-02  0.1300438E+00
        -11   -1    0    0    0    0  0.00000000000E+00  0.00000000000E+00  0.45593999997E+02  0.45594000000E+02  0.51100000000E-03 0. -1.
         11   -1    0    0    0    0 -0.00000000000E+00 -0.00000000000E+00 -0.45593999997E+02  0.45594000000E+02  0.51100000000E-03 0.  1.
    9900012    2    1    2    0    0 -0.10460360045E+02 -0.26601780176E+01 -0.39200260163E+02  0.50528977924E+02  0.30000358895E+02 0.  0.
         12    1    1    2    0    0  0.10460360045E+02  0.26601780176E+01  0.39200260163E+02  0.40659022076E+02  0.00000000000E+00 0. -1.
         11    1    3    3    0    0 -0.79281958197E+01 -0.85781820963E+01 -0.16447453451E+02  0.20173255124E+02  0.51100000000E-03 0. -1.
        -11    1    3    3    0    0  0.63196634541E+01  0.84873125683E+01 -0.95506733764E+01  0.14254402233E+02  0.51100000000E-03 0.  1.
        -12    1    3    3    0    0 -0.88518276794E+01 -0.25693084896E+01 -0.13202133336E+02  0.16101320567E+02  0.00000000000E+00 0.  1.
</event>
<event>
 7    1  0.5006721E-012  0.5052887E+02  0.7816164E-02  0.1300439E+00
        -11   -1    0    0    0    0  0.00000000000E+00  0.00000000000E+00  0.45593999997E+02  0.45594000000E+02  0.51100000000E-03 0. -1.
         11   -1    0    0    0    0 -0.00000000000E+00 -0.00000000000E+00 -0.45593999997E+02  0.45594000000E+02  0.51100000000E-03 0.  1.
    9900012    2    1    2    0    0  0.96508947915E+01  0.22548020061E+02  0.32428571475E+02  0.50528865395E+02  0.30000016854E+02 0.  0.
        -12    1    1    2    0    0 -0.96508947915E+01 -0.22548020061E+02 -0.32428571475E+02  0.40659134605E+02  0.00000000000E+00 0.  1.
         11    1    3    3    0    0  0.24779462930E+01  0.14924904277E+02  0.19535312336E+02  0.24708731530E+02  0.51100000000E-03 0. -1.
        -11    1    3    3    0    0  0.36819209768E+00  0.17251868685E+01 -0.52644347510E+01  0.55521264990E+01  0.51100000000E-03 0.  1.
        -12    1    3    3    0    0  0.68047564008E+01  0.58979289151E+01  0.18157693890E+02  0.20268007366E+02  0.00000000000E+00 0.  1.
</event>
<event>
 7    1  0.5006721E-012  0.5052886E+02  0.7816164E-02  0.1300439E+00
        -11   -1    0    0    0    0  0.00000000000E+00  0.00000000000E+00  0.45593999997E+02  0.45594000000E+02  0.51100000000E-03 0. -1.
         11   -1    0    0    0    0 -0.00000000000E+00 -0.00000000000E+00 -0.45593999997E+02  0.45594000000E+02  0.51100000000E-03 0.  1.
    9900012    2    1    2    0    0 -0.31923468091E+02 -0.10252133469E+02 -0.22998941325E+02  0.50528863785E+02  0.30000011962E+02 0.  0.
         12    1    1    2    0    0  0.31923468091E+02  0.10252133469E+02  0.22998941325E+02  0.40659136215E+02  0.00000000000E+00 0. -1.
         11    1    3    3    0    0 -0.35973972773E+01  0.32786848049E+01 -0.17751659875E+02  0.18406859314E+02  0.51100000000E-03 0. -1.
        -11    1    3    3    0    0 -0.20677581845E+02 -0.10574619680E+02 -0.56852923514E+01  0.23910406138E+02  0.51100000000E-03 0.  1.
         12    1    3    3    0    0 -0.76484889690E+01 -0.29561985940E+01  0.43801090122E+00  0.82115983332E+01  0.00000000000E+00 0. -1.
</event>
<event>
 7    1  0.5006721E-012  0.5052886E+02  0.7816164E-02  0.1300439E+00
        -11   -1    0    0    0    0  0.00000000000E+00  0.00000000000E+00  0.45593999997E+02  0.45594000000E+02  0.51100000000E-03 0. -1.
         11   -1    0    0    0    0 -0.00000000000E+00 -0.00000000000E+00 -0.45593999997E+02  0.45594000000E+02  0.51100000000E-03 0.  1.
    9900012    2    1    2    0    0 -0.12483761800E+02 -0.27709912146E+02 -0.27008925181E+02  0.50528861061E+02  0.30000003681E+02 0.  0.
         12    1    1    2    0    0  0.12483761800E+02  0.27709912146E+02  0.27008925181E+02  0.40659138939E+02  0.00000000000E+00 0. -1.
         11    1    3    3    0    0 -0.43753175966E+01  0.94303876366E+00 -0.16216736020E+01  0.47605201095E+01  0.51100000000E-03 0. -1.
        -11    1    3    3    0    0 -0.63776428042E+01 -0.32696775540E+02 -0.20166148124E+02  0.38941327518E+02  0.51100000000E-03 0.  1.
        -12    1    3    3    0    0 -0.17308013995E+01  0.40438246307E+01 -0.52211034552E+01  0.68270134333E+01  0.00000000000E+00 0.  1.
</event>
<event>
 7    1  0.5006721E-012  0.5052884E+02  0.7816164E-02  0.1300439E+00
        -11   -1    0    0    0    0  0.00000000000E+00  0.00000000000E+00  0.45593999997E+02  0.45594000000E+02  0.51100000000E-03 0.  1.
         11   -1    0    0    0    0 -0.00000000000E+00 -0.00000000000E+00 -0.45593999997E+02  0.45594000000E+02  0.51100000000E-03 0. -1.
    9900012    2    1    2    0    0  0.24559425741E+02 -0.22636004834E+02 -0.23186481870E+02  0.50528842986E+02  0.29999948741E+02 0.  0.
         12    1    1    2    0    0 -0.24559425741E+02  0.22636004834E+02  0.23186481870E+02  0.40659157014E+02  0.00000000000E+00 0. -1.
         11    1    3    3    0    0  0.17718853704E+01  0.19701617802E+01 -0.30307274189E+01  0.40257203274E+01  0.51100000000E-03 0. -1.
        -11    1    3    3    0    0  0.28278066018E+02 -0.20450299340E+02 -0.18124332426E+02  0.39323722954E+02  0.51100000000E-03 0.  1.
        -12    1    3    3    0    0 -0.54905256472E+01 -0.41558672736E+01 -0.20314220254E+01  0.71793997050E+01  0.00000000000E+00 0.  1.
</event>
<event>
 7    1  0.5006721E-012  0.5052884E+02  0.7816164E-02  0.1300439E+00
        -11   -1    0    0    0    0  0.00000000000E+00  0.00000000000E+00  0.45593999997E+02  0.45594000000E+02  0.51100000000E-03 0. -1.
         11   -1    0    0    0    0 -0.00000000000E+00 -0.00000000000E+00 -0.45593999997E+02  0.45594000000E+02  0.51100000000E-03 0.  1.
    9900012    2    1    2    0    0  0.16427852883E+02  0.31453917459E+02  0.19848014667E+02  0.50528844080E+02  0.29999952066E+02 0.  0.
        -12    1    1    2    0    0 -0.16427852883E+02 -0.31453917459E+02 -0.19848014667E+02  0.40659155920E+02  0.00000000000E+00 0.  1.
         11    1    3    3    0    0  0.16220764248E+02  0.88298523552E+01  0.10543701068E+02  0.21266149578E+02  0.51100000000E-03 0. -1.
        -11    1    3    3    0    0  0.39254977927E+01  0.20875813148E+02  0.26010571583E+01  0.21400341262E+02  0.51100000000E-03 0.  1.
         12    1    3    3    0    0 -0.37184091576E+01  0.17482519560E+01  0.67032564408E+01  0.78623532404E+01  0.00000000000E+00 0. -1.
</event>
<event>
 7    1  0.5006721E-012  0.5052885E+02  0.7816164E-02  0.1300439E+00
        -11   -1    0    0    0    0  0.00000000000E+00  0.00000000000E+00  0.45593999997E+02  0.45594000000E+02  0.51100000000E-03 0. -1.
         11   -1    0    0    0    0 -0.00000000000E+00 -0.00000000000E+00 -0.45593999997E+02  0.45594000000E+02  0.51100000000E-03 0.  1.
    9900012    2    1    2    0    0  0.14876611205E+02  0.18709778748E+02 -0.32890683729E+02  0.50528850256E+02  0.29999970838E+02 0.  0.
         12    1    1    2    0    0 -0.14876611205E+02 -0.18709778748E+02  0.32890683729E+02  0.40659149744E+02  0.00000000000E+00 0. -1.
         11    1    3    3    0    0 -0.56186851621E+01  0.81644146759E+01 -0.21787125231E+01  0.10147614423E+02  0.51100000000E-03 0. -1.
        -11    1    3    3    0    0  0.18214596961E+02  0.84844464500E+01 -0.16973800658E+02  0.26303370185E+02  0.51100000000E-03 0.  1.
         12    1    3    3    0    0  0.22806994062E+01  0.20609176222E+01 -0.13738170548E+02  0.14077865649E+02  0.00000000000E+00 0. -1.
</event>
<event>
 7    1  0.5006721E-012  0.5052886E+02  0.7816164E-02  0.1300439E+00
        -11   -1    0    0    0    0  0.00000000000E+00  0.00000000000E+00  0.45593999997E+02  0.45594000000E+02  0.51100000000E-03 0. -1.
         11   -1    0    0    0    0 -0.00000000000E+00 -0.00000000000E+00 -0.45593999997E+02  0.45594000000E+02  0.51100000000E-03 0.  1.
    9900012    2    1    2    0    0 -0.23089575747E+02 -0.14773940721E+02  0.30029448665E+02  0.50528860564E+02  0.30000002170E+02 0.  0.
        -12    1    1    2    0    0  0.23089575747E+02  0.14773940721E+02 -0.30029448665E+02  0.40659139436E+02  0.00000000000E+00 0.  1.
         11    1    3    3    0    0 -0.18635965020E+02  0.83357571301E+00  0.32164262397E+01  0.18929855749E+02  0.51100000000E-03 0. -1.
        -11    1    3    3    0    0 -0.13540061118E+01 -0.86344511312E+01  0.17481872769E+02  0.19544895873E+02  0.51100000000E-03 0.  1.
         12    1    3    3    0    0 -0.30996046152E+01 -0.69730653023E+01  0.93311496560E+01  0.12054108942E+02  0.00000000000E+00 0. -1.
</event>
<event>
 7    1  0.5006721E-012  0.5052887E+02  0.7816164E-02  0.1300439E+00
        -11   -1    0    0    0    0  0.00000000000E+00  0.00000000000E+00  0.45593999997E+02  0.45594000000E+02  0.51100000000E-03 0. -1.
         11   -1    0    0    0    0 -0.00000000000E+00 -0.00000000000E+00 -0.45593999997E+02  0.45594000000E+02  0.51100000000E-03 0.  1.
    9900012    2    1    2    0    0  0.86909330485E+01 -0.30825624033E+02 -0.25048230208E+02  0.50528865100E+02  0.30000015958E+02 0.  0.
         12    1    1    2    0    0 -0.86909330485E+01  0.30825624033E+02  0.25048230208E+02  0.40659134900E+02  0.00000000000E+00 0. -1.
         11    1    3    3    0    0 -0.74192315314E+01 -0.70503159315E+01 -0.15016593186E+02  0.18172782463E+02  0.51100000000E-03 0. -1.
        -11    1    3    3    0    0  0.74945717193E+01 -0.15740890768E+02 -0.91141796210E+00  0.17457804283E+02  0.51100000000E-03 0.  1.
         12    1    3    3    0    0  0.86155928607E+01 -0.80344173337E+01 -0.91202190589E+01  0.14898278354E+02  0.00000000000E+00 0. -1.
</event>
<event>
 7    1  0.5006721E-012  0.5052886E+02  0.7816164E-02  0.1300439E+00
        -11   -1    0    0    0    0  0.00000000000E+00  0.00000000000E+00  0.45593999997E+02  0.45594000000E+02  0.51100000000E-03 0. -1.
         11   -1    0    0    0    0 -0.00000000000E+00 -0.00000000000E+00 -0.45593999997E+02  0.45594000000E+02  0.51100000000E-03 0.  1.
    9900012    2    1    2    0    0  0.12917092646E+02 -0.29861355920E+02 -0.24384703600E+02  0.50528860443E+02  0.30000001804E+02 0.  0.
         12    1    1    2    0    0 -0.12917092646E+02  0.29861355920E+02  0.24384703600E+02  0.40659139557E+02  0.00000000000E+00 0. -1.
         11    1    3    3    0    0  0.16012965604E+01  0.23522733622E+01 -0.55892280601E+01  0.62719065055E+01  0.51100000000E-03 0. -1.
        -11    1    3    3    0    0 -0.33551909602E+01 -0.21842235127E+02 -0.10126994533E+02  0.24308363998E+02  0.51100000000E-03 0.  1.
        -12    1    3    3    0    0  0.14670987046E+02 -0.10371394155E+02 -0.86684810068E+01  0.19948589940E+02  0.00000000000E+00 0.  1.
</event>
<event>
 7    1  0.5006721E-012  0.5052886E+02  0.7816164E-02  0.1300439E+00
        -11   -1    0    0    0    0  0.00000000000E+00  0.00000000000E+00  0.45593999997E+02  0.45594000000E+02  0.51100000000E-03 0. -1.
         11   -1    0    0    0    0 -0.00000000000E+00 -0.00000000000E+00 -0.45593999997E+02  0.45594000000E+02  0.51100000000E-03 0.  1.
    9900012    2    1    2    0    0  0.16787861343E+02 -0.36086860653E+02 -0.83109354591E+01  0.50528862669E+02  0.30000008569E+02 0.  0.
         12    1    1    2    0    0 -0.16787861343E+02  0.36086860653E+02  0.83109354591E+01  0.40659137331E+02  0.00000000000E+00 0. -1.
         11    1    3    3    0    0  0.72919249223E+01 -0.18447081091E+02  0.48845897592E+01  0.20428563024E+02  0.51100000000E-03 0. -1.
        -11    1    3    3    0    0 -0.35835239640E+01  0.14202454905E+01 -0.10880372131E+01  0.40053172774E+01  0.51100000000E-03 0.  1.
        -12    1    3    3    0    0  0.13079460385E+02 -0.19060025053E+02 -0.12107488005E+02  0.26094982368E+02  0.00000000000E+00 0.  1.
</event>
<event>
 7    1  0.5006721E-012  0.5052896E+02  0.7816164E-02  0.1300438E+00
        -11   -1    0    0    0    0  0.00000000000E+00  0.00000000000E+00  0.45593999997E+02  0.45594000000E+02  0.51100000000E-03 0. -1.
         11   -1    0    0    0    0 -0.00000000000E+00 -0.00000000000E+00 -0.45593999997E+02  0.45594000000E+02  0.51100000000E-03 0.  1.
    9900012    2    1    2    0    0 -0.11575142467E+02 -0.72148804359E+01  0.38302989385E+02  0.50528961415E+02  0.30000308716E+02 0.  0.
        -12    1    1    2    0    0  0.11575142467E+02  0.72148804359E+01 -0.38302989385E+02  0.40659038585E+02  0.00000000000E+00 0.  1.
         11    1    3    3    0    0  0.46330239238E+01 -0.11623705119E+02  0.13272880789E+02  0.18241293706E+02  0.51100000000E-03 0. -1.
        -11    1    3    3    0    0 -0.71798845833E+01  0.52308260006E+01  0.47498853608E+01  0.10073415234E+02  0.51100000000E-03 0.  1.
        -12    1    3    3    0    0 -0.90282818074E+01 -0.82200131700E+00  0.20280223235E+02  0.22214252475E+02  0.00000000000E+00 0.  1.
</event>
<event>
 7    1  0.5006721E-012  0.5052886E+02  0.7816164E-02  0.1300439E+00
        -11   -1    0    0    0    0  0.00000000000E+00  0.00000000000E+00  0.45593999997E+02  0.45594000000E+02  0.51100000000E-03 0. -1.
         11   -1    0    0    0    0 -0.00000000000E+00 -0.00000000000E+00 -0.45593999997E+02  0.45594000000E+02  0.51100000000E-03 0.  1.
    9900012    2    1    2    0    0 -0.30249940707E+02 -0.12928978902E+02 -0.23894525554E+02  0.50528858842E+02  0.29999996937E+02 0.  0.
         12    1    1    2    0    0  0.30249940707E+02  0.12928978902E+02  0.23894525554E+02  0.40659141158E+02  0.00000000000E+00 0. -1.
         11    1    3    3    0    0  0.27105965707E+01  0.47912839455E+01 -0.45340021900E+01  0.71316836536E+01  0.51100000000E-03 0. -1.
        -11    1    3    3    0    0 -0.28683038499E+02 -0.12809080770E+02 -0.19330336882E+02  0.36884294381E+02  0.51100000000E-03 0.  1.
        -12    1    3    3    0    0 -0.42774987786E+01 -0.49111820769E+01 -0.30186482338E-01  0.65128808078E+01  0.00000000000E+00 0.  1.
</event>
<event>
 7    1  0.5006721E-012  0.5052886E+02  0.7816164E-02  0.1300439E+00
        -11   -1    0    0    0    0  0.00000000000E+00  0.00000000000E+00  0.45593999997E+02  0.45594000000E+02  0.51100000000E-03 0. -1.
         11   -1    0    0    0    0 -0.00000000000E+00 -0.00000000000E+00 -0.45593999997E+02  0.45594000000E+02  0.51100000000E-03 0.  1.
    9900012    2    1    2    0    0  0.21127853206E+02 -0.33922546056E+02 -0.74860337069E+01  0.50528855731E+02  0.29999987480E+02 0.  0.
         12    1    1    2    0    0 -0.21127853206E+02  0.33922546056E+02  0.74860337069E+01  0.40659144269E+02  0.00000000000E+00 0. -1.
         11    1    3    3    0    0  0.57215148690E+01 -0.33671221063E+01  0.64339601275E+01  0.92449492621E+01  0.51100000000E-03 0. -1.
        -11    1    3    3    0    0  0.12829643359E+02 -0.92962828304E+01 -0.11818988892E+02  0.19766363395E+02  0.51100000000E-03 0.  1.
        -12    1    3    3    0    0  0.25766949775E+01 -0.21259141120E+02 -0.21010049426E+01  0.21517543074E+02  0.00000000000E+00 0.  1.
</event>
<event>
 7    1  0.5006721E-012  0.5052886E+02  0.7816164E-02  0.1300439E+00
        -11   -1    0    0    0    0  0.00000000000E+00  0.00000000000E+00  0.45593999997E+02  0.45594000000E+02  0.51100000000E-03 0. -1.
         11   -1    0    0    0    0 -0.00000000000E+00 -0.00000000000E+00 -0.45593999997E+02  0.45594000000E+02  0.51100000000E-03 0.  1.
    9900012    2    1    2    0    0 -0.50907454848E+01 -0.12948340368E+02 -0.38204590108E+02  0.50528856954E+02  0.29999991198E+02 0.  0.
         12    1    1    2    0    0  0.50907454848E+01  0.12948340368E+02  0.38204590108E+02  0.40659143046E+02  0.00000000000E+00 0. -1.
         11    1    3    3    0    0 -0.91420741403E+01 -0.11886374988E-01 -0.41524764578E+01  0.10040952239E+02  0.51100000000E-03 0. -1.
        -11    1    3    3    0    0  0.82659514453E+01 -0.10052701621E+02 -0.32715398195E+02  0.35209090339E+02  0.51100000000E-03 0.  1.
        -12    1    3    3    0    0 -0.42146227897E+01 -0.28837523726E+01 -0.13367154551E+01  0.52788143758E+01  0.00000000000E+00 0.  1.
</event>
<event>
 7    1  0.5006721E-012  0.5052886E+02  0.7816164E-02  0.1300439E+00
        -11   -1    0    0    0    0  0.00000000000E+00  0.00000000000E+00  0.45593999997E+02  0.45594000000E+02  0.51100000000E-03 0. -1.
         11   -1    0    0    0    0 -0.00000000000E+00 -0.00000000000E+00 -0.45593999997E+02  0.45594000000E+02  0.51100000000E-03 0.  1.
    9900012    2    1    2    0    0 -0.11088829365E+02  0.97111019271E+01 -0.37893247436E+02  0.50528857872E+02  0.29999993989E+02 0.  0.
         12    1    1    2    0    0  0.11088829365E+02 -0.97111019271E+01  0.37893247436E+02  0.40659142128E+02  0.00000000000E+00 0. -1.
         11    1    3    3    0    0 -0.81455584475E+01 -0.45635395667E+01 -0.98658435283E+01  0.13583478368E+02  0.51100000000E-03 0. -1.
        -11    1    3    3    0    0 -0.16835803497E+01  0.19048353577E+02 -0.22730129595E+02  0.29704090770E+02  0.51100000000E-03 0.  1.
        -12    1    3    3    0    0 -0.12596905683E+01 -0.47737120837E+01 -0.52972743120E+01  0.72412887335E+01  0.00000000000E+00 0.  1.
</event>
<event>
 7    1  0.5006721E-012  0.5052886E+02  0.7816164E-02  0.1300439E+00
        -11   -1    0    0    0    0  0.00000000000E+00  0.00000000000E+00  0.45593999997E+02  0.45594000000E+02  0.51100000000E-03 0. -1.
         11   -1    0    0    0    0 -0.00000000000E+00 -0.00000000000E+00 -0.45593999997E+02  0.45594000000E+02  0.51100000000E-03 0.  1.
    9900012    2    1    2    0    0 -0.57675408684E+01 -0.27640854113E+02 -0.29255497849E+02  0.50528862058E+02  0.30000006712E+02 0.  0.
         12    1    1    2    0    0  0.57675408684E+01  0.27640854113E+02  0.29255497849E+02  0.40659137942E+02  0.00000000000E+00 0. -1.
         11    1    3    3    0    0 -0.35158354872E+01 -0.64733312808E+01  0.36700053724E+01  0.82300702754E+01  0.51100000000E-03 0. -1.
        -11    1    3    3    0    0  0.43426551432E+01 -0.17890985890E+02 -0.27736871401E+02  0.33290840560E+02  0.51100000000E-03 0.  1.
        -12    1    3    3    0    0 -0.65943605244E+01 -0.32765369419E+01 -0.51886318205E+01  0.90079512224E+01  0.00000000000E+00 0.  1.
</event>
<event>
 7    1  0.5006721E-012  0.5052890E+02  0.7816164E-02  0.1300439E+00
        -11   -1    0    0    0    0  0.00000000000E+00  0.00000000000E+00  0.45593999997E+02  0.45594000000E+02  0.51100000000E-03 0. -1.
         11   -1    0    0    0    0 -0.00000000000E+00 -0.00000000000E+00 -0.45593999997E+02  0.45594000000E+02  0.51100000000E-03 0.  1.
    9900012    2    1    2    0    0 -0.40606956396E+02  0.20317657714E+01 -0.33116972466E+00  0.50528897043E+02  0.30000113050E+02 0.  0.
        -12    1    1    2    0    0  0.40606956396E+02 -0.20317657714E+01  0.33116972466E+00  0.40659102957E+02  0.00000000000E+00 0.  1.
         11    1    3    3    0    0 -0.30866048190E+01  0.91682968414E+01 -0.43080526543E+01  0.10589811812E+02  0.51100000000E-03 0.  1.
        -11    1    3    3    0    0 -0.36273527605E+02 -0.83782450646E+01  0.19852211829E+01  0.37281428335E+02  0.51100000000E-03 0. -1.
         12    1    3    3    0    0 -0.12468239722E+01  0.12417139946E+01  0.19916617467E+01  0.26576568957E+01  0.00000000000E+00 0. -1.
</event>
<event>
 7    1  0.5006721E-012  0.5052886E+02  0.7816164E-02  0.1300439E+00
        -11   -1    0    0    0    0  0.00000000000E+00  0.00000000000E+00  0.45593999997E+02  0.45594000000E+02  0.51100000000E-03 0.  1.
         11   -1    0    0    0    0 -0.00000000000E+00 -0.00000000000E+00 -0.45593999997E+02  0.45594000000E+02  0.51100000000E-03 0. -1.
    9900012    2    1    2    0    0 -0.37261065502E+02 -0.10754054117E+02 -0.12211828875E+02  0.50528862690E+02  0.30000008632E+02 0.  0.
        -12    1    1    2    0    0  0.37261065502E+02  0.10754054117E+02  0.12211828875E+02  0.40659137310E+02  0.00000000000E+00 0.  1.
         11    1    3    3    0    0 -0.34934367211E+02 -0.57491683764E+00 -0.10964617392E+02  0.36619166793E+02  0.51100000000E-03 0. -1.
        -11    1    3    3    0    0 -0.21287685866E+01 -0.20300047559E+01 -0.42961003250E+01  0.52066355036E+01  0.51100000000E-03 0.  1.
         12    1    3    3    0    0 -0.19792970507E+00 -0.81491325231E+01  0.30488888414E+01  0.87030603936E+01  0.00000000000E+00 0. -1.
</event>
<event>
 7    1  0.5006721E-012  0.5052881E+02  0.7816164E-02  0.1300439E+00
        -11   -1    0    0    0    0  0.00000000000E+00  0.00000000000E+00  0.45593999997E+02  0.45594000000E+02  0.51100000000E-03 0.  1.
         11   -1    0    0    0    0 -0.00000000000E+00 -0.00000000000E+00 -0.45593999997E+02  0.45594000000E+02  0.51100000000E-03 0. -1.
    9900012    2    1    2    0    0  0.40341413130E+02  0.49412283271E+01  0.11507049951E+01  0.50528813182E+02  0.29999858147E+02 0.  0.
        -12    1    1    2    0    0 -0.40341413130E+02 -0.49412283271E+01 -0.11507049951E+01  0.40659186818E+02  0.00000000000E+00 0.  1.
         11    1    3    3    0    0  0.24324776716E+02  0.12948713795E+02  0.32536029906E+01  0.27747970807E+02  0.51100000000E-03 0. -1.
        -11    1    3    3    0    0  0.16162606966E+02 -0.11079492824E+02 -0.20765587517E+01  0.19705256194E+02  0.51100000000E-03 0.  1.
        -12    1    3    3    0    0 -0.14597055189E+00  0.30720073558E+01 -0.26339243705E-01  0.30755861802E+01  0.00000000000E+00 0.  1.
</event>
<event>
 7    1  0.5006721E-012  0.5052881E+02  0.7816164E-02  0.1300439E+00
        -11   -1    0    0    0    0  0.00000000000E+00  0.00000000000E+00  0.45593999997E+02  0.45594000000E+02  0.51100000000E-03 0. -1.
         11   -1    0    0    0    0 -0.00000000000E+00 -0.00000000000E+00 -0.45593999997E+02  0.45594000000E+02  0.51100000000E-03 0.  1.
    9900012    2    1    2    0    0 -0.23448937967E+02 -0.12812360854E+02 -0.30645728461E+02  0.50528807247E+02  0.29999840107E+02 0.  0.
         12    1    1    2    0    0  0.23448937967E+02  0.12812360854E+02  0.30645728461E+02  0.40659192753E+02  0.00000000000E+00 0. -1.
         11    1    3    3    0    0 -0.52264376333E+01 -0.14886165607E+02 -0.36509468591E+01  0.16193918304E+02  0.51100000000E-03 0. -1.
        -11    1    3    3    0    0 -0.12548052840E+02 -0.15601227939E+01 -0.10223615904E+02  0.16260686813E+02  0.51100000000E-03 0.  1.
         12    1    3    3    0    0 -0.56744474934E+01  0.36339275468E+01 -0.16771165698E+02  0.18074202130E+02  0.00000000000E+00 0. -1.
</event>
<event>
 7    1  0.5006721E-012  0.5052885E+02  0.7816164E-02  0.1300439E+00
        -11   -1    0    0    0    0  0.00000000000E+00  0.00000000000E+00  0.45593999997E+02  0.45594000000E+02  0.51100000000E-03 0. -1.
         11   -1    0    0    0    0 -0.00000000000E+00 -0.00000000000E+00 -0.45593999997E+02  0.45594000000E+02  0.51100000000E-03 0.  1.
    9900012    2    1    2    0    0  0.16027659183E+02 -0.17893545533E+02 -0.32803987159E+02  0.50528850917E+02  0.29999972848E+02 0.  0.
         12    1    1    2    0    0 -0.16027659183E+02  0.17893545533E+02  0.32803987159E+02  0.40659149083E+02  0.00000000000E+00 0. -1.
         11    1    3    3    0    0 -0.88676676761E+00  0.66633336609E+01 -0.71307144569E+01  0.97996663057E+01  0.51100000000E-03 0. -1.
        -11    1    3    3    0    0  0.12409636785E+02 -0.23956598055E+02 -0.20810601201E+02  0.34073432438E+02  0.51100000000E-03 0.  1.
         12    1    3    3    0    0  0.45047891658E+01 -0.60028113916E+00 -0.48626715010E+01  0.66557521739E+01  0.00000000000E+00 0. -1.
</event>
<event>
 7    1  0.5006721E-012  0.5052885E+02  0.7816164E-02  0.1300439E+00
        -11   -1    0    0    0    0  0.00000000000E+00  0.00000000000E+00  0.45593999997E+02  0.45594000000E+02  0.51100000000E-03 0. -1.
         11   -1    0    0    0    0 -0.00000000000E+00 -0.00000000000E+00 -0.45593999997E+02  0.45594000000E+02  0.51100000000E-03 0.  1.
    9900012    2    1    2    0    0  0.93911366785E+01  0.25950471274E+02 -0.29858765478E+02  0.50528852403E+02  0.29999977364E+02 0.  0.
         12    1    1    2    0    0 -0.93911366785E+01 -0.25950471274E+02  0.29858765478E+02  0.40659147597E+02  0.00000000000E+00 0. -1.
         11    1    3    3    0    0  0.85780463471E+01  0.26690405108E+02 -0.14158059237E+02  0.31407184617E+02  0.51100000000E-03 0. -1.
        -11    1    3    3    0    0  0.57014931542E+01  0.66374875810E+00 -0.95301590569E+01  0.11125264874E+02  0.51100000000E-03 0.  1.
         12    1    3    3    0    0 -0.48884028228E+01 -0.14036825925E+01 -0.61705471842E+01  0.79964029120E+01  0.00000000000E+00 0. -1.
</event>
<event>
 7    1  0.5006721E-012  0.5052886E+02  0.7816164E-02  0.1300439E+00
        -11   -1    0    0    0    0  0.00000000000E+00  0.00000000000E+00  0.45593999997E+02  0.45594000000E+02  0.51100000000E-03 0. -1.
         11   -1    0    0    0    0 -0.00000000000E+00 -0.00000000000E+00 -0.45593999997E+02  0.45594000000E+02  0.51100000000E-03 0.  1.
    9900012    2    1    2    0    0 -0.24463677235E+02 -0.23302855644E+02  0.22620151146E+02  0.50528858065E+02  0.29999994575E+02 0.  0.
        -12    1    1    2    0    0  0.24463677235E+02  0.23302855644E+02 -0.22620151146E+02  0.40659141935E+02  0.00000000000E+00 0.  1.
         11    1    3    3    0    0 -0.16178985875E+01  0.30151501756E+01  0.81703907273E+01  0.88579913817E+01  0.51100000000E-03 0. -1.
        -11    1    3    3    0    0 -0.12338945603E+02 -0.25039157239E+02  0.13603810239E+02  0.31052739446E+02  0.51100000000E-03 0.  1.
        -12    1    3    3    0    0 -0.10506833045E+02 -0.12788485797E+01  0.84595018017E+00  0.10618127237E+02  0.00000000000E+00 0.  1.
</event>
<event>
 7    1  0.5006721E-012  0.5052886E+02  0.7816164E-02  0.1300439E+00
        -11   -1    0    0    0    0  0.00000000000E+00  0.00000000000E+00  0.45593999997E+02  0.45594000000E+02  0.51100000000E-03 0. -1.
         11   -1    0    0    0    0 -0.00000000000E+00 -0.00000000000E+00 -0.45593999997E+02  0.45594000000E+02  0.51100000000E-03 0.  1.
    9900012    2    1    2    0    0 -0.35376672555E+02  0.17988692841E+02 -0.88353542524E+01  0.50528861840E+02  0.30000006048E+02 0.  0.
        -12    1    1    2    0    0  0.35376672555E+02 -0.17988692841E+02  0.88353542524E+01  0.40659138160E+02  0.00000000000E+00 0.  1.
         11    1    3    3    0    0 -0.21994562197E-01  0.93194400440E+01  0.12197625073E+01  0.93989503312E+01  0.51100000000E-03 0.  1.
        -11    1    3    3    0    0 -0.26193299232E+02  0.13111744959E+02 -0.48352152341E+01  0.29688147250E+02  0.51100000000E-03 0. -1.
         12    1    3    3    0    0 -0.91613787607E+01 -0.44424921618E+01 -0.52199015257E+01  0.11441764258E+02  0.00000000000E+00 0. -1.
</event>
<event>
 7    1  0.5006721E-012  0.5052886E+02  0.7816164E-02  0.1300439E+00
        -11   -1    0    0    0    0  0.00000000000E+00  0.00000000000E+00  0.45593999997E+02  0.45594000000E+02  0.51100000000E-03 0. -1.
         11   -1    0    0    0    0 -0.00000000000E+00 -0.00000000000E+00 -0.45593999997E+02  0.45594000000E+02  0.51100000000E-03 0.  1.
    9900012    2    1    2    0    0 -0.16474686165E+02  0.21054995188E+02 -0.30633926334E+02  0.50528861430E+02  0.30000004803E+02 0.  0.
         12    1    1    2    0    0  0.16474686165E+02 -0.21054995188E+02  0.30633926334E+02  0.40659138570E+02  0.00000000000E+00 0. -1.
         11    1    3    3    0    0  0.65499971882E+01 -0.18720458922E+01 -0.63035934239E+01  0.92812881274E+01  0.51100000000E-03 0. -1.
        -11    1    3    3    0    0 -0.10694336213E+02  0.14895463013E+02 -0.16010962129E+02  0.24343265063E+02  0.51100000000E-03 0.  1.
         12    1    3    3    0    0 -0.12330347140E+02  0.80315780673E+01 -0.83193707819E+01  0.16904308240E+02  0.00000000000E+00 0. -1.
</event>
<event>
 7    1  0.5006721E-012  0.5052886E+02  0.7816164E-02  0.1300439E+00
        -11   -1    0    0    0    0  0.00000000000E+00  0.00000000000E+00  0.45593999997E+02  0.45594000000E+02  0.51100000000E-03 0. -1.
         11   -1    0    0    0    0 -0.00000000000E+00 -0.00000000000E+00 -0.45593999997E+02  0.45594000000E+02  0.51100000000E-03 0.  1.
    9900012    2    1    2    0    0 -0.32100363289E+02 -0.33679125893E+01 -0.24726297260E+02  0.50528856691E+02  0.29999990397E+02 0.  0.
         12    1    1    2    0    0  0.32100363289E+02  0.33679125893E+01  0.24726297260E+02  0.40659143309E+02  0.00000000000E+00 0. -1.
         11    1    3    3    0    0 -0.22528743682E+02  0.15179952751E+01 -0.15217110341E+01  0.22631045188E+02  0.51100000000E-03 0. -1.
        -11    1    3    3    0    0 -0.11268593143E+02 -0.11419079915E+01 -0.17978611625E+02  0.21248896948E+02  0.51100000000E-03 0.  1.
         12    1    3    3    0    0  0.16969735365E+01 -0.37439998730E+01 -0.52259746002E+01  0.66489145546E+01  0.00000000000E+00 0. -1.
</event>
<event>
 7    1  0.5006721E-012  0.5052885E+02  0.7816164E-02  0.1300439E+00
        -11   -1    0    0    0    0  0.00000000000E+00  0.00000000000E+00  0.45593999997E+02  0.45594000000E+02  0.51100000000E-03 0. -1.
         11   -1    0    0    0    0 -0.00000000000E+00 -0.00000000000E+00 -0.45593999997E+02  0.45594000000E+02  0.51100000000E-03 0.  1.
    9900012    2    1    2    0    0  0.27393434237E+02  0.16646424527E+02  0.25013254303E+02  0.50528848759E+02  0.29999966287E+02 0.  0.
        -12    1    1    2    0    0 -0.27393434237E+02 -0.16646424527E+02 -0.25013254303E+02  0.40659151241E+02  0.00000000000E+00 0.  1.
         11    1    3    3    0    0  0.19113752691E+02  0.20652125382E+02  0.78930114085E+01  0.29225766954E+02  0.51100000000E-03 0. -1.
        -11    1    3    3    0    0  0.10127773957E+02 -0.36784058155E+01  0.15037709614E+02  0.18499599600E+02  0.51100000000E-03 0.  1.
        -12    1    3    3    0    0 -0.18480924115E+01 -0.32729503896E+00  0.20825332807E+01  0.28034822041E+01  0.00000000000E+00 0.  1.
</event>
<event>
 7    1  0.5006721E-012  0.5052886E+02  0.7816164E-02  0.1300439E+00
        -11   -1    0    0    0    0  0.00000000000E+00  0.00000000000E+00  0.45593999997E+02  0.45594000000E+02  0.51100000000E-03 0. -1.
         11   -1    0    0    0    0 -0.00000000000E+00 -0.00000000000E+00 -0.45593999997E+02  0.45594000000E+02  0.51100000000E-03 0.  1.
    9900012    2    1    2    0    0 -0.11317801751E+02 -0.24119465766E+02 -0.30713583043E+02  0.50528862667E+02  0.30000008563E+02 0.  0.
         12    1    1    2    0    0  0.11317801751E+02  0.24119465766E+02  0.30713583043E+02  0.40659137333E+02  0.00000000000E+00 0. -1.
         11    1    3    3    0    0 -0.10523474785E+02 -0.18349898399E+02 -0.69844423333E+01  0.22276551074E+02  0.51100000000E-03 0. -1.
        -11    1    3    3    0    0 -0.20175389724E+01  0.96281051212E+00 -0.20612485838E+02  0.20733355741E+02  0.51100000000E-03 0.  1.
        -12    1    3    3    0    0  0.12232120057E+01 -0.67323778790E+01 -0.31166548715E+01  0.75189558520E+01  0.00000000000E+00 0.  1.
</event>
<event>
 7    1  0.5006721E-012  0.5052885E+02  0.7816164E-02  0.1300439E+00
        -11   -1    0    0    0    0  0.00000000000E+00  0.00000000000E+00  0.45593999997E+02  0.45594000000E+02  0.51100000000E-03 0.  1.
         11   -1    0    0    0    0 -0.00000000000E+00 -0.00000000000E+00 -0.45593999997E+02  0.45594000000E+02  0.51100000000E-03 0. -1.
    9900012    2    1    2    0    0 -0.16497053672E+02 -0.37140210042E+02  0.12721611632E+01  0.50528851265E+02  0.29999973906E+02 0.  0.
         12    1    1    2    0    0  0.16497053672E+02  0.37140210042E+02 -0.12721611632E+01  0.40659148735E+02  0.00000000000E+00 0. -1.
         11    1    3    3    0    0 -0.13696414868E+02 -0.36843776916E+01 -0.13807406252E+01  0.14250363649E+02  0.51100000000E-03 0. -1.
        -11    1    3    3    0    0 -0.42171247221E+01 -0.31053593028E+02 -0.13872397918E+01  0.31369319652E+02  0.51100000000E-03 0.  1.
         12    1    3    3    0    0  0.14164859181E+01 -0.24022393218E+01  0.40401415802E+01  0.49091679645E+01  0.00000000000E+00 0. -1.
</event>
<event>
 7    1  0.5006721E-012  0.5052875E+02  0.7816164E-02  0.1300439E+00
        -11   -1    0    0    0    0  0.00000000000E+00  0.00000000000E+00  0.45593999997E+02  0.45594000000E+02  0.51100000000E-03 0. -1.
         11   -1    0    0    0    0 -0.00000000000E+00 -0.00000000000E+00 -0.45593999997E+02  0.45594000000E+02  0.51100000000E-03 0.  1.
    9900012    2    1    2    0    0  0.24743287899E+01 -0.26261989698E+02  0.30941234771E+02  0.50528752404E+02  0.29999673407E+02 0.  0.
        -12    1    1    2    0    0 -0.24743287899E+01  0.26261989698E+02 -0.30941234771E+02  0.40659247596E+02  0.00000000000E+00 0.  1.
         11    1    3    3    0    0  0.28646606562E+01 -0.60322668442E+01  0.34946300688E+01  0.75370394409E+01  0.51100000000E-03 0. -1.
        -11    1    3    3    0    0 -0.74982403580E+01 -0.11388989601E+02  0.37653624292E+00  0.13640911714E+02  0.51100000000E-03 0.  1.
        -12    1    3    3    0    0  0.71079084917E+01 -0.88407332535E+01  0.27070068459E+02  0.29350801249E+02  0.00000000000E+00 0.  1.
</event>
<event>
 7    1  0.5006721E-012  0.5052886E+02  0.7816164E-02  0.1300439E+00
        -11   -1    0    0    0    0  0.00000000000E+00  0.00000000000E+00  0.45593999997E+02  0.45594000000E+02  0.51100000000E-03 0. -1.
         11   -1    0    0    0    0 -0.00000000000E+00 -0.00000000000E+00 -0.45593999997E+02  0.45594000000E+02  0.51100000000E-03 0.  1.
    9900012    2    1    2    0    0 -0.25926468919E+02  0.24303229217E+00 -0.31319718419E+02  0.50528860595E+02  0.30000002265E+02 0.  0.
         12    1    1    2    0    0  0.25926468919E+02 -0.24303229217E+00  0.31319718419E+02  0.40659139405E+02  0.00000000000E+00 0. -1.
         11    1    3    3    0    0  0.35481907099E+01  0.59352015808E+01 -0.54988206574E+01  0.88347780958E+01  0.51100000000E-03 0. -1.
        -11    1    3    3    0    0 -0.98353351939E+01 -0.57955250582E+01 -0.34507079711E+01  0.11925993243E+02  0.51100000000E-03 0.  1.
         12    1    3    3    0    0 -0.19639324435E+02  0.10335576960E+00 -0.22370189791E+02  0.29768089256E+02  0.00000000000E+00 0. -1.
</event>
<event>
 7    1  0.5006721E-012  0.5052886E+02  0.7816164E-02  0.1300439E+00
        -11   -1    0    0    0    0  0.00000000000E+00  0.00000000000E+00  0.45593999997E+02  0.45594000000E+02  0.51100000000E-03 0. -1.
         11   -1    0    0    0    0 -0.00000000000E+00 -0.00000000000E+00 -0.45593999997E+02  0.45594000000E+02  0.51100000000E-03 0.  1.
    9900012    2    1    2    0    0 -0.26238580951E+02  0.48276626227E+01  0.30682178148E+02  0.50528861881E+02  0.30000006173E+02 0.  0.
        -12    1    1    2    0    0  0.26238580951E+02 -0.48276626227E+01 -0.30682178148E+02  0.40659138119E+02  0.00000000000E+00 0.  1.
         11    1    3    3    0    0 -0.18314719345E+02  0.78705904961E+01  0.82708340894E+01  0.21581979433E+02  0.51100000000E-03 0. -1.
        -11    1    3    3    0    0 -0.59742750082E+01 -0.57428788676E+01  0.23902323058E+02  0.25298096122E+02  0.51100000000E-03 0.  1.
        -12    1    3    3    0    0 -0.19495865972E+01  0.26999509942E+01 -0.14909790002E+01  0.36487863256E+01  0.00000000000E+00 0.  1.
</event>
<event>
 7    1  0.5006721E-012  0.5052885E+02  0.7816164E-02  0.1300439E+00
        -11   -1    0    0    0    0  0.00000000000E+00  0.00000000000E+00  0.45593999997E+02  0.45594000000E+02  0.51100000000E-03 0. -1.
         11   -1    0    0    0    0 -0.00000000000E+00 -0.00000000000E+00 -0.45593999997E+02  0.45594000000E+02  0.51100000000E-03 0.  1.
    9900012    2    1    2    0    0 -0.30581761441E+01 -0.15732793245E+02 -0.37367005652E+02  0.50528851755E+02  0.29999975393E+02 0.  0.
         12    1    1    2    0    0  0.30581761441E+01  0.15732793245E+02  0.37367005652E+02  0.40659148245E+02  0.00000000000E+00 0. -1.
         11    1    3    3    0    0  0.40098004519E+01  0.39698849750E+01 -0.83719428458E+00  0.57043300141E+01  0.51100000000E-03 0. -1.
        -11    1    3    3    0    0 -0.11347029480E+02 -0.18142372156E+02 -0.29366302183E+02  0.36335663605E+02  0.51100000000E-03 0.  1.
         12    1    3    3    0    0  0.42790528843E+01 -0.15603060638E+01 -0.71635091847E+01  0.84888581352E+01  0.00000000000E+00 0. -1.
</event>
<event>
 7    1  0.5006721E-012  0.5052885E+02  0.7816164E-02  0.1300439E+00
        -11   -1    0    0    0    0  0.00000000000E+00  0.00000000000E+00  0.45593999997E+02  0.45594000000E+02  0.51100000000E-03 0. -1.
         11   -1    0    0    0    0 -0.00000000000E+00 -0.00000000000E+00 -0.45593999997E+02  0.45594000000E+02  0.51100000000E-03 0.  1.
    9900012    2    1    2    0    0  0.12825221136E+02  0.17534063302E+02 -0.34369120142E+02  0.50528854750E+02  0.29999984499E+02 0.  0.
         12    1    1    2    0    0 -0.12825221136E+02 -0.17534063302E+02  0.34369120142E+02  0.40659145250E+02  0.00000000000E+00 0. -1.
         11    1    3    3    0    0 -0.58226177419E+01  0.72682491549E+01 -0.13466862475E+01  0.94097761534E+01  0.51100000000E-03 0. -1.
        -11    1    3    3    0    0  0.10380570226E+02 -0.11084753875E+01 -0.14089451133E+02  0.17535609182E+02  0.51100000000E-03 0.  1.
        -12    1    3    3    0    0  0.82672686522E+01  0.11374289534E+02 -0.18932982762E+02  0.23583469415E+02  0.00000000000E+00 0.  1.
</event>
<event>
 7    1  0.5006721E-012  0.5052886E+02  0.7816164E-02  0.1300439E+00
        -11   -1    0    0    0    0  0.00000000000E+00  0.00000000000E+00  0.45593999997E+02  0.45594000000E+02  0.51100000000E-03 0.  1.
         11   -1    0    0    0    0 -0.00000000000E+00 -0.00000000000E+00 -0.45593999997E+02  0.45594000000E+02  0.51100000000E-03 0. -1.
    9900012    2    1    2    0    0 -0.16898360565E+02  0.36574521445E+02 -0.54695329589E+01  0.50528855893E+02  0.29999987973E+02 0.  0.
        -12    1    1    2    0    0  0.16898360565E+02 -0.36574521445E+02  0.54695329589E+01  0.40659144107E+02  0.00000000000E+00 0.  1.
         11    1    3    3    0    0 -0.13045227406E+02  0.23696971993E+02  0.12813442159E+01  0.27080736382E+02  0.51100000000E-03 0. -1.
        -11    1    3    3    0    0  0.23900260379E+01 -0.24136368197E+01 -0.60238624069E+01  0.69155466680E+01  0.51100000000E-03 0.  1.
        -12    1    3    3    0    0 -0.62431591973E+01  0.15291186271E+02 -0.72701476793E+00  0.16532572843E+02  0.00000000000E+00 0.  1.
</event>
<event>
 7    1  0.5006721E-012  0.5052886E+02  0.7816164E-02  0.1300439E+00
        -11   -1    0    0    0    0  0.00000000000E+00  0.00000000000E+00  0.45593999997E+02  0.45594000000E+02  0.51100000000E-03 0. -1.
         11   -1    0    0    0    0 -0.00000000000E+00 -0.00000000000E+00 -0.45593999997E+02  0.45594000000E+02  0.51100000000E-03 0.  1.
    9900012    2    1    2    0    0 -0.64396416588E+01  0.16490393567E+02  0.36602785758E+02  0.50528856011E+02  0.29999988330E+02 0.  0.
        -12    1    1    2    0    0  0.64396416588E+01 -0.16490393567E+02 -0.36602785758E+02  0.40659143989E+02  0.00000000000E+00 0.  1.
         11    1    3    3    0    0 -0.13498882766E+02  0.44369828090E+01  0.12836970941E+02  0.19149268278E+02  0.51100000000E-03 0. -1.
        -11    1    3    3    0    0  0.86974497868E+01  0.84695400012E+00  0.72550733895E+01  0.11357775047E+02  0.51100000000E-03 0.  1.
        -12    1    3    3    0    0 -0.16382086799E+01  0.11206456758E+02  0.16510741427E+02  0.20021812686E+02  0.00000000000E+00 0.  1.
</event>
<event>
 7    1  0.5006721E-012  0.5052891E+02  0.7816164E-02  0.1300439E+00
        -11   -1    0    0    0    0  0.00000000000E+00  0.00000000000E+00  0.45593999997E+02  0.45594000000E+02  0.51100000000E-03 0. -1.
         11   -1    0    0    0    0 -0.00000000000E+00 -0.00000000000E+00 -0.45593999997E+02  0.45594000000E+02  0.51100000000E-03 0.  1.
    9900012    2    1    2    0    0 -0.10117476549E+02 -0.35736831468E+02  0.16543198692E+02  0.50528906576E+02  0.30000142027E+02 0.  0.
        -12    1    1    2    0    0  0.10117476549E+02  0.35736831468E+02 -0.16543198692E+02  0.40659093424E+02  0.00000000000E+00 0.  1.
         11    1    3    3    0    0 -0.10894424157E+02 -0.32134037345E+02  0.15932284328E+01  0.33967973312E+02  0.51100000000E-03 0. -1.
        -11    1    3    3    0    0 -0.22329455202E+01 -0.19975629144E+01  0.10698709053E+02  0.11110296078E+02  0.51100000000E-03 0.  1.
         12    1    3    3    0    0  0.30098931281E+01 -0.16052312086E+01  0.42512612070E+01  0.54506371853E+01  0.00000000000E+00 0. -1.
</event>
<event>
 7    1  0.5006721E-012  0.5052884E+02  0.7816164E-02  0.1300439E+00
        -11   -1    0    0    0    0  0.00000000000E+00  0.00000000000E+00  0.45593999997E+02  0.45594000000E+02  0.51100000000E-03 0. -1.
         11   -1    0    0    0    0 -0.00000000000E+00 -0.00000000000E+00 -0.45593999997E+02  0.45594000000E+02  0.51100000000E-03 0.  1.
    9900012    2    1    2    0    0  0.13434806881E+02 -0.12785012037E+02 -0.36183097722E+02  0.50528841998E+02  0.29999945736E+02 0.  0.
         12    1    1    2    0    0 -0.13434806881E+02  0.12785012037E+02  0.36183097722E+02  0.40659158002E+02  0.00000000000E+00 0. -1.
         11    1    3    3    0    0 -0.12676905979E+01 -0.37803963217E+00  0.36198755787E+00  0.13714914031E+01  0.51100000000E-03 0. -1.
        -11    1    3    3    0    0  0.10610208318E+02  0.25167486415E+01 -0.30761728592E+02  0.32637317453E+02  0.51100000000E-03 0.  1.
        -12    1    3    3    0    0  0.40922891611E+01 -0.14923721046E+02 -0.57833566874E+01  0.16520033142E+02  0.00000000000E+00 0.  1.
</event>
<event>
 7    1  0.5006721E-012  0.5052886E+02  0.7816164E-02  0.1300439E+00
        -11   -1    0    0    0    0  0.00000000000E+00  0.00000000000E+00  0.45593999997E+02  0.45594000000E+02  0.51100000000E-03 0. -1.
         11   -1    0    0    0    0 -0.00000000000E+00 -0.00000000000E+00 -0.45593999997E+02  0.45594000000E+02  0.51100000000E-03 0.  1.
    9900012    2    1    2    0    0 -0.27524888780E+01 -0.25774706008E+01 -0.40483898640E+02  0.50528860821E+02  0.30000002950E+02 0.  0.
         12    1    1    2    0    0  0.27524888780E+01  0.25774706008E+01  0.40483898640E+02  0.40659139179E+02  0.00000000000E+00 0. -1.
         11    1    3    3    0    0 -0.80577031252E+00  0.34293335516E+00  0.48616418674E+01  0.49398816778E+01  0.51100000000E-03 0. -1.
        -11    1    3    3    0    0 -0.26867233197E+00 -0.27332030725E+01 -0.34896019043E+02  0.35003924482E+02  0.51100000000E-03 0.  1.
         12    1    3    3    0    0 -0.16780462335E+01 -0.18720088354E+00 -0.10449521465E+02  0.10585054661E+02  0.00000000000E+00 0. -1.
</event>
<event>
 7    1  0.5006721E-012  0.5052880E+02  0.7816164E-02  0.1300439E+00
        -11   -1    0    0    0    0  0.00000000000E+00  0.00000000000E+00  0.45593999997E+02  0.45594000000E+02  0.51100000000E-03 0. -1.
         11   -1    0    0    0    0 -0.00000000000E+00 -0.00000000000E+00 -0.45593999997E+02  0.45594000000E+02  0.51100000000E-03 0.  1.
    9900012    2    1    2    0    0 -0.78439591208E+01 -0.25887827671E+02  0.30355618222E+02  0.50528795951E+02  0.29999805772E+02 0.  0.
        -12    1    1    2    0    0  0.78439591208E+01  0.25887827671E+02 -0.30355618222E+02  0.40659204049E+02  0.00000000000E+00 0.  1.
         11    1    3    3    0    0 -0.21772863709E+01 -0.48365436676E+01  0.56902325348E+01  0.77789123373E+01  0.51100000000E-03 0. -1.
        -11    1    3    3    0    0  0.46072162834E+01  0.44557734882E+01  0.10337289518E+01  0.64922226600E+01  0.51100000000E-03 0.  1.
        -12    1    3    3    0    0 -0.10273889033E+02 -0.25507057492E+02  0.23631656736E+02  0.36257660954E+02  0.00000000000E+00 0.  1.
</event>
<event>
 7    1  0.5006721E-012  0.5052887E+02  0.7816164E-02  0.1300439E+00
        -11   -1    0    0    0    0  0.00000000000E+00  0.00000000000E+00  0.45593999997E+02  0.45594000000E+02  0.51100000000E-03 0. -1.
         11   -1    0    0    0    0 -0.00000000000E+00 -0.00000000000E+00 -0.45593999997E+02  0.45594000000E+02  0.51100000000E-03 0.  1.
    9900012    2    1    2    0    0  0.36015987821E+02  0.46550477789E+01  0.18285070250E+02  0.50528872580E+02  0.30000038693E+02 0.  0.
        -12    1    1    2    0    0 -0.36015987821E+02 -0.46550477789E+01 -0.18285070250E+02  0.40659127420E+02  0.00000000000E+00 0.  1.
         11    1    3    3    0    0  0.33264778639E+02 -0.25689124822E+01  0.11121634472E+02  0.35168673032E+02  0.51100000000E-03 0. -1.
        -11    1    3    3    0    0 -0.12026547611E+01 -0.26561782222E+01  0.11309450159E+01  0.31274107681E+01  0.51100000000E-03 0.  1.
         12    1    3    3    0    0  0.39538639432E+01  0.98801384834E+01  0.60324907612E+01  0.12232788779E+02  0.00000000000E+00 0. -1.
</event>
<event>
 7    1  0.5006721E-012  0.5052886E+02  0.7816164E-02  0.1300439E+00
        -11   -1    0    0    0    0  0.00000000000E+00  0.00000000000E+00  0.45593999997E+02  0.45594000000E+02  0.51100000000E-03 0. -1.
         11   -1    0    0    0    0 -0.00000000000E+00 -0.00000000000E+00 -0.45593999997E+02  0.45594000000E+02  0.51100000000E-03 0.  1.
    9900012    2    1    2    0    0 -0.18039179467E+02 -0.21305323503E+02 -0.29560736268E+02  0.50528856697E+02  0.29999990416E+02 0.  0.
         12    1    1    2    0    0  0.18039179467E+02  0.21305323503E+02  0.29560736268E+02  0.40659143303E+02  0.00000000000E+00 0. -1.
         11    1    3    3    0    0  0.20814724042E+01  0.39164821960E+01 -0.49465026057E+01  0.66437375363E+01  0.51100000000E-03 0. -1.
        -11    1    3    3    0    0 -0.21717918294E+02 -0.20789064604E+02 -0.25078196479E+02  0.39150595411E+02  0.51100000000E-03 0.  1.
         12    1    3    3    0    0  0.15972664230E+01 -0.44327410948E+01  0.46396281646E+00  0.47345237495E+01  0.00000000000E+00 0. -1.
</event>
<event>
 7    1  0.5006721E-012  0.5052885E+02  0.7816164E-02  0.1300439E+00
        -11   -1    0    0    0    0  0.00000000000E+00  0.00000000000E+00  0.45593999997E+02  0.45594000000E+02  0.51100000000E-03 0. -1.
         11   -1    0    0    0    0 -0.00000000000E+00 -0.00000000000E+00 -0.45593999997E+02  0.45594000000E+02  0.51100000000E-03 0.  1.
    9900012    2    1    2    0    0  0.39368203147E+02  0.96961534810E+01 -0.30488818822E+01  0.50528849836E+02  0.29999969561E+02 0.  0.
         12    1    1    2    0    0 -0.39368203147E+02 -0.96961534810E+01  0.30488818822E+01  0.40659150164E+02  0.00000000000E+00 0. -1.
         11    1    3    3    0    0  0.13852294464E+01  0.11014056364E+02 -0.24947256839E+01  0.11377695492E+02  0.51100000000E-03 0. -1.
        -11    1    3    3    0    0  0.24859426050E+02 -0.38855029137E+01 -0.36513567184E+01  0.25424802902E+02  0.51100000000E-03 0.  1.
        -12    1    3    3    0    0  0.13123547650E+02  0.25676000303E+01  0.30972005201E+01  0.13726351442E+02  0.00000000000E+00 0.  1.
</event>
<event>
 7    1  0.5006721E-012  0.5052886E+02  0.7816164E-02  0.1300439E+00
        -11   -1    0    0    0    0  0.00000000000E+00  0.00000000000E+00  0.45593999997E+02  0.45594000000E+02  0.51100000000E-03 0. -1.
         11   -1    0    0    0    0 -0.00000000000E+00 -0.00000000000E+00 -0.45593999997E+02  0.45594000000E+02  0.51100000000E-03 0.  1.
    9900012    2    1    2    0    0  0.35569497241E+01 -0.10108046862E+02 -0.39221689444E+02  0.50528862951E+02  0.30000009426E+02 0.  0.
         12    1    1    2    0    0 -0.35569497241E+01  0.10108046862E+02  0.39221689444E+02  0.40659137049E+02  0.00000000000E+00 0. -1.
         11    1    3    3    0    0  0.33226178765E+00  0.25490995137E+01  0.17672631017E-02  0.25706632628E+01  0.51100000000E-03 0. -1.
        -11    1    3    3    0    0 -0.78786750523E+01 -0.97591480309E+01 -0.32070926057E+02  0.34436300459E+02  0.51100000000E-03 0.  1.
        -12    1    3    3    0    0  0.11103362989E+02 -0.28979983446E+01 -0.71525306501E+01  0.13521899229E+02  0.00000000000E+00 0.  1.
</event>
<event>
 7    1  0.5006721E-012  0.5052883E+02  0.7816164E-02  0.1300439E+00
        -11   -1    0    0    0    0  0.00000000000E+00  0.00000000000E+00  0.45593999997E+02  0.45594000000E+02  0.51100000000E-03 0. -1.
         11   -1    0    0    0    0 -0.00000000000E+00 -0.00000000000E+00 -0.45593999997E+02  0.45594000000E+02  0.51100000000E-03 0.  1.
    9900012    2    1    2    0    0 -0.24682089967E+02 -0.25510387498E+02 -0.19828825389E+02  0.50528834345E+02  0.29999922476E+02 0.  0.
         12    1    1    2    0    0  0.24682089967E+02  0.25510387498E+02  0.19828825389E+02  0.40659165655E+02  0.00000000000E+00 0. -1.
         11    1    3    3    0    0 -0.16038442860E+02 -0.44734903634E+01  0.13745232003E+01  0.16707276250E+02  0.51100000000E-03 0. -1.
        -11    1    3    3    0    0 -0.71493336536E+01 -0.75983388416E+01 -0.16468538898E+02  0.19495140382E+02  0.51100000000E-03 0.  1.
         12    1    3    3    0    0 -0.14943134540E+01 -0.13438558293E+02 -0.47348096915E+01  0.14326417713E+02  0.00000000000E+00 0. -1.
</event>
<event>
 7    1  0.5006721E-012  0.5052886E+02  0.7816164E-02  0.1300439E+00
        -11   -1    0    0    0    0  0.00000000000E+00  0.00000000000E+00  0.45593999997E+02  0.45594000000E+02  0.51100000000E-03 0. -1.
         11   -1    0    0    0    0 -0.00000000000E+00 -0.00000000000E+00 -0.45593999997E+02  0.45594000000E+02  0.51100000000E-03 0.  1.
    9900012    2    1    2    0    0  0.23136052110E+02  0.20641421285E+02  0.26302481150E+02  0.50528859643E+02  0.29999999372E+02 0.  0.
        -12    1    1    2    0    0 -0.23136052110E+02 -0.20641421285E+02 -0.26302481150E+02  0.40659140357E+02  0.00000000000E+00 0.  1.
         11    1    3    3    0    0  0.16580410945E+02  0.70758867070E+01  0.19727220389E+02  0.26723424637E+02  0.51100000000E-03 0. -1.
        -11    1    3    3    0    0  0.86680546365E+01  0.16374167152E+02  0.29571473045E+01  0.18761482925E+02  0.51100000000E-03 0.  1.
        -12    1    3    3    0    0 -0.21124134714E+01 -0.28086325742E+01  0.36181134567E+01  0.50439520811E+01  0.00000000000E+00 0.  1.
</event>
<event>
 7    1  0.5006721E-012  0.5052886E+02  0.7816164E-02  0.1300439E+00
        -11   -1    0    0    0    0  0.00000000000E+00  0.00000000000E+00  0.45593999997E+02  0.45594000000E+02  0.51100000000E-03 0. -1.
         11   -1    0    0    0    0 -0.00000000000E+00 -0.00000000000E+00 -0.45593999997E+02  0.45594000000E+02  0.51100000000E-03 0.  1.
    9900012    2    1    2    0    0  0.27319293274E+02 -0.28616496000E+01 -0.29977205297E+02  0.50528860058E+02  0.30000000631E+02 0.  0.
         12    1    1    2    0    0 -0.27319293274E+02  0.28616496000E+01  0.29977205297E+02  0.40659139942E+02  0.00000000000E+00 0. -1.
         11    1    3    3    0    0 -0.30720394539E+01 -0.28604557102E+01 -0.70915079636E+00  0.42570563056E+01  0.51100000000E-03 0. -1.
        -11    1    3    3    0    0  0.31034823006E+02 -0.35210457420E+01 -0.22104890570E+02  0.38264659799E+02  0.51100000000E-03 0.  1.
        -12    1    3    3    0    0 -0.64349027736E+00  0.35198518522E+01 -0.71631639301E+01  0.80071439533E+01  0.00000000000E+00 0.  1.
</event>
<event>
 7    1  0.5006721E-012  0.5052886E+02  0.7816164E-02  0.1300439E+00
        -11   -1    0    0    0    0  0.00000000000E+00  0.00000000000E+00  0.45593999997E+02  0.45594000000E+02  0.51100000000E-03 0. -1.
         11   -1    0    0    0    0 -0.00000000000E+00 -0.00000000000E+00 -0.45593999997E+02  0.45594000000E+02  0.51100000000E-03 0.  1.
    9900012    2    1    2    0    0 -0.32898134105E+02 -0.14103736317E+02 -0.19286333840E+02  0.50528864757E+02  0.30000014917E+02 0.  0.
         12    1    1    2    0    0  0.32898134105E+02  0.14103736317E+02  0.19286333840E+02  0.40659135243E+02  0.00000000000E+00 0. -1.
         11    1    3    3    0    0 -0.13434594357E+02  0.84952850212E+01 -0.66312387164E+01  0.17222993942E+02  0.51100000000E-03 0. -1.
        -11    1    3    3    0    0 -0.15402798224E+02 -0.17824502537E+02 -0.13218566960E+02  0.27012767288E+02  0.51100000000E-03 0.  1.
         12    1    3    3    0    0 -0.40607415240E+01 -0.47745188008E+01  0.56347183616E+00  0.62931035279E+01  0.00000000000E+00 0. -1.
</event>
<event>
 7    1  0.5006721E-012  0.5052886E+02  0.7816164E-02  0.1300439E+00
        -11   -1    0    0    0    0  0.00000000000E+00  0.00000000000E+00  0.45593999997E+02  0.45594000000E+02  0.51100000000E-03 0. -1.
         11   -1    0    0    0    0 -0.00000000000E+00 -0.00000000000E+00 -0.45593999997E+02  0.45594000000E+02  0.51100000000E-03 0.  1.
    9900012    2    1    2    0    0  0.16405183847E+02 -0.43666062844E+01 -0.36945477102E+02  0.50528860981E+02  0.30000003438E+02 0.  0.
         12    1    1    2    0    0 -0.16405183847E+02  0.43666062844E+01  0.36945477102E+02  0.40659139019E+02  0.00000000000E+00 0. -1.
         11    1    3    3    0    0  0.83291636936E+01 -0.14990773285E+02 -0.24435801216E+02  0.29853084142E+02  0.51100000000E-03 0.  1.
        -11    1    3    3    0    0  0.35315174131E+01  0.75840354930E+01 -0.16639832792E+01  0.85298329534E+01  0.51100000000E-03 0. -1.
        -12    1    3    3    0    0  0.45445027398E+01  0.30401315072E+01 -0.10845692607E+02  0.12145943885E+02  0.00000000000E+00 0.  1.
</event>
<event>
 7    1  0.5006721E-012  0.5052887E+02  0.7816164E-02  0.1300439E+00
        -11   -1    0    0    0    0  0.00000000000E+00  0.00000000000E+00  0.45593999997E+02  0.45594000000E+02  0.51100000000E-03 0. -1.
         11   -1    0    0    0    0 -0.00000000000E+00 -0.00000000000E+00 -0.45593999997E+02  0.45594000000E+02  0.51100000000E-03 0.  1.
    9900012    2    1    2    0    0 -0.27083907102E+02 -0.12567535313E+02  0.27598626999E+02  0.50528865971E+02  0.30000018605E+02 0.  0.
        -12    1    1    2    0    0  0.27083907102E+02  0.12567535313E+02 -0.27598626999E+02  0.40659134029E+02  0.00000000000E+00 0.  1.
         11    1    3    3    0    0 -0.99713150381E+01 -0.47789247251E+01  0.55929238213E+01  0.12391369668E+02  0.51100000000E-03 0. -1.
        -11    1    3    3    0    0 -0.28019893568E+00  0.29476735618E+01 -0.42336138056E+01  0.51663117392E+01  0.51100000000E-03 0.  1.
        -12    1    3    3    0    0 -0.16832393128E+02 -0.10736284150E+02  0.26239316984E+02  0.32971184564E+02  0.00000000000E+00 0.  1.
</event>
<event>
 7    1  0.5006721E-012  0.5052887E+02  0.7816164E-02  0.1300439E+00
        -11   -1    0    0    0    0  0.00000000000E+00  0.00000000000E+00  0.45593999997E+02  0.45594000000E+02  0.51100000000E-03 0.  1.
         11   -1    0    0    0    0 -0.00000000000E+00 -0.00000000000E+00 -0.45593999997E+02  0.45594000000E+02  0.51100000000E-03 0. -1.
    9900012    2    1    2    0    0 -0.34270370826E+02  0.10822414330E+02 -0.19015314041E+02  0.50528866506E+02  0.30000020230E+02 0.  0.
         12    1    1    2    0    0  0.34270370826E+02 -0.10822414330E+02  0.19015314041E+02  0.40659133494E+02  0.00000000000E+00 0. -1.
         11    1    3    3    0    0  0.18538388846E+01 -0.48877677743E+01  0.51030666090E+00  0.52523714239E+01  0.51100000000E-03 0. -1.
        -11    1    3    3    0    0 -0.47353006125E+01  0.59502711586E+01 -0.13777301929E+01  0.77283206130E+01  0.51100000000E-03 0.  1.
         12    1    3    3    0    0 -0.31388909098E+02  0.97599109453E+01 -0.18147890509E+02  0.37548174469E+02  0.00000000000E+00 0. -1.
</event>
<event>
 7    1  0.5006721E-012  0.5052886E+02  0.7816164E-02  0.1300439E+00
        -11   -1    0    0    0    0  0.00000000000E+00  0.00000000000E+00  0.45593999997E+02  0.45594000000E+02  0.51100000000E-03 0.  1.
         11   -1    0    0    0    0 -0.00000000000E+00 -0.00000000000E+00 -0.45593999997E+02  0.45594000000E+02  0.51100000000E-03 0. -1.
    9900012    2    1    2    0    0  0.24900087802E+02 -0.31067546602E+02 -0.82437014590E+01  0.50528862796E+02  0.30000008954E+02 0.  0.
        -12    1    1    2    0    0 -0.24900087802E+02  0.31067546602E+02  0.82437014590E+01  0.40659137204E+02  0.00000000000E+00 0.  1.
         11    1    3    3    0    0  0.39730390841E+01 -0.99934388208E+01 -0.10623722907E+02  0.15116790257E+02  0.51100000000E-03 0. -1.
        -11    1    3    3    0    0  0.11677953903E+02 -0.18414056348E+02  0.91484849125E+01  0.23646286283E+02  0.51100000000E-03 0.  1.
         12    1    3    3    0    0  0.92490948148E+01 -0.26600514339E+01 -0.67684634648E+01  0.11765786255E+02  0.00000000000E+00 0. -1.
</event>
<event>
 7    1  0.5006721E-012  0.5052885E+02  0.7816164E-02  0.1300439E+00
        -11   -1    0    0    0    0  0.00000000000E+00  0.00000000000E+00  0.45593999997E+02  0.45594000000E+02  0.51100000000E-03 0. -1.
         11   -1    0    0    0    0 -0.00000000000E+00 -0.00000000000E+00 -0.45593999997E+02  0.45594000000E+02  0.51100000000E-03 0.  1.
    9900012    2    1    2    0    0  0.32906442888E+02 -0.10061505704E+02 -0.21658690421E+02  0.50528846647E+02  0.29999959869E+02 0.  0.
         12    1    1    2    0    0 -0.32906442888E+02  0.10061505704E+02  0.21658690421E+02  0.40659153353E+02  0.00000000000E+00 0. -1.
         11    1    3    3    0    0  0.57831477581E+01  0.44523100600E+01  0.32779949416E+01  0.80008195806E+01  0.51100000000E-03 0. -1.
        -11    1    3    3    0    0  0.19378055727E+02 -0.16235530487E+02 -0.13645994360E+02  0.28728290174E+02  0.51100000000E-03 0.  1.
         12    1    3    3    0    0  0.77452394029E+01  0.17217147226E+01 -0.11290691003E+02  0.13799736893E+02  0.00000000000E+00 0. -1.
</event>
<event>
 7    1  0.5006721E-012  0.5052886E+02  0.7816164E-02  0.1300439E+00
        -11   -1    0    0    0    0  0.00000000000E+00  0.00000000000E+00  0.45593999997E+02  0.45594000000E+02  0.51100000000E-03 0. -1.
         11   -1    0    0    0    0 -0.00000000000E+00 -0.00000000000E+00 -0.45593999997E+02  0.45594000000E+02  0.51100000000E-03 0.  1.
    9900012    2    1    2    0    0 -0.16948858834E+01  0.80244326246E+01 -0.39823379535E+02  0.50528859396E+02  0.29999998619E+02 0.  0.
         12    1    1    2    0    0  0.16948858834E+01 -0.80244326246E+01  0.39823379535E+02  0.40659140604E+02  0.00000000000E+00 0. -1.
         11    1    3    3    0    0 -0.13146397196E+02  0.82085801336E+01 -0.22339466808E+02  0.27189342113E+02  0.51100000000E-03 0. -1.
        -11    1    3    3    0    0  0.49091337505E+01 -0.37875954719E+01 -0.26734340244E+01  0.67522383979E+01  0.51100000000E-03 0.  1.
        -12    1    3    3    0    0  0.65423775622E+01  0.36034479630E+01 -0.14810478703E+02  0.16587278884E+02  0.00000000000E+00 0.  1.
</event>
<event>
 7    1  0.5006721E-012  0.5052886E+02  0.7816164E-02  0.1300439E+00
        -11   -1    0    0    0    0  0.00000000000E+00  0.00000000000E+00  0.45593999997E+02  0.45594000000E+02  0.51100000000E-03 0. -1.
         11   -1    0    0    0    0 -0.00000000000E+00 -0.00000000000E+00 -0.45593999997E+02  0.45594000000E+02  0.51100000000E-03 0.  1.
    9900012    2    1    2    0    0  0.28749340031E+02 -0.27475860773E+02  0.84686711921E+01  0.50528857495E+02  0.29999992842E+02 0.  0.
        -12    1    1    2    0    0 -0.28749340031E+02  0.27475860773E+02 -0.84686711921E+01  0.40659142505E+02  0.00000000000E+00 0.  1.
         11    1    3    3    0    0  0.19427428765E+02 -0.16432357810E+02  0.18703900488E+02  0.31579792041E+02  0.51100000000E-03 0. -1.
        -11    1    3    3    0    0  0.58918801037E+01 -0.31766902307E+01 -0.72378961524E+01  0.98586384939E+01  0.51100000000E-03 0.  1.
         12    1    3    3    0    0  0.34300311627E+01 -0.78668127329E+01 -0.29973331439E+01  0.90904269606E+01  0.00000000000E+00 0. -1.
</event>
<event>
 7    1  0.5006721E-012  0.5052900E+02  0.7816164E-02  0.1300438E+00
        -11   -1    0    0    0    0  0.00000000000E+00  0.00000000000E+00  0.45593999997E+02  0.45594000000E+02  0.51100000000E-03 0. -1.
         11   -1    0    0    0    0 -0.00000000000E+00 -0.00000000000E+00 -0.45593999997E+02  0.45594000000E+02  0.51100000000E-03 0.  1.
    9900012    2    1    2    0    0  0.15124089504E+02 -0.15675151458E+02  0.34332282346E+02  0.50529002624E+02  0.30000433973E+02 0.  0.
        -12    1    1    2    0    0 -0.15124089504E+02  0.15675151458E+02 -0.34332282346E+02  0.40658997376E+02  0.00000000000E+00 0.  1.
         11    1    3    3    0    0  0.88406318641E+01 -0.47372179856E+00  0.62910467493E+01  0.10860867993E+02  0.51100000000E-03 0. -1.
        -11    1    3    3    0    0  0.29832774290E+01 -0.20295757304E+02  0.15419718652E+02  0.25662919404E+02  0.51100000000E-03 0.  1.
        -12    1    3    3    0    0  0.33001802107E+01  0.50943276447E+01  0.12621516944E+02  0.14005215227E+02  0.00000000000E+00 0.  1.
</event>
<event>
 7    1  0.5006721E-012  0.5052886E+02  0.7816164E-02  0.1300439E+00
        -11   -1    0    0    0    0  0.00000000000E+00  0.00000000000E+00  0.45593999997E+02  0.45594000000E+02  0.51100000000E-03 0. -1.
         11   -1    0    0    0    0 -0.00000000000E+00 -0.00000000000E+00 -0.45593999997E+02  0.45594000000E+02  0.51100000000E-03 0.  1.
    9900012    2    1    2    0    0  0.37943270938E+01  0.33756184374E+02 -0.22344772580E+02  0.50528858799E+02  0.29999996805E+02 0.  0.
         12    1    1    2    0    0 -0.37943270938E+01 -0.33756184374E+02  0.22344772580E+02  0.40659141201E+02  0.00000000000E+00 0. -1.
         11    1    3    3    0    0 -0.21523194889E+01  0.71278718348E+01  0.10134103439E+01  0.75143886553E+01  0.51100000000E-03 0. -1.
        -11    1    3    3    0    0  0.43128733411E+01  0.23712290981E+02 -0.28222074607E+02  0.37112789109E+02  0.51100000000E-03 0.  1.
        -12    1    3    3    0    0  0.16337732416E+01  0.29160215576E+01  0.48638916836E+01  0.59016810350E+01  0.00000000000E+00 0.  1.
</event>
<event>
 7    1  0.5006721E-012  0.5052890E+02  0.7816164E-02  0.1300439E+00
        -11   -1    0    0    0    0  0.00000000000E+00  0.00000000000E+00  0.45593999997E+02  0.45594000000E+02  0.51100000000E-03 0. -1.
         11   -1    0    0    0    0 -0.00000000000E+00 -0.00000000000E+00 -0.45593999997E+02  0.45594000000E+02  0.51100000000E-03 0.  1.
    9900012    2    1    2    0    0  0.98043746832E+01  0.10227635884E+02  0.38110791580E+02  0.50528896056E+02  0.30000110052E+02 0.  0.
        -12    1    1    2    0    0 -0.98043746832E+01 -0.10227635884E+02 -0.38110791580E+02  0.40659103944E+02  0.00000000000E+00 0.  1.
         11    1    3    3    0    0 -0.78744691361E+01  0.76195634588E+01  0.72978879291E+01  0.13165264143E+02  0.51100000000E-03 0. -1.
        -11    1    3    3    0    0  0.18378358878E+02  0.64783224408E+00  0.29873705720E+02  0.35080223137E+02  0.51100000000E-03 0.  1.
        -12    1    3    3    0    0 -0.69951505870E+00  0.19602401808E+01  0.93919793071E+00  0.22834087757E+01  0.00000000000E+00 0.  1.
</event>
<event>
 7    1  0.5006721E-012  0.5052887E+02  0.7816164E-02  0.1300439E+00
        -11   -1    0    0    0    0  0.00000000000E+00  0.00000000000E+00  0.45593999997E+02  0.45594000000E+02  0.51100000000E-03 0. -1.
         11   -1    0    0    0    0 -0.00000000000E+00 -0.00000000000E+00 -0.45593999997E+02  0.45594000000E+02  0.51100000000E-03 0.  1.
    9900012    2    1    2    0    0 -0.75284358440E+00  0.40486931384E+02 -0.36614723263E+01  0.50528871062E+02  0.30000034081E+02 0.  0.
         12    1    1    2    0    0  0.75284358440E+00 -0.40486931384E+02  0.36614723263E+01  0.40659128938E+02  0.00000000000E+00 0. -1.
         11    1    3    3    0    0  0.62777267708E+01  0.62470191759E+01  0.61574701699E+01  0.10786544449E+02  0.51100000000E-03 0. -1.
        -11    1    3    3    0    0 -0.32618335049E+01  0.30141373074E+02 -0.13374117527E+02  0.33136218078E+02  0.51100000000E-03 0.  1.
        -12    1    3    3    0    0 -0.37687368504E+01  0.40985391346E+01  0.35551750310E+01  0.66061085358E+01  0.00000000000E+00 0.  1.
</event>
<event>
 7    1  0.5006721E-012  0.5052886E+02  0.7816164E-02  0.1300439E+00
        -11   -1    0    0    0    0  0.00000000000E+00  0.00000000000E+00  0.45593999997E+02  0.45594000000E+02  0.51100000000E-03 0. -1.
         11   -1    0    0    0    0 -0.00000000000E+00 -0.00000000000E+00 -0.45593999997E+02  0.45594000000E+02  0.51100000000E-03 0.  1.
    9900012    2    1    2    0    0 -0.38222584216E+01 -0.17895885895E+02  0.36308309189E+02  0.50528859483E+02  0.29999998886E+02 0.  0.
        -12    1    1    2    0    0  0.38222584216E+01  0.17895885895E+02 -0.36308309189E+02  0.40659140517E+02  0.00000000000E+00 0.  1.
         11    1    3    3    0    0 -0.94405023642E+01 -0.17711492673E+02  0.38179111259E+02  0.43133103232E+02  0.51100000000E-03 0. -1.
        -11    1    3    3    0    0  0.30173928293E+01 -0.13788894914E+01 -0.28471616200E+01  0.43717645485E+01  0.51100000000E-03 0.  1.
         12    1    3    3    0    0  0.26008511133E+01  0.11944962696E+01  0.97635954969E+00  0.30239917034E+01  0.00000000000E+00 0. -1.
</event>
<event>
 7    1  0.5006721E-012  0.5052886E+02  0.7816164E-02  0.1300439E+00
        -11   -1    0    0    0    0  0.00000000000E+00  0.00000000000E+00  0.45593999997E+02  0.45594000000E+02  0.51100000000E-03 0. -1.
         11   -1    0    0    0    0 -0.00000000000E+00 -0.00000000000E+00 -0.45593999997E+02  0.45594000000E+02  0.51100000000E-03 0.  1.
    9900012    2    1    2    0    0 -0.93446332491E+01  0.34072162242E+01 -0.39423774434E+02  0.50528864697E+02  0.30000014733E+02 0.  0.
         12    1    1    2    0    0  0.93446332491E+01 -0.34072162242E+01  0.39423774434E+02  0.40659135303E+02  0.00000000000E+00 0. -1.
         11    1    3    3    0    0 -0.34844236222E+01 -0.51179521060E+01 -0.12278479278E+02  0.13751207052E+02  0.51100000000E-03 0. -1.
        -11    1    3    3    0    0 -0.90982631049E+01  0.14905421344E+02 -0.21265430210E+02  0.27516694919E+02  0.51100000000E-03 0.  1.
        -12    1    3    3    0    0  0.32380534780E+01 -0.63802530133E+01 -0.58798649455E+01  0.92609627263E+01  0.00000000000E+00 0.  1.
</event>
<event>
 7    1  0.5006721E-012  0.5052887E+02  0.7816164E-02  0.1300439E+00
        -11   -1    0    0    0    0  0.00000000000E+00  0.00000000000E+00  0.45593999997E+02  0.45594000000E+02  0.51100000000E-03 0. -1.
         11   -1    0    0    0    0 -0.00000000000E+00 -0.00000000000E+00 -0.45593999997E+02  0.45594000000E+02  0.51100000000E-03 0.  1.
    9900012    2    1    2    0    0 -0.36727048113E+02 -0.39746376688E+01 -0.16985015278E+02  0.50528873697E+02  0.30000042090E+02 0.  0.
         12    1    1    2    0    0  0.36727048113E+02  0.39746376688E+01  0.16985015278E+02  0.40659126303E+02  0.00000000000E+00 0. -1.
         11    1    3    3    0    0 -0.15817607141E+02 -0.34913257752E+01  0.21341237593E+01  0.16338314963E+02  0.51100000000E-03 0. -1.
        -11    1    3    3    0    0  0.28484989694E+01  0.21491673224E+01 -0.58467862909E+01  0.68496552287E+01  0.51100000000E-03 0.  1.
        -12    1    3    3    0    0 -0.23757939942E+02 -0.26324792160E+01 -0.13272352746E+02  0.27340903506E+02  0.00000000000E+00 0.  1.
</event>
<event>
 7    1  0.5006721E-012  0.5052885E+02  0.7816164E-02  0.1300439E+00
        -11   -1    0    0    0    0  0.00000000000E+00  0.00000000000E+00  0.45593999997E+02  0.45594000000E+02  0.51100000000E-03 0. -1.
         11   -1    0    0    0    0 -0.00000000000E+00 -0.00000000000E+00 -0.45593999997E+02  0.45594000000E+02  0.51100000000E-03 0.  1.
    9900012    2    1    2    0    0 -0.13834472532E+02  0.25513095250E+02 -0.28475529652E+02  0.50528850372E+02  0.29999971191E+02 0.  0.
         12    1    1    2    0    0  0.13834472532E+02 -0.25513095250E+02  0.28475529652E+02  0.40659149628E+02  0.00000000000E+00 0. -1.
         11    1    3    3    0    0  0.15899703579E+01 -0.88023674587E+00 -0.86562703862E+00  0.20129910330E+01  0.51100000000E-03 0. -1.
        -11    1    3    3    0    0 -0.10457226047E+02  0.30580141722E+02 -0.26769210108E+02  0.41965333960E+02  0.51100000000E-03 0.  1.
        -12    1    3    3    0    0 -0.49672168429E+01 -0.41868097263E+01 -0.84069250613E+00  0.65505253789E+01  0.00000000000E+00 0.  1.
</event>
<event>
 7    1  0.6875281E-012  0.5052883E+02  0.7816164E-02  0.1300439E+00
        -11   -1    0    0    0    0  0.00000000000E+00  0.00000000000E+00  0.45593999997E+02  0.45594000000E+02  0.51100000000E-03 0. -1.
         11   -1    0    0    0    0 -0.00000000000E+00 -0.00000000000E+00 -0.45593999997E+02  0.45594000000E+02  0.51100000000E-03 0.  1.
    9900012    2    1    2    0    0 -0.16563567498E+01 -0.36888213885E+02  0.17020113379E+02  0.50528830054E+02  0.29999909432E+02 0.  0.
        -12    1    1    2    0    0  0.16563567498E+01  0.36888213885E+02 -0.17020113379E+02  0.40659169946E+02  0.00000000000E+00 0.  1.
         11    1    3    3    0    0  0.50597106152E-01 -0.23829223255E+02  0.15316338038E+02  0.28327101019E+02  0.51100000000E-03 0. -1.
        -11    1    3    3    0    0  0.52528939172E+01  0.76722010923E+00 -0.29044250237E+01  0.60512152648E+01  0.51100000000E-03 0.  1.
         12    1    3    3    0    0 -0.69598477732E+01 -0.13826210739E+02  0.46082003641E+01  0.16150513770E+02  0.00000000000E+00 0. -1.
</event>
<event>
 7    1  0.5006721E-012  0.5052886E+02  0.7816164E-02  0.1300439E+00
        -11   -1    0    0    0    0  0.00000000000E+00  0.00000000000E+00  0.45593999997E+02  0.45594000000E+02  0.51100000000E-03 0. -1.
         11   -1    0    0    0    0 -0.00000000000E+00 -0.00000000000E+00 -0.45593999997E+02  0.45594000000E+02  0.51100000000E-03 0.  1.
    9900012    2    1    2    0    0  0.71177733583E+01 -0.38031025529E+02  0.12495750012E+02  0.50528863650E+02  0.30000011550E+02 0.  0.
        -12    1    1    2    0    0 -0.71177733583E+01  0.38031025529E+02 -0.12495750012E+02  0.40659136350E+02  0.00000000000E+00 0.  1.
         11    1    3    3    0    0 -0.79368442066E+01 -0.25001604001E+02  0.72211799037E+01  0.27206968556E+02  0.51100000000E-03 0. -1.
        -11    1    3    3    0    0  0.80573642627E+00 -0.64187933629E+01 -0.72024418894E+00  0.65091375294E+01  0.51100000000E-03 0.  1.
         12    1    3    3    0    0  0.14248881139E+02 -0.66106281652E+01  0.59948142977E+01  0.16812757564E+02  0.00000000000E+00 0. -1.
</event>
<event>
 7    1  0.5006721E-012  0.5052887E+02  0.7816164E-02  0.1300439E+00
        -11   -1    0    0    0    0  0.00000000000E+00  0.00000000000E+00  0.45593999997E+02  0.45594000000E+02  0.51100000000E-03 0. -1.
         11   -1    0    0    0    0 -0.00000000000E+00 -0.00000000000E+00 -0.45593999997E+02  0.45594000000E+02  0.51100000000E-03 0.  1.
    9900012    2    1    2    0    0  0.22412846203E+02  0.56353655472E+01 -0.33452530256E+02  0.50528870640E+02  0.30000032798E+02 0.  0.
         12    1    1    2    0    0 -0.22412846203E+02 -0.56353655472E+01  0.33452530256E+02  0.40659129360E+02  0.00000000000E+00 0. -1.
         11    1    3    3    0    0  0.15634495171E+02 -0.26992079059E+01 -0.14050515210E+01  0.15927879099E+02  0.51100000000E-03 0. -1.
        -11    1    3    3    0    0  0.21266473233E+01  0.79213724780E+00 -0.16901158466E+02  0.17052837536E+02  0.51100000000E-03 0.  1.
         12    1    3    3    0    0  0.46517037093E+01  0.75424362052E+01 -0.15146320269E+02  0.17548154005E+02  0.00000000000E+00 0. -1.
</event>
<event>
 7    1  0.5006721E-012  0.5052886E+02  0.7816164E-02  0.1300439E+00
        -11   -1    0    0    0    0  0.00000000000E+00  0.00000000000E+00  0.45593999997E+02  0.45594000000E+02  0.51100000000E-03 0.  1.
         11   -1    0    0    0    0 -0.00000000000E+00 -0.00000000000E+00 -0.45593999997E+02  0.45594000000E+02  0.51100000000E-03 0. -1.
    9900012    2    1    2    0    0 -0.17915773164E+02  0.35225465660E+02 -0.95580861018E+01  0.50528863648E+02  0.30000011543E+02 0.  0.
        -12    1    1    2    0    0  0.17915773164E+02 -0.35225465660E+02  0.95580861018E+01  0.40659136352E+02  0.00000000000E+00 0.  1.
         11    1    3    3    0    0 -0.23674444578E+02  0.19120264266E+02 -0.74821037456E+01  0.31337608530E+02  0.51100000000E-03 0. -1.
        -11    1    3    3    0    0  0.42508626628E+00  0.69721896141E+01 -0.45410207730E+01  0.83314462293E+01  0.51100000000E-03 0.  1.
         12    1    3    3    0    0  0.53335851478E+01  0.91330117792E+01  0.24650384168E+01  0.10859808888E+02  0.00000000000E+00 0. -1.
</event>
<event>
 7    1  0.5006721E-012  0.5052882E+02  0.7816164E-02  0.1300439E+00
        -11   -1    0    0    0    0  0.00000000000E+00  0.00000000000E+00  0.45593999997E+02  0.45594000000E+02  0.51100000000E-03 0. -1.
         11   -1    0    0    0    0 -0.00000000000E+00 -0.00000000000E+00 -0.45593999997E+02  0.45594000000E+02  0.51100000000E-03 0.  1.
    9900012    2    1    2    0    0  0.14788693486E+02  0.20776194321E+01  0.37817279050E+02  0.50528824501E+02  0.29999892552E+02 0.  0.
        -12    1    1    2    0    0 -0.14788693486E+02 -0.20776194321E+01 -0.37817279050E+02  0.40659175499E+02  0.00000000000E+00 0.  1.
         11    1    3    3    0    0  0.21200003674E+02 -0.62842068363E+01  0.21178295078E+02  0.30617831308E+02  0.51100000000E-03 0. -1.
        -11    1    3    3    0    0 -0.14379757815E+01  0.41288808387E+01  0.74380115990E+01  0.86278298625E+01  0.51100000000E-03 0.  1.
         12    1    3    3    0    0 -0.49733344061E+01  0.42329454297E+01  0.92009723736E+01  0.11283163331E+02  0.00000000000E+00 0. -1.
</event>
<event>
 7    1  0.5006721E-012  0.5052896E+02  0.7816164E-02  0.1300438E+00
        -11   -1    0    0    0    0  0.00000000000E+00  0.00000000000E+00  0.45593999997E+02  0.45594000000E+02  0.51100000000E-03 0. -1.
         11   -1    0    0    0    0 -0.00000000000E+00 -0.00000000000E+00 -0.45593999997E+02  0.45594000000E+02  0.51100000000E-03 0.  1.
    9900012    2    1    2    0    0 -0.88128270376E+01  0.24583712584E+02 -0.31163007524E+02  0.50528955708E+02  0.30000291369E+02 0.  0.
         12    1    1    2    0    0  0.88128270376E+01 -0.24583712584E+02  0.31163007524E+02  0.40659044292E+02  0.00000000000E+00 0. -1.
         11    1    3    3    0    0  0.10201007200E+02  0.54691692549E+01 -0.46021888619E+01  0.12456022752E+02  0.51100000000E-03 0. -1.
        -11    1    3    3    0    0 -0.15870304313E+02  0.13949693207E+02 -0.21965399241E+02  0.30478504944E+02  0.51100000000E-03 0.  1.
        -12    1    3    3    0    0 -0.31435299242E+01  0.51648501220E+01 -0.45954194213E+01  0.75944280117E+01  0.00000000000E+00 0.  1.
</event>
<event>
 7    1  0.5006721E-012  0.5052886E+02  0.7816164E-02  0.1300439E+00
        -11   -1    0    0    0    0  0.00000000000E+00  0.00000000000E+00  0.45593999997E+02  0.45594000000E+02  0.51100000000E-03 0. -1.
         11   -1    0    0    0    0 -0.00000000000E+00 -0.00000000000E+00 -0.45593999997E+02  0.45594000000E+02  0.51100000000E-03 0.  1.
    9900012    2    1    2    0    0 -0.18025266555E+02 -0.34423194256E+02  0.11970745136E+02  0.50528864787E+02  0.30000015007E+02 0.  0.
        -12    1    1    2    0    0  0.18025266555E+02  0.34423194256E+02 -0.11970745136E+02  0.40659135213E+02  0.00000000000E+00 0.  1.
         11    1    3    3    0    0 -0.20320633822E+02 -0.23157065851E+02  0.14522997582E+02  0.34060172002E+02  0.51100000000E-03 0. -1.
        -11    1    3    3    0    0 -0.26272294506E+00 -0.12913238719E+02 -0.33099075411E+01  0.13333275882E+02  0.51100000000E-03 0.  1.
         12    1    3    3    0    0  0.25580902117E+01  0.16471103142E+01  0.75765509503E+00  0.31354169039E+01  0.00000000000E+00 0. -1.
</event>
<event>
 7    1  0.5006721E-012  0.5052885E+02  0.7816164E-02  0.1300439E+00
        -11   -1    0    0    0    0  0.00000000000E+00  0.00000000000E+00  0.45593999997E+02  0.45594000000E+02  0.51100000000E-03 0. -1.
         11   -1    0    0    0    0 -0.00000000000E+00 -0.00000000000E+00 -0.45593999997E+02  0.45594000000E+02  0.51100000000E-03 0.  1.
    9900012    2    1    2    0    0 -0.18484607776E+02 -0.62541052324E+01 -0.35670327013E+02  0.50528846220E+02  0.29999958570E+02 0.  0.
         12    1    1    2    0    0  0.18484607776E+02  0.62541052324E+01  0.35670327013E+02  0.40659153780E+02  0.00000000000E+00 0. -1.
         11    1    3    3    0    0 -0.59798041662E+01  0.66984083066E+00  0.44534038475E+01  0.74859568990E+01  0.51100000000E-03 0. -1.
        -11    1    3    3    0    0 -0.30747012448E+01 -0.42241616973E+01 -0.19772137413E+02  0.20450788443E+02  0.51100000000E-03 0.  1.
         12    1    3    3    0    0 -0.94301023646E+01 -0.26997843657E+01 -0.20351593448E+02  0.22592100878E+02  0.00000000000E+00 0. -1.
</event>
<event>
 7    1  0.5006721E-012  0.5052886E+02  0.7816164E-02  0.1300439E+00
        -11   -1    0    0    0    0  0.00000000000E+00  0.00000000000E+00  0.45593999997E+02  0.45594000000E+02  0.51100000000E-03 0.  1.
         11   -1    0    0    0    0 -0.00000000000E+00 -0.00000000000E+00 -0.45593999997E+02  0.45594000000E+02  0.51100000000E-03 0. -1.
    9900012    2    1    2    0    0  0.91649496416E+01 -0.11933998347E+02  0.37772332044E+02  0.50528859742E+02  0.29999999672E+02 0.  0.
        -12    1    1    2    0    0 -0.91649496416E+01  0.11933998347E+02 -0.37772332044E+02  0.40659140258E+02  0.00000000000E+00 0.  1.
         11    1    3    3    0    0  0.60222789204E+01  0.83031544966E+01  0.23132417962E+02  0.25304524872E+02  0.51100000000E-03 0.  1.
        -11    1    3    3    0    0  0.10837543666E+01 -0.11868264274E+02  0.87727060315E+01  0.14798330709E+02  0.51100000000E-03 0. -1.
        -12    1    3    3    0    0  0.20589163546E+01 -0.83688885698E+01  0.58672080502E+01  0.10426004160E+02  0.00000000000E+00 0.  1.
</event>
<event>
 7    1  0.5006721E-012  0.5052886E+02  0.7816164E-02  0.1300439E+00
        -11   -1    0    0    0    0  0.00000000000E+00  0.00000000000E+00  0.45593999997E+02  0.45594000000E+02  0.51100000000E-03 0.  1.
         11   -1    0    0    0    0 -0.00000000000E+00 -0.00000000000E+00 -0.45593999997E+02  0.45594000000E+02  0.51100000000E-03 0. -1.
    9900012    2    1    2    0    0 -0.18759147884E+02  0.24580188855E+02 -0.26402161914E+02  0.50528862439E+02  0.30000007871E+02 0.  0.
         12    1    1    2    0    0  0.18759147884E+02 -0.24580188855E+02  0.26402161914E+02  0.40659137561E+02  0.00000000000E+00 0. -1.
         11    1    3    3    0    0  0.71868558640E+00  0.14551461831E+01 -0.17963696984E+02  0.18036861395E+02  0.51100000000E-03 0. -1.
        -11    1    3    3    0    0 -0.11591519955E+02  0.12386263273E+02 -0.47664761146E+00  0.16970858727E+02  0.51100000000E-03 0.  1.
        -12    1    3    3    0    0 -0.78863135156E+01  0.10738779399E+02 -0.79618173184E+01  0.15521142318E+02  0.00000000000E+00 0.  1.
</event>
<event>
 7    1  0.5006721E-012  0.5052887E+02  0.7816164E-02  0.1300439E+00
        -11   -1    0    0    0    0  0.00000000000E+00  0.00000000000E+00  0.45593999997E+02  0.45594000000E+02  0.51100000000E-03 0. -1.
         11   -1    0    0    0    0 -0.00000000000E+00 -0.00000000000E+00 -0.45593999997E+02  0.45594000000E+02  0.51100000000E-03 0.  1.
    9900012    2    1    2    0    0 -0.92231414732E+01 -0.35950386351E+02  0.16603265189E+02  0.50528867786E+02  0.30000024122E+02 0.  0.
        -12    1    1    2    0    0  0.92231414732E+01  0.35950386351E+02 -0.16603265189E+02  0.40659132214E+02  0.00000000000E+00 0.  1.
         11    1    3    3    0    0  0.63991748672E+01 -0.28783971533E+01  0.71332173421E+01  0.10005868231E+02  0.51100000000E-03 0. -1.
        -11    1    3    3    0    0 -0.17780317667E+02 -0.29799033122E+02  0.10865312034E+02  0.36361752945E+02  0.51100000000E-03 0.  1.
        -12    1    3    3    0    0  0.21580013264E+01 -0.32729560757E+01 -0.13952641865E+01  0.41612466099E+01  0.00000000000E+00 0.  1.
</event>
<event>
 7    1  0.5006721E-012  0.5052886E+02  0.7816164E-02  0.1300439E+00
        -11   -1    0    0    0    0  0.00000000000E+00  0.00000000000E+00  0.45593999997E+02  0.45594000000E+02  0.51100000000E-03 0. -1.
         11   -1    0    0    0    0 -0.00000000000E+00 -0.00000000000E+00 -0.45593999997E+02  0.45594000000E+02  0.51100000000E-03 0.  1.
    9900012    2    1    2    0    0  0.73056665687E+01  0.38290709795E+01 -0.39813703521E+02  0.50528861586E+02  0.30000005276E+02 0.  0.
         12    1    1    2    0    0 -0.73056665687E+01 -0.38290709795E+01  0.39813703521E+02  0.40659138414E+02  0.00000000000E+00 0. -1.
         11    1    3    3    0    0 -0.11056973274E+01 -0.93389929298E+01 -0.26665336281E+02  0.28275068785E+02  0.51100000000E-03 0. -1.
        -11    1    3    3    0    0  0.23228102918E+01  0.84872906772E+01 -0.11358373968E+02  0.14368096956E+02  0.51100000000E-03 0.  1.
         12    1    3    3    0    0  0.60885536043E+01  0.46807732320E+01 -0.17899932715E+01  0.78856958447E+01  0.00000000000E+00 0. -1.
</event>
<event>
 7    1  0.5006721E-012  0.5052885E+02  0.7816164E-02  0.1300439E+00
        -11   -1    0    0    0    0  0.00000000000E+00  0.00000000000E+00  0.45593999997E+02  0.45594000000E+02  0.51100000000E-03 0. -1.
         11   -1    0    0    0    0 -0.00000000000E+00 -0.00000000000E+00 -0.45593999997E+02  0.45594000000E+02  0.51100000000E-03 0.  1.
    9900012    2    1    2    0    0  0.31786649988E+02 -0.14436308932E+02 -0.20841496316E+02  0.50528854636E+02  0.29999984152E+02 0.  0.
         12    1    1    2    0    0 -0.31786649988E+02  0.14436308932E+02  0.20841496316E+02  0.40659145364E+02  0.00000000000E+00 0. -1.
         11    1    3    3    0    0  0.14697348834E+02  0.47966403790E+01  0.12369762399E+01  0.15509672213E+02  0.51100000000E-03 0. -1.
        -11    1    3    3    0    0  0.80498219914E+01 -0.11709083684E+02 -0.17138731673E+02  0.22262937777E+02  0.51100000000E-03 0.  1.
         12    1    3    3    0    0  0.90394791621E+01 -0.75238656272E+01 -0.49397408826E+01  0.12756244647E+02  0.00000000000E+00 0. -1.
</event>
<event>
 7    1  0.5006721E-012  0.5052886E+02  0.7816164E-02  0.1300439E+00
        -11   -1    0    0    0    0  0.00000000000E+00  0.00000000000E+00  0.45593999997E+02  0.45594000000E+02  0.51100000000E-03 0. -1.
         11   -1    0    0    0    0 -0.00000000000E+00 -0.00000000000E+00 -0.45593999997E+02  0.45594000000E+02  0.51100000000E-03 0.  1.
    9900012    2    1    2    0    0 -0.12242723922E+02 -0.23267375710E+02  0.31014679084E+02  0.50528863509E+02  0.30000011122E+02 0.  0.
        -12    1    1    2    0    0  0.12242723922E+02  0.23267375710E+02 -0.31014679084E+02  0.40659136491E+02  0.00000000000E+00 0.  1.
         11    1    3    3    0    0 -0.10408462964E+02 -0.75426000155E+01  0.28698410428E+01  0.13170531657E+02  0.51100000000E-03 0. -1.
        -11    1    3    3    0    0  0.13702291993E+01  0.38661058435E+01  0.84597535984E+01  0.94016878090E+01  0.51100000000E-03 0.  1.
         12    1    3    3    0    0 -0.32044901581E+01 -0.19590881538E+02  0.19685084443E+02  0.27956644043E+02  0.00000000000E+00 0. -1.
</event>
<event>
 7    1  0.5006721E-012  0.5052887E+02  0.7816164E-02  0.1300439E+00
        -11   -1    0    0    0    0  0.00000000000E+00  0.00000000000E+00  0.45593999997E+02  0.45594000000E+02  0.51100000000E-03 0. -1.
         11   -1    0    0    0    0 -0.00000000000E+00 -0.00000000000E+00 -0.45593999997E+02  0.45594000000E+02  0.51100000000E-03 0.  1.
    9900012    2    1    2    0    0 -0.31716094781E+02 -0.25382798830E+02 -0.17228031725E+01  0.50528865782E+02  0.30000018031E+02 0.  0.
        -12    1    1    2    0    0  0.31716094781E+02  0.25382798830E+02  0.17228031725E+01  0.40659134218E+02  0.00000000000E+00 0.  1.
         11    1    3    3    0    0 -0.79337755284E+01 -0.22537135089E+01  0.84520426651E+01  0.11809362565E+02  0.51100000000E-03 0. -1.
        -11    1    3    3    0    0 -0.11599297476E+02 -0.12572547028E+02 -0.14054157736E+02  0.22138924785E+02  0.51100000000E-03 0.  1.
        -12    1    3    3    0    0 -0.12183021777E+02 -0.10556538292E+02  0.38793118987E+01  0.16580578432E+02  0.00000000000E+00 0.  1.
</event>
<event>
 7    1  0.5006721E-012  0.5052886E+02  0.7816164E-02  0.1300439E+00
        -11   -1    0    0    0    0  0.00000000000E+00  0.00000000000E+00  0.45593999997E+02  0.45594000000E+02  0.51100000000E-03 0. -1.
         11   -1    0    0    0    0 -0.00000000000E+00 -0.00000000000E+00 -0.45593999997E+02  0.45594000000E+02  0.51100000000E-03 0.  1.
    9900012    2    1    2    0    0 -0.17624233778E+02 -0.27992606516E+02 -0.23642469915E+02  0.50528855647E+02  0.29999987225E+02 0.  0.
         12    1    1    2    0    0  0.17624233778E+02  0.27992606516E+02  0.23642469915E+02  0.40659144353E+02  0.00000000000E+00 0. -1.
         11    1    3    3    0    0  0.25064162077E+00  0.13098602425E+01 -0.17599514187E+01  0.22081631132E+01  0.51100000000E-03 0. -1.
        -11    1    3    3    0    0 -0.10457492531E+02 -0.32719813751E+02 -0.20600192916E+02  0.40053880091E+02  0.51100000000E-03 0.  1.
        -12    1    3    3    0    0 -0.74173828674E+01  0.34173469922E+01 -0.12823255801E+01  0.82668124426E+01  0.00000000000E+00 0.  1.
</event>
<event>
 7    1  0.5006721E-012  0.5052888E+02  0.7816164E-02  0.1300439E+00
        -11   -1    0    0    0    0  0.00000000000E+00  0.00000000000E+00  0.45593999997E+02  0.45594000000E+02  0.51100000000E-03 0. -1.
         11   -1    0    0    0    0 -0.00000000000E+00 -0.00000000000E+00 -0.45593999997E+02  0.45594000000E+02  0.51100000000E-03 0.  1.
    9900012    2    1    2    0    0 -0.83254867510E+00 -0.58531238646E+01  0.40227003508E+02  0.50528880389E+02  0.30000062431E+02 0.  0.
        -12    1    1    2    0    0  0.83254867510E+00  0.58531238646E+01 -0.40227003508E+02  0.40659119611E+02  0.00000000000E+00 0.  1.
         11    1    3    3    0    0  0.91459126126E+01  0.36342867500E+01  0.13591805779E+02  0.16780731280E+02  0.51100000000E-03 0. -1.
        -11    1    3    3    0    0 -0.72661993231E+01 -0.48343092492E+01  0.25849397879E+01  0.91022037160E+01  0.51100000000E-03 0.  1.
        -12    1    3    3    0    0 -0.27122619646E+01 -0.46531013655E+01  0.24050257942E+02  0.24645945393E+02  0.00000000000E+00 0.  1.
</event>
<event>
 7    1  0.5006721E-012  0.5052885E+02  0.7816164E-02  0.1300439E+00
        -11   -1    0    0    0    0  0.00000000000E+00  0.00000000000E+00  0.45593999997E+02  0.45594000000E+02  0.51100000000E-03 0. -1.
         11   -1    0    0    0    0 -0.00000000000E+00 -0.00000000000E+00 -0.45593999997E+02  0.45594000000E+02  0.51100000000E-03 0.  1.
    9900012    2    1    2    0    0  0.29758866529E+02  0.86877538876E+01 -0.26307782260E+02  0.50528848359E+02  0.29999965072E+02 0.  0.
         12    1    1    2    0    0 -0.29758866529E+02 -0.86877538876E+01  0.26307782260E+02  0.40659151641E+02  0.00000000000E+00 0. -1.
         11    1    3    3    0    0  0.32970176420E+01 -0.20794136850E+01  0.51019764283E+01  0.64206269430E+01  0.51100000000E-03 0. -1.
        -11    1    3    3    0    0  0.20152036073E+02  0.11102556994E+02 -0.29686463384E+02  0.37558719869E+02  0.51100000000E-03 0.  1.
        -12    1    3    3    0    0  0.63098128138E+01 -0.33538942115E+00 -0.17232953049E+01  0.65495015472E+01  0.00000000000E+00 0.  1.
</event>
<event>
 7    1  0.5006721E-012  0.5052889E+02  0.7816164E-02  0.1300439E+00
        -11   -1    0    0    0    0  0.00000000000E+00  0.00000000000E+00  0.45593999997E+02  0.45594000000E+02  0.51100000000E-03 0. -1.
         11   -1    0    0    0    0 -0.00000000000E+00 -0.00000000000E+00 -0.45593999997E+02  0.45594000000E+02  0.51100000000E-03 0.  1.
    9900012    2    1    2    0    0  0.18033395908E+02 -0.73708484237E+01 -0.35687960841E+02  0.50528888801E+02  0.30000088000E+02 0.  0.
         12    1    1    2    0    0 -0.18033395908E+02  0.73708484237E+01  0.35687960841E+02  0.40659111199E+02  0.00000000000E+00 0. -1.
         11    1    3    3    0    0 -0.12347289930E+00  0.66258668452E+01 -0.19327330486E+01  0.69031017887E+01  0.51100000000E-03 0. -1.
        -11    1    3    3    0    0  0.14742681342E+02 -0.52052999083E+01 -0.29266717193E+02  0.33181056882E+02  0.51100000000E-03 0.  1.
        -12    1    3    3    0    0  0.34141874656E+01 -0.87914153606E+01 -0.44885105994E+01  0.10444730130E+02  0.00000000000E+00 0.  1.
</event>
<event>
 7    1  0.5006721E-012  0.5052885E+02  0.7816164E-02  0.1300439E+00
        -11   -1    0    0    0    0  0.00000000000E+00  0.00000000000E+00  0.45593999997E+02  0.45594000000E+02  0.51100000000E-03 0. -1.
         11   -1    0    0    0    0 -0.00000000000E+00 -0.00000000000E+00 -0.45593999997E+02  0.45594000000E+02  0.51100000000E-03 0.  1.
    9900012    2    1    2    0    0  0.80188451866E+01  0.14174392710E+02 -0.37255214051E+02  0.50528852680E+02  0.29999978205E+02 0.  0.
         12    1    1    2    0    0 -0.80188451866E+01 -0.14174392710E+02  0.37255214051E+02  0.40659147320E+02  0.00000000000E+00 0. -1.
         11    1    3    3    0    0  0.20454676184E+01  0.19560382246E+02 -0.26758025900E+02  0.33208198411E+02  0.51100000000E-03 0. -1.
        -11    1    3    3    0    0  0.56650141068E+01 -0.13944937699E+01 -0.11755980373E+02  0.13124026535E+02  0.51100000000E-03 0.  1.
         12    1    3    3    0    0  0.30836346139E+00 -0.39914957663E+01  0.12587922215E+01  0.41966277336E+01  0.00000000000E+00 0. -1.
</event>
<event>
 7    1  0.5006721E-012  0.5052886E+02  0.7816164E-02  0.1300439E+00
        -11   -1    0    0    0    0  0.00000000000E+00  0.00000000000E+00  0.45593999997E+02  0.45594000000E+02  0.51100000000E-03 0.  1.
         11   -1    0    0    0    0 -0.00000000000E+00 -0.00000000000E+00 -0.45593999997E+02  0.45594000000E+02  0.51100000000E-03 0. -1.
    9900012    2    1    2    0    0  0.73522951002E+01  0.39476094048E+02 -0.63833997496E+01  0.50528855433E+02  0.29999986575E+02 0.  0.
         12    1    1    2    0    0 -0.73522951002E+01 -0.39476094048E+02  0.63833997496E+01  0.40659144567E+02  0.00000000000E+00 0. -1.
         11    1    3    3    0    0  0.65334370258E+00 -0.39900783534E+01 -0.22466584580E+01  0.46254791912E+01  0.51100000000E-03 0. -1.
        -11    1    3    3    0    0  0.58321655722E+00  0.22652582864E+02 -0.76722001525E+01  0.23923676711E+02  0.51100000000E-03 0.  1.
         12    1    3    3    0    0  0.61157348404E+01  0.20813589538E+02  0.35354588610E+01  0.21979699531E+02  0.00000000000E+00 0. -1.
</event>
<event>
 7    1  0.5006721E-012  0.5052886E+02  0.7816164E-02  0.1300439E+00
        -11   -1    0    0    0    0  0.00000000000E+00  0.00000000000E+00  0.45593999997E+02  0.45594000000E+02  0.51100000000E-03 0. -1.
         11   -1    0    0    0    0 -0.00000000000E+00 -0.00000000000E+00 -0.45593999997E+02  0.45594000000E+02  0.51100000000E-03 0.  1.
    9900012    2    1    2    0    0 -0.13097423834E+02  0.29368459068E+02 -0.24882055669E+02  0.50528860887E+02  0.30000003151E+02 0.  0.
         12    1    1    2    0    0  0.13097423834E+02 -0.29368459068E+02  0.24882055669E+02  0.40659139113E+02  0.00000000000E+00 0. -1.
         11    1    3    3    0    0  0.66768650465E+01  0.26229505024E+01 -0.96411908861E+01  0.12017194271E+02  0.51100000000E-03 0. -1.
        -11    1    3    3    0    0 -0.15083261785E+02  0.16513582119E+02 -0.15569382648E+02  0.27250850570E+02  0.51100000000E-03 0.  1.
        -12    1    3    3    0    0 -0.46910270954E+01  0.10231926447E+02  0.32851786559E+00  0.11260816045E+02  0.00000000000E+00 0.  1.
</event>
<event>
 7    1  0.5006721E-012  0.5052885E+02  0.7816164E-02  0.1300439E+00
        -11   -1    0    0    0    0  0.00000000000E+00  0.00000000000E+00  0.45593999997E+02  0.45594000000E+02  0.51100000000E-03 0. -1.
         11   -1    0    0    0    0 -0.00000000000E+00 -0.00000000000E+00 -0.45593999997E+02  0.45594000000E+02  0.51100000000E-03 0.  1.
    9900012    2    1    2    0    0  0.15755785193E+02  0.25272643767E+02 -0.27680592894E+02  0.50528849579E+02  0.29999968780E+02 0.  0.
         12    1    1    2    0    0 -0.15755785193E+02 -0.25272643767E+02  0.27680592894E+02  0.40659150421E+02  0.00000000000E+00 0. -1.
         11    1    3    3    0    0 -0.63055518855E+01  0.12926647144E+02 -0.17929245176E+02  0.22985126143E+02  0.51100000000E-03 0. -1.
        -11    1    3    3    0    0  0.17504546181E+02  0.97694589417E+01 -0.97893550305E+01  0.22308808511E+02  0.51100000000E-03 0.  1.
        -12    1    3    3    0    0  0.45567908977E+01  0.25765376813E+01  0.38007313219E-01  0.52349149242E+01  0.00000000000E+00 0.  1.
</event>
<event>
 7    1  0.5006721E-012  0.5052885E+02  0.7816164E-02  0.1300439E+00
        -11   -1    0    0    0    0  0.00000000000E+00  0.00000000000E+00  0.45593999997E+02  0.45594000000E+02  0.51100000000E-03 0. -1.
         11   -1    0    0    0    0 -0.00000000000E+00 -0.00000000000E+00 -0.45593999997E+02  0.45594000000E+02  0.51100000000E-03 0.  1.
    9900012    2    1    2    0    0  0.32368767078E+02  0.67903197357E+01 -0.23649971055E+02  0.50528847830E+02  0.29999963465E+02 0.  0.
         12    1    1    2    0    0 -0.32368767078E+02 -0.67903197357E+01  0.23649971055E+02  0.40659152170E+02  0.00000000000E+00 0. -1.
         11    1    3    3    0    0 -0.37834916992E+01 -0.49247982820E+00 -0.24538017275E+01  0.45363519482E+01  0.51100000000E-03 0. -1.
        -11    1    3    3    0    0  0.17217238639E+02  0.65831259927E+01 -0.19710245187E+02  0.26986378412E+02  0.51100000000E-03 0.  1.
         12    1    3    3    0    0  0.18935020138E+02  0.69967357112E+00 -0.14859241405E+01  0.19006117470E+02  0.00000000000E+00 0. -1.
</event>
<event>
 7    1  0.5006721E-012  0.5052886E+02  0.7816164E-02  0.1300439E+00
        -11   -1    0    0    0    0  0.00000000000E+00  0.00000000000E+00  0.45593999997E+02  0.45594000000E+02  0.51100000000E-03 0. -1.
         11   -1    0    0    0    0 -0.00000000000E+00 -0.00000000000E+00 -0.45593999997E+02  0.45594000000E+02  0.51100000000E-03 0.  1.
    9900012    2    1    2    0    0  0.12895781414E+02  0.18348842110E+02 -0.33914375329E+02  0.50528855407E+02  0.29999986496E+02 0.  0.
         12    1    1    2    0    0 -0.12895781414E+02 -0.18348842110E+02  0.33914375329E+02  0.40659144593E+02  0.00000000000E+00 0. -1.
         11    1    3    3    0    0 -0.52453200042E+01  0.67341027877E+01 -0.24473585448E+02  0.25919450365E+02  0.51100000000E-03 0. -1.
        -11    1    3    3    0    0  0.32707708205E+01  0.58429855303E+01 -0.18674387256E+01  0.69516724120E+01  0.51100000000E-03 0.  1.
         12    1    3    3    0    0  0.14870330598E+02  0.57717537918E+01 -0.75733511555E+01  0.17657732630E+02  0.00000000000E+00 0. -1.
</event>
<event>
 7    1  0.5006721E-012  0.5052886E+02  0.7816164E-02  0.1300439E+00
        -11   -1    0    0    0    0  0.00000000000E+00  0.00000000000E+00  0.45593999997E+02  0.45594000000E+02  0.51100000000E-03 0. -1.
         11   -1    0    0    0    0 -0.00000000000E+00 -0.00000000000E+00 -0.45593999997E+02  0.45594000000E+02  0.51100000000E-03 0.  1.
    9900012    2    1    2    0    0  0.93362433710E+01  0.20622749901E+02 -0.33774281036E+02  0.50528864332E+02  0.30000013625E+02 0.  0.
         12    1    1    2    0    0 -0.93362433710E+01 -0.20622749901E+02  0.33774281036E+02  0.40659135668E+02  0.00000000000E+00 0. -1.
         11    1    3    3    0    0  0.43742487024E+00  0.14144419956E+02 -0.85290654113E+01  0.16522739284E+02  0.51100000000E-03 0. -1.
        -11    1    3    3    0    0  0.53217421128E+01 -0.79531350198E+00 -0.25334878874E+02  0.25899991322E+02  0.51100000000E-03 0.  1.
        -12    1    3    3    0    0  0.35770763879E+01  0.72736434473E+01  0.89663249530E-01  0.81061337259E+01  0.00000000000E+00 0.  1.
</event>
<event>
 7    1  0.8236726E-012  0.5052886E+02  0.7816164E-02  0.1300439E+00
        -11   -1    0    0    0    0  0.00000000000E+00  0.00000000000E+00  0.45593999997E+02  0.45594000000E+02  0.51100000000E-03 0. -1.
         11   -1    0    0    0    0 -0.00000000000E+00 -0.00000000000E+00 -0.45593999997E+02  0.45594000000E+02  0.51100000000E-03 0.  1.
    9900012    2    1    2    0    0 -0.19540561315E+02  0.15461217743E+02  0.32129164845E+02  0.50528855589E+02  0.29999987049E+02 0.  0.
        -12    1    1    2    0    0  0.19540561315E+02 -0.15461217743E+02 -0.32129164845E+02  0.40659144411E+02  0.00000000000E+00 0.  1.
         11    1    3    3    0    0 -0.17796291247E+02  0.19107357135E+02  0.26435433205E+02  0.37156846043E+02  0.51100000000E-03 0. -1.
        -11    1    3    3    0    0 -0.60473825216E+01 -0.29324682309E+01  0.72429539978E+00  0.67597935896E+01  0.51100000000E-03 0.  1.
         12    1    3    3    0    0  0.43031124538E+01 -0.71367116174E+00  0.49694362396E+01  0.66122159566E+01  0.00000000000E+00 0. -1.
</event>
<event>
 7    1  0.5006721E-012  0.5052886E+02  0.7816164E-02  0.1300439E+00
        -11   -1    0    0    0    0  0.00000000000E+00  0.00000000000E+00  0.45593999997E+02  0.45594000000E+02  0.51100000000E-03 0. -1.
         11   -1    0    0    0    0 -0.00000000000E+00 -0.00000000000E+00 -0.45593999997E+02  0.45594000000E+02  0.51100000000E-03 0.  1.
    9900012    2    1    2    0    0  0.26669119146E+02  0.18269199308E+01  0.30636359151E+02  0.50528855217E+02  0.29999985919E+02 0.  0.
        -12    1    1    2    0    0 -0.26669119146E+02 -0.18269199308E+01 -0.30636359151E+02  0.40659144783E+02  0.00000000000E+00 0.  1.
         11    1    3    3    0    0  0.13408571514E+02  0.85344070847E+01  0.80958091634E+01  0.17837264942E+02  0.51100000000E-03 0. -1.
        -11    1    3    3    0    0  0.16328096153E+02 -0.71580663223E+01  0.23452734138E+02  0.29459724647E+02  0.51100000000E-03 0.  1.
        -12    1    3    3    0    0 -0.30675485215E+01  0.45057916839E+00 -0.91218415029E+00  0.32318656289E+01  0.00000000000E+00 0.  1.
</event>
<event>
 7    1  0.5006721E-012  0.5052886E+02  0.7816164E-02  0.1300439E+00
        -11   -1    0    0    0    0  0.00000000000E+00  0.00000000000E+00  0.45593999997E+02  0.45594000000E+02  0.51100000000E-03 0. -1.
         11   -1    0    0    0    0 -0.00000000000E+00 -0.00000000000E+00 -0.45593999997E+02  0.45594000000E+02  0.51100000000E-03 0.  1.
    9900012    2    1    2    0    0  0.37756303521E+02 -0.61766788776E+01 -0.13765030107E+02  0.50528857468E+02  0.29999992761E+02 0.  0.
         12    1    1    2    0    0 -0.37756303521E+02  0.61766788776E+01  0.13765030107E+02  0.40659142532E+02  0.00000000000E+00 0. -1.
         11    1    3    3    0    0  0.71026852791E+01  0.76582604349E+01  0.20110068217E+01  0.10636787098E+02  0.51100000000E-03 0. -1.
        -11    1    3    3    0    0  0.15216765976E+02 -0.13391927435E+02 -0.44831089933E+01  0.20760345702E+02  0.51100000000E-03 0.  1.
        -12    1    3    3    0    0  0.15436852266E+02 -0.44301187795E+00 -0.11292927936E+02  0.19131724668E+02  0.00000000000E+00 0.  1.
</event>
<event>
 7    1  0.5006721E-012  0.5052886E+02  0.7816164E-02  0.1300439E+00
        -11   -1    0    0    0    0  0.00000000000E+00  0.00000000000E+00  0.45593999997E+02  0.45594000000E+02  0.51100000000E-03 0. -1.
         11   -1    0    0    0    0 -0.00000000000E+00 -0.00000000000E+00 -0.45593999997E+02  0.45594000000E+02  0.51100000000E-03 0.  1.
    9900012    2    1    2    0    0 -0.19515496346E+01  0.23134725344E+02 -0.33378764698E+02  0.50528855942E+02  0.29999988122E+02 0.  0.
         12    1    1    2    0    0  0.19515496346E+01 -0.23134725344E+02  0.33378764698E+02  0.40659144058E+02  0.00000000000E+00 0. -1.
         11    1    3    3    0    0 -0.13449669606E+00 -0.38203691071E+00 -0.14081068452E+02  0.14086892154E+02  0.51100000000E-03 0. -1.
        -11    1    3    3    0    0 -0.46086751462E+00  0.17275101239E+02 -0.12834263639E+01  0.17328840272E+02  0.51100000000E-03 0.  1.
        -12    1    3    3    0    0 -0.13561854239E+01  0.62416610165E+01 -0.18014269883E+02  0.19113123516E+02  0.00000000000E+00 0.  1.
</event>
<event>
 7    1  0.5006721E-012  0.5052886E+02  0.7816164E-02  0.1300439E+00
        -11   -1    0    0    0    0  0.00000000000E+00  0.00000000000E+00  0.45593999997E+02  0.45594000000E+02  0.51100000000E-03 0. -1.
         11   -1    0    0    0    0 -0.00000000000E+00 -0.00000000000E+00 -0.45593999997E+02  0.45594000000E+02  0.51100000000E-03 0.  1.
    9900012    2    1    2    0    0  0.20873753478E+02  0.19998868964E+02  0.28591902961E+02  0.50528864999E+02  0.30000015652E+02 0.  0.
        -12    1    1    2    0    0 -0.20873753478E+02 -0.19998868964E+02 -0.28591902961E+02  0.40659135001E+02  0.00000000000E+00 0.  1.
         11    1    3    3    0    0  0.24051901771E+02  0.12595738840E+02  0.27921404236E+02  0.38945493071E+02  0.51100000000E-03 0. -1.
        -11    1    3    3    0    0 -0.60163455883E+01  0.47726626366E+01  0.16963016189E+00  0.76813734145E+01  0.51100000000E-03 0.  1.
         12    1    3    3    0    0  0.28381972946E+01  0.26304674874E+01  0.50086856230E+00  0.39019985138E+01  0.00000000000E+00 0. -1.
</event>
<event>
 7    1  0.5006721E-012  0.5052889E+02  0.7816164E-02  0.1300439E+00
        -11   -1    0    0    0    0  0.00000000000E+00  0.00000000000E+00  0.45593999997E+02  0.45594000000E+02  0.51100000000E-03 0. -1.
         11   -1    0    0    0    0 -0.00000000000E+00 -0.00000000000E+00 -0.45593999997E+02  0.45594000000E+02  0.51100000000E-03 0.  1.
    9900012    2    1    2    0    0  0.49185242467E+01 -0.56863069033E+01  0.39957943141E+02  0.50528890479E+02  0.30000093100E+02 0.  0.
        -12    1    1    2    0    0 -0.49185242467E+01  0.56863069033E+01 -0.39957943141E+02  0.40659109521E+02  0.00000000000E+00 0.  1.
         11    1    3    3    0    0 -0.77456182188E+01 -0.98441271449E+00  0.42329627416E+01  0.88815338662E+01  0.51100000000E-03 0. -1.
        -11    1    3    3    0    0  0.12367974485E+02 -0.98640227370E+01  0.23032750573E+02  0.27942321604E+02  0.51100000000E-03 0.  1.
        -12    1    3    3    0    0  0.29616798066E+00  0.51621285481E+01  0.12692229827E+02  0.13705035009E+02  0.00000000000E+00 0.  1.
</event>
<event>
 7    1  0.5006721E-012  0.5052885E+02  0.7816164E-02  0.1300439E+00
        -11   -1    0    0    0    0  0.00000000000E+00  0.00000000000E+00  0.45593999997E+02  0.45594000000E+02  0.51100000000E-03 0. -1.
         11   -1    0    0    0    0 -0.00000000000E+00 -0.00000000000E+00 -0.45593999997E+02  0.45594000000E+02  0.51100000000E-03 0.  1.
    9900012    2    1    2    0    0 -0.22929243377E+02 -0.19030746808E+02  0.27663098606E+02  0.50528849118E+02  0.29999967379E+02 0.  0.
        -12    1    1    2    0    0  0.22929243377E+02  0.19030746808E+02 -0.27663098606E+02  0.40659150882E+02  0.00000000000E+00 0.  1.
         11    1    3    3    0    0 -0.19462382395E+02 -0.18778372286E+02  0.14843795302E+02  0.30850443326E+02  0.51100000000E-03 0. -1.
        -11    1    3    3    0    0  0.28621689718E+01  0.30223455300E+01  0.11758896573E+02  0.12473902060E+02  0.51100000000E-03 0.  1.
         12    1    3    3    0    0 -0.63290299542E+01 -0.32747200526E+01  0.10604067307E+01  0.72045037316E+01  0.00000000000E+00 0. -1.
</event>
<event>
 7    1  0.5006721E-012  0.5052886E+02  0.7816164E-02  0.1300439E+00
        -11   -1    0    0    0    0  0.00000000000E+00  0.00000000000E+00  0.45593999997E+02  0.45594000000E+02  0.51100000000E-03 0. -1.
         11   -1    0    0    0    0 -0.00000000000E+00 -0.00000000000E+00 -0.45593999997E+02  0.45594000000E+02  0.51100000000E-03 0.  1.
    9900012    2    1    2    0    0 -0.19933667908E+02  0.28620916526E+02 -0.20896352905E+02  0.50528861498E+02  0.30000005009E+02 0.  0.
         12    1    1    2    0    0  0.19933667908E+02 -0.28620916526E+02  0.20896352905E+02  0.40659138502E+02  0.00000000000E+00 0. -1.
         11    1    3    3    0    0 -0.15675195610E+02  0.31511284863E+01 -0.66486483488E+01  0.17316058827E+02  0.51100000000E-03 0. -1.
        -11    1    3    3    0    0 -0.61442047786E+00  0.21492114399E+02 -0.16760493546E+02  0.27261743121E+02  0.51100000000E-03 0.  1.
         12    1    3    3    0    0 -0.36440518199E+01  0.39776736404E+01  0.25127889901E+01  0.59510595497E+01  0.00000000000E+00 0. -1.
</event>
<event>
 7    1  0.5006721E-012  0.5052885E+02  0.7816164E-02  0.1300439E+00
        -11   -1    0    0    0    0  0.00000000000E+00  0.00000000000E+00  0.45593999997E+02  0.45594000000E+02  0.51100000000E-03 0. -1.
         11   -1    0    0    0    0 -0.00000000000E+00 -0.00000000000E+00 -0.45593999997E+02  0.45594000000E+02  0.51100000000E-03 0.  1.
    9900012    2    1    2    0    0  0.41116143453E+01  0.30338575276E+02  0.26755029370E+02  0.50528854425E+02  0.29999983511E+02 0.  0.
        -12    1    1    2    0    0 -0.41116143453E+01 -0.30338575276E+02 -0.26755029370E+02  0.40659145575E+02  0.00000000000E+00 0.  1.
         11    1    3    3    0    0  0.71189469627E+00  0.14287052610E+01  0.40341530903E+01  0.43384771751E+01  0.51100000000E-03 0.  1.
        -11    1    3    3    0    0  0.15181443517E+02  0.12295559239E+02  0.82564300958E+01  0.21209093391E+02  0.51100000000E-03 0. -1.
        -12    1    3    3    0    0 -0.11781723868E+02  0.16614310776E+02  0.14464446183E+02  0.24981283859E+02  0.00000000000E+00 0.  1.
</event>
<event>
 7    1  0.5006721E-012  0.5052884E+02  0.7816164E-02  0.1300439E+00
        -11   -1    0    0    0    0  0.00000000000E+00  0.00000000000E+00  0.45593999997E+02  0.45594000000E+02  0.51100000000E-03 0. -1.
         11   -1    0    0    0    0 -0.00000000000E+00 -0.00000000000E+00 -0.45593999997E+02  0.45594000000E+02  0.51100000000E-03 0.  1.
    9900012    2    1    2    0    0 -0.23208039058E+02  0.21767072767E+02  0.25313009458E+02  0.50528843816E+02  0.29999951263E+02 0.  0.
        -12    1    1    2    0    0  0.23208039058E+02 -0.21767072767E+02 -0.25313009458E+02  0.40659156184E+02  0.00000000000E+00 0.  1.
         11    1    3    3    0    0 -0.12427036972E+02  0.57936247737E+01  0.14942838247E+02  0.20280181238E+02  0.51100000000E-03 0. -1.
        -11    1    3    3    0    0 -0.47200251869E+01  0.20337972018E+02  0.67034626036E+01  0.21928250152E+02  0.51100000000E-03 0.  1.
        -12    1    3    3    0    0 -0.60609768993E+01 -0.43645240244E+01  0.36667086071E+01  0.83204124262E+01  0.00000000000E+00 0.  1.
</event>
<event>
 7    1  0.5006721E-012  0.5052886E+02  0.7816164E-02  0.1300439E+00
        -11   -1    0    0    0    0  0.00000000000E+00  0.00000000000E+00  0.45593999997E+02  0.45594000000E+02  0.51100000000E-03 0. -1.
         11   -1    0    0    0    0 -0.00000000000E+00 -0.00000000000E+00 -0.45593999997E+02  0.45594000000E+02  0.51100000000E-03 0.  1.
    9900012    2    1    2    0    0 -0.91140885162E+01 -0.16631861063E+02 -0.35964988328E+02  0.50528858380E+02  0.29999995531E+02 0.  0.
         12    1    1    2    0    0  0.91140885162E+01  0.16631861063E+02  0.35964988328E+02  0.40659141620E+02  0.00000000000E+00 0. -1.
         11    1    3    3    0    0 -0.29534077379E+01 -0.25064592447E+00 -0.66073681239E+00  0.30367769167E+01  0.51100000000E-03 0. -1.
        -11    1    3    3    0    0  0.10396279347E+02 -0.44070578488E+01 -0.13741259179E+02  0.17785583691E+02  0.51100000000E-03 0.  1.
        -12    1    3    3    0    0 -0.16556960125E+02 -0.11974157290E+02 -0.21562992336E+02  0.29706497772E+02  0.00000000000E+00 0.  1.
</event>
<event>
 7    1  0.5006721E-012  0.5052882E+02  0.7816164E-02  0.1300439E+00
        -11   -1    0    0    0    0  0.00000000000E+00  0.00000000000E+00  0.45593999997E+02  0.45594000000E+02  0.51100000000E-03 0. -1.
         11   -1    0    0    0    0 -0.00000000000E+00 -0.00000000000E+00 -0.45593999997E+02  0.45594000000E+02  0.51100000000E-03 0.  1.
    9900012    2    1    2    0    0 -0.45297261376E+01 -0.53994678920E+01  0.40043681122E+02  0.50528818131E+02  0.29999873191E+02 0.  0.
        -12    1    1    2    0    0  0.45297261376E+01  0.53994678920E+01 -0.40043681122E+02  0.40659181869E+02  0.00000000000E+00 0.  1.
         11    1    3    3    0    0 -0.22719622074E+01 -0.90084092404E+01  0.21482019985E+02  0.23404923247E+02  0.51100000000E-03 0. -1.
        -11    1    3    3    0    0  0.46299294605E+01  0.33340538175E+01 -0.15097291062E+01  0.59018170000E+01  0.51100000000E-03 0.  1.
        -12    1    3    3    0    0 -0.68876933906E+01  0.27488753091E+00  0.20071390244E+02  0.21222077884E+02  0.00000000000E+00 0.  1.
</event>
<event>
 7    1  0.5006721E-012  0.5052884E+02  0.7816164E-02  0.1300439E+00
        -11   -1    0    0    0    0  0.00000000000E+00  0.00000000000E+00  0.45593999997E+02  0.45594000000E+02  0.51100000000E-03 0. -1.
         11   -1    0    0    0    0 -0.00000000000E+00 -0.00000000000E+00 -0.45593999997E+02  0.45594000000E+02  0.51100000000E-03 0.  1.
    9900012    2    1    2    0    0 -0.11775097988E+02 -0.17088705492E+02 -0.34964130943E+02  0.50528840630E+02  0.29999941579E+02 0.  0.
         12    1    1    2    0    0  0.11775097988E+02  0.17088705492E+02  0.34964130943E+02  0.40659159370E+02  0.00000000000E+00 0. -1.
         11    1    3    3    0    0 -0.12944532799E+02  0.25464530627E+01 -0.12828360066E+02  0.18401417740E+02  0.51100000000E-03 0. -1.
        -11    1    3    3    0    0  0.41586357864E+01 -0.15939293639E+02 -0.10439801761E+02  0.19502430474E+02  0.51100000000E-03 0.  1.
        -12    1    3    3    0    0 -0.29892009754E+01 -0.36958649162E+01 -0.11695969116E+02  0.12624992416E+02  0.00000000000E+00 0.  1.
</event>
<event>
 7    1  0.5006721E-012  0.5052886E+02  0.7816164E-02  0.1300439E+00
        -11   -1    0    0    0    0  0.00000000000E+00  0.00000000000E+00  0.45593999997E+02  0.45594000000E+02  0.51100000000E-03 0. -1.
         11   -1    0    0    0    0 -0.00000000000E+00 -0.00000000000E+00 -0.45593999997E+02  0.45594000000E+02  0.51100000000E-03 0.  1.
    9900012    2    1    2    0    0 -0.20919109400E+01  0.12354893370E+02 -0.38680051320E+02  0.50528857711E+02  0.29999993499E+02 0.  0.
         12    1    1    2    0    0  0.20919109400E+01 -0.12354893370E+02  0.38680051320E+02  0.40659142289E+02  0.00000000000E+00 0. -1.
         11    1    3    3    0    0 -0.44005627540E+01 -0.38758443693E+01 -0.87792505677E+01  0.10557573723E+02  0.51100000000E-03 0. -1.
        -11    1    3    3    0    0  0.93013420240E+01  0.10320027905E+02 -0.27003250428E+02  0.30367638587E+02  0.51100000000E-03 0.  1.
        -12    1    3    3    0    0 -0.69926902100E+01  0.59107098336E+01 -0.28975503239E+01  0.96036454011E+01  0.00000000000E+00 0.  1.
</event>
<event>
 7    1  0.5006721E-012  0.5052886E+02  0.7816164E-02  0.1300439E+00
        -11   -1    0    0    0    0  0.00000000000E+00  0.00000000000E+00  0.45593999997E+02  0.45594000000E+02  0.51100000000E-03 0. -1.
         11   -1    0    0    0    0 -0.00000000000E+00 -0.00000000000E+00 -0.45593999997E+02  0.45594000000E+02  0.51100000000E-03 0.  1.
    9900012    2    1    2    0    0  0.27786972518E+01 -0.40349727193E+02 -0.41646145270E+01  0.50528860103E+02  0.30000000770E+02 0.  0.
        -12    1    1    2    0    0 -0.27786972518E+01  0.40349727193E+02  0.41646145270E+01  0.40659139897E+02  0.00000000000E+00 0.  1.
         11    1    3    3    0    0  0.99859172527E+01 -0.11941486051E+02 -0.73156749331E+01  0.17199905014E+02  0.51100000000E-03 0.  1.
        -11    1    3    3    0    0 -0.20193636988E+01  0.48126681962E+00  0.33914491320E+01  0.39763519683E+01  0.51100000000E-03 0. -1.
         12    1    3    3    0    0 -0.51878563020E+01 -0.28889507961E+02 -0.24038872585E+00  0.29352603121E+02  0.00000000000E+00 0. -1.
</event>
<event>
 7    1  0.5006721E-012  0.5052886E+02  0.7816164E-02  0.1300439E+00
        -11   -1    0    0    0    0  0.00000000000E+00  0.00000000000E+00  0.45593999997E+02  0.45594000000E+02  0.51100000000E-03 0. -1.
         11   -1    0    0    0    0 -0.00000000000E+00 -0.00000000000E+00 -0.45593999997E+02  0.45594000000E+02  0.51100000000E-03 0.  1.
    9900012    2    1    2    0    0 -0.28097426714E+02  0.26218831315E+02 -0.13276803858E+02  0.50528855590E+02  0.29999987051E+02 0.  0.
         12    1    1    2    0    0  0.28097426714E+02 -0.26218831315E+02  0.13276803858E+02  0.40659144410E+02  0.00000000000E+00 0. -1.
         11    1    3    3    0    0 -0.17460373123E+02  0.17306995060E+02  0.50200852655E+01  0.25091790768E+02  0.51100000000E-03 0. -1.
        -11    1    3    3    0    0 -0.73730919723E-01  0.44599977609E+01 -0.10944742206E+02  0.11818815444E+02  0.51100000000E-03 0.  1.
        -12    1    3    3    0    0 -0.10563322671E+02  0.44518384941E+01 -0.73521469172E+01  0.13618249378E+02  0.00000000000E+00 0.  1.
</event>
