<event>
 7    1  0.2684545E-013  0.7246158E+02  0.7816164E-02  0.1226708E+00
        -11   -1    0    0    0    0  0.00000000000E+00  0.00000000000E+00  0.45593999997E+02  0.45594000000E+02  0.51100000000E-03 0. -1.
         11   -1    0    0    0    0 -0.00000000000E+00 -0.00000000000E+00 -0.45593999997E+02  0.45594000000E+02  0.51100000000E-03 0.  1.
    9900012    2    1    2    0    0  0.27952196879E+01 -0.48085549374E+01 -0.17881373609E+02  0.72461575466E+02  0.70000006737E+02 0.  0.
         12    1    1    2    0    0 -0.27952196879E+01  0.48085549374E+01  0.17881373609E+02  0.18726424534E+02  0.00000000000E+00 0. -1.
         11    1    3    3    0    0  0.32370433855E+02 -0.14219023941E+01 -0.10837183835E+02  0.34165938420E+02  0.51100000000E-03 0. -1.
        -11    1    3    3    0    0 -0.49416432222E+01 -0.10302126785E+02  0.10137499226E+01  0.11470891125E+02  0.51100000000E-03 0.  1.
        -12    1    3    3    0    0 -0.24633570945E+02  0.69154742422E+01 -0.80579396965E+01  0.26824745920E+02  0.00000000000E+00 0.  1.
</event>
<event>
 7    1  0.2684545E-013  0.7246155E+02  0.7816164E-02  0.1226708E+00
        -11   -1    0    0    0    0  0.00000000000E+00  0.00000000000E+00  0.45593999997E+02  0.45594000000E+02  0.51100000000E-03 0. -1.
         11   -1    0    0    0    0 -0.00000000000E+00 -0.00000000000E+00 -0.45593999997E+02  0.45594000000E+02  0.51100000000E-03 0.  1.
    9900012    2    1    2    0    0  0.27088722919E+01 -0.99529753229E+01 -0.15629461133E+02  0.72461554470E+02  0.69999979386E+02 0.  0.
         12    1    1    2    0    0 -0.27088722919E+01  0.99529753229E+01  0.15629461133E+02  0.18726445530E+02  0.00000000000E+00 0. -1.
         11    1    3    3    0    0 -0.45549065719E+01 -0.55622419698E+01 -0.75087050169E+01  0.10395497145E+02  0.51100000000E-03 0.  1.
        -11    1    3    3    0    0 -0.17202033230E+02  0.19948742180E+02 -0.80892872339E+01  0.27555377515E+02  0.51100000000E-03 0. -1.
         12    1    3    3    0    0  0.24465812094E+02 -0.24339475533E+02 -0.31468882140E-01  0.34510679810E+02  0.00000000000E+00 0. -1.
</event>
<event>
 7    1  0.2684545E-013  0.7246157E+02  0.7816164E-02  0.1226708E+00
        -11   -1    0    0    0    0  0.00000000000E+00  0.00000000000E+00  0.45593999997E+02  0.45594000000E+02  0.51100000000E-03 0.  1.
         11   -1    0    0    0    0 -0.00000000000E+00 -0.00000000000E+00 -0.45593999997E+02  0.45594000000E+02  0.51100000000E-03 0. -1.
    9900012    2    1    2    0    0 -0.60185492582E+01  0.17379888083E+02  0.35207694506E+01  0.72461567812E+02  0.69999996766E+02 0.  0.
         12    1    1    2    0    0  0.60185492582E+01 -0.17379888083E+02 -0.35207694506E+01  0.18726432188E+02  0.00000000000E+00 0. -1.
         11    1    3    3    0    0  0.26243192772E+02  0.13380799863E+02  0.25486397338E+01  0.29567660317E+02  0.51100000000E-03 0. -1.
        -11    1    3    3    0    0 -0.21562787756E+01 -0.82345660956E+01  0.54251492599E+01  0.10094050807E+02  0.51100000000E-03 0.  1.
         12    1    3    3    0    0 -0.30105463255E+02  0.12233654316E+02 -0.44530195431E+01  0.32799856688E+02  0.00000000000E+00 0. -1.
</event>
<event>
 7    1  0.2684545E-013  0.7246160E+02  0.7816164E-02  0.1226708E+00
        -11   -1    0    0    0    0  0.00000000000E+00  0.00000000000E+00  0.45593999997E+02  0.45594000000E+02  0.51100000000E-03 0.  1.
         11   -1    0    0    0    0 -0.00000000000E+00 -0.00000000000E+00 -0.45593999997E+02  0.45594000000E+02  0.51100000000E-03 0. -1.
    9900012    2    1    2    0    0 -0.13575826360E+02 -0.45988504336E+01  0.12050952517E+02  0.72461603036E+02  0.70000042652E+02 0.  0.
         12    1    1    2    0    0  0.13575826360E+02  0.45988504336E+01 -0.12050952517E+02  0.18726396964E+02  0.00000000000E+00 0. -1.
         11    1    3    3    0    0 -0.79875916496E+01  0.12255549597E+02  0.82619949071E+01  0.16800615357E+02  0.51100000000E-03 0. -1.
        -11    1    3    3    0    0 -0.13641738844E+02  0.13314090372E+02  0.13038739283E+02  0.23094821140E+02  0.51100000000E-03 0.  1.
         12    1    3    3    0    0  0.80535041334E+01 -0.30168490403E+02 -0.92497816731E+01  0.32566166539E+02  0.00000000000E+00 0. -1.
</event>
<event>
 7    1  0.2684545E-013  0.7246158E+02  0.7816164E-02  0.1226708E+00
        -11   -1    0    0    0    0  0.00000000000E+00  0.00000000000E+00  0.45593999997E+02  0.45594000000E+02  0.51100000000E-03 0.  1.
         11   -1    0    0    0    0 -0.00000000000E+00 -0.00000000000E+00 -0.45593999997E+02  0.45594000000E+02  0.51100000000E-03 0. -1.
    9900012    2    1    2    0    0 -0.39625121895E+01 -0.16610257051E+02 -0.76861242294E+01  0.72461584224E+02  0.70000018146E+02 0.  0.
         12    1    1    2    0    0  0.39625121895E+01  0.16610257051E+02  0.76861242294E+01  0.18726415776E+02  0.00000000000E+00 0. -1.
         11    1    3    3    0    0  0.15643811344E+01 -0.65294392380E+01 -0.89723482083E+01  0.11206422164E+02  0.51100000000E-03 0. -1.
        -11    1    3    3    0    0  0.21341072688E+01 -0.32333895767E+02 -0.11606628573E+02  0.34420183851E+02  0.51100000000E-03 0.  1.
         12    1    3    3    0    0 -0.76610005927E+01  0.22253077953E+02  0.12892852552E+02  0.26834978208E+02  0.00000000000E+00 0. -1.
</event>
<event>
 7    1  0.2684545E-013  0.7246157E+02  0.7816164E-02  0.1226708E+00
        -11   -1    0    0    0    0  0.00000000000E+00  0.00000000000E+00  0.45593999997E+02  0.45594000000E+02  0.51100000000E-03 0.  1.
         11   -1    0    0    0    0 -0.00000000000E+00 -0.00000000000E+00 -0.45593999997E+02  0.45594000000E+02  0.51100000000E-03 0. -1.
    9900012    2    1    2    0    0 -0.50450080030E+01 -0.93295064082E+00  0.18009908108E+02  0.72461567006E+02  0.69999995716E+02 0.  0.
         12    1    1    2    0    0  0.50450080030E+01  0.93295064082E+00 -0.18009908108E+02  0.18726432994E+02  0.00000000000E+00 0. -1.
         11    1    3    3    0    0 -0.11062959816E+02  0.24066451514E+02  0.11378735977E+02  0.28828090486E+02  0.51100000000E-03 0. -1.
        -11    1    3    3    0    0  0.98102202398E+01  0.40577272595E+01 -0.54544542207E+01  0.11935520214E+02  0.51100000000E-03 0.  1.
        -12    1    3    3    0    0 -0.37922684265E+01 -0.29057129415E+02  0.12085626351E+02  0.31697956306E+02  0.00000000000E+00 0.  1.
</event>
<event>
 7    1  0.2684545E-013  0.7246150E+02  0.7816164E-02  0.1226708E+00
        -11   -1    0    0    0    0  0.00000000000E+00  0.00000000000E+00  0.45593999997E+02  0.45594000000E+02  0.51100000000E-03 0. -1.
         11   -1    0    0    0    0 -0.00000000000E+00 -0.00000000000E+00 -0.45593999997E+02  0.45594000000E+02  0.51100000000E-03 0.  1.
    9900012    2    1    2    0    0 -0.15577390590E+02  0.98588273691E+01  0.32909243989E+01  0.72461501179E+02  0.69999909965E+02 0.  0.
         12    1    1    2    0    0  0.15577390590E+02 -0.98588273691E+01 -0.32909243989E+01  0.18726498821E+02  0.00000000000E+00 0. -1.
         11    1    3    3    0    0  0.16889068866E+02 -0.29680000717E+01  0.22376714885E+02  0.28191612953E+02  0.51100000000E-03 0. -1.
        -11    1    3    3    0    0  0.11970295307E+01 -0.16000963671E+01  0.12707825712E+01  0.23681378097E+01  0.51100000000E-03 0.  1.
        -12    1    3    3    0    0 -0.33663488987E+02  0.14426923808E+02 -0.20356573057E+02  0.41901750417E+02  0.00000000000E+00 0.  1.
</event>
<event>
 7    1  0.2684545E-013  0.7246151E+02  0.7816164E-02  0.1226708E+00
        -11   -1    0    0    0    0  0.00000000000E+00  0.00000000000E+00  0.45593999997E+02  0.45594000000E+02  0.51100000000E-03 0. -1.
         11   -1    0    0    0    0 -0.00000000000E+00 -0.00000000000E+00 -0.45593999997E+02  0.45594000000E+02  0.51100000000E-03 0.  1.
    9900012    2    1    2    0    0  0.10252531320E+02  0.15632229219E+02 -0.10957126707E+01  0.72461506066E+02  0.69999916331E+02 0.  0.
         12    1    1    2    0    0 -0.10252531320E+02 -0.15632229219E+02  0.10957126707E+01  0.18726493934E+02  0.00000000000E+00 0. -1.
         11    1    3    3    0    0  0.23265378298E+01  0.98241427724E+01  0.52750986288E+01  0.11390927324E+02  0.51100000000E-03 0. -1.
        -11    1    3    3    0    0  0.39534616878E+01 -0.13375617966E+02 -0.28369770821E+02  0.31612986445E+02  0.51100000000E-03 0.  1.
         12    1    3    3    0    0  0.39725318021E+01  0.19183704413E+02  0.21998959521E+02  0.29457592297E+02  0.00000000000E+00 0. -1.
</event>
<event>
 7    1  0.2684545E-013  0.7246158E+02  0.7816164E-02  0.1226708E+00
        -11   -1    0    0    0    0  0.00000000000E+00  0.00000000000E+00  0.45593999997E+02  0.45594000000E+02  0.51100000000E-03 0.  1.
         11   -1    0    0    0    0 -0.00000000000E+00 -0.00000000000E+00 -0.45593999997E+02  0.45594000000E+02  0.51100000000E-03 0. -1.
    9900012    2    1    2    0    0 -0.13818834726E+02 -0.30601818296E+01  0.12261893732E+02  0.72461576318E+02  0.70000007847E+02 0.  0.
         12    1    1    2    0    0  0.13818834726E+02  0.30601818296E+01 -0.12261893732E+02  0.18726423682E+02  0.00000000000E+00 0. -1.
         11    1    3    3    0    0 -0.36848237806E+02  0.13706722250E+02 -0.44430522849E+00  0.39317480484E+02  0.51100000000E-03 0. -1.
        -11    1    3    3    0    0  0.45951032128E+01 -0.97401432267E+01  0.31341921222E+01  0.11216439905E+02  0.51100000000E-03 0.  1.
        -12    1    3    3    0    0  0.18434299867E+02 -0.70267608532E+01  0.95720068380E+01  0.21927655930E+02  0.00000000000E+00 0.  1.
</event>
<event>
 7    1  0.2684545E-013  0.7246144E+02  0.7816164E-02  0.1226708E+00
        -11   -1    0    0    0    0  0.00000000000E+00  0.00000000000E+00  0.45593999997E+02  0.45594000000E+02  0.51100000000E-03 0. -1.
         11   -1    0    0    0    0 -0.00000000000E+00 -0.00000000000E+00 -0.45593999997E+02  0.45594000000E+02  0.51100000000E-03 0.  1.
    9900012    2    1    2    0    0 -0.42243059442E+01  0.51437755279E+01 -0.17503733984E+02  0.72461444236E+02  0.69999835786E+02 0.  0.
         12    1    1    2    0    0  0.42243059442E+01 -0.51437755279E+01  0.17503733984E+02  0.18726555764E+02  0.00000000000E+00 0. -1.
         11    1    3    3    0    0  0.10715530404E+02 -0.78960916961E+01  0.11984657578E+02  0.17910970756E+02  0.51100000000E-03 0. -1.
        -11    1    3    3    0    0 -0.54072445231E+01  0.27111962883E+01  0.10525506257E+02  0.12139817168E+02  0.51100000000E-03 0.  1.
        -12    1    3    3    0    0 -0.95325918251E+01  0.10328670936E+02 -0.40013897818E+02  0.42410656312E+02  0.00000000000E+00 0.  1.
</event>
<event>
 7    1  0.2684545E-013  0.7246152E+02  0.7816164E-02  0.1226708E+00
        -11   -1    0    0    0    0  0.00000000000E+00  0.00000000000E+00  0.45593999997E+02  0.45594000000E+02  0.51100000000E-03 0. -1.
         11   -1    0    0    0    0 -0.00000000000E+00 -0.00000000000E+00 -0.45593999997E+02  0.45594000000E+02  0.51100000000E-03 0.  1.
    9900012    2    1    2    0    0 -0.39897918771E+01  0.17718172639E+02  0.45638594422E+01  0.72461524253E+02  0.69999940023E+02 0.  0.
         12    1    1    2    0    0  0.39897918771E+01 -0.17718172639E+02 -0.45638594422E+01  0.18726475747E+02  0.00000000000E+00 0. -1.
         11    1    3    3    0    0 -0.78746835450E+00 -0.17835195552E+02 -0.48974512655E+01  0.18512140231E+02  0.51100000000E-03 0. -1.
        -11    1    3    3    0    0 -0.12115609306E+01  0.13766249491E+02 -0.15494239170E+02  0.20761718442E+02  0.51100000000E-03 0.  1.
         12    1    3    3    0    0 -0.19907625921E+01  0.21787118700E+02  0.24955549878E+02  0.33187665580E+02  0.00000000000E+00 0. -1.
</event>
<event>
 7    1  0.2684545E-013  0.7246161E+02  0.7816164E-02  0.1226708E+00
        -11   -1    0    0    0    0  0.00000000000E+00  0.00000000000E+00  0.45593999997E+02  0.45594000000E+02  0.51100000000E-03 0. -1.
         11   -1    0    0    0    0 -0.00000000000E+00 -0.00000000000E+00 -0.45593999997E+02  0.45594000000E+02  0.51100000000E-03 0.  1.
    9900012    2    1    2    0    0 -0.51429453584E+01  0.17985599359E+02  0.86368332463E+00  0.72461611663E+02  0.70000053890E+02 0.  0.
         12    1    1    2    0    0  0.51429453584E+01 -0.17985599359E+02 -0.86368332463E+00  0.18726388337E+02  0.00000000000E+00 0. -1.
         11    1    3    3    0    0  0.15380503062E+02 -0.82563916042E+01  0.41044491429E+01  0.17932495080E+02  0.51100000000E-03 0. -1.
        -11    1    3    3    0    0 -0.14039453120E+02 -0.76783714801E+01 -0.10632581255E+02  0.19212376659E+02  0.51100000000E-03 0.  1.
        -12    1    3    3    0    0 -0.64839953005E+01  0.33920362444E+02  0.73918154365E+01  0.35316739923E+02  0.00000000000E+00 0.  1.
</event>
<event>
 7    1  0.2684545E-013  0.7246160E+02  0.7816164E-02  0.1226708E+00
        -11   -1    0    0    0    0  0.00000000000E+00  0.00000000000E+00  0.45593999997E+02  0.45594000000E+02  0.51100000000E-03 0.  1.
         11   -1    0    0    0    0 -0.00000000000E+00 -0.00000000000E+00 -0.45593999997E+02  0.45594000000E+02  0.51100000000E-03 0. -1.
    9900012    2    1    2    0    0  0.11335195786E+02  0.37682248621E+01  0.14421917509E+02  0.72461604545E+02  0.70000044618E+02 0.  0.
         12    1    1    2    0    0 -0.11335195786E+02 -0.37682248621E+01 -0.14421917509E+02  0.18726395455E+02  0.00000000000E+00 0. -1.
         11    1    3    3    0    0 -0.16422710034E+01 -0.32737388408E+01 -0.53629176604E+01  0.64942517767E+01  0.51100000000E-03 0. -1.
        -11    1    3    3    0    0 -0.43224480536E+01 -0.25401767124E+02  0.45379420148E+01  0.26163452528E+02  0.51100000000E-03 0.  1.
         12    1    3    3    0    0  0.17299914843E+02  0.32443730827E+02  0.15246893154E+02  0.39803900241E+02  0.00000000000E+00 0. -1.
</event>
<event>
 7    1  0.2684545E-013  0.7246137E+02  0.7816164E-02  0.1226709E+00
        -11   -1    0    0    0    0  0.00000000000E+00  0.00000000000E+00  0.45593999997E+02  0.45594000000E+02  0.51100000000E-03 0. -1.
         11   -1    0    0    0    0 -0.00000000000E+00 -0.00000000000E+00 -0.45593999997E+02  0.45594000000E+02  0.51100000000E-03 0.  1.
    9900012    2    1    2    0    0 -0.14928384607E+01  0.36274018548E+01 -0.18311205477E+02  0.72461365040E+02  0.69999732618E+02 0.  0.
         12    1    1    2    0    0  0.14928384607E+01 -0.36274018548E+01  0.18311205477E+02  0.18726634960E+02  0.00000000000E+00 0. -1.
         11    1    3    3    0    0 -0.90751794144E+01 -0.15905088986E+02 -0.20365239392E+02  0.27387473648E+02  0.51100000000E-03 0. -1.
        -11    1    3    3    0    0 -0.41880707298E+01 -0.18477635857E+01 -0.14748868545E+02  0.15442904206E+02  0.51100000000E-03 0.  1.
         12    1    3    3    0    0  0.11770411683E+02  0.21380254427E+02  0.16802902460E+02  0.29630987186E+02  0.00000000000E+00 0. -1.
</event>
<event>
 7    1  0.2684545E-013  0.7246152E+02  0.7816164E-02  0.1226708E+00
        -11   -1    0    0    0    0  0.00000000000E+00  0.00000000000E+00  0.45593999997E+02  0.45594000000E+02  0.51100000000E-03 0.  1.
         11   -1    0    0    0    0 -0.00000000000E+00 -0.00000000000E+00 -0.45593999997E+02  0.45594000000E+02  0.51100000000E-03 0. -1.
    9900012    2    1    2    0    0  0.15157642901E+02 -0.63848791403E+01  0.89532203038E+01  0.72461522121E+02  0.69999937245E+02 0.  0.
         12    1    1    2    0    0 -0.15157642901E+02  0.63848791403E+01 -0.89532203038E+01  0.18726477879E+02  0.00000000000E+00 0. -1.
         11    1    3    3    0    0  0.94790314688E+01 -0.11862310428E+02  0.98548270529E+01  0.18102045817E+02  0.51100000000E-03 0. -1.
        -11    1    3    3    0    0  0.24757259494E+02 -0.10353820016E+02  0.80256408766E+01  0.28009541201E+02  0.51100000000E-03 0.  1.
         12    1    3    3    0    0 -0.19078648061E+02  0.15831251304E+02 -0.89272476257E+01  0.26349935102E+02  0.00000000000E+00 0. -1.
</event>
<event>
 7    1  0.2684545E-013  0.7246162E+02  0.7816164E-02  0.1226708E+00
        -11   -1    0    0    0    0  0.00000000000E+00  0.00000000000E+00  0.45593999997E+02  0.45594000000E+02  0.51100000000E-03 0.  1.
         11   -1    0    0    0    0 -0.00000000000E+00 -0.00000000000E+00 -0.45593999997E+02  0.45594000000E+02  0.51100000000E-03 0. -1.
    9900012    2    1    2    0    0 -0.86624300307E+01  0.54032108154E+01  0.15698561859E+02  0.72461622198E+02  0.70000067614E+02 0.  0.
         12    1    1    2    0    0  0.86624300307E+01 -0.54032108154E+01 -0.15698561859E+02  0.18726377802E+02  0.00000000000E+00 0. -1.
         11    1    3    3    0    0  0.25971448092E+01 -0.18067210332E+02  0.16805932114E+02  0.24811461158E+02  0.51100000000E-03 0. -1.
        -11    1    3    3    0    0  0.14797810308E+02  0.12291904026E+02 -0.14778986410E+01  0.19293788616E+02  0.51100000000E-03 0.  1.
         12    1    3    3    0    0 -0.26057385148E+02  0.11178517121E+02  0.37052838545E+00  0.28356372424E+02  0.00000000000E+00 0. -1.
</event>
<event>
 7    1  0.2684545E-013  0.7246157E+02  0.7816164E-02  0.1226708E+00
        -11   -1    0    0    0    0  0.00000000000E+00  0.00000000000E+00  0.45593999997E+02  0.45594000000E+02  0.51100000000E-03 0.  1.
         11   -1    0    0    0    0 -0.00000000000E+00 -0.00000000000E+00 -0.45593999997E+02  0.45594000000E+02  0.51100000000E-03 0. -1.
    9900012    2    1    2    0    0  0.16379895296E+02  0.37120463353E+01  0.82824510332E+01  0.72461568065E+02  0.69999997096E+02 0.  0.
         12    1    1    2    0    0 -0.16379895296E+02 -0.37120463353E+01 -0.82824510332E+01  0.18726431935E+02  0.00000000000E+00 0. -1.
         11    1    3    3    0    0 -0.64464063444E+01 -0.50965414378E+00  0.86932181741E+01  0.10834571731E+02  0.51100000000E-03 0. -1.
        -11    1    3    3    0    0 -0.18135798184E+01 -0.22898196711E+02 -0.77798632782E+01  0.24251654733E+02  0.51100000000E-03 0.  1.
         12    1    3    3    0    0  0.24639881459E+02  0.27119897190E+02  0.73690961372E+01  0.37375341601E+02  0.00000000000E+00 0. -1.
</event>
<event>
 7    1  0.2684545E-013  0.7246146E+02  0.7816164E-02  0.1226708E+00
        -11   -1    0    0    0    0  0.00000000000E+00  0.00000000000E+00  0.45593999997E+02  0.45594000000E+02  0.51100000000E-03 0.  1.
         11   -1    0    0    0    0 -0.00000000000E+00 -0.00000000000E+00 -0.45593999997E+02  0.45594000000E+02  0.51100000000E-03 0. -1.
    9900012    2    1    2    0    0 -0.18717132444E+02  0.11471073237E+00  0.58221773831E+00  0.72461463134E+02  0.69999860404E+02 0.  0.
         12    1    1    2    0    0  0.18717132444E+02 -0.11471073237E+00 -0.58221773831E+00  0.18726536866E+02  0.00000000000E+00 0. -1.
         11    1    3    3    0    0  0.61479513230E+01  0.18063800212E+02  0.10272731563E+02  0.21670883636E+02  0.51100000000E-03 0. -1.
        -11    1    3    3    0    0 -0.10889227548E+02  0.79148597384E+01 -0.15807095751E+02  0.20762575890E+02  0.51100000000E-03 0.  1.
         12    1    3    3    0    0 -0.13975856219E+02 -0.25863949218E+02  0.61165819259E+01  0.30028003608E+02  0.00000000000E+00 0. -1.
</event>
<event>
 7    1  0.2684545E-013  0.7246156E+02  0.7816164E-02  0.1226708E+00
        -11   -1    0    0    0    0  0.00000000000E+00  0.00000000000E+00  0.45593999997E+02  0.45594000000E+02  0.51100000000E-03 0. -1.
         11   -1    0    0    0    0 -0.00000000000E+00 -0.00000000000E+00 -0.45593999997E+02  0.45594000000E+02  0.51100000000E-03 0.  1.
    9900012    2    1    2    0    0  0.15494472631E+01  0.36029069702E+01 -0.18311139271E+02  0.72461560220E+02  0.69999986876E+02 0.  0.
         12    1    1    2    0    0 -0.15494472631E+01 -0.36029069702E+01  0.18311139271E+02  0.18726439780E+02  0.00000000000E+00 0. -1.
         11    1    3    3    0    0  0.15095378269E+02  0.10932803696E+02  0.10385603097E+02  0.21336761556E+02  0.51100000000E-03 0. -1.
        -11    1    3    3    0    0 -0.77293010272E+01  0.75694025919E+01  0.63898577146E+01  0.12564562541E+02  0.51100000000E-03 0.  1.
        -12    1    3    3    0    0 -0.58166299788E+01 -0.14899299318E+02 -0.35086600083E+02  0.38560236123E+02  0.00000000000E+00 0.  1.
</event>
<event>
 7    1  0.2684545E-013  0.7246160E+02  0.7816164E-02  0.1226708E+00
        -11   -1    0    0    0    0  0.00000000000E+00  0.00000000000E+00  0.45593999997E+02  0.45594000000E+02  0.51100000000E-03 0. -1.
         11   -1    0    0    0    0 -0.00000000000E+00 -0.00000000000E+00 -0.45593999997E+02  0.45594000000E+02  0.51100000000E-03 0.  1.
    9900012    2    1    2    0    0 -0.12697716582E+02 -0.33207936155E+01  0.13357339040E+02  0.72461596638E+02  0.70000034318E+02 0.  0.
         12    1    1    2    0    0  0.12697716582E+02  0.33207936155E+01 -0.13357339040E+02  0.18726403362E+02  0.00000000000E+00 0. -1.
         11    1    3    3    0    0  0.13783051122E+02  0.97405326676E+01 -0.15488705671E+02  0.22907432822E+02  0.51100000000E-03 0. -1.
        -11    1    3    3    0    0 -0.14678730604E+02 -0.10346609645E+02 -0.33298913561E+00  0.17961858070E+02  0.51100000000E-03 0.  1.
        -12    1    3    3    0    0 -0.11802037099E+02 -0.27147166382E+01  0.29179033847E+02  0.31592305746E+02  0.00000000000E+00 0.  1.
</event>
<event>
 7    1  0.2684545E-013  0.7246157E+02  0.7816164E-02  0.1226708E+00
        -11   -1    0    0    0    0  0.00000000000E+00  0.00000000000E+00  0.45593999997E+02  0.45594000000E+02  0.51100000000E-03 0.  1.
         11   -1    0    0    0    0 -0.00000000000E+00 -0.00000000000E+00 -0.45593999997E+02  0.45594000000E+02  0.51100000000E-03 0. -1.
    9900012    2    1    2    0    0 -0.66954836194E+01  0.15458532458E+02  0.81782364139E+01  0.72461567411E+02  0.69999996244E+02 0.  0.
         12    1    1    2    0    0  0.66954836194E+01 -0.15458532458E+02 -0.81782364139E+01  0.18726432589E+02  0.00000000000E+00 0. -1.
         11    1    3    3    0    0  0.50373438331E+01 -0.28644920852E+01 -0.19069773371E+02  0.19930790362E+02  0.51100000000E-03 0. -1.
        -11    1    3    3    0    0  0.13466804441E+02  0.17120452946E+01  0.32186210413E+01  0.13951539077E+02  0.51100000000E-03 0.  1.
        -12    1    3    3    0    0 -0.25199631893E+02  0.16610979249E+02  0.24029388743E+02  0.38579237972E+02  0.00000000000E+00 0.  1.
</event>
<event>
 7    1  0.2684545E-013  0.7246155E+02  0.7816164E-02  0.1226708E+00
        -11   -1    0    0    0    0  0.00000000000E+00  0.00000000000E+00  0.45593999997E+02  0.45594000000E+02  0.51100000000E-03 0.  1.
         11   -1    0    0    0    0 -0.00000000000E+00 -0.00000000000E+00 -0.45593999997E+02  0.45594000000E+02  0.51100000000E-03 0. -1.
    9900012    2    1    2    0    0  0.29684604144E+01 -0.17745503420E+02  0.51928073475E+01  0.72461550870E+02  0.69999974696E+02 0.  0.
         12    1    1    2    0    0 -0.29684604144E+01  0.17745503420E+02 -0.51928073475E+01  0.18726449130E+02  0.00000000000E+00 0. -1.
         11    1    3    3    0    0  0.14666966787E+02 -0.27108520747E+02 -0.11837319046E+02  0.33016873479E+02  0.51100000000E-03 0. -1.
        -11    1    3    3    0    0  0.97626499054E+01 -0.11784759379E+01  0.11061759752E+02  0.14800698220E+02  0.51100000000E-03 0.  1.
         12    1    3    3    0    0 -0.21461156278E+02  0.10541493265E+02  0.59683666413E+01  0.24643979172E+02  0.00000000000E+00 0. -1.
</event>
<event>
 7    1  0.2684545E-013  0.7246164E+02  0.7816164E-02  0.1226708E+00
        -11   -1    0    0    0    0  0.00000000000E+00  0.00000000000E+00  0.45593999997E+02  0.45594000000E+02  0.51100000000E-03 0. -1.
         11   -1    0    0    0    0 -0.00000000000E+00 -0.00000000000E+00 -0.45593999997E+02  0.45594000000E+02  0.51100000000E-03 0.  1.
    9900012    2    1    2    0    0 -0.18673364182E+02  0.13326692854E+01  0.45380818494E+00  0.72461642128E+02  0.70000093576E+02 0.  0.
         12    1    1    2    0    0  0.18673364182E+02 -0.13326692854E+01 -0.45380818494E+00  0.18726357872E+02  0.00000000000E+00 0. -1.
         11    1    3    3    0    0 -0.47011608778E+00  0.81235510243E+01 -0.12803781009E+02  0.15170692099E+02  0.51100000000E-03 0. -1.
        -11    1    3    3    0    0  0.57142477301E+01 -0.18771750987E+02 -0.98375442746E+01  0.21950137582E+02  0.51100000000E-03 0.  1.
         12    1    3    3    0    0 -0.23917495824E+02  0.11980869248E+02  0.23095133469E+02  0.35340812447E+02  0.00000000000E+00 0. -1.
</event>
<event>
 7    1  0.2684545E-013  0.7246156E+02  0.7816164E-02  0.1226708E+00
        -11   -1    0    0    0    0  0.00000000000E+00  0.00000000000E+00  0.45593999997E+02  0.45594000000E+02  0.51100000000E-03 0.  1.
         11   -1    0    0    0    0 -0.00000000000E+00 -0.00000000000E+00 -0.45593999997E+02  0.45594000000E+02  0.51100000000E-03 0. -1.
    9900012    2    1    2    0    0  0.14412849322E+02 -0.52842638995E+01  0.10725004294E+02  0.72461564470E+02  0.69999992413E+02 0.  0.
         12    1    1    2    0    0 -0.14412849322E+02  0.52842638995E+01 -0.10725004294E+02  0.18726435530E+02  0.00000000000E+00 0. -1.
         11    1    3    3    0    0  0.17918337508E+02  0.67381676180E+01  0.13509540614E+02  0.23430266959E+02  0.51100000000E-03 0. -1.
        -11    1    3    3    0    0  0.25735311583E+01 -0.13986624568E+02 -0.23436482368E+02  0.27413818331E+02  0.51100000000E-03 0.  1.
         12    1    3    3    0    0 -0.60790193446E+01  0.19641930500E+01  0.20651946049E+02  0.21617479181E+02  0.00000000000E+00 0. -1.
</event>
<event>
 7    1  0.2684545E-013  0.7246121E+02  0.7816164E-02  0.1226709E+00
        -11   -1    0    0    0    0  0.00000000000E+00  0.00000000000E+00  0.45593999997E+02  0.45594000000E+02  0.51100000000E-03 0. -1.
         11   -1    0    0    0    0 -0.00000000000E+00 -0.00000000000E+00 -0.45593999997E+02  0.45594000000E+02  0.51100000000E-03 0.  1.
    9900012    2    1    2    0    0  0.96805601365E+01  0.78564226337E+00 -0.16011311404E+02  0.72461212470E+02  0.69999533866E+02 0.  0.
         12    1    1    2    0    0 -0.96805601365E+01 -0.78564226337E+00  0.16011311404E+02  0.18726787530E+02  0.00000000000E+00 0. -1.
         11    1    3    3    0    0  0.10593207476E+02 -0.89946712515E+01 -0.20265219823E+02  0.24572327735E+02  0.51100000000E-03 0. -1.
        -11    1    3    3    0    0  0.48136320037E+00 -0.37916096868E+00 -0.20804435274E+02  0.20813457207E+02  0.51100000000E-03 0.  1.
         12    1    3    3    0    0 -0.13940105399E+01  0.10159474484E+02  0.25058343694E+02  0.27075427528E+02  0.00000000000E+00 0. -1.
</event>
<event>
 7    1  0.2684545E-013  0.7246156E+02  0.7816164E-02  0.1226708E+00
        -11   -1    0    0    0    0  0.00000000000E+00  0.00000000000E+00  0.45593999997E+02  0.45594000000E+02  0.51100000000E-03 0. -1.
         11   -1    0    0    0    0 -0.00000000000E+00 -0.00000000000E+00 -0.45593999997E+02  0.45594000000E+02  0.51100000000E-03 0.  1.
    9900012    2    1    2    0    0  0.13271592739E+02 -0.40375112540E+01 -0.12579460494E+02  0.72461561544E+02  0.69999988601E+02 0.  0.
         12    1    1    2    0    0 -0.13271592739E+02  0.40375112540E+01  0.12579460494E+02  0.18726438456E+02  0.00000000000E+00 0. -1.
         11    1    3    3    0    0  0.20877055518E+02  0.11147119368E+02  0.54862778817E+01  0.24294216649E+02  0.51100000000E-03 0. -1.
        -11    1    3    3    0    0 -0.36429775385E+01  0.14064970764E+02 -0.23193451605E+01  0.14713057132E+02  0.51100000000E-03 0.  1.
         12    1    3    3    0    0 -0.39624852412E+01 -0.29249601385E+02 -0.15746393215E+02  0.33454287763E+02  0.00000000000E+00 0. -1.
</event>
<event>
 7    1  0.2684545E-013  0.7246160E+02  0.7816164E-02  0.1226708E+00
        -11   -1    0    0    0    0  0.00000000000E+00  0.00000000000E+00  0.45593999997E+02  0.45594000000E+02  0.51100000000E-03 0. -1.
         11   -1    0    0    0    0 -0.00000000000E+00 -0.00000000000E+00 -0.45593999997E+02  0.45594000000E+02  0.51100000000E-03 0.  1.
    9900012    2    1    2    0    0 -0.11244530593E+02 -0.12003375802E+02 -0.89530804974E+01  0.72461597534E+02  0.70000035485E+02 0.  0.
         12    1    1    2    0    0  0.11244530593E+02  0.12003375802E+02  0.89530804974E+01  0.18726402466E+02  0.00000000000E+00 0. -1.
         11    1    3    3    0    0 -0.95480305230E+01  0.45715786455E+01 -0.60348742468E+01  0.12185398049E+02  0.51100000000E-03 0. -1.
        -11    1    3    3    0    0 -0.21074262416E+02 -0.14257571177E+02 -0.21513149691E+02  0.33319941208E+02  0.51100000000E-03 0.  1.
         12    1    3    3    0    0  0.19377762345E+02 -0.23173832704E+01  0.18594943440E+02  0.26956258277E+02  0.00000000000E+00 0. -1.
</event>
<event>
 7    1  0.2684545E-013  0.7246151E+02  0.7816164E-02  0.1226708E+00
        -11   -1    0    0    0    0  0.00000000000E+00  0.00000000000E+00  0.45593999997E+02  0.45594000000E+02  0.51100000000E-03 0. -1.
         11   -1    0    0    0    0 -0.00000000000E+00 -0.00000000000E+00 -0.45593999997E+02  0.45594000000E+02  0.51100000000E-03 0.  1.
    9900012    2    1    2    0    0  0.10817484446E+02  0.10148184570E+02 -0.11431434446E+02  0.72461513055E+02  0.69999925435E+02 0.  0.
         12    1    1    2    0    0 -0.10817484446E+02 -0.10148184570E+02  0.11431434446E+02  0.18726486945E+02  0.00000000000E+00 0. -1.
         11    1    3    3    0    0  0.81282673591E+01 -0.24753639314E+02  0.10165095309E+02  0.27966775868E+02  0.51100000000E-03 0. -1.
        -11    1    3    3    0    0 -0.47003480761E+01  0.32835867994E+01 -0.46223582151E+00  0.57522931533E+01  0.51100000000E-03 0.  1.
        -12    1    3    3    0    0  0.73895651629E+01  0.31618237085E+02 -0.21134293934E+02  0.38742444034E+02  0.00000000000E+00 0.  1.
</event>
<event>
 7    1  0.2684545E-013  0.7246160E+02  0.7816164E-02  0.1226708E+00
        -11   -1    0    0    0    0  0.00000000000E+00  0.00000000000E+00  0.45593999997E+02  0.45594000000E+02  0.51100000000E-03 0. -1.
         11   -1    0    0    0    0 -0.00000000000E+00 -0.00000000000E+00 -0.45593999997E+02  0.45594000000E+02  0.51100000000E-03 0.  1.
    9900012    2    1    2    0    0 -0.15332656282E+02  0.20510476484E+01 -0.10553718599E+02  0.72461598279E+02  0.70000036456E+02 0.  0.
         12    1    1    2    0    0  0.15332656282E+02 -0.20510476484E+01  0.10553718599E+02  0.18726401721E+02  0.00000000000E+00 0. -1.
         11    1    3    3    0    0 -0.10898511133E+02 -0.12252247849E+01  0.26475184321E+02  0.28656833492E+02  0.51100000000E-03 0. -1.
        -11    1    3    3    0    0 -0.15944070270E+01 -0.41488958347E+01  0.13231419433E+01  0.46374750973E+01  0.51100000000E-03 0.  1.
        -12    1    3    3    0    0 -0.28397381224E+01  0.74251682680E+01 -0.38352044864E+02  0.39167289690E+02  0.00000000000E+00 0.  1.
</event>
<event>
 7    1  0.2684545E-013  0.7246156E+02  0.7816164E-02  0.1226708E+00
        -11   -1    0    0    0    0  0.00000000000E+00  0.00000000000E+00  0.45593999997E+02  0.45594000000E+02  0.51100000000E-03 0. -1.
         11   -1    0    0    0    0 -0.00000000000E+00 -0.00000000000E+00 -0.45593999997E+02  0.45594000000E+02  0.51100000000E-03 0.  1.
    9900012    2    1    2    0    0 -0.38533593466E+00  0.76116045888E+01 -0.17105394380E+02  0.72461560800E+02  0.69999987632E+02 0.  0.
         12    1    1    2    0    0  0.38533593466E+00 -0.76116045888E+01  0.17105394380E+02  0.18726439200E+02  0.00000000000E+00 0. -1.
         11    1    3    3    0    0  0.53164153145E+01 -0.78446143043E+01 -0.48984632581E+01  0.10667576479E+02  0.51100000000E-03 0. -1.
        -11    1    3    3    0    0 -0.10540166226E+02 -0.71980715055E+01 -0.29988089869E+02  0.32591300552E+02  0.51100000000E-03 0.  1.
         12    1    3    3    0    0  0.48384149766E+01  0.22654290399E+02  0.17781158746E+02  0.29202683769E+02  0.00000000000E+00 0. -1.
</event>
<event>
 7    1  0.2684545E-013  0.7246156E+02  0.7816164E-02  0.1226708E+00
        -11   -1    0    0    0    0  0.00000000000E+00  0.00000000000E+00  0.45593999997E+02  0.45594000000E+02  0.51100000000E-03 0. -1.
         11   -1    0    0    0    0 -0.00000000000E+00 -0.00000000000E+00 -0.45593999997E+02  0.45594000000E+02  0.51100000000E-03 0.  1.
    9900012    2    1    2    0    0 -0.54292968351E+01  0.36389973302E+00 -0.17918423285E+02  0.72461559331E+02  0.69999985718E+02 0.  0.
         12    1    1    2    0    0  0.54292968351E+01 -0.36389973302E+00  0.17918423285E+02  0.18726440669E+02  0.00000000000E+00 0. -1.
         11    1    3    3    0    0  0.15454588182E+02  0.60307695744E+01 -0.11549512422E+02  0.20213997996E+02  0.51100000000E-03 0.  1.
        -11    1    3    3    0    0 -0.13876374858E+01  0.16430394142E+02  0.92390448396E+01  0.18900881971E+02  0.51100000000E-03 0. -1.
        -12    1    3    3    0    0 -0.19496247532E+02 -0.22097263984E+02 -0.15607955702E+02  0.33346679364E+02  0.00000000000E+00 0.  1.
</event>
<event>
 7    1  0.2684545E-013  0.7246156E+02  0.7816164E-02  0.1226708E+00
        -11   -1    0    0    0    0  0.00000000000E+00  0.00000000000E+00  0.45593999997E+02  0.45594000000E+02  0.51100000000E-03 0.  1.
         11   -1    0    0    0    0 -0.00000000000E+00 -0.00000000000E+00 -0.45593999997E+02  0.45594000000E+02  0.51100000000E-03 0. -1.
    9900012    2    1    2    0    0  0.15339209587E+02  0.72053912629E+01  0.79668299700E+01  0.72461564306E+02  0.69999992199E+02 0.  0.
         12    1    1    2    0    0 -0.15339209587E+02 -0.72053912629E+01 -0.79668299700E+01  0.18726435694E+02  0.00000000000E+00 0. -1.
         11    1    3    3    0    0 -0.68001690807E+01  0.32805420940E+02 -0.19529336596E+00  0.33503374194E+02  0.51100000000E-03 0. -1.
        -11    1    3    3    0    0 -0.27279999786E+01 -0.41253004003E+01  0.27502056428E+01  0.56589503103E+01  0.51100000000E-03 0.  1.
        -12    1    3    3    0    0  0.24867378647E+02 -0.21474729277E+02  0.54119176932E+01  0.33299239802E+02  0.00000000000E+00 0.  1.
</event>
<event>
 7    1  0.2684545E-013  0.7246154E+02  0.7816164E-02  0.1226708E+00
        -11   -1    0    0    0    0  0.00000000000E+00  0.00000000000E+00  0.45593999997E+02  0.45594000000E+02  0.51100000000E-03 0. -1.
         11   -1    0    0    0    0 -0.00000000000E+00 -0.00000000000E+00 -0.45593999997E+02  0.45594000000E+02  0.51100000000E-03 0.  1.
    9900012    2    1    2    0    0  0.17576326007E+02  0.10557270517E+01  0.63748447186E+01  0.72461536354E+02  0.69999955786E+02 0.  0.
         12    1    1    2    0    0 -0.17576326007E+02 -0.10557270517E+01 -0.63748447186E+01  0.18726463646E+02  0.00000000000E+00 0. -1.
         11    1    3    3    0    0 -0.16311384407E+01  0.43100961935E+01  0.10776211548E+02  0.11720250740E+02  0.51100000000E-03 0. -1.
        -11    1    3    3    0    0 -0.24446616750E+01 -0.25149468776E+02  0.94487632874E+01  0.26976865614E+02  0.51100000000E-03 0.  1.
        -12    1    3    3    0    0  0.21652126123E+02  0.21895099634E+02 -0.13850130117E+02  0.33764420000E+02  0.00000000000E+00 0.  1.
</event>
<event>
 7    1  0.2684545E-013  0.7246161E+02  0.7816164E-02  0.1226708E+00
        -11   -1    0    0    0    0  0.00000000000E+00  0.00000000000E+00  0.45593999997E+02  0.45594000000E+02  0.51100000000E-03 0.  1.
         11   -1    0    0    0    0 -0.00000000000E+00 -0.00000000000E+00 -0.45593999997E+02  0.45594000000E+02  0.51100000000E-03 0. -1.
    9900012    2    1    2    0    0  0.69910633466E+01  0.79971182644E+01  0.15422352004E+02  0.72461606631E+02  0.70000047336E+02 0.  0.
         12    1    1    2    0    0 -0.69910633466E+01 -0.79971182644E+01 -0.15422352004E+02  0.18726393369E+02  0.00000000000E+00 0. -1.
         11    1    3    3    0    0 -0.52259099700E+01  0.63797459977E+01 -0.21512617231E+01  0.85228646165E+01  0.51100000000E-03 0. -1.
        -11    1    3    3    0    0  0.11071196907E+02 -0.28785275959E+02  0.11493130693E+02  0.32912848044E+02  0.51100000000E-03 0.  1.
         12    1    3    3    0    0  0.11457764100E+01  0.30402648226E+02  0.60804830350E+01  0.31025893971E+02  0.00000000000E+00 0. -1.
</event>
<event>
 7    1  0.2684545E-013  0.7246163E+02  0.7816164E-02  0.1226708E+00
        -11   -1    0    0    0    0  0.00000000000E+00  0.00000000000E+00  0.45593999997E+02  0.45594000000E+02  0.51100000000E-03 0.  1.
         11   -1    0    0    0    0 -0.00000000000E+00 -0.00000000000E+00 -0.45593999997E+02  0.45594000000E+02  0.51100000000E-03 0. -1.
    9900012    2    1    2    0    0 -0.91487678720E+01 -0.62722930419E+01  0.15087584074E+02  0.72461633381E+02  0.70000082181E+02 0.  0.
         12    1    1    2    0    0  0.91487678720E+01  0.62722930419E+01 -0.15087584074E+02  0.18726366619E+02  0.00000000000E+00 0. -1.
         11    1    3    3    0    0  0.13585278396E+02 -0.13492426100E+02  0.74975203991E+01  0.20562542730E+02  0.51100000000E-03 0. -1.
        -11    1    3    3    0    0 -0.31057882473E+02 -0.68171336309E+01  0.13497121183E+02  0.34543272212E+02  0.51100000000E-03 0.  1.
         12    1    3    3    0    0  0.83238362050E+01  0.14037266689E+02 -0.59070575083E+01  0.17355818438E+02  0.00000000000E+00 0. -1.
</event>
<event>
 7    1  0.2684545E-013  0.7246144E+02  0.7816164E-02  0.1226708E+00
        -11   -1    0    0    0    0  0.00000000000E+00  0.00000000000E+00  0.45593999997E+02  0.45594000000E+02  0.51100000000E-03 0. -1.
         11   -1    0    0    0    0 -0.00000000000E+00 -0.00000000000E+00 -0.45593999997E+02  0.45594000000E+02  0.51100000000E-03 0.  1.
    9900012    2    1    2    0    0  0.10419067922E+02  0.14840019712E+02 -0.46798293262E+01  0.72461442283E+02  0.69999833241E+02 0.  0.
         12    1    1    2    0    0 -0.10419067922E+02 -0.14840019712E+02  0.46798293262E+01  0.18726557717E+02  0.00000000000E+00 0. -1.
         11    1    3    3    0    0  0.19354811567E+02  0.16977078379E+02 -0.11132849850E+02  0.28049425433E+02  0.51100000000E-03 0. -1.
        -11    1    3    3    0    0  0.50238308052E+01  0.12165653277E+02 -0.11551458437E+02  0.17512229667E+02  0.51100000000E-03 0.  1.
        -12    1    3    3    0    0 -0.13959574450E+02 -0.14302711944E+02  0.18004478962E+02  0.26899787183E+02  0.00000000000E+00 0.  1.
</event>
<event>
 7    1  0.2684545E-013  0.7246156E+02  0.7816164E-02  0.1226708E+00
        -11   -1    0    0    0    0  0.00000000000E+00  0.00000000000E+00  0.45593999997E+02  0.45594000000E+02  0.51100000000E-03 0. -1.
         11   -1    0    0    0    0 -0.00000000000E+00 -0.00000000000E+00 -0.45593999997E+02  0.45594000000E+02  0.51100000000E-03 0.  1.
    9900012    2    1    2    0    0  0.15836545849E+02  0.84548565125E+01 -0.53290668380E+01  0.72461555158E+02  0.69999980282E+02 0.  0.
         12    1    1    2    0    0 -0.15836545849E+02 -0.84548565125E+01  0.53290668380E+01  0.18726444842E+02  0.00000000000E+00 0. -1.
         11    1    3    3    0    0  0.19013854672E+02 -0.23325383112E+02 -0.95711531165E+01  0.31578586717E+02  0.51100000000E-03 0. -1.
        -11    1    3    3    0    0  0.91710956463E+01  0.59624327230E+01 -0.30373809935E+01  0.11352765429E+02  0.51100000000E-03 0.  1.
        -12    1    3    3    0    0 -0.12348404469E+02  0.25817806901E+02  0.72794672721E+01  0.29530203011E+02  0.00000000000E+00 0.  1.
</event>
<event>
 7    1  0.2684545E-013  0.7246156E+02  0.7816164E-02  0.1226708E+00
        -11   -1    0    0    0    0  0.00000000000E+00  0.00000000000E+00  0.45593999997E+02  0.45594000000E+02  0.51100000000E-03 0. -1.
         11   -1    0    0    0    0 -0.00000000000E+00 -0.00000000000E+00 -0.45593999997E+02  0.45594000000E+02  0.51100000000E-03 0.  1.
    9900012    2    1    2    0    0  0.13544241879E+02  0.92602960670E+01 -0.90266256170E+01  0.72461560366E+02  0.69999987067E+02 0.  0.
         12    1    1    2    0    0 -0.13544241879E+02 -0.92602960670E+01  0.90266256170E+01  0.18726439634E+02  0.00000000000E+00 0. -1.
         11    1    3    3    0    0 -0.84178983847E+01  0.14427759273E+01 -0.22091298521E+01  0.88217271867E+01  0.51100000000E-03 0. -1.
        -11    1    3    3    0    0  0.22282295616E+02 -0.74960773425E+01  0.21233837777E+02  0.31679137305E+02  0.51100000000E-03 0.  1.
         12    1    3    3    0    0 -0.32015535199E+00  0.15313597482E+02 -0.28051333542E+02  0.31960695874E+02  0.00000000000E+00 0. -1.
</event>
<event>
 7    1  0.2684545E-013  0.7246154E+02  0.7816164E-02  0.1226708E+00
        -11   -1    0    0    0    0  0.00000000000E+00  0.00000000000E+00  0.45593999997E+02  0.45594000000E+02  0.51100000000E-03 0. -1.
         11   -1    0    0    0    0 -0.00000000000E+00 -0.00000000000E+00 -0.45593999997E+02  0.45594000000E+02  0.51100000000E-03 0.  1.
    9900012    2    1    2    0    0  0.24344570226E+01 -0.18541772070E+02  0.97803268211E+00  0.72461536361E+02  0.69999955795E+02 0.  0.
         12    1    1    2    0    0 -0.24344570226E+01  0.18541772070E+02 -0.97803268211E+00  0.18726463639E+02  0.00000000000E+00 0. -1.
         11    1    3    3    0    0  0.11697280603E+01 -0.45201621424E+01  0.19397334607E+02  0.19951358842E+02  0.51100000000E-03 0. -1.
        -11    1    3    3    0    0  0.62446293555E+01  0.12445999897E+02 -0.21275365574E+02  0.25427140811E+02  0.51100000000E-03 0.  1.
        -12    1    3    3    0    0 -0.49799003932E+01 -0.26467609825E+02  0.28560636496E+01  0.27083036708E+02  0.00000000000E+00 0.  1.
</event>
<event>
 7    1  0.2684545E-013  0.7246152E+02  0.7816164E-02  0.1226708E+00
        -11   -1    0    0    0    0  0.00000000000E+00  0.00000000000E+00  0.45593999997E+02  0.45594000000E+02  0.51100000000E-03 0.  1.
         11   -1    0    0    0    0 -0.00000000000E+00 -0.00000000000E+00 -0.45593999997E+02  0.45594000000E+02  0.51100000000E-03 0. -1.
    9900012    2    1    2    0    0  0.53623097161E+01 -0.17860590291E+02  0.17105888160E+01  0.72461517011E+02  0.69999930588E+02 0.  0.
         12    1    1    2    0    0 -0.53623097161E+01  0.17860590291E+02 -0.17105888160E+01  0.18726482989E+02  0.00000000000E+00 0. -1.
         11    1    3    3    0    0  0.49739697086E+01 -0.38912497303E+01  0.37563905500E+01  0.73479704239E+01  0.51100000000E-03 0. -1.
        -11    1    3    3    0    0  0.92979831924E+01 -0.46537585672E+01  0.29369914005E+02  0.31156087834E+02  0.51100000000E-03 0.  1.
         12    1    3    3    0    0 -0.89096431849E+01 -0.93155819938E+01 -0.31415715739E+02  0.33957458753E+02  0.00000000000E+00 0. -1.
</event>
<event>
 7    1  0.2684545E-013  0.7246158E+02  0.7816164E-02  0.1226708E+00
        -11   -1    0    0    0    0  0.00000000000E+00  0.00000000000E+00  0.45593999997E+02  0.45594000000E+02  0.51100000000E-03 0.  1.
         11   -1    0    0    0    0 -0.00000000000E+00 -0.00000000000E+00 -0.45593999997E+02  0.45594000000E+02  0.51100000000E-03 0. -1.
    9900012    2    1    2    0    0  0.91230517866E+01 -0.16218825862E+02  0.20972651992E+01  0.72461577289E+02  0.70000009111E+02 0.  0.
         12    1    1    2    0    0 -0.91230517866E+01  0.16218825862E+02 -0.20972651992E+01  0.18726422711E+02  0.00000000000E+00 0. -1.
         11    1    3    3    0    0 -0.28844374697E+01 -0.12355650323E+02  0.60984140492E+01  0.14077383585E+02  0.51100000000E-03 0. -1.
        -11    1    3    3    0    0 -0.80283533529E+01  0.37755392588E+01  0.22563655080E+02  0.24245157972E+02  0.51100000000E-03 0.  1.
         12    1    3    3    0    0  0.20035842609E+02 -0.76387147976E+01 -0.26564803930E+02  0.34139035731E+02  0.00000000000E+00 0. -1.
</event>
<event>
 7    1  0.2684545E-013  0.7246164E+02  0.7816164E-02  0.1226708E+00
        -11   -1    0    0    0    0  0.00000000000E+00  0.00000000000E+00  0.45593999997E+02  0.45594000000E+02  0.51100000000E-03 0.  1.
         11   -1    0    0    0    0 -0.00000000000E+00 -0.00000000000E+00 -0.45593999997E+02  0.45594000000E+02  0.51100000000E-03 0. -1.
    9900012    2    1    2    0    0 -0.14975936497E+02 -0.11120656013E+02 -0.16519894055E+01  0.72461635347E+02  0.70000084744E+02 0.  0.
         12    1    1    2    0    0  0.14975936497E+02  0.11120656013E+02  0.16519894055E+01  0.18726364653E+02  0.00000000000E+00 0. -1.
         11    1    3    3    0    0  0.94834536091E+00 -0.32301454885E+01  0.56546840965E+01  0.65809308835E+01  0.51100000000E-03 0. -1.
        -11    1    3    3    0    0  0.44339076396E+01 -0.20843737089E+02  0.20149758254E+02  0.29328035576E+02  0.51100000000E-03 0.  1.
         12    1    3    3    0    0 -0.20358189497E+02  0.12953226565E+02 -0.27456431756E+02  0.36552668888E+02  0.00000000000E+00 0. -1.
</event>
<event>
 7    1  0.2684545E-013  0.7246158E+02  0.7816164E-02  0.1226708E+00
        -11   -1    0    0    0    0  0.00000000000E+00  0.00000000000E+00  0.45593999997E+02  0.45594000000E+02  0.51100000000E-03 0.  1.
         11   -1    0    0    0    0 -0.00000000000E+00 -0.00000000000E+00 -0.45593999997E+02  0.45594000000E+02  0.51100000000E-03 0. -1.
    9900012    2    1    2    0    0 -0.15872963064E+02 -0.38389831731E+01  0.91646188688E+01  0.72461575161E+02  0.70000006340E+02 0.  0.
         12    1    1    2    0    0  0.15872963064E+02  0.38389831731E+01 -0.91646188688E+01  0.18726424839E+02  0.00000000000E+00 0. -1.
         11    1    3    3    0    0  0.61786237637E+01  0.58466707017E+01 -0.13282589770E+02  0.15772956006E+02  0.51100000000E-03 0. -1.
        -11    1    3    3    0    0 -0.74622346652E+01  0.17964542224E+02  0.25214983594E+01  0.19615495858E+02  0.51100000000E-03 0.  1.
        -12    1    3    3    0    0 -0.14589352162E+02 -0.27650196099E+02  0.19925710280E+02  0.37073123297E+02  0.00000000000E+00 0.  1.
</event>
<event>
 7    1  0.2684545E-013  0.7246175E+02  0.7816164E-02  0.1226708E+00
        -11   -1    0    0    0    0  0.00000000000E+00  0.00000000000E+00  0.45593999997E+02  0.45594000000E+02  0.51100000000E-03 0. -1.
         11   -1    0    0    0    0 -0.00000000000E+00 -0.00000000000E+00 -0.45593999997E+02  0.45594000000E+02  0.51100000000E-03 0.  1.
    9900012    2    1    2    0    0 -0.94713764303E+01  0.76364966822E+01 -0.14235503070E+02  0.72461745684E+02  0.70000228477E+02 0.  0.
         12    1    1    2    0    0  0.94713764303E+01 -0.76364966822E+01  0.14235503070E+02  0.18726254316E+02  0.00000000000E+00 0. -1.
         11    1    3    3    0    0 -0.15528620893E+02 -0.11317451110E+02  0.61034354977E+01  0.20161217513E+02  0.51100000000E-03 0. -1.
        -11    1    3    3    0    0 -0.17841052404E+02  0.15743992428E+02 -0.12899382018E+02  0.27066039703E+02  0.51100000000E-03 0.  1.
         12    1    3    3    0    0  0.23898296867E+02  0.32099553635E+01 -0.74395565493E+01  0.25234488468E+02  0.00000000000E+00 0. -1.
</event>
<event>
 7    1  0.2684545E-013  0.7246157E+02  0.7816164E-02  0.1226708E+00
        -11   -1    0    0    0    0  0.00000000000E+00  0.00000000000E+00  0.45593999997E+02  0.45594000000E+02  0.51100000000E-03 0.  1.
         11   -1    0    0    0    0 -0.00000000000E+00 -0.00000000000E+00 -0.45593999997E+02  0.45594000000E+02  0.51100000000E-03 0. -1.
    9900012    2    1    2    0    0 -0.11873966871E+02  0.12877422011E+02 -0.66226858353E+01  0.72461573363E+02  0.70000003998E+02 0.  0.
         12    1    1    2    0    0  0.11873966871E+02 -0.12877422011E+02  0.66226858353E+01  0.18726426637E+02  0.00000000000E+00 0. -1.
         11    1    3    3    0    0  0.10008471650E+01 -0.14399456832E+01  0.79544057960E+01  0.81454103916E+01  0.51100000000E-03 0. -1.
        -11    1    3    3    0    0  0.48756024045E+01 -0.18476003562E+02  0.80102146234E+01  0.20719501563E+02  0.51100000000E-03 0.  1.
         12    1    3    3    0    0 -0.17750416441E+02  0.32793371256E+02 -0.22587306255E+02  0.43596661409E+02  0.00000000000E+00 0. -1.
</event>
<event>
 7    1  0.2684545E-013  0.7246162E+02  0.7816164E-02  0.1226708E+00
        -11   -1    0    0    0    0  0.00000000000E+00  0.00000000000E+00  0.45593999997E+02  0.45594000000E+02  0.51100000000E-03 0. -1.
         11   -1    0    0    0    0 -0.00000000000E+00 -0.00000000000E+00 -0.45593999997E+02  0.45594000000E+02  0.51100000000E-03 0.  1.
    9900012    2    1    2    0    0  0.14097745177E+02  0.58483545173E+01  0.10850239943E+02  0.72461618170E+02  0.70000062366E+02 0.  0.
         12    1    1    2    0    0 -0.14097745177E+02 -0.58483545173E+01 -0.10850239943E+02  0.18726381830E+02  0.00000000000E+00 0. -1.
         11    1    3    3    0    0  0.15469260711E+01  0.64498248270E+01  0.22433941790E+00  0.66365313985E+01  0.51100000000E-03 0. -1.
        -11    1    3    3    0    0  0.41402221806E+01  0.11873765136E+02 -0.24540839567E+02  0.27574998552E+02  0.51100000000E-03 0.  1.
         12    1    3    3    0    0  0.84105969251E+01 -0.12475235445E+02  0.35166740093E+02  0.38250088219E+02  0.00000000000E+00 0. -1.
</event>
<event>
 7    1  0.2684545E-013  0.7246162E+02  0.7816164E-02  0.1226708E+00
        -11   -1    0    0    0    0  0.00000000000E+00  0.00000000000E+00  0.45593999997E+02  0.45594000000E+02  0.51100000000E-03 0. -1.
         11   -1    0    0    0    0 -0.00000000000E+00 -0.00000000000E+00 -0.45593999997E+02  0.45594000000E+02  0.51100000000E-03 0.  1.
    9900012    2    1    2    0    0  0.64009410396E+01  0.21188600061E-01 -0.17598430357E+02  0.72461621648E+02  0.70000066898E+02 0.  0.
         12    1    1    2    0    0 -0.64009410396E+01 -0.21188600061E-01  0.17598430357E+02  0.18726378352E+02  0.00000000000E+00 0. -1.
         11    1    3    3    0    0  0.85527579110E+01 -0.24314422437E+02 -0.18318379632E+02  0.31621256125E+02  0.51100000000E-03 0. -1.
        -11    1    3    3    0    0  0.64007149586E+00 -0.55680190865E+01  0.81595026820E+01  0.98989904710E+01  0.51100000000E-03 0.  1.
        -12    1    3    3    0    0 -0.27918883673E+01  0.29903630124E+02 -0.74395534066E+01  0.30941375052E+02  0.00000000000E+00 0.  1.
</event>
<event>
 7    1  0.2684545E-013  0.7246136E+02  0.7816164E-02  0.1226709E+00
        -11   -1    0    0    0    0  0.00000000000E+00  0.00000000000E+00  0.45593999997E+02  0.45594000000E+02  0.51100000000E-03 0.  1.
         11   -1    0    0    0    0 -0.00000000000E+00 -0.00000000000E+00 -0.45593999997E+02  0.45594000000E+02  0.51100000000E-03 0. -1.
    9900012    2    1    2    0    0  0.16584363751E+02  0.85203504023E+01  0.17463098309E+01  0.72461358816E+02  0.69999724509E+02 0.  0.
         12    1    1    2    0    0 -0.16584363751E+02 -0.85203504023E+01 -0.17463098309E+01  0.18726641184E+02  0.00000000000E+00 0. -1.
         11    1    3    3    0    0 -0.15073889564E+02 -0.29393354876E+01 -0.16540369840E+02  0.22570903270E+02  0.51100000000E-03 0. -1.
        -11    1    3    3    0    0  0.19594054693E+02 -0.68304909380E+01 -0.89504068935E+00  0.20769778137E+02  0.51100000000E-03 0.  1.
        -12    1    3    3    0    0  0.12064198623E+02  0.18290176828E+02  0.19181720360E+02  0.29120677409E+02  0.00000000000E+00 0.  1.
</event>
<event>
 7    1  0.2684545E-013  0.7246156E+02  0.7816164E-02  0.1226708E+00
        -11   -1    0    0    0    0  0.00000000000E+00  0.00000000000E+00  0.45593999997E+02  0.45594000000E+02  0.51100000000E-03 0.  1.
         11   -1    0    0    0    0 -0.00000000000E+00 -0.00000000000E+00 -0.45593999997E+02  0.45594000000E+02  0.51100000000E-03 0. -1.
    9900012    2    1    2    0    0  0.14177115760E+02  0.75334560356E+01  0.96403261051E+01  0.72461562578E+02  0.69999989948E+02 0.  0.
         12    1    1    2    0    0 -0.14177115760E+02 -0.75334560356E+01 -0.96403261051E+01  0.18726437422E+02  0.00000000000E+00 0. -1.
         11    1    3    3    0    0  0.25722018164E+02  0.23360934036E+02 -0.87253659602E+01  0.35825793346E+02  0.51100000000E-03 0. -1.
        -11    1    3    3    0    0  0.71227080385E-01 -0.59285054920E+01  0.20395260351E+02  0.21239559687E+02  0.51100000000E-03 0.  1.
        -12    1    3    3    0    0 -0.11616129485E+02 -0.98989725084E+01 -0.20295682858E+01  0.15396209545E+02  0.00000000000E+00 0.  1.
</event>
<event>
 7    1  0.2684545E-013  0.7246158E+02  0.7816164E-02  0.1226708E+00
        -11   -1    0    0    0    0  0.00000000000E+00  0.00000000000E+00  0.45593999997E+02  0.45594000000E+02  0.51100000000E-03 0.  1.
         11   -1    0    0    0    0 -0.00000000000E+00 -0.00000000000E+00 -0.45593999997E+02  0.45594000000E+02  0.51100000000E-03 0. -1.
    9900012    2    1    2    0    0 -0.20180561564E+01 -0.18324023473E+02  0.32918624879E+01  0.72461581615E+02  0.70000014747E+02 0.  0.
         12    1    1    2    0    0  0.20180561564E+01  0.18324023473E+02 -0.32918624879E+01  0.18726418385E+02  0.00000000000E+00 0. -1.
         11    1    3    3    0    0  0.28086823586E+01 -0.11070466304E+02  0.24182512734E+02  0.26743930960E+02  0.51100000000E-03 0. -1.
        -11    1    3    3    0    0 -0.15776204948E+02  0.36186637827E+01  0.37776563189E+01  0.16620892204E+02  0.51100000000E-03 0.  1.
         12    1    3    3    0    0  0.10949466433E+02 -0.10872220952E+02 -0.24668306565E+02  0.29096758451E+02  0.00000000000E+00 0. -1.
</event>
<event>
 7    1  0.2684545E-013  0.7246158E+02  0.7816164E-02  0.1226708E+00
        -11   -1    0    0    0    0  0.00000000000E+00  0.00000000000E+00  0.45593999997E+02  0.45594000000E+02  0.51100000000E-03 0. -1.
         11   -1    0    0    0    0 -0.00000000000E+00 -0.00000000000E+00 -0.45593999997E+02  0.45594000000E+02  0.51100000000E-03 0.  1.
    9900012    2    1    2    0    0  0.67960401822E+01 -0.40762012017E+01 -0.16966940445E+02  0.72461584261E+02  0.70000018194E+02 0.  0.
         12    1    1    2    0    0 -0.67960401822E+01  0.40762012017E+01  0.16966940445E+02  0.18726415739E+02  0.00000000000E+00 0. -1.
         11    1    3    3    0    0  0.95630720254E+01 -0.23541082304E+02  0.78105552409E+01  0.26582695048E+02  0.51100000000E-03 0. -1.
        -11    1    3    3    0    0  0.49328217390E+01  0.12560768142E+02  0.49732424827E+01  0.14381890268E+02  0.51100000000E-03 0.  1.
        -12    1    3    3    0    0 -0.76998535822E+01  0.69041129599E+01 -0.29750738168E+02  0.31496998944E+02  0.00000000000E+00 0.  1.
</event>
<event>
 7    1  0.2684545E-013  0.7246157E+02  0.7816164E-02  0.1226708E+00
        -11   -1    0    0    0    0  0.00000000000E+00  0.00000000000E+00  0.45593999997E+02  0.45594000000E+02  0.51100000000E-03 0. -1.
         11   -1    0    0    0    0 -0.00000000000E+00 -0.00000000000E+00 -0.45593999997E+02  0.45594000000E+02  0.51100000000E-03 0.  1.
    9900012    2    1    2    0    0  0.18308090830E+02 -0.14415073488E+01 -0.36626318088E+01  0.72461574686E+02  0.70000005721E+02 0.  0.
         12    1    1    2    0    0 -0.18308090830E+02  0.14415073488E+01  0.36626318088E+01  0.18726425314E+02  0.00000000000E+00 0. -1.
         11    1    3    3    0    0  0.12639621013E+02 -0.49312285112E+01 -0.21752300207E+02  0.25636684624E+02  0.51100000000E-03 0. -1.
        -11    1    3    3    0    0  0.18540946379E+02 -0.40325749568E+01 -0.47405265882E+01  0.19557631401E+02  0.51100000000E-03 0.  1.
         12    1    3    3    0    0 -0.12872476563E+02  0.75222961193E+01  0.22830194986E+02  0.27267258661E+02  0.00000000000E+00 0. -1.
</event>
<event>
 7    1  0.2684545E-013  0.7246158E+02  0.7816164E-02  0.1226708E+00
        -11   -1    0    0    0    0  0.00000000000E+00  0.00000000000E+00  0.45593999997E+02  0.45594000000E+02  0.51100000000E-03 0.  1.
         11   -1    0    0    0    0 -0.00000000000E+00 -0.00000000000E+00 -0.45593999997E+02  0.45594000000E+02  0.51100000000E-03 0. -1.
    9900012    2    1    2    0    0 -0.41066122490E+01  0.97191608576E+00  0.18244721205E+02  0.72461581846E+02  0.70000015048E+02 0.  0.
         12    1    1    2    0    0  0.41066122490E+01 -0.97191608576E+00 -0.18244721205E+02  0.18726418154E+02  0.00000000000E+00 0. -1.
         11    1    3    3    0    0  0.37687913089E+01  0.19074148981E+02 -0.26455541541E+01  0.19622076962E+02  0.51100000000E-03 0. -1.
        -11    1    3    3    0    0 -0.24597932916E+02 -0.13909985824E+01  0.13368541201E+02  0.28030538256E+02  0.51100000000E-03 0.  1.
        -12    1    3    3    0    0  0.16722529358E+02 -0.16711234313E+02  0.75217341583E+01  0.24808966628E+02  0.00000000000E+00 0.  1.
</event>
<event>
 7    1  0.2684545E-013  0.7246159E+02  0.7816164E-02  0.1226708E+00
        -11   -1    0    0    0    0  0.00000000000E+00  0.00000000000E+00  0.45593999997E+02  0.45594000000E+02  0.51100000000E-03 0. -1.
         11   -1    0    0    0    0 -0.00000000000E+00 -0.00000000000E+00 -0.45593999997E+02  0.45594000000E+02  0.51100000000E-03 0.  1.
    9900012    2    1    2    0    0 -0.17668803247E+02 -0.61854092150E+01 -0.48229281437E+00  0.72461588125E+02  0.70000023228E+02 0.  0.
         12    1    1    2    0    0  0.17668803247E+02  0.61854092150E+01  0.48229281437E+00  0.18726411875E+02  0.00000000000E+00 0. -1.
         11    1    3    3    0    0 -0.33722346078E+01 -0.31013595851E+02  0.16774642575E+02  0.35420385763E+02  0.51100000000E-03 0. -1.
        -11    1    3    3    0    0 -0.26092690020E+01  0.50734382488E+01  0.29839449891E+01  0.64383218581E+01  0.51100000000E-03 0.  1.
        -12    1    3    3    0    0 -0.11687299637E+02  0.19754748387E+02 -0.20240880378E+02  0.30602880504E+02  0.00000000000E+00 0.  1.
</event>
<event>
 7    1  0.2684545E-013  0.7246158E+02  0.7816164E-02  0.1226708E+00
        -11   -1    0    0    0    0  0.00000000000E+00  0.00000000000E+00  0.45593999997E+02  0.45594000000E+02  0.51100000000E-03 0.  1.
         11   -1    0    0    0    0 -0.00000000000E+00 -0.00000000000E+00 -0.45593999997E+02  0.45594000000E+02  0.51100000000E-03 0. -1.
    9900012    2    1    2    0    0  0.80017455534E+01 -0.14662878210E+02  0.84646769333E+01  0.72461583234E+02  0.70000016857E+02 0.  0.
         12    1    1    2    0    0 -0.80017455534E+01  0.14662878210E+02 -0.84646769333E+01  0.18726416766E+02  0.00000000000E+00 0. -1.
         11    1    3    3    0    0 -0.13491917800E+02 -0.18688072009E+01  0.50638649405E+01  0.14531586791E+02  0.51100000000E-03 0. -1.
        -11    1    3    3    0    0  0.27392297177E+02 -0.48522385462E+01  0.22921616521E+02  0.36045563773E+02  0.51100000000E-03 0.  1.
         12    1    3    3    0    0 -0.58986338232E+01 -0.79418324627E+01 -0.19520804528E+02  0.21884432670E+02  0.00000000000E+00 0. -1.
</event>
<event>
 7    1  0.2684545E-013  0.7246158E+02  0.7816164E-02  0.1226708E+00
        -11   -1    0    0    0    0  0.00000000000E+00  0.00000000000E+00  0.45593999997E+02  0.45594000000E+02  0.51100000000E-03 0.  1.
         11   -1    0    0    0    0 -0.00000000000E+00 -0.00000000000E+00 -0.45593999997E+02  0.45594000000E+02  0.51100000000E-03 0. -1.
    9900012    2    1    2    0    0  0.10445797735E+01  0.71538319456E+00  0.18683568921E+02  0.72461583695E+02  0.70000017456E+02 0.  0.
         12    1    1    2    0    0 -0.10445797735E+01 -0.71538319456E+00 -0.18683568921E+02  0.18726416305E+02  0.00000000000E+00 0. -1.
         11    1    3    3    0    0  0.24714474592E+01 -0.66444482511E+01 -0.98078499925E+01  0.12101680331E+02  0.51100000000E-03 0. -1.
        -11    1    3    3    0    0 -0.11721055038E+01 -0.20308764681E+02  0.25364114934E+02  0.32513967473E+02  0.51100000000E-03 0.  1.
         12    1    3    3    0    0 -0.25476218192E+00  0.27668596127E+02  0.31273039791E+01  0.27845935890E+02  0.00000000000E+00 0. -1.
</event>
<event>
 7    1  0.2684545E-013  0.7246158E+02  0.7816164E-02  0.1226708E+00
        -11   -1    0    0    0    0  0.00000000000E+00  0.00000000000E+00  0.45593999997E+02  0.45594000000E+02  0.51100000000E-03 0. -1.
         11   -1    0    0    0    0 -0.00000000000E+00 -0.00000000000E+00 -0.45593999997E+02  0.45594000000E+02  0.51100000000E-03 0.  1.
    9900012    2    1    2    0    0  0.91718527025E+01  0.78966664049E+01 -0.14289810097E+02  0.72461577626E+02  0.70000009551E+02 0.  0.
         12    1    1    2    0    0 -0.91718527025E+01 -0.78966664049E+01  0.14289810097E+02  0.18726422374E+02  0.00000000000E+00 0. -1.
         11    1    3    3    0    0  0.95133214827E+01  0.90648518813E+01 -0.98512247002E+01  0.16423198642E+02  0.51100000000E-03 0. -1.
        -11    1    3    3    0    0  0.25866649118E+02 -0.10724735441E+01 -0.12319790671E+02  0.28670733834E+02  0.51100000000E-03 0.  1.
         12    1    3    3    0    0 -0.26208117898E+02 -0.95711932349E-01  0.78812052745E+01  0.27367645151E+02  0.00000000000E+00 0. -1.
</event>
<event>
 7    1  0.2684545E-013  0.7246158E+02  0.7816164E-02  0.1226708E+00
        -11   -1    0    0    0    0  0.00000000000E+00  0.00000000000E+00  0.45593999997E+02  0.45594000000E+02  0.51100000000E-03 0. -1.
         11   -1    0    0    0    0 -0.00000000000E+00 -0.00000000000E+00 -0.45593999997E+02  0.45594000000E+02  0.51100000000E-03 0.  1.
    9900012    2    1    2    0    0  0.12350643040E+02  0.13002280687E+02  0.53926741692E+01  0.72461584932E+02  0.70000019069E+02 0.  0.
         12    1    1    2    0    0 -0.12350643040E+02 -0.13002280687E+02 -0.53926741692E+01  0.18726415068E+02  0.00000000000E+00 0. -1.
         11    1    3    3    0    0 -0.38427731402E+01 -0.88414075206E+01  0.12745987613E+02  0.15981163689E+02  0.51100000000E-03 0. -1.
        -11    1    3    3    0    0 -0.14399553330E+02  0.15322960394E+02  0.68663805035E+01  0.22119842514E+02  0.51100000000E-03 0.  1.
        -12    1    3    3    0    0  0.30592969511E+02  0.65207278141E+01 -0.14219693948E+02  0.34360578730E+02  0.00000000000E+00 0.  1.
</event>
<event>
 7    1  0.2684545E-013  0.7246157E+02  0.7816164E-02  0.1226708E+00
        -11   -1    0    0    0    0  0.00000000000E+00  0.00000000000E+00  0.45593999997E+02  0.45594000000E+02  0.51100000000E-03 0.  1.
         11   -1    0    0    0    0 -0.00000000000E+00 -0.00000000000E+00 -0.45593999997E+02  0.45594000000E+02  0.51100000000E-03 0. -1.
    9900012    2    1    2    0    0  0.25221251326E+01  0.17195692060E+02  0.69732486244E+01  0.72461571163E+02  0.70000001132E+02 0.  0.
         12    1    1    2    0    0 -0.25221251326E+01 -0.17195692060E+02 -0.69732486244E+01  0.18726428837E+02  0.00000000000E+00 0. -1.
         11    1    3    3    0    0 -0.88144802387E+01 -0.14517958627E+02  0.17442773379E+02  0.24345770228E+02  0.51100000000E-03 0. -1.
        -11    1    3    3    0    0 -0.73563833386E+01  0.14013461267E+02  0.66844342835E+01  0.17180661642E+02  0.51100000000E-03 0.  1.
        -12    1    3    3    0    0  0.18692988710E+02  0.17700189420E+02 -0.17153959039E+02  0.30935139293E+02  0.00000000000E+00 0.  1.
</event>
<event>
 7    1  0.2684545E-013  0.7246182E+02  0.7816164E-02  0.1226707E+00
        -11   -1    0    0    0    0  0.00000000000E+00  0.00000000000E+00  0.45593999997E+02  0.45594000000E+02  0.51100000000E-03 0.  1.
         11   -1    0    0    0    0 -0.00000000000E+00 -0.00000000000E+00 -0.45593999997E+02  0.45594000000E+02  0.51100000000E-03 0. -1.
    9900012    2    1    2    0    0  0.51920819776E+01  0.44273590331E+01  0.17438770497E+02  0.72461816734E+02  0.70000321033E+02 0.  0.
         12    1    1    2    0    0 -0.51920819776E+01 -0.44273590331E+01 -0.17438770497E+02  0.18726183266E+02  0.00000000000E+00 0. -1.
         11    1    3    3    0    0 -0.20507380935E+02 -0.11526587843E+02  0.10441372999E+02  0.25737854815E+02  0.51100000000E-03 0. -1.
        -11    1    3    3    0    0 -0.38909514176E+01 -0.27094432071E+01  0.10543176751E+02  0.11560240555E+02  0.51100000000E-03 0.  1.
        -12    1    3    3    0    0  0.29590414330E+02  0.18663390083E+02 -0.35457792532E+01  0.35163721364E+02  0.00000000000E+00 0.  1.
</event>
<event>
 7    1  0.2684545E-013  0.7246158E+02  0.7816164E-02  0.1226708E+00
        -11   -1    0    0    0    0  0.00000000000E+00  0.00000000000E+00  0.45593999997E+02  0.45594000000E+02  0.51100000000E-03 0.  1.
         11   -1    0    0    0    0 -0.00000000000E+00 -0.00000000000E+00 -0.45593999997E+02  0.45594000000E+02  0.51100000000E-03 0. -1.
    9900012    2    1    2    0    0 -0.15170763842E+01  0.15643732690E+02 -0.10180905303E+02  0.72461582136E+02  0.70000015426E+02 0.  0.
         12    1    1    2    0    0  0.15170763842E+01 -0.15643732690E+02  0.10180905303E+02  0.18726417864E+02  0.00000000000E+00 0. -1.
         11    1    3    3    0    0 -0.23050931955E+00  0.11115432022E+02  0.94072588666E+00  0.11157550315E+02  0.51100000000E-03 0. -1.
        -11    1    3    3    0    0 -0.29418299210E+02 -0.60366973506E+01 -0.30316387919E+01  0.30183917528E+02  0.51100000000E-03 0.  1.
         12    1    3    3    0    0  0.28131732145E+02  0.10564998019E+02 -0.80899923979E+01  0.31120114293E+02  0.00000000000E+00 0. -1.
</event>
<event>
 7    1  0.2684545E-013  0.7246162E+02  0.7816164E-02  0.1226708E+00
        -11   -1    0    0    0    0  0.00000000000E+00  0.00000000000E+00  0.45593999997E+02  0.45594000000E+02  0.51100000000E-03 0.  1.
         11   -1    0    0    0    0 -0.00000000000E+00 -0.00000000000E+00 -0.45593999997E+02  0.45594000000E+02  0.51100000000E-03 0. -1.
    9900012    2    1    2    0    0  0.59810884596E+01  0.16875094698E+02 -0.54895520915E+01  0.72461616943E+02  0.70000060769E+02 0.  0.
         12    1    1    2    0    0 -0.59810884596E+01 -0.16875094698E+02  0.54895520915E+01  0.18726383057E+02  0.00000000000E+00 0. -1.
         11    1    3    3    0    0 -0.60984700822E+01  0.23976532088E+02  0.16218781499E+02  0.29582330907E+02  0.51100000000E-03 0. -1.
        -11    1    3    3    0    0  0.95529027201E+01 -0.14408879163E+01  0.79924748105E+01  0.12538491226E+02  0.51100000000E-03 0.  1.
         12    1    3    3    0    0  0.25266558216E+01 -0.56605494743E+01 -0.29700808402E+02  0.30340794810E+02  0.00000000000E+00 0. -1.
</event>
<event>
 7    1  0.2684545E-013  0.7246197E+02  0.7816164E-02  0.1226707E+00
        -11   -1    0    0    0    0  0.00000000000E+00  0.00000000000E+00  0.45593999997E+02  0.45594000000E+02  0.51100000000E-03 0. -1.
         11   -1    0    0    0    0 -0.00000000000E+00 -0.00000000000E+00 -0.45593999997E+02  0.45594000000E+02  0.51100000000E-03 0.  1.
    9900012    2    1    2    0    0  0.87519702688E+01  0.97138629091E+01 -0.13405527506E+02  0.72461967748E+02  0.70000517755E+02 0.  0.
         12    1    1    2    0    0 -0.87519702688E+01 -0.97138629091E+01  0.13405527506E+02  0.18726032252E+02  0.00000000000E+00 0. -1.
         11    1    3    3    0    0 -0.36929157934E+01  0.70199543861E+01 -0.25405380984E+02  0.26614859944E+02  0.51100000000E-03 0. -1.
        -11    1    3    3    0    0 -0.78187511943E+01 -0.20275778115E+01 -0.11758773505E+02  0.14265787627E+02  0.51100000000E-03 0.  1.
         12    1    3    3    0    0  0.20263637256E+02  0.47214863345E+01  0.23758626982E+02  0.31581320178E+02  0.00000000000E+00 0. -1.
</event>
<event>
 7    1  0.2684545E-013  0.7246152E+02  0.7816164E-02  0.1226708E+00
        -11   -1    0    0    0    0  0.00000000000E+00  0.00000000000E+00  0.45593999997E+02  0.45594000000E+02  0.51100000000E-03 0.  1.
         11   -1    0    0    0    0 -0.00000000000E+00 -0.00000000000E+00 -0.45593999997E+02  0.45594000000E+02  0.51100000000E-03 0. -1.
    9900012    2    1    2    0    0  0.92650599794E+01 -0.80675332167E+01  0.14133462058E+02  0.72461516658E+02  0.69999930129E+02 0.  0.
         12    1    1    2    0    0 -0.92650599794E+01  0.80675332167E+01 -0.14133462058E+02  0.18726483342E+02  0.00000000000E+00 0. -1.
         11    1    3    3    0    0  0.83973296586E+01  0.49461545293E+01  0.87412544691E+00  0.97848702384E+01  0.51100000000E-03 0. -1.
        -11    1    3    3    0    0  0.27027210103E+02 -0.61258803376E+01  0.20735457087E+02  0.34611496309E+02  0.51100000000E-03 0.  1.
         12    1    3    3    0    0 -0.26159479782E+02 -0.68878074085E+01 -0.74761204764E+01  0.28065150111E+02  0.00000000000E+00 0. -1.
</event>
<event>
 7    1  0.2684545E-013  0.7246149E+02  0.7816164E-02  0.1226708E+00
        -11   -1    0    0    0    0  0.00000000000E+00  0.00000000000E+00  0.45593999997E+02  0.45594000000E+02  0.51100000000E-03 0. -1.
         11   -1    0    0    0    0 -0.00000000000E+00 -0.00000000000E+00 -0.45593999997E+02  0.45594000000E+02  0.51100000000E-03 0.  1.
    9900012    2    1    2    0    0 -0.14513963030E+02  0.11417578481E+02 -0.31090338523E+01  0.72461486371E+02  0.69999890674E+02 0.  0.
         12    1    1    2    0    0  0.14513963030E+02 -0.11417578481E+02  0.31090338523E+01  0.18726513629E+02  0.00000000000E+00 0. -1.
         11    1    3    3    0    0  0.12141684003E+02  0.22354703631E+02  0.15238860258E+02  0.29654276708E+02  0.51100000000E-03 0. -1.
        -11    1    3    3    0    0 -0.71376414922E+01  0.46773795259E+01  0.38649094306E+01  0.93681017538E+01  0.51100000000E-03 0.  1.
        -12    1    3    3    0    0 -0.19518005541E+02 -0.15614504676E+02 -0.22212803541E+02  0.33439107909E+02  0.00000000000E+00 0.  1.
</event>
<event>
 7    1  0.2684545E-013  0.7246153E+02  0.7816164E-02  0.1226708E+00
        -11   -1    0    0    0    0  0.00000000000E+00  0.00000000000E+00  0.45593999997E+02  0.45594000000E+02  0.51100000000E-03 0.  1.
         11   -1    0    0    0    0 -0.00000000000E+00 -0.00000000000E+00 -0.45593999997E+02  0.45594000000E+02  0.51100000000E-03 0. -1.
    9900012    2    1    2    0    0  0.33556836392E+01  0.10993744598E+02  0.14783691847E+02  0.72461532698E+02  0.69999951024E+02 0.  0.
         12    1    1    2    0    0 -0.33556836392E+01 -0.10993744598E+02 -0.14783691847E+02  0.18726467302E+02  0.00000000000E+00 0. -1.
         11    1    3    3    0    0 -0.17165288950E+01  0.20678465047E+01 -0.12602338468E+02  0.12885705092E+02  0.51100000000E-03 0. -1.
        -11    1    3    3    0    0  0.53216741568E+01  0.12046590580E+02 -0.13330683964E+02  0.18738935286E+02  0.51100000000E-03 0.  1.
        -12    1    3    3    0    0 -0.24946162263E+00 -0.31206924862E+01  0.40716714279E+02  0.40836892320E+02  0.00000000000E+00 0.  1.
</event>
<event>
 7    1  0.2684545E-013  0.7246150E+02  0.7816164E-02  0.1226708E+00
        -11   -1    0    0    0    0  0.00000000000E+00  0.00000000000E+00  0.45593999997E+02  0.45594000000E+02  0.51100000000E-03 0. -1.
         11   -1    0    0    0    0 -0.00000000000E+00 -0.00000000000E+00 -0.45593999997E+02  0.45594000000E+02  0.51100000000E-03 0.  1.
    9900012    2    1    2    0    0 -0.17209061177E+02 -0.51976619472E+01 -0.52453932813E+01  0.72461504680E+02  0.69999914525E+02 0.  0.
         12    1    1    2    0    0  0.17209061177E+02  0.51976619472E+01  0.52453932813E+01  0.18726495320E+02  0.00000000000E+00 0. -1.
         11    1    3    3    0    0  0.10812762204E+01 -0.34237728211E+00 -0.79679290781E+01  0.80482466739E+01  0.51100000000E-03 0. -1.
        -11    1    3    3    0    0  0.18488653508E+02 -0.20570058862E+01 -0.14614379922E+02  0.23656747082E+02  0.51100000000E-03 0.  1.
         12    1    3    3    0    0 -0.36778990905E+02 -0.27982787789E+01  0.17336915719E+02  0.40756510924E+02  0.00000000000E+00 0. -1.
</event>
<event>
 7    1  0.2684545E-013  0.7246157E+02  0.7816164E-02  0.1226708E+00
        -11   -1    0    0    0    0  0.00000000000E+00  0.00000000000E+00  0.45593999997E+02  0.45594000000E+02  0.51100000000E-03 0.  1.
         11   -1    0    0    0    0 -0.00000000000E+00 -0.00000000000E+00 -0.45593999997E+02  0.45594000000E+02  0.51100000000E-03 0. -1.
    9900012    2    1    2    0    0 -0.84950269799E+01 -0.15218512096E+02  0.68491209359E+01  0.72461573449E+02  0.70000004109E+02 0.  0.
         12    1    1    2    0    0  0.84950269799E+01  0.15218512096E+02 -0.68491209359E+01  0.18726426551E+02  0.00000000000E+00 0. -1.
         11    1    3    3    0    0 -0.20024744417E+02  0.16686421446E+02  0.62637303032E+01  0.26807860176E+02  0.51100000000E-03 0. -1.
        -11    1    3    3    0    0 -0.97096365944E+01 -0.57307732825E+01  0.35388957156E+01  0.11817046516E+02  0.51100000000E-03 0.  1.
         12    1    3    3    0    0  0.21239354032E+02 -0.26174160259E+02 -0.29535050830E+01  0.33836666757E+02  0.00000000000E+00 0. -1.
</event>
<event>
 7    1  0.2684545E-013  0.7246153E+02  0.7816164E-02  0.1226708E+00
        -11   -1    0    0    0    0  0.00000000000E+00  0.00000000000E+00  0.45593999997E+02  0.45594000000E+02  0.51100000000E-03 0. -1.
         11   -1    0    0    0    0 -0.00000000000E+00 -0.00000000000E+00 -0.45593999997E+02  0.45594000000E+02  0.51100000000E-03 0.  1.
    9900012    2    1    2    0    0 -0.23207494632E+01 -0.42545450793E+01 -0.18088492961E+02  0.72461531847E+02  0.69999949915E+02 0.  0.
         12    1    1    2    0    0  0.23207494632E+01  0.42545450793E+01  0.18088492961E+02  0.18726468153E+02  0.00000000000E+00 0. -1.
         11    1    3    3    0    0  0.13709920715E+01 -0.12716537328E+02 -0.25521897180E+01  0.13042377602E+02  0.51100000000E-03 0. -1.
        -11    1    3    3    0    0 -0.29925176486E+02  0.51493315930E+01 -0.42168271075E+01  0.30656376738E+02  0.51100000000E-03 0.  1.
        -12    1    3    3    0    0  0.26233434951E+02  0.33126606561E+01 -0.11319476135E+02  0.28762777507E+02  0.00000000000E+00 0.  1.
</event>
<event>
 7    1  0.2684545E-013  0.7246153E+02  0.7816164E-02  0.1226708E+00
        -11   -1    0    0    0    0  0.00000000000E+00  0.00000000000E+00  0.45593999997E+02  0.45594000000E+02  0.51100000000E-03 0. -1.
         11   -1    0    0    0    0 -0.00000000000E+00 -0.00000000000E+00 -0.45593999997E+02  0.45594000000E+02  0.51100000000E-03 0.  1.
    9900012    2    1    2    0    0 -0.46118476930E+01 -0.14778475358E+02  0.10536046137E+02  0.72461528329E+02  0.69999945332E+02 0.  0.
         12    1    1    2    0    0  0.46118476930E+01  0.14778475358E+02 -0.10536046137E+02  0.18726471671E+02  0.00000000000E+00 0. -1.
         11    1    3    3    0    0 -0.31366924153E+02 -0.71738238916E+01 -0.32315934730E+01  0.32338690089E+02  0.51100000000E-03 0. -1.
        -11    1    3    3    0    0  0.38917810503E+01 -0.61934876990E+01 -0.63116648052E+01  0.96613851230E+01  0.51100000000E-03 0.  1.
        -12    1    3    3    0    0  0.22863295410E+02 -0.14111637671E+01  0.20079304415E+02  0.30461453117E+02  0.00000000000E+00 0.  1.
</event>
<event>
 7    1  0.2684545E-013  0.7246157E+02  0.7816164E-02  0.1226708E+00
        -11   -1    0    0    0    0  0.00000000000E+00  0.00000000000E+00  0.45593999997E+02  0.45594000000E+02  0.51100000000E-03 0.  1.
         11   -1    0    0    0    0 -0.00000000000E+00 -0.00000000000E+00 -0.45593999997E+02  0.45594000000E+02  0.51100000000E-03 0. -1.
    9900012    2    1    2    0    0 -0.68731832596E+01 -0.57408895409E+01  0.16446303408E+02  0.72461565299E+02  0.69999993492E+02 0.  0.
         12    1    1    2    0    0  0.68731832596E+01  0.57408895409E+01 -0.16446303408E+02  0.18726434701E+02  0.00000000000E+00 0. -1.
         11    1    3    3    0    0  0.21670080370E+02  0.72550858975E+01  0.90090411376E+01  0.24564028112E+02  0.51100000000E-03 0. -1.
        -11    1    3    3    0    0 -0.38790598631E+01  0.11640123810E+02  0.83383190993E-01  0.12269740860E+02  0.51100000000E-03 0.  1.
        -12    1    3    3    0    0 -0.24664203766E+02 -0.24636099249E+02  0.73538790790E+01  0.35627796327E+02  0.00000000000E+00 0.  1.
</event>
<event>
 7    1  0.2684545E-013  0.7246156E+02  0.7816164E-02  0.1226708E+00
        -11   -1    0    0    0    0  0.00000000000E+00  0.00000000000E+00  0.45593999997E+02  0.45594000000E+02  0.51100000000E-03 0.  1.
         11   -1    0    0    0    0 -0.00000000000E+00 -0.00000000000E+00 -0.45593999997E+02  0.45594000000E+02  0.51100000000E-03 0. -1.
    9900012    2    1    2    0    0  0.10913159773E+02 -0.13357181000E+02 -0.72916521225E+01  0.72461560638E+02  0.69999987421E+02 0.  0.
         12    1    1    2    0    0 -0.10913159773E+02  0.13357181000E+02  0.72916521225E+01  0.18726439362E+02  0.00000000000E+00 0. -1.
         11    1    3    3    0    0 -0.10178847705E+02  0.95743892104E+01 -0.38277549284E+01  0.14488946732E+02  0.51100000000E-03 0. -1.
        -11    1    3    3    0    0  0.69590673939E+01 -0.59580476713E+01  0.22257632711E+02  0.24069257679E+02  0.51100000000E-03 0.  1.
         12    1    3    3    0    0  0.14132940084E+02 -0.16973522540E+02 -0.25721529905E+02  0.33903356227E+02  0.00000000000E+00 0. -1.
</event>
<event>
 7    1  0.2684545E-013  0.7246176E+02  0.7816164E-02  0.1226708E+00
        -11   -1    0    0    0    0  0.00000000000E+00  0.00000000000E+00  0.45593999997E+02  0.45594000000E+02  0.51100000000E-03 0.  1.
         11   -1    0    0    0    0 -0.00000000000E+00 -0.00000000000E+00 -0.45593999997E+02  0.45594000000E+02  0.51100000000E-03 0. -1.
    9900012    2    1    2    0    0  0.14628597738E+02  0.38529575620E+01  0.11037710039E+02  0.72461756472E+02  0.70000242531E+02 0.  0.
         12    1    1    2    0    0 -0.14628597738E+02 -0.38529575620E+01 -0.11037710039E+02  0.18726243528E+02  0.00000000000E+00 0. -1.
         11    1    3    3    0    0  0.22959931635E+02 -0.12953622594E+02  0.27955747947E+00  0.26363477609E+02  0.51100000000E-03 0. -1.
        -11    1    3    3    0    0  0.68982161601E+01  0.16743581948E+02 -0.97396671988E+01  0.20561956134E+02  0.51100000000E-03 0.  1.
        -12    1    3    3    0    0 -0.15229550057E+02  0.62998208452E-01  0.20497819758E+02  0.25536322730E+02  0.00000000000E+00 0.  1.
</event>
<event>
 7    1  0.2684545E-013  0.7246158E+02  0.7816164E-02  0.1226708E+00
        -11   -1    0    0    0    0  0.00000000000E+00  0.00000000000E+00  0.45593999997E+02  0.45594000000E+02  0.51100000000E-03 0.  1.
         11   -1    0    0    0    0 -0.00000000000E+00 -0.00000000000E+00 -0.45593999997E+02  0.45594000000E+02  0.51100000000E-03 0. -1.
    9900012    2    1    2    0    0  0.10405648125E+01  0.18531801918E+02 -0.24836521890E+01  0.72461575204E+02  0.70000006396E+02 0.  0.
         12    1    1    2    0    0 -0.10405648125E+01 -0.18531801918E+02  0.24836521890E+01  0.18726424796E+02  0.00000000000E+00 0. -1.
         11    1    3    3    0    0 -0.32147836329E+01  0.15480741108E+02 -0.17430719308E+02  0.23533341346E+02  0.51100000000E-03 0. -1.
        -11    1    3    3    0    0 -0.71059582228E+01 -0.26158128272E+01 -0.14778156855E+02  0.16605150987E+02  0.51100000000E-03 0.  1.
        -12    1    3    3    0    0  0.11361306668E+02  0.56668736371E+01  0.29725223973E+02  0.32323082871E+02  0.00000000000E+00 0.  1.
</event>
<event>
 7    1  0.2684545E-013  0.7246160E+02  0.7816164E-02  0.1226708E+00
        -11   -1    0    0    0    0  0.00000000000E+00  0.00000000000E+00  0.45593999997E+02  0.45594000000E+02  0.51100000000E-03 0.  1.
         11   -1    0    0    0    0 -0.00000000000E+00 -0.00000000000E+00 -0.45593999997E+02  0.45594000000E+02  0.51100000000E-03 0. -1.
    9900012    2    1    2    0    0 -0.18565152998E+01  0.12861480689E+02  0.13483830046E+02  0.72461601327E+02  0.70000040425E+02 0.  0.
         12    1    1    2    0    0  0.18565152998E+01 -0.12861480689E+02 -0.13483830046E+02  0.18726398673E+02  0.00000000000E+00 0. -1.
         11    1    3    3    0    0  0.18604083861E+02 -0.77774583758E+01 -0.37911753482E+01  0.20517646207E+02  0.51100000000E-03 0. -1.
        -11    1    3    3    0    0 -0.43482336128E+00  0.21433555632E+02 -0.49656236382E+01  0.22005540138E+02  0.51100000000E-03 0.  1.
         12    1    3    3    0    0 -0.20025775799E+02 -0.79461656785E+00  0.22240629032E+02  0.29938414982E+02  0.00000000000E+00 0. -1.
</event>
<event>
 7    1  0.2684545E-013  0.7246158E+02  0.7816164E-02  0.1226708E+00
        -11   -1    0    0    0    0  0.00000000000E+00  0.00000000000E+00  0.45593999997E+02  0.45594000000E+02  0.51100000000E-03 0.  1.
         11   -1    0    0    0    0 -0.00000000000E+00 -0.00000000000E+00 -0.45593999997E+02  0.45594000000E+02  0.51100000000E-03 0. -1.
    9900012    2    1    2    0    0  0.77372989656E+01 -0.36094740568E+01  0.16666877867E+02  0.72461577061E+02  0.70000008815E+02 0.  0.
         12    1    1    2    0    0 -0.77372989656E+01  0.36094740568E+01 -0.16666877867E+02  0.18726422939E+02  0.00000000000E+00 0. -1.
         11    1    3    3    0    0 -0.14012859316E+01 -0.13001181250E+02 -0.21245187974E+02  0.24946990369E+02  0.51100000000E-03 0. -1.
        -11    1    3    3    0    0 -0.42526806256E+01 -0.60518464503E+01  0.55900754007E+01  0.92714120396E+01  0.51100000000E-03 0.  1.
        -12    1    3    3    0    0  0.13391265523E+02  0.15443553643E+02  0.32321990441E+02  0.38243174652E+02  0.00000000000E+00 0.  1.
</event>
<event>
 7    1  0.2684545E-013  0.7246157E+02  0.7816164E-02  0.1226708E+00
        -11   -1    0    0    0    0  0.00000000000E+00  0.00000000000E+00  0.45593999997E+02  0.45594000000E+02  0.51100000000E-03 0.  1.
         11   -1    0    0    0    0 -0.00000000000E+00 -0.00000000000E+00 -0.45593999997E+02  0.45594000000E+02  0.51100000000E-03 0. -1.
    9900012    2    1    2    0    0 -0.70324144240E+01  0.55066959933E+01  0.16459060821E+02  0.72461568506E+02  0.69999997670E+02 0.  0.
         12    1    1    2    0    0  0.70324144240E+01 -0.55066959933E+01 -0.16459060821E+02  0.18726431494E+02  0.00000000000E+00 0. -1.
         11    1    3    3    0    0 -0.84133794265E+01 -0.12609677448E+02 -0.15215869828E+02  0.21478165974E+02  0.51100000000E-03 0. -1.
        -11    1    3    3    0    0 -0.65146894211E+01  0.16072376359E+02 -0.93629587825E+00  0.17367760659E+02  0.51100000000E-03 0.  1.
         12    1    3    3    0    0  0.78956544236E+01  0.20439970821E+01  0.32611226528E+02  0.33615641872E+02  0.00000000000E+00 0. -1.
</event>
<event>
 7    1  0.4569068E-013  0.7246155E+02  0.7816164E-02  0.1226708E+00
        -11   -1    0    0    0    0  0.00000000000E+00  0.00000000000E+00  0.45593999997E+02  0.45594000000E+02  0.51100000000E-03 0.  1.
         11   -1    0    0    0    0 -0.00000000000E+00 -0.00000000000E+00 -0.45593999997E+02  0.45594000000E+02  0.51100000000E-03 0. -1.
    9900012    2    1    2    0    0 -0.15228639946E+02 -0.63115112249E+01 -0.88844467381E+01  0.72461546988E+02  0.69999969640E+02 0.  0.
         12    1    1    2    0    0  0.15228639946E+02  0.63115112249E+01  0.88844467381E+01  0.18726453012E+02  0.00000000000E+00 0. -1.
         11    1    3    3    0    0 -0.33785331456E+01  0.27987297999E+01  0.20934463648E+02  0.21389229608E+02  0.51100000000E-03 0. -1.
        -11    1    3    3    0    0 -0.70866145430E+01  0.14967389063E+02 -0.15352893899E+02  0.22582165361E+02  0.51100000000E-03 0.  1.
        -12    1    3    3    0    0 -0.47634922578E+01 -0.24077630087E+02 -0.14466016487E+02  0.28490152020E+02  0.00000000000E+00 0.  1.
</event>
<event>
 7    1  0.2684545E-013  0.7246152E+02  0.7816164E-02  0.1226708E+00
        -11   -1    0    0    0    0  0.00000000000E+00  0.00000000000E+00  0.45593999997E+02  0.45594000000E+02  0.51100000000E-03 0. -1.
         11   -1    0    0    0    0 -0.00000000000E+00 -0.00000000000E+00 -0.45593999997E+02  0.45594000000E+02  0.51100000000E-03 0.  1.
    9900012    2    1    2    0    0  0.49832913347E+01  0.10755310238E+02 -0.14497285817E+02  0.72461516430E+02  0.69999929832E+02 0.  0.
         12    1    1    2    0    0 -0.49832913347E+01 -0.10755310238E+02  0.14497285817E+02  0.18726483570E+02  0.00000000000E+00 0. -1.
         11    1    3    3    0    0 -0.90013109909E+01 -0.42345976873E+01  0.37521697902E+01  0.10631754113E+02  0.51100000000E-03 0. -1.
        -11    1    3    3    0    0  0.19744560311E+02  0.15089946328E+02  0.14369476226E+02  0.28706027056E+02  0.51100000000E-03 0.  1.
        -12    1    3    3    0    0 -0.57599579849E+01 -0.10003840363E+00 -0.32618931834E+02  0.33123735261E+02  0.00000000000E+00 0.  1.
</event>
<event>
 7    1  0.2684545E-013  0.7246078E+02  0.7816164E-02  0.1226710E+00
        -11   -1    0    0    0    0  0.00000000000E+00  0.00000000000E+00  0.45593999997E+02  0.45594000000E+02  0.51100000000E-03 0.  1.
         11   -1    0    0    0    0 -0.00000000000E+00 -0.00000000000E+00 -0.45593999997E+02  0.45594000000E+02  0.51100000000E-03 0. -1.
    9900012    2    1    2    0    0 -0.75117956481E-01  0.18006524023E+02  0.51447447517E+01  0.72460775201E+02  0.69998964236E+02 0.  0.
         12    1    1    2    0    0  0.75117956481E-01 -0.18006524023E+02 -0.51447447517E+01  0.18727224799E+02  0.00000000000E+00 0. -1.
         11    1    3    3    0    0 -0.16336970749E+02 -0.20640504678E+01  0.73230596179E+01  0.18021767949E+02  0.51100000000E-03 0. -1.
        -11    1    3    3    0    0  0.12172445401E+02  0.97521021428E+01  0.22501250491E+02  0.27378425761E+02  0.51100000000E-03 0.  1.
         12    1    3    3    0    0  0.40894073917E+01  0.10318472348E+02 -0.24679565357E+02  0.27060581491E+02  0.00000000000E+00 0. -1.
</event>
<event>
 7    1  0.2684545E-013  0.7246178E+02  0.7816164E-02  0.1226707E+00
        -11   -1    0    0    0    0  0.00000000000E+00  0.00000000000E+00  0.45593999997E+02  0.45594000000E+02  0.51100000000E-03 0.  1.
         11   -1    0    0    0    0 -0.00000000000E+00 -0.00000000000E+00 -0.45593999997E+02  0.45594000000E+02  0.51100000000E-03 0. -1.
    9900012    2    1    2    0    0  0.10034852577E+02 -0.75568165326E+01  0.13887670554E+02  0.72461784799E+02  0.70000279432E+02 0.  0.
         12    1    1    2    0    0 -0.10034852577E+02  0.75568165326E+01 -0.13887670554E+02  0.18726215201E+02  0.00000000000E+00 0. -1.
         11    1    3    3    0    0 -0.51670841673E+01 -0.23875349822E+01 -0.82912846840E+01  0.10057061403E+02  0.51100000000E-03 0. -1.
        -11    1    3    3    0    0 -0.38058099584E+01 -0.26752715999E+02  0.16555408544E+01  0.27072732011E+02  0.51100000000E-03 0.  1.
         12    1    3    3    0    0  0.19007746703E+02  0.21583434449E+02  0.20523414383E+02  0.35331991385E+02  0.00000000000E+00 0. -1.
</event>
<event>
 7    1  0.2684545E-013  0.7246162E+02  0.7816164E-02  0.1226708E+00
        -11   -1    0    0    0    0  0.00000000000E+00  0.00000000000E+00  0.45593999997E+02  0.45594000000E+02  0.51100000000E-03 0.  1.
         11   -1    0    0    0    0 -0.00000000000E+00 -0.00000000000E+00 -0.45593999997E+02  0.45594000000E+02  0.51100000000E-03 0. -1.
    9900012    2    1    2    0    0  0.17797293659E+02  0.48311840818E+01  0.32547265154E+01  0.72461621655E+02  0.70000066907E+02 0.  0.
         12    1    1    2    0    0 -0.17797293659E+02 -0.48311840818E+01 -0.32547265154E+01  0.18726378345E+02  0.00000000000E+00 0. -1.
         11    1    3    3    0    0 -0.16937011990E+02 -0.10334998996E+01 -0.12580262521E+02  0.21123292891E+02  0.51100000000E-03 0. -1.
        -11    1    3    3    0    0 -0.56619632354E+01 -0.36485557806E+01  0.51629661737E+01  0.84868137092E+01  0.51100000000E-03 0.  1.
        -12    1    3    3    0    0  0.40396268885E+02  0.95132397620E+01  0.10672022863E+02  0.42851515055E+02  0.00000000000E+00 0.  1.
</event>
<event>
 7    1  0.2684545E-013  0.7246156E+02  0.7816164E-02  0.1226708E+00
        -11   -1    0    0    0    0  0.00000000000E+00  0.00000000000E+00  0.45593999997E+02  0.45594000000E+02  0.51100000000E-03 0.  1.
         11   -1    0    0    0    0 -0.00000000000E+00 -0.00000000000E+00 -0.45593999997E+02  0.45594000000E+02  0.51100000000E-03 0. -1.
    9900012    2    1    2    0    0  0.15582271034E+02 -0.10328322050E+02  0.10946052071E+01  0.72461559668E+02  0.69999986157E+02 0.  0.
         12    1    1    2    0    0 -0.15582271034E+02  0.10328322050E+02 -0.10946052071E+01  0.18726440332E+02  0.00000000000E+00 0. -1.
         11    1    3    3    0    0  0.14039753174E+02  0.99741028693E+01 -0.22233171442E+02  0.28123145447E+02  0.51100000000E-03 0. -1.
        -11    1    3    3    0    0 -0.30589989323E+01  0.81674128092E+01  0.38229342018E+01  0.95225486419E+01  0.51100000000E-03 0.  1.
        -12    1    3    3    0    0  0.46015167925E+01 -0.28469837729E+02  0.19504842447E+02  0.34815865579E+02  0.00000000000E+00 0.  1.
</event>
<event>
 7    1  0.2684545E-013  0.7246158E+02  0.7816164E-02  0.1226708E+00
        -11   -1    0    0    0    0  0.00000000000E+00  0.00000000000E+00  0.45593999997E+02  0.45594000000E+02  0.51100000000E-03 0.  1.
         11   -1    0    0    0    0 -0.00000000000E+00 -0.00000000000E+00 -0.45593999997E+02  0.45594000000E+02  0.51100000000E-03 0. -1.
    9900012    2    1    2    0    0  0.13992242317E+02 -0.10312430626E+02  0.69677635937E+01  0.72461580161E+02  0.70000012853E+02 0.  0.
         12    1    1    2    0    0 -0.13992242317E+02  0.10312430626E+02 -0.69677635937E+01  0.18726419839E+02  0.00000000000E+00 0. -1.
         11    1    3    3    0    0  0.95525326230E+01  0.24811170190E+02  0.73626342019E+00  0.26596750361E+02  0.51100000000E-03 0. -1.
        -11    1    3    3    0    0  0.53138263432E+01  0.27161757331E+01 -0.33190078158E+01  0.68286290104E+01  0.51100000000E-03 0.  1.
        -12    1    3    3    0    0 -0.87411664913E+00 -0.37839776549E+02  0.95505079893E+01  0.39036200789E+02  0.00000000000E+00 0.  1.
</event>
<event>
 7    1  0.2684545E-013  0.7246156E+02  0.7816164E-02  0.1226708E+00
        -11   -1    0    0    0    0  0.00000000000E+00  0.00000000000E+00  0.45593999997E+02  0.45594000000E+02  0.51100000000E-03 0. -1.
         11   -1    0    0    0    0 -0.00000000000E+00 -0.00000000000E+00 -0.45593999997E+02  0.45594000000E+02  0.51100000000E-03 0.  1.
    9900012    2    1    2    0    0  0.27997729663E+01  0.12347386710E+02 -0.13797927610E+02  0.72461561642E+02  0.69999988729E+02 0.  0.
         12    1    1    2    0    0 -0.27997729663E+01 -0.12347386710E+02  0.13797927610E+02  0.18726438358E+02  0.00000000000E+00 0. -1.
         11    1    3    3    0    0  0.24314028602E+02  0.10063945497E+02 -0.12103961433E+02  0.28964821223E+02  0.51100000000E-03 0. -1.
        -11    1    3    3    0    0 -0.29316928150E+01 -0.16656852856E+02 -0.66643576649E-01  0.16913013080E+02  0.51100000000E-03 0.  1.
        -12    1    3    3    0    0 -0.18582562821E+02  0.18940294069E+02 -0.16273226008E+01  0.26583727339E+02  0.00000000000E+00 0.  1.
</event>
<event>
 7    1  0.2684545E-013  0.7246161E+02  0.7816164E-02  0.1226708E+00
        -11   -1    0    0    0    0  0.00000000000E+00  0.00000000000E+00  0.45593999997E+02  0.45594000000E+02  0.51100000000E-03 0.  1.
         11   -1    0    0    0    0 -0.00000000000E+00 -0.00000000000E+00 -0.45593999997E+02  0.45594000000E+02  0.51100000000E-03 0. -1.
    9900012    2    1    2    0    0 -0.10764112030E+02 -0.36247034023E+01  0.14888694813E+02  0.72461606440E+02  0.70000047086E+02 0.  0.
         12    1    1    2    0    0  0.10764112030E+02  0.36247034023E+01 -0.14888694813E+02  0.18726393560E+02  0.00000000000E+00 0. -1.
         11    1    3    3    0    0  0.48610393474E+01 -0.13752916651E+02 -0.89339466702E+01  0.17105198722E+02  0.51100000000E-03 0. -1.
        -11    1    3    3    0    0  0.98160163099E+01 -0.11294545451E+02  0.95567646965E+00  0.14994474012E+02  0.51100000000E-03 0.  1.
        -12    1    3    3    0    0 -0.25441167687E+02  0.21422758699E+02  0.22866965013E+02  0.40361933706E+02  0.00000000000E+00 0.  1.
</event>
<event>
 7    1  0.2684545E-013  0.7246178E+02  0.7816164E-02  0.1226707E+00
        -11   -1    0    0    0    0  0.00000000000E+00  0.00000000000E+00  0.45593999997E+02  0.45594000000E+02  0.51100000000E-03 0. -1.
         11   -1    0    0    0    0 -0.00000000000E+00 -0.00000000000E+00 -0.45593999997E+02  0.45594000000E+02  0.51100000000E-03 0.  1.
    9900012    2    1    2    0    0  0.16541968441E+02  0.87352847536E+01  0.85408431144E+00  0.72461778287E+02  0.70000270948E+02 0.  0.
         12    1    1    2    0    0 -0.16541968441E+02 -0.87352847536E+01 -0.85408431144E+00  0.18726221713E+02  0.00000000000E+00 0. -1.
         11    1    3    3    0    0 -0.58493403908E+01  0.10125863851E+02  0.66479404363E+01  0.13451506014E+02  0.51100000000E-03 0. -1.
        -11    1    3    3    0    0 -0.14630825704E+02 -0.12944999423E+01 -0.14860176367E+02  0.20894057356E+02  0.51100000000E-03 0.  1.
         12    1    3    3    0    0  0.37022134537E+02 -0.96079154838E-01  0.90663202421E+01  0.38116214917E+02  0.00000000000E+00 0. -1.
</event>
<event>
 7    1  0.2684545E-013  0.7246156E+02  0.7816164E-02  0.1226708E+00
        -11   -1    0    0    0    0  0.00000000000E+00  0.00000000000E+00  0.45593999997E+02  0.45594000000E+02  0.51100000000E-03 0. -1.
         11   -1    0    0    0    0 -0.00000000000E+00 -0.00000000000E+00 -0.45593999997E+02  0.45594000000E+02  0.51100000000E-03 0.  1.
    9900012    2    1    2    0    0 -0.70393884561E+01  0.35603485778E+01 -0.16983832924E+02  0.72461557396E+02  0.69999983197E+02 0.  0.
         12    1    1    2    0    0  0.70393884561E+01 -0.35603485778E+01  0.16983832924E+02  0.18726442604E+02  0.00000000000E+00 0. -1.
         11    1    3    3    0    0  0.19211402583E+02  0.50754017548E+01  0.10791599829E+02  0.22611862358E+02  0.51100000000E-03 0. -1.
        -11    1    3    3    0    0  0.58666337766E+01 -0.26255654131E+01  0.12475520861E+01  0.65473179300E+01  0.51100000000E-03 0.  1.
        -12    1    3    3    0    0 -0.32117424816E+02  0.11105122361E+01 -0.29022984839E+02  0.43302377108E+02  0.00000000000E+00 0.  1.
</event>
<event>
 7    1  0.2684545E-013  0.7246155E+02  0.7816164E-02  0.1226708E+00
        -11   -1    0    0    0    0  0.00000000000E+00  0.00000000000E+00  0.45593999997E+02  0.45594000000E+02  0.51100000000E-03 0. -1.
         11   -1    0    0    0    0 -0.00000000000E+00 -0.00000000000E+00 -0.45593999997E+02  0.45594000000E+02  0.51100000000E-03 0.  1.
    9900012    2    1    2    0    0  0.14212249859E+02  0.30275379939E+00 -0.12190176723E+02  0.72461545065E+02  0.69999967134E+02 0.  0.
         12    1    1    2    0    0 -0.14212249859E+02 -0.30275379939E+00  0.12190176723E+02  0.18726454935E+02  0.00000000000E+00 0. -1.
         11    1    3    3    0    0  0.23330655407E+02 -0.15723588982E+02  0.11571062260E+02  0.30421048869E+02  0.51100000000E-03 0. -1.
        -11    1    3    3    0    0  0.66221137819E+00 -0.52821890069E+01 -0.16739527376E+02  0.17565643217E+02  0.51100000000E-03 0.  1.
         12    1    3    3    0    0 -0.97806169265E+01  0.21308531788E+02 -0.70217116073E+01  0.24474852978E+02  0.00000000000E+00 0. -1.
</event>
<event>
 7    1  0.2684545E-013  0.7246160E+02  0.7816164E-02  0.1226708E+00
        -11   -1    0    0    0    0  0.00000000000E+00  0.00000000000E+00  0.45593999997E+02  0.45594000000E+02  0.51100000000E-03 0.  1.
         11   -1    0    0    0    0 -0.00000000000E+00 -0.00000000000E+00 -0.45593999997E+02  0.45594000000E+02  0.51100000000E-03 0. -1.
    9900012    2    1    2    0    0  0.17674393291E+02 -0.59264836770E+01 -0.17806765019E+01  0.72461596293E+02  0.70000033868E+02 0.  0.
         12    1    1    2    0    0 -0.17674393291E+02  0.59264836770E+01  0.17806765019E+01  0.18726403707E+02  0.00000000000E+00 0. -1.
         11    1    3    3    0    0  0.91993572036E+01 -0.22797624028E+00  0.26230078861E+02  0.27797431238E+02  0.51100000000E-03 0. -1.
        -11    1    3    3    0    0  0.13183166558E+02 -0.17564331559E+02 -0.16415035228E+02  0.27418151021E+02  0.51100000000E-03 0.  1.
        -12    1    3    3    0    0 -0.47081304702E+01  0.11865824122E+02 -0.11595720135E+02  0.17246014034E+02  0.00000000000E+00 0.  1.
</event>
<event>
 7    1  0.2684545E-013  0.7246153E+02  0.7816164E-02  0.1226708E+00
        -11   -1    0    0    0    0  0.00000000000E+00  0.00000000000E+00  0.45593999997E+02  0.45594000000E+02  0.51100000000E-03 0. -1.
         11   -1    0    0    0    0 -0.00000000000E+00 -0.00000000000E+00 -0.45593999997E+02  0.45594000000E+02  0.51100000000E-03 0.  1.
    9900012    2    1    2    0    0  0.63024680681E+01 -0.15993158342E+02  0.74282205766E+01  0.72461530006E+02  0.69999947517E+02 0.  0.
         12    1    1    2    0    0 -0.63024680681E+01  0.15993158342E+02 -0.74282205766E+01  0.18726469994E+02  0.00000000000E+00 0. -1.
         11    1    3    3    0    0  0.46766577934E+01  0.66724534210E+01  0.51799825752E+01  0.96553085146E+01  0.51100000000E-03 0. -1.
        -11    1    3    3    0    0  0.15876965804E+02 -0.16701383847E+02 -0.23414633687E+02  0.32852082681E+02  0.51100000000E-03 0.  1.
         12    1    3    3    0    0 -0.14251155529E+02 -0.59642279165E+01  0.25662871688E+02  0.29954138810E+02  0.00000000000E+00 0. -1.
</event>
<event>
 7    1  0.2684545E-013  0.7246157E+02  0.7816164E-02  0.1226708E+00
        -11   -1    0    0    0    0  0.00000000000E+00  0.00000000000E+00  0.45593999997E+02  0.45594000000E+02  0.51100000000E-03 0. -1.
         11   -1    0    0    0    0 -0.00000000000E+00 -0.00000000000E+00 -0.45593999997E+02  0.45594000000E+02  0.51100000000E-03 0.  1.
    9900012    2    1    2    0    0 -0.62808582541E+01 -0.14693591502E+02  0.97636222365E+01  0.72461571328E+02  0.70000001346E+02 0.  0.
         12    1    1    2    0    0  0.62808582541E+01  0.14693591502E+02 -0.97636222365E+01  0.18726428672E+02  0.00000000000E+00 0. -1.
         11    1    3    3    0    0 -0.17592982480E+02  0.71453973629E+01 -0.76205446201E+01  0.20460753569E+02  0.51100000000E-03 0. -1.
        -11    1    3    3    0    0 -0.15955683781E+02 -0.10805557228E+02  0.39881999998E+01  0.19678659798E+02  0.51100000000E-03 0.  1.
        -12    1    3    3    0    0  0.27267808008E+02 -0.11033431637E+02  0.13395966857E+02  0.32322157961E+02  0.00000000000E+00 0.  1.
</event>
<event>
 7    1  0.2684545E-013  0.7246151E+02  0.7816164E-02  0.1226708E+00
        -11   -1    0    0    0    0  0.00000000000E+00  0.00000000000E+00  0.45593999997E+02  0.45594000000E+02  0.51100000000E-03 0.  1.
         11   -1    0    0    0    0 -0.00000000000E+00 -0.00000000000E+00 -0.45593999997E+02  0.45594000000E+02  0.51100000000E-03 0. -1.
    9900012    2    1    2    0    0 -0.17830617497E+02 -0.16294355326E+00  0.57204805918E+01  0.72461511564E+02  0.69999923493E+02 0.  0.
         12    1    1    2    0    0  0.17830617497E+02  0.16294355326E+00 -0.57204805918E+01  0.18726488436E+02  0.00000000000E+00 0. -1.
         11    1    3    3    0    0 -0.67341819786E+01 -0.36326951236E+00 -0.15835740357E+02  0.17211968063E+02  0.51100000000E-03 0. -1.
        -11    1    3    3    0    0 -0.26638572888E+01 -0.23451584247E+02  0.25145709432E+01  0.23735964413E+02  0.51100000000E-03 0.  1.
        -12    1    3    3    0    0 -0.84325782299E+01  0.23651910206E+02  0.19041650006E+02  0.31513579088E+02  0.00000000000E+00 0.  1.
</event>
<event>
 7    1  0.2684545E-013  0.7246166E+02  0.7816164E-02  0.1226708E+00
        -11   -1    0    0    0    0  0.00000000000E+00  0.00000000000E+00  0.45593999997E+02  0.45594000000E+02  0.51100000000E-03 0. -1.
         11   -1    0    0    0    0 -0.00000000000E+00 -0.00000000000E+00 -0.45593999997E+02  0.45594000000E+02  0.51100000000E-03 0.  1.
    9900012    2    1    2    0    0 -0.41338421396E+01 -0.15364508537E+02  0.98751727672E+01  0.72461659978E+02  0.70000116830E+02 0.  0.
         12    1    1    2    0    0  0.41338421396E+01  0.15364508537E+02 -0.98751727672E+01  0.18726340022E+02  0.00000000000E+00 0. -1.
         11    1    3    3    0    0 -0.18984018480E+01 -0.16914760006E+01 -0.31042278331E+01  0.40126364573E+01  0.51100000000E-03 0. -1.
        -11    1    3    3    0    0 -0.16360894358E+02 -0.18964129644E+02 -0.20086047517E+02  0.32105550649E+02  0.51100000000E-03 0.  1.
         12    1    3    3    0    0  0.14125454066E+02  0.52910971073E+01  0.33065448118E+02  0.36343472872E+02  0.00000000000E+00 0. -1.
</event>
<event>
 7    1  0.2684545E-013  0.7246162E+02  0.7816164E-02  0.1226708E+00
        -11   -1    0    0    0    0  0.00000000000E+00  0.00000000000E+00  0.45593999997E+02  0.45594000000E+02  0.51100000000E-03 0. -1.
         11   -1    0    0    0    0 -0.00000000000E+00 -0.00000000000E+00 -0.45593999997E+02  0.45594000000E+02  0.51100000000E-03 0.  1.
    9900012    2    1    2    0    0 -0.14346761541E+02  0.82847297693E+01 -0.87298853218E+01  0.72461622566E+02  0.70000068094E+02 0.  0.
         12    1    1    2    0    0  0.14346761541E+02 -0.82847297693E+01  0.87298853218E+01  0.18726377434E+02  0.00000000000E+00 0. -1.
         11    1    3    3    0    0 -0.35485918625E+02  0.56297448036E+01  0.69037426442E+01  0.36586966395E+02  0.51100000000E-03 0. -1.
        -11    1    3    3    0    0  0.10866619086E+01  0.76629641032E+01 -0.12876029360E+02  0.15023115033E+02  0.51100000000E-03 0.  1.
        -12    1    3    3    0    0  0.20052495175E+02 -0.50079791376E+01 -0.27575986060E+01  0.20851541139E+02  0.00000000000E+00 0.  1.
</event>
<event>
 7    1  0.2684545E-013  0.7246171E+02  0.7816164E-02  0.1226708E+00
        -11   -1    0    0    0    0  0.00000000000E+00  0.00000000000E+00  0.45593999997E+02  0.45594000000E+02  0.51100000000E-03 0. -1.
         11   -1    0    0    0    0 -0.00000000000E+00 -0.00000000000E+00 -0.45593999997E+02  0.45594000000E+02  0.51100000000E-03 0.  1.
    9900012    2    1    2    0    0  0.16251891757E+02 -0.20133578292E+01 -0.90827577380E+01  0.72461706091E+02  0.70000176900E+02 0.  0.
         12    1    1    2    0    0 -0.16251891757E+02  0.20133578292E+01  0.90827577380E+01  0.18726293909E+02  0.00000000000E+00 0. -1.
         11    1    3    3    0    0  0.35042019519E+01 -0.89753291499E+00 -0.81899598781E+01  0.89532362707E+01  0.51100000000E-03 0. -1.
        -11    1    3    3    0    0  0.59146390254E+01  0.15670004055E+02 -0.26972591125E+02  0.31749844947E+02  0.51100000000E-03 0.  1.
         12    1    3    3    0    0  0.68330507797E+01 -0.16785828969E+02  0.26079793265E+02  0.31758624874E+02  0.00000000000E+00 0. -1.
</event>
<event>
 7    1  0.2684545E-013  0.7246154E+02  0.7816164E-02  0.1226708E+00
        -11   -1    0    0    0    0  0.00000000000E+00  0.00000000000E+00  0.45593999997E+02  0.45594000000E+02  0.51100000000E-03 0. -1.
         11   -1    0    0    0    0 -0.00000000000E+00 -0.00000000000E+00 -0.45593999997E+02  0.45594000000E+02  0.51100000000E-03 0.  1.
    9900012    2    1    2    0    0  0.20730674673E+01 -0.10142555061E+02 -0.15604842669E+02  0.72461544206E+02  0.69999966015E+02 0.  0.
         12    1    1    2    0    0 -0.20730674673E+01  0.10142555061E+02  0.15604842669E+02  0.18726455794E+02  0.00000000000E+00 0. -1.
         11    1    3    3    0    0 -0.54257643822E+01  0.98966157413E+01  0.12645231745E+01  0.11356977652E+02  0.51100000000E-03 0. -1.
        -11    1    3    3    0    0  0.11473958756E+01 -0.17307418244E+02  0.18328045336E+02  0.25234509895E+02  0.51100000000E-03 0.  1.
        -12    1    3    3    0    0  0.63514359739E+01 -0.27317525588E+01 -0.35197411179E+02  0.35870056659E+02  0.00000000000E+00 0.  1.
</event>
<event>
 7    1  0.2684545E-013  0.7246160E+02  0.7816164E-02  0.1226708E+00
        -11   -1    0    0    0    0  0.00000000000E+00  0.00000000000E+00  0.45593999997E+02  0.45594000000E+02  0.51100000000E-03 0. -1.
         11   -1    0    0    0    0 -0.00000000000E+00 -0.00000000000E+00 -0.45593999997E+02  0.45594000000E+02  0.51100000000E-03 0.  1.
    9900012    2    1    2    0    0 -0.18645088823E+02  0.15776903064E+01  0.74146605168E+00  0.72461595758E+02  0.70000033171E+02 0.  0.
         12    1    1    2    0    0  0.18645088823E+02 -0.15776903064E+01 -0.74146605168E+00  0.18726404242E+02  0.00000000000E+00 0. -1.
         11    1    3    3    0    0 -0.21834488033E+02  0.48877103451E+01 -0.27024149723E+01  0.22537471620E+02  0.51100000000E-03 0. -1.
        -11    1    3    3    0    0 -0.36428303619E+00  0.44809189780E+01 -0.22323206202E+02  0.22771404709E+02  0.51100000000E-03 0.  1.
         12    1    3    3    0    0  0.35536822462E+01 -0.77909390166E+01  0.25767087226E+02  0.27152719429E+02  0.00000000000E+00 0. -1.
</event>
<event>
 7    1  0.2684545E-013  0.7246157E+02  0.7816164E-02  0.1226708E+00
        -11   -1    0    0    0    0  0.00000000000E+00  0.00000000000E+00  0.45593999997E+02  0.45594000000E+02  0.51100000000E-03 0.  1.
         11   -1    0    0    0    0 -0.00000000000E+00 -0.00000000000E+00 -0.45593999997E+02  0.45594000000E+02  0.51100000000E-03 0. -1.
    9900012    2    1    2    0    0 -0.92419898318E+01  0.22739104751E+01  0.16127429416E+02  0.72461574167E+02  0.70000005045E+02 0.  0.
         12    1    1    2    0    0  0.92419898318E+01 -0.22739104751E+01 -0.16127429416E+02  0.18726425833E+02  0.00000000000E+00 0. -1.
         11    1    3    3    0    0  0.26476157568E+01 -0.22568345573E+01 -0.42873951275E+01  0.55213158445E+01  0.51100000000E-03 0. -1.
        -11    1    3    3    0    0 -0.26713952157E+02  0.10307964026E+02 -0.11831996441E+02  0.30982019015E+02  0.51100000000E-03 0.  1.
        -12    1    3    3    0    0  0.14824346569E+02 -0.57772189941E+01  0.32246820985E+02  0.35958239308E+02  0.00000000000E+00 0.  1.
</event>
<event>
 7    1  0.2684545E-013  0.7246220E+02  0.7816164E-02  0.1226706E+00
        -11   -1    0    0    0    0  0.00000000000E+00  0.00000000000E+00  0.45593999997E+02  0.45594000000E+02  0.51100000000E-03 0.  1.
         11   -1    0    0    0    0 -0.00000000000E+00 -0.00000000000E+00 -0.45593999997E+02  0.45594000000E+02  0.51100000000E-03 0. -1.
    9900012    2    1    2    0    0  0.58853997480E+01  0.15655148324E+01  0.17707821153E+02  0.72462197030E+02  0.70000816435E+02 0.  0.
         12    1    1    2    0    0 -0.58853997480E+01 -0.15655148324E+01 -0.17707821153E+02  0.18725802970E+02  0.00000000000E+00 0. -1.
         11    1    3    3    0    0  0.11152639979E+02 -0.18680290310E+02  0.78215129484E+00  0.21770309724E+02  0.51100000000E-03 0. -1.
        -11    1    3    3    0    0 -0.86175480250E+01 -0.24842030266E+01  0.24825730305E+02  0.26396027809E+02  0.51100000000E-03 0.  1.
         12    1    3    3    0    0  0.33503077939E+01  0.22730008169E+02 -0.79000604470E+01  0.24295859498E+02  0.00000000000E+00 0. -1.
</event>
<event>
 7    1  0.2684545E-013  0.7246155E+02  0.7816164E-02  0.1226708E+00
        -11   -1    0    0    0    0  0.00000000000E+00  0.00000000000E+00  0.45593999997E+02  0.45594000000E+02  0.51100000000E-03 0.  1.
         11   -1    0    0    0    0 -0.00000000000E+00 -0.00000000000E+00 -0.45593999997E+02  0.45594000000E+02  0.51100000000E-03 0. -1.
    9900012    2    1    2    0    0  0.70141296161E+01 -0.79453055125E+01  0.15438712928E+02  0.72461554773E+02  0.69999979781E+02 0.  0.
         12    1    1    2    0    0 -0.70141296161E+01  0.79453055125E+01 -0.15438712928E+02  0.18726445227E+02  0.00000000000E+00 0. -1.
         11    1    3    3    0    0 -0.97914496986E+01  0.10892450271E+02 -0.96809760484E+01  0.17556743936E+02  0.51100000000E-03 0. -1.
        -11    1    3    3    0    0 -0.79793922813E+01 -0.18077534441E+02  0.22538520855E+02  0.29974203497E+02  0.51100000000E-03 0.  1.
        -12    1    3    3    0    0  0.24784971596E+02 -0.76022134247E+00  0.25811681214E+01  0.24930607341E+02  0.00000000000E+00 0.  1.
</event>
<event>
 7    1  0.2722561E-013  0.7246153E+02  0.7816164E-02  0.1226708E+00
        -11   -1    0    0    0    0  0.00000000000E+00  0.00000000000E+00  0.45593999997E+02  0.45594000000E+02  0.51100000000E-03 0. -1.
         11   -1    0    0    0    0 -0.00000000000E+00 -0.00000000000E+00 -0.45593999997E+02  0.45594000000E+02  0.51100000000E-03 0.  1.
    9900012    2    1    2    0    0 -0.19978940691E+01 -0.74082021573E+01 -0.17082374390E+02  0.72461533310E+02  0.69999951821E+02 0.  0.
         12    1    1    2    0    0  0.19978940691E+01  0.74082021573E+01  0.17082374390E+02  0.18726466690E+02  0.00000000000E+00 0. -1.
         11    1    3    3    0    0  0.39629300361E+01  0.13522574646E+02  0.11980701538E+02  0.18496000896E+02  0.51100000000E-03 0.  1.
        -11    1    3    3    0    0 -0.10364975145E+02  0.88378160660E+01 -0.25471008578E+01  0.13857396062E+02  0.51100000000E-03 0. -1.
        -12    1    3    3    0    0  0.44041510395E+01 -0.29768592869E+02 -0.26515975070E+02  0.40108136353E+02  0.00000000000E+00 0.  1.
</event>
<event>
 7    1  0.2684545E-013  0.7246158E+02  0.7816164E-02  0.1226708E+00
        -11   -1    0    0    0    0  0.00000000000E+00  0.00000000000E+00  0.45593999997E+02  0.45594000000E+02  0.51100000000E-03 0.  1.
         11   -1    0    0    0    0 -0.00000000000E+00 -0.00000000000E+00 -0.45593999997E+02  0.45594000000E+02  0.51100000000E-03 0. -1.
    9900012    2    1    2    0    0  0.12088039458E+02 -0.76719646161E+01  0.12070594444E+02  0.72461575108E+02  0.70000006271E+02 0.  0.
         12    1    1    2    0    0 -0.12088039458E+02  0.76719646161E+01 -0.12070594444E+02  0.18726424892E+02  0.00000000000E+00 0. -1.
         11    1    3    3    0    0 -0.12347342580E+02 -0.96858987077E+00  0.77636477122E+01  0.14617430047E+02  0.51100000000E-03 0. -1.
        -11    1    3    3    0    0 -0.50961685715E+01 -0.16908709637E+02 -0.13182114622E+02  0.22037321567E+02  0.51100000000E-03 0.  1.
        -12    1    3    3    0    0  0.29531550610E+02  0.10205334892E+02  0.17489061353E+02  0.35806823493E+02  0.00000000000E+00 0.  1.
</event>
<event>
 7    1  0.2684545E-013  0.7246160E+02  0.7816164E-02  0.1226708E+00
        -11   -1    0    0    0    0  0.00000000000E+00  0.00000000000E+00  0.45593999997E+02  0.45594000000E+02  0.51100000000E-03 0. -1.
         11   -1    0    0    0    0 -0.00000000000E+00 -0.00000000000E+00 -0.45593999997E+02  0.45594000000E+02  0.51100000000E-03 0.  1.
    9900012    2    1    2    0    0 -0.21483399089E+00  0.18049933880E+02  0.49831627221E+01  0.72461596784E+02  0.70000034507E+02 0.  0.
         12    1    1    2    0    0  0.21483399089E+00 -0.18049933880E+02 -0.49831627221E+01  0.18726403216E+02  0.00000000000E+00 0. -1.
         11    1    3    3    0    0 -0.95699625522E+01  0.33420661660E+01  0.12976118049E+02  0.16466123690E+02  0.51100000000E-03 0. -1.
        -11    1    3    3    0    0 -0.11012129428E+02  0.24438484160E+02  0.84092554033E+01  0.28093096648E+02  0.51100000000E-03 0.  1.
         12    1    3    3    0    0  0.20367257989E+02 -0.97306164465E+01 -0.16402210730E+02  0.27902376445E+02  0.00000000000E+00 0. -1.
</event>
<event>
 7    1  0.2684545E-013  0.7246166E+02  0.7816164E-02  0.1226708E+00
        -11   -1    0    0    0    0  0.00000000000E+00  0.00000000000E+00  0.45593999997E+02  0.45594000000E+02  0.51100000000E-03 0.  1.
         11   -1    0    0    0    0 -0.00000000000E+00 -0.00000000000E+00 -0.45593999997E+02  0.45594000000E+02  0.51100000000E-03 0. -1.
    9900012    2    1    2    0    0 -0.57944736801E+01  0.15744425379E+02  0.83194248001E+01  0.72461663339E+02  0.70000121208E+02 0.  0.
         12    1    1    2    0    0  0.57944736801E+01 -0.15744425379E+02 -0.83194248001E+01  0.18726336661E+02  0.00000000000E+00 0. -1.
         11    1    3    3    0    0  0.20776266764E+02 -0.13434624418E+02  0.56763900029E+01  0.25384321887E+02  0.51100000000E-03 0. -1.
        -11    1    3    3    0    0 -0.20211403553E+01  0.20410603209E+02 -0.19662008511E+01  0.20604457715E+02  0.51100000000E-03 0.  1.
        -12    1    3    3    0    0 -0.24549600089E+02  0.87684465880E+01  0.46092356483E+01  0.26472883737E+02  0.00000000000E+00 0.  1.
</event>
<event>
 7    1  0.2684545E-013  0.7246157E+02  0.7816164E-02  0.1226708E+00
        -11   -1    0    0    0    0  0.00000000000E+00  0.00000000000E+00  0.45593999997E+02  0.45594000000E+02  0.51100000000E-03 0.  1.
         11   -1    0    0    0    0 -0.00000000000E+00 -0.00000000000E+00 -0.45593999997E+02  0.45594000000E+02  0.51100000000E-03 0. -1.
    9900012    2    1    2    0    0  0.17303892040E+02  0.57337913009E+01 -0.42869910157E+01  0.72461565893E+02  0.69999994266E+02 0.  0.
         12    1    1    2    0    0 -0.17303892040E+02 -0.57337913009E+01  0.42869910157E+01  0.18726434107E+02  0.00000000000E+00 0. -1.
         11    1    3    3    0    0  0.90580859963E+01  0.19483585572E+02  0.14987771229E+01  0.21538462382E+02  0.51100000000E-03 0. -1.
        -11    1    3    3    0    0  0.18164710078E+02  0.12736524337E+02 -0.76486464072E+00  0.22198215302E+02  0.51100000000E-03 0.  1.
         12    1    3    3    0    0 -0.99189040351E+01 -0.26486318608E+02 -0.50209034978E+01  0.28724888209E+02  0.00000000000E+00 0. -1.
</event>
<event>
 7    1  0.2684545E-013  0.7246158E+02  0.7816164E-02  0.1226708E+00
        -11   -1    0    0    0    0  0.00000000000E+00  0.00000000000E+00  0.45593999997E+02  0.45594000000E+02  0.51100000000E-03 0.  1.
         11   -1    0    0    0    0 -0.00000000000E+00 -0.00000000000E+00 -0.45593999997E+02  0.45594000000E+02  0.51100000000E-03 0. -1.
    9900012    2    1    2    0    0  0.14190843255E+02 -0.66191738335E+01 -0.10270599935E+02  0.72461582362E+02  0.70000015721E+02 0.  0.
         12    1    1    2    0    0 -0.14190843255E+02  0.66191738335E+01  0.10270599935E+02  0.18726417638E+02  0.00000000000E+00 0. -1.
         11    1    3    3    0    0  0.14471614865E+02 -0.23616673860E+02 -0.27053029395E-01  0.27697935900E+02  0.51100000000E-03 0. -1.
        -11    1    3    3    0    0 -0.15572765467E+01  0.51175345926E+01 -0.25119852692E+02  0.25683093079E+02  0.51100000000E-03 0.  1.
        -12    1    3    3    0    0  0.12765049364E+01  0.11879965434E+02  0.14876305787E+02  0.19080553384E+02  0.00000000000E+00 0.  1.
</event>
<event>
 7    1  0.2684545E-013  0.7246124E+02  0.7816164E-02  0.1226709E+00
        -11   -1    0    0    0    0  0.00000000000E+00  0.00000000000E+00  0.45593999997E+02  0.45594000000E+02  0.51100000000E-03 0.  1.
         11   -1    0    0    0    0 -0.00000000000E+00 -0.00000000000E+00 -0.45593999997E+02  0.45594000000E+02  0.51100000000E-03 0. -1.
    9900012    2    1    2    0    0  0.14269338879E+02  0.11601491551E+02 -0.35331018486E+01  0.72461242488E+02  0.69999572970E+02 0.  0.
         12    1    1    2    0    0 -0.14269338879E+02 -0.11601491551E+02  0.35331018486E+01  0.18726757512E+02  0.00000000000E+00 0. -1.
         11    1    3    3    0    0 -0.73049207395E+01  0.11413523491E+01 -0.11434083550E+02  0.13616270381E+02  0.51100000000E-03 0. -1.
        -11    1    3    3    0    0 -0.59605183690E+01  0.23468936532E+02  0.13734700040E+02  0.27838116794E+02  0.51100000000E-03 0.  1.
        -12    1    3    3    0    0  0.27534777987E+02 -0.13008797330E+02 -0.58337183383E+01  0.31006855314E+02  0.00000000000E+00 0.  1.
</event>
<event>
 7    1  0.2684545E-013  0.7246159E+02  0.7816164E-02  0.1226708E+00
        -11   -1    0    0    0    0  0.00000000000E+00  0.00000000000E+00  0.45593999997E+02  0.45594000000E+02  0.51100000000E-03 0.  1.
         11   -1    0    0    0    0 -0.00000000000E+00 -0.00000000000E+00 -0.45593999997E+02  0.45594000000E+02  0.51100000000E-03 0. -1.
    9900012    2    1    2    0    0 -0.15941583143E+02 -0.90897226320E+01  0.37311352288E+01  0.72461588151E+02  0.70000023262E+02 0.  0.
         12    1    1    2    0    0  0.15941583143E+02  0.90897226320E+01 -0.37311352288E+01  0.18726411849E+02  0.00000000000E+00 0. -1.
         11    1    3    3    0    0 -0.61866150737E+01  0.17037599542E+02 -0.13357566987E+02  0.22516185296E+02  0.51100000000E-03 0. -1.
        -11    1    3    3    0    0 -0.13459481405E+02 -0.83168299202E+01 -0.89528080082E+01  0.18179110844E+02  0.51100000000E-03 0.  1.
        -12    1    3    3    0    0  0.37045133349E+01 -0.17810492254E+02  0.26041510224E+02  0.31766292011E+02  0.00000000000E+00 0.  1.
</event>
<event>
 7    1  0.2684545E-013  0.7246168E+02  0.7816164E-02  0.1226708E+00
        -11   -1    0    0    0    0  0.00000000000E+00  0.00000000000E+00  0.45593999997E+02  0.45594000000E+02  0.51100000000E-03 0. -1.
         11   -1    0    0    0    0 -0.00000000000E+00 -0.00000000000E+00 -0.45593999997E+02  0.45594000000E+02  0.51100000000E-03 0.  1.
    9900012    2    1    2    0    0  0.86260489453E+01 -0.10576718696E+02 -0.12821832942E+02  0.72461678984E+02  0.70000141589E+02 0.  0.
         12    1    1    2    0    0 -0.86260489453E+01  0.10576718696E+02  0.12821832942E+02  0.18726321016E+02  0.00000000000E+00 0. -1.
         11    1    3    3    0    0  0.14584439918E+02  0.25766913399E+01 -0.79305600016E+01  0.16799970482E+02  0.51100000000E-03 0. -1.
        -11    1    3    3    0    0 -0.10782298169E+01 -0.15684113486E+01 -0.28686719153E+02  0.28749788690E+02  0.51100000000E-03 0.  1.
        -12    1    3    3    0    0 -0.48801611561E+01 -0.11584998687E+02  0.23795446213E+02  0.26911919812E+02  0.00000000000E+00 0.  1.
</event>
<event>
 7    1  0.2684545E-013  0.7246154E+02  0.7816164E-02  0.1226708E+00
        -11   -1    0    0    0    0  0.00000000000E+00  0.00000000000E+00  0.45593999997E+02  0.45594000000E+02  0.51100000000E-03 0.  1.
         11   -1    0    0    0    0 -0.00000000000E+00 -0.00000000000E+00 -0.45593999997E+02  0.45594000000E+02  0.51100000000E-03 0. -1.
    9900012    2    1    2    0    0  0.15195608691E+01 -0.17201631899E+02  0.72439826063E+01  0.72461535058E+02  0.69999954098E+02 0.  0.
         12    1    1    2    0    0 -0.15195608691E+01  0.17201631899E+02 -0.72439826063E+01  0.18726464942E+02  0.00000000000E+00 0. -1.
         11    1    3    3    0    0 -0.33581638392E+01 -0.32613982741E+02 -0.24488627166E+01  0.32877744197E+02  0.51100000000E-03 0. -1.
        -11    1    3    3    0    0  0.13234518533E+02 -0.61406163674E+01  0.73855737410E+01  0.16352564017E+02  0.51100000000E-03 0.  1.
        -12    1    3    3    0    0 -0.83567938251E+01  0.21552967209E+02  0.23072715819E+01  0.23231226844E+02  0.00000000000E+00 0.  1.
</event>
<event>
 7    1  0.2684545E-013  0.7246157E+02  0.7816164E-02  0.1226708E+00
        -11   -1    0    0    0    0  0.00000000000E+00  0.00000000000E+00  0.45593999997E+02  0.45594000000E+02  0.51100000000E-03 0. -1.
         11   -1    0    0    0    0 -0.00000000000E+00 -0.00000000000E+00 -0.45593999997E+02  0.45594000000E+02  0.51100000000E-03 0.  1.
    9900012    2    1    2    0    0 -0.70252080351E+01 -0.10254038740E+02 -0.14006442978E+02  0.72461566722E+02  0.69999995347E+02 0.  0.
         12    1    1    2    0    0  0.70252080351E+01  0.10254038740E+02  0.14006442978E+02  0.18726433278E+02  0.00000000000E+00 0. -1.
         11    1    3    3    0    0 -0.18942846435E+01 -0.88421940054E+01 -0.13493739649E+02  0.16243574703E+02  0.51100000000E-03 0. -1.
        -11    1    3    3    0    0  0.99055323475E+01  0.11346892347E+02 -0.22249813849E+02  0.26868676067E+02  0.51100000000E-03 0.  1.
         12    1    3    3    0    0 -0.15036455739E+02 -0.12758737082E+02  0.21737110520E+02  0.29349315952E+02  0.00000000000E+00 0. -1.
</event>
<event>
 7    1  0.2684545E-013  0.7246222E+02  0.7816164E-02  0.1226706E+00
        -11   -1    0    0    0    0  0.00000000000E+00  0.00000000000E+00  0.45593999997E+02  0.45594000000E+02  0.51100000000E-03 0.  1.
         11   -1    0    0    0    0 -0.00000000000E+00 -0.00000000000E+00 -0.45593999997E+02  0.45594000000E+02  0.51100000000E-03 0. -1.
    9900012    2    1    2    0    0  0.63137148450E+01  0.91872011566E+01  0.15046172353E+02  0.72462216633E+02  0.70000841971E+02 0.  0.
         12    1    1    2    0    0 -0.63137148450E+01 -0.91872011566E+01 -0.15046172353E+02  0.18725783367E+02  0.00000000000E+00 0. -1.
         11    1    3    3    0    0 -0.30563325059E+01 -0.36573977562E+01  0.70848462867E+01  0.85388976983E+01  0.51100000000E-03 0. -1.
        -11    1    3    3    0    0  0.21931588136E+02 -0.13123320324E+02  0.20210827634E+02  0.32583640809E+02  0.51100000000E-03 0.  1.
         12    1    3    3    0    0 -0.12561540785E+02  0.25967919237E+02 -0.12249501567E+02  0.31339678126E+02  0.00000000000E+00 0. -1.
</event>
<event>
 7    1  0.2684545E-013  0.7246229E+02  0.7816164E-02  0.1226706E+00
        -11   -1    0    0    0    0  0.00000000000E+00  0.00000000000E+00  0.45593999997E+02  0.45594000000E+02  0.51100000000E-03 0.  1.
         11   -1    0    0    0    0 -0.00000000000E+00 -0.00000000000E+00 -0.45593999997E+02  0.45594000000E+02  0.51100000000E-03 0. -1.
    9900012    2    1    2    0    0  0.27668324888E+01 -0.10974777958E+02  0.14918151281E+02  0.72462286372E+02  0.70000932817E+02 0.  0.
         12    1    1    2    0    0 -0.27668324888E+01  0.10974777958E+02 -0.14918151281E+02  0.18725713628E+02  0.00000000000E+00 0. -1.
         11    1    3    3    0    0  0.21180007887E+01  0.22422646377E+01  0.97747494925E+01  0.10249849070E+02  0.51100000000E-03 0. -1.
        -11    1    3    3    0    0 -0.13240587744E+02 -0.10046393603E+02  0.29577973639E+02  0.33927860426E+02  0.51100000000E-03 0.  1.
         12    1    3    3    0    0  0.13889419444E+02 -0.31706489922E+01 -0.24434571850E+02  0.28284576876E+02  0.00000000000E+00 0. -1.
</event>
<event>
 7    1  0.2684545E-013  0.7246158E+02  0.7816164E-02  0.1226708E+00
        -11   -1    0    0    0    0  0.00000000000E+00  0.00000000000E+00  0.45593999997E+02  0.45594000000E+02  0.51100000000E-03 0.  1.
         11   -1    0    0    0    0 -0.00000000000E+00 -0.00000000000E+00 -0.45593999997E+02  0.45594000000E+02  0.51100000000E-03 0. -1.
    9900012    2    1    2    0    0 -0.15617767004E+02  0.75285636263E+01  0.70770625687E+01  0.72461582001E+02  0.70000015250E+02 0.  0.
         12    1    1    2    0    0  0.15617767004E+02 -0.75285636263E+01 -0.70770625687E+01  0.18726417999E+02  0.00000000000E+00 0. -1.
         11    1    3    3    0    0 -0.33106333868E+01 -0.13884681511E+02 -0.17170105045E+02  0.22328394067E+02  0.51100000000E-03 0. -1.
        -11    1    3    3    0    0 -0.14132982231E+02  0.20798668348E+02 -0.65694810912E+00  0.25154669008E+02  0.51100000000E-03 0.  1.
        -12    1    3    3    0    0  0.18258486136E+01  0.61457678887E+00  0.24904115723E+02  0.24978518926E+02  0.00000000000E+00 0.  1.
</event>
<event>
 7    1  0.2684545E-013  0.7246156E+02  0.7816164E-02  0.1226708E+00
        -11   -1    0    0    0    0  0.00000000000E+00  0.00000000000E+00  0.45593999997E+02  0.45594000000E+02  0.51100000000E-03 0.  1.
         11   -1    0    0    0    0 -0.00000000000E+00 -0.00000000000E+00 -0.45593999997E+02  0.45594000000E+02  0.51100000000E-03 0. -1.
    9900012    2    1    2    0    0 -0.10122989338E+02 -0.15656434490E+02  0.17551714271E+01  0.72461561983E+02  0.69999989172E+02 0.  0.
         12    1    1    2    0    0  0.10122989338E+02  0.15656434490E+02 -0.17551714271E+01  0.18726438017E+02  0.00000000000E+00 0. -1.
         11    1    3    3    0    0 -0.27161291650E+01 -0.46473972973E+00  0.55914085838E+01  0.62335536310E+01  0.51100000000E-03 0. -1.
        -11    1    3    3    0    0 -0.11587645930E+02  0.21269793846E+02  0.11050692738E+02  0.26623213155E+02  0.51100000000E-03 0.  1.
         12    1    3    3    0    0  0.41807857566E+01 -0.36461488606E+02 -0.14886929894E+02  0.39604795197E+02  0.00000000000E+00 0. -1.
</event>
<event>
 7    1  0.2684545E-013  0.7246160E+02  0.7816164E-02  0.1226708E+00
        -11   -1    0    0    0    0  0.00000000000E+00  0.00000000000E+00  0.45593999997E+02  0.45594000000E+02  0.51100000000E-03 0. -1.
         11   -1    0    0    0    0 -0.00000000000E+00 -0.00000000000E+00 -0.45593999997E+02  0.45594000000E+02  0.51100000000E-03 0.  1.
    9900012    2    1    2    0    0 -0.19572313430E+01 -0.14737867555E+02 -0.11386069469E+02  0.72461599583E+02  0.70000038155E+02 0.  0.
         12    1    1    2    0    0  0.19572313430E+01  0.14737867555E+02  0.11386069469E+02  0.18726400417E+02  0.00000000000E+00 0. -1.
         11    1    3    3    0    0  0.66723011746E+00 -0.32145511955E+02 -0.28356968311E+01  0.32277241388E+02  0.51100000000E-03 0.  1.
        -11    1    3    3    0    0  0.86106893973E+01  0.15367846100E+01  0.10016969051E+02  0.13298321250E+02  0.51100000000E-03 0. -1.
        -12    1    3    3    0    0 -0.11235150858E+02  0.15870859789E+02 -0.18567341689E+02  0.26886036945E+02  0.00000000000E+00 0.  1.
</event>
<event>
 7    1  0.2684545E-013  0.7246162E+02  0.7816164E-02  0.1226708E+00
        -11   -1    0    0    0    0  0.00000000000E+00  0.00000000000E+00  0.45593999997E+02  0.45594000000E+02  0.51100000000E-03 0.  1.
         11   -1    0    0    0    0 -0.00000000000E+00 -0.00000000000E+00 -0.45593999997E+02  0.45594000000E+02  0.51100000000E-03 0. -1.
    9900012    2    1    2    0    0 -0.58027401735E+01 -0.19308054467E+01  0.17699646618E+02  0.72461620382E+02  0.70000065249E+02 0.  0.
         12    1    1    2    0    0  0.58027401735E+01  0.19308054467E+01 -0.17699646618E+02  0.18726379618E+02  0.00000000000E+00 0. -1.
         11    1    3    3    0    0  0.13331894734E+02 -0.82375637193E+01  0.56109468382E+01  0.16645708093E+02  0.51100000000E-03 0. -1.
        -11    1    3    3    0    0 -0.58243525474E+01 -0.79403953605E+01  0.28611764294E+02  0.30258982425E+02  0.51100000000E-03 0.  1.
        -12    1    3    3    0    0 -0.13310282360E+02  0.14247153633E+02 -0.16523064515E+02  0.25556929865E+02  0.00000000000E+00 0.  1.
</event>
<event>
 7    1  0.2684545E-013  0.7246164E+02  0.7816164E-02  0.1226708E+00
        -11   -1    0    0    0    0  0.00000000000E+00  0.00000000000E+00  0.45593999997E+02  0.45594000000E+02  0.51100000000E-03 0. -1.
         11   -1    0    0    0    0 -0.00000000000E+00 -0.00000000000E+00 -0.45593999997E+02  0.45594000000E+02  0.51100000000E-03 0.  1.
    9900012    2    1    2    0    0  0.18711428270E+02  0.68484408825E+00  0.30007541171E+00  0.72461638779E+02  0.70000089214E+02 0.  0.
         12    1    1    2    0    0 -0.18711428270E+02 -0.68484408825E+00 -0.30007541171E+00  0.18726361221E+02  0.00000000000E+00 0. -1.
         11    1    3    3    0    0 -0.66357413169E+01 -0.88080696637E+00  0.16543832777E+02  0.17846772452E+02  0.51100000000E-03 0. -1.
        -11    1    3    3    0    0  0.16335315550E+02  0.45142556685E+01  0.14585909304E+02  0.22360004223E+02  0.51100000000E-03 0.  1.
        -12    1    3    3    0    0  0.90118540363E+01 -0.29486046138E+01 -0.30829666670E+02  0.32254862104E+02  0.00000000000E+00 0.  1.
</event>
<event>
 7    1  0.2684545E-013  0.7246176E+02  0.7816164E-02  0.1226708E+00
        -11   -1    0    0    0    0  0.00000000000E+00  0.00000000000E+00  0.45593999997E+02  0.45594000000E+02  0.51100000000E-03 0. -1.
         11   -1    0    0    0    0 -0.00000000000E+00 -0.00000000000E+00 -0.45593999997E+02  0.45594000000E+02  0.51100000000E-03 0.  1.
    9900012    2    1    2    0    0  0.15661730862E+02  0.36542895393E+01  0.95931449537E+01  0.72461759701E+02  0.70000246737E+02 0.  0.
         12    1    1    2    0    0 -0.15661730862E+02 -0.36542895393E+01 -0.95931449537E+01  0.18726240299E+02  0.00000000000E+00 0. -1.
         11    1    3    3    0    0  0.47651413352E+01  0.88102192223E+01  0.13416081329E+02  0.16742693128E+02  0.51100000000E-03 0. -1.
        -11    1    3    3    0    0  0.50920489429E+01  0.23369121534E+02  0.65805621276E+01  0.24806221032E+02  0.51100000000E-03 0.  1.
         12    1    3    3    0    0  0.58045405839E+01 -0.28525051217E+02 -0.10403498503E+02  0.30912845541E+02  0.00000000000E+00 0. -1.
</event>
<event>
 7    1  0.2684545E-013  0.7246158E+02  0.7816164E-02  0.1226708E+00
        -11   -1    0    0    0    0  0.00000000000E+00  0.00000000000E+00  0.45593999997E+02  0.45594000000E+02  0.51100000000E-03 0.  1.
         11   -1    0    0    0    0 -0.00000000000E+00 -0.00000000000E+00 -0.45593999997E+02  0.45594000000E+02  0.51100000000E-03 0. -1.
    9900012    2    1    2    0    0  0.13367250244E+01  0.73320419818E+01  0.17179434665E+02  0.72461584197E+02  0.70000018111E+02 0.  0.
         12    1    1    2    0    0 -0.13367250244E+01 -0.73320419818E+01 -0.17179434665E+02  0.18726415803E+02  0.00000000000E+00 0. -1.
         11    1    3    3    0    0 -0.72537276769E+01  0.23212412600E+01 -0.16281002088E+02  0.17974308205E+02  0.51100000000E-03 0. -1.
        -11    1    3    3    0    0  0.90738276918E+01  0.22746559006E+02  0.24380632064E+02  0.34556555321E+02  0.51100000000E-03 0.  1.
        -12    1    3    3    0    0 -0.48337499046E+00 -0.17735758284E+02  0.90798046887E+01  0.19930720671E+02  0.00000000000E+00 0.  1.
</event>
<event>
 7    1  0.2684545E-013  0.7246165E+02  0.7816164E-02  0.1226708E+00
        -11   -1    0    0    0    0  0.00000000000E+00  0.00000000000E+00  0.45593999997E+02  0.45594000000E+02  0.51100000000E-03 0.  1.
         11   -1    0    0    0    0 -0.00000000000E+00 -0.00000000000E+00 -0.45593999997E+02  0.45594000000E+02  0.51100000000E-03 0. -1.
    9900012    2    1    2    0    0  0.71148996810E+01  0.70969766532E+01  0.15801493458E+02  0.72461653037E+02  0.70000107787E+02 0.  0.
         12    1    1    2    0    0 -0.71148996810E+01 -0.70969766532E+01 -0.15801493458E+02  0.18726346963E+02  0.00000000000E+00 0. -1.
         11    1    3    3    0    0  0.37114804858E+00  0.14711968749E+02  0.69520315851E+01  0.16276071970E+02  0.51100000000E-03 0. -1.
        -11    1    3    3    0    0 -0.18632205402E+02  0.65589937702E+00  0.19926525979E+02  0.27288380677E+02  0.51100000000E-03 0.  1.
         12    1    3    3    0    0  0.25375957034E+02 -0.82708914731E+01 -0.11077064106E+02  0.28897200390E+02  0.00000000000E+00 0. -1.
</event>
<event>
 7    1  0.2684545E-013  0.7246148E+02  0.7816164E-02  0.1226708E+00
        -11   -1    0    0    0    0  0.00000000000E+00  0.00000000000E+00  0.45593999997E+02  0.45594000000E+02  0.51100000000E-03 0.  1.
         11   -1    0    0    0    0 -0.00000000000E+00 -0.00000000000E+00 -0.45593999997E+02  0.45594000000E+02  0.51100000000E-03 0. -1.
    9900012    2    1    2    0    0 -0.13686581951E+02 -0.11519924152E+02  0.55363726434E+01  0.72461478700E+02  0.69999880681E+02 0.  0.
         12    1    1    2    0    0  0.13686581951E+02  0.11519924152E+02 -0.55363726434E+01  0.18726521300E+02  0.00000000000E+00 0. -1.
         11    1    3    3    0    0  0.74424242728E+00  0.61948199217E+00 -0.14263792949E+02  0.14296623527E+02  0.51100000000E-03 0. -1.
        -11    1    3    3    0    0 -0.25554848334E+02  0.55484455921E+01  0.25480416636E+02  0.36511466063E+02  0.51100000000E-03 0.  1.
         12    1    3    3    0    0  0.11124023956E+02 -0.17687851737E+02 -0.56802510442E+01  0.21653389110E+02  0.00000000000E+00 0. -1.
</event>
<event>
 7    1  0.2684545E-013  0.7246149E+02  0.7816164E-02  0.1226708E+00
        -11   -1    0    0    0    0  0.00000000000E+00  0.00000000000E+00  0.45593999997E+02  0.45594000000E+02  0.51100000000E-03 0.  1.
         11   -1    0    0    0    0 -0.00000000000E+00 -0.00000000000E+00 -0.45593999997E+02  0.45594000000E+02  0.51100000000E-03 0. -1.
    9900012    2    1    2    0    0  0.11996923800E+02  0.72282821703E+01  0.12430121117E+02  0.72461490588E+02  0.69999896167E+02 0.  0.
         12    1    1    2    0    0 -0.11996923800E+02 -0.72282821703E+01 -0.12430121117E+02  0.18726509412E+02  0.00000000000E+00 0. -1.
         11    1    3    3    0    0 -0.60537968242E+01 -0.10065549180E+02 -0.10170523387E+02  0.15537158122E+02  0.51100000000E-03 0. -1.
        -11    1    3    3    0    0  0.64381973620E+01  0.15692184114E+02 -0.11746485109E+02  0.20631891339E+02  0.51100000000E-03 0.  1.
        -12    1    3    3    0    0  0.11612523262E+02  0.16016472364E+01  0.34347129612E+02  0.36292441127E+02  0.00000000000E+00 0.  1.
</event>
<event>
 7    1  0.2684545E-013  0.7246159E+02  0.7816164E-02  0.1226708E+00
        -11   -1    0    0    0    0  0.00000000000E+00  0.00000000000E+00  0.45593999997E+02  0.45594000000E+02  0.51100000000E-03 0.  1.
         11   -1    0    0    0    0 -0.00000000000E+00 -0.00000000000E+00 -0.45593999997E+02  0.45594000000E+02  0.51100000000E-03 0. -1.
    9900012    2    1    2    0    0  0.14839408789E+02  0.10568015837E+02 -0.43344384086E+01  0.72461591688E+02  0.70000027870E+02 0.  0.
         12    1    1    2    0    0 -0.14839408789E+02 -0.10568015837E+02  0.43344384086E+01  0.18726408312E+02  0.00000000000E+00 0. -1.
         11    1    3    3    0    0 -0.11204285158E+02  0.18445979613E+02 -0.61259234943E+01  0.22434729968E+02  0.51100000000E-03 0. -1.
        -11    1    3    3    0    0 -0.93544019924E+01 -0.34860724314E+01  0.92232278258E+01  0.13591374817E+02  0.51100000000E-03 0.  1.
         12    1    3    3    0    0  0.35398095940E+02 -0.43918913446E+01 -0.74317427401E+01  0.36435486904E+02  0.00000000000E+00 0. -1.
</event>
<event>
 7    1  0.2684545E-013  0.7246154E+02  0.7816164E-02  0.1226708E+00
        -11   -1    0    0    0    0  0.00000000000E+00  0.00000000000E+00  0.45593999997E+02  0.45594000000E+02  0.51100000000E-03 0.  1.
         11   -1    0    0    0    0 -0.00000000000E+00 -0.00000000000E+00 -0.45593999997E+02  0.45594000000E+02  0.51100000000E-03 0. -1.
    9900012    2    1    2    0    0  0.12337525417E+02  0.92692577014E+01  0.10608793130E+02  0.72461543757E+02  0.69999965430E+02 0.  0.
         12    1    1    2    0    0 -0.12337525417E+02 -0.92692577014E+01 -0.10608793130E+02  0.18726456243E+02  0.00000000000E+00 0. -1.
         11    1    3    3    0    0 -0.33062197954E+01 -0.78425123563E+01 -0.22032366270E+02  0.23619086628E+02  0.51100000000E-03 0. -1.
        -11    1    3    3    0    0  0.14826321415E+01  0.61641219447E+01 -0.43905260483E+01  0.77117648213E+01  0.51100000000E-03 0.  1.
         12    1    3    3    0    0  0.14161113070E+02  0.10947648113E+02  0.37031685449E+02  0.41130692308E+02  0.00000000000E+00 0. -1.
</event>
<event>
 7    1  0.2684545E-013  0.7246155E+02  0.7816164E-02  0.1226708E+00
        -11   -1    0    0    0    0  0.00000000000E+00  0.00000000000E+00  0.45593999997E+02  0.45594000000E+02  0.51100000000E-03 0. -1.
         11   -1    0    0    0    0 -0.00000000000E+00 -0.00000000000E+00 -0.45593999997E+02  0.45594000000E+02  0.51100000000E-03 0.  1.
    9900012    2    1    2    0    0  0.10519462871E+02  0.73532997788E+01 -0.13636345482E+02  0.72461547190E+02  0.69999969903E+02 0.  0.
         12    1    1    2    0    0 -0.10519462871E+02 -0.73532997788E+01  0.13636345482E+02  0.18726452810E+02  0.00000000000E+00 0. -1.
         11    1    3    3    0    0 -0.68670546600E+01  0.25280605053E+02 -0.42910638620E+01  0.26545784239E+02  0.51100000000E-03 0. -1.
        -11    1    3    3    0    0 -0.30493594671E+01  0.43649559916E+01  0.90633528158E+01  0.10511698174E+02  0.51100000000E-03 0.  1.
        -12    1    3    3    0    0  0.20435876998E+02 -0.22292261265E+02 -0.18408634436E+02  0.35404064778E+02  0.00000000000E+00 0.  1.
</event>
<event>
 7    1  0.2684545E-013  0.7246157E+02  0.7816164E-02  0.1226708E+00
        -11   -1    0    0    0    0  0.00000000000E+00  0.00000000000E+00  0.45593999997E+02  0.45594000000E+02  0.51100000000E-03 0.  1.
         11   -1    0    0    0    0 -0.00000000000E+00 -0.00000000000E+00 -0.45593999997E+02  0.45594000000E+02  0.51100000000E-03 0. -1.
    9900012    2    1    2    0    0  0.16310162750E+02  0.28941499706E+01  0.87339329521E+01  0.72461572209E+02  0.70000002494E+02 0.  0.
         12    1    1    2    0    0 -0.16310162750E+02 -0.28941499706E+01 -0.87339329521E+01  0.18726427791E+02  0.00000000000E+00 0. -1.
         11    1    3    3    0    0  0.24322466086E+02 -0.11782961206E+02 -0.15253570500E+02  0.31033722699E+02  0.51100000000E-03 0. -1.
        -11    1    3    3    0    0 -0.34331882431E+01  0.45560465317E+01 -0.66952313029E+01  0.87960482020E+01  0.51100000000E-03 0.  1.
        -12    1    3    3    0    0 -0.45791150925E+01  0.10121064645E+02  0.30682734755E+02  0.32631801308E+02  0.00000000000E+00 0.  1.
</event>
<event>
 7    1  0.2684545E-013  0.7246153E+02  0.7816164E-02  0.1226708E+00
        -11   -1    0    0    0    0  0.00000000000E+00  0.00000000000E+00  0.45593999997E+02  0.45594000000E+02  0.51100000000E-03 0.  1.
         11   -1    0    0    0    0 -0.00000000000E+00 -0.00000000000E+00 -0.45593999997E+02  0.45594000000E+02  0.51100000000E-03 0. -1.
    9900012    2    1    2    0    0 -0.16261025574E+02  0.21345789804E+01  0.90389797591E+01  0.72461533830E+02  0.69999952498E+02 0.  0.
         12    1    1    2    0    0  0.16261025574E+02 -0.21345789804E+01 -0.90389797591E+01  0.18726466170E+02  0.00000000000E+00 0. -1.
         11    1    3    3    0    0 -0.39126093762E+02 -0.78432902438E+01 -0.45631145679E+01  0.40164541946E+02  0.51100000000E-03 0. -1.
        -11    1    3    3    0    0 -0.31836007371E+00  0.15130826462E+01  0.64044156140E+01  0.65884225615E+01  0.51100000000E-03 0.  1.
        -12    1    3    3    0    0  0.23183428261E+02  0.84647865780E+01  0.71976787129E+01  0.25708569322E+02  0.00000000000E+00 0.  1.
</event>
<event>
 7    1  0.2684545E-013  0.7246158E+02  0.7816164E-02  0.1226708E+00
        -11   -1    0    0    0    0  0.00000000000E+00  0.00000000000E+00  0.45593999997E+02  0.45594000000E+02  0.51100000000E-03 0.  1.
         11   -1    0    0    0    0 -0.00000000000E+00 -0.00000000000E+00 -0.45593999997E+02  0.45594000000E+02  0.51100000000E-03 0. -1.
    9900012    2    1    2    0    0 -0.90287179822E+00  0.12644199094E+02  0.13783614949E+02  0.72461575107E+02  0.70000006269E+02 0.  0.
         12    1    1    2    0    0  0.90287179822E+00 -0.12644199094E+02 -0.13783614949E+02  0.18726424893E+02  0.00000000000E+00 0. -1.
         11    1    3    3    0    0 -0.14027580010E+01  0.16454667690E+02 -0.10709291577E+00  0.16514699148E+02  0.51100000000E-03 0. -1.
        -11    1    3    3    0    0 -0.18535839784E+02  0.74983719626E+01  0.24309691761E+02  0.31476404692E+02  0.51100000000E-03 0.  1.
        -12    1    3    3    0    0  0.19035725986E+02 -0.11308840558E+02 -0.10418983896E+02  0.24470471267E+02  0.00000000000E+00 0.  1.
</event>
<event>
 7    1  0.2684545E-013  0.7246174E+02  0.7816164E-02  0.1226708E+00
        -11   -1    0    0    0    0  0.00000000000E+00  0.00000000000E+00  0.45593999997E+02  0.45594000000E+02  0.51100000000E-03 0.  1.
         11   -1    0    0    0    0 -0.00000000000E+00 -0.00000000000E+00 -0.45593999997E+02  0.45594000000E+02  0.51100000000E-03 0. -1.
    9900012    2    1    2    0    0 -0.13501383994E+02  0.12776628730E+02 -0.22678683996E+01  0.72461739334E+02  0.70000220205E+02 0.  0.
         12    1    1    2    0    0  0.13501383994E+02 -0.12776628730E+02  0.22678683996E+01  0.18726260666E+02  0.00000000000E+00 0. -1.
         11    1    3    3    0    0 -0.35749937808E+01 -0.18385585530E+02 -0.23399647761E+02  0.29972551634E+02  0.51100000000E-03 0. -1.
        -11    1    3    3    0    0  0.19278349889E+01  0.15414080353E+02  0.32391571089E+01  0.15868287870E+02  0.51100000000E-03 0.  1.
        -12    1    3    3    0    0 -0.11854225202E+02  0.15748133907E+02  0.17892622253E+02  0.26620899830E+02  0.00000000000E+00 0.  1.
</event>
<event>
 7    1  0.2684545E-013  0.7246152E+02  0.7816164E-02  0.1226708E+00
        -11   -1    0    0    0    0  0.00000000000E+00  0.00000000000E+00  0.45593999997E+02  0.45594000000E+02  0.51100000000E-03 0.  1.
         11   -1    0    0    0    0 -0.00000000000E+00 -0.00000000000E+00 -0.45593999997E+02  0.45594000000E+02  0.51100000000E-03 0. -1.
    9900012    2    1    2    0    0  0.17062253145E+02  0.34118916276E+01 -0.69223832821E+01  0.72461524699E+02  0.69999940604E+02 0.  0.
         12    1    1    2    0    0 -0.17062253145E+02 -0.34118916276E+01  0.69223832821E+01  0.18726475301E+02  0.00000000000E+00 0. -1.
         11    1    3    3    0    0  0.12078483492E+02 -0.13825685686E+02 -0.25226320195E+02  0.31199464402E+02  0.51100000000E-03 0. -1.
        -11    1    3    3    0    0 -0.75190409086E+01  0.21325401605E+01 -0.61302579488E+01  0.99329636314E+01  0.51100000000E-03 0.  1.
        -12    1    3    3    0    0  0.12502810562E+02  0.15105037153E+02  0.24434194862E+02  0.31329096666E+02  0.00000000000E+00 0.  1.
</event>
<event>
 7    1  0.2684545E-013  0.7246159E+02  0.7816164E-02  0.1226708E+00
        -11   -1    0    0    0    0  0.00000000000E+00  0.00000000000E+00  0.45593999997E+02  0.45594000000E+02  0.51100000000E-03 0. -1.
         11   -1    0    0    0    0 -0.00000000000E+00 -0.00000000000E+00 -0.45593999997E+02  0.45594000000E+02  0.51100000000E-03 0.  1.
    9900012    2    1    2    0    0 -0.18032219441E+02  0.31434009434E+01 -0.39543159298E+01  0.72461587585E+02  0.70000022525E+02 0.  0.
         12    1    1    2    0    0  0.18032219441E+02 -0.31434009434E+01  0.39543159298E+01  0.18726412415E+02  0.00000000000E+00 0. -1.
         11    1    3    3    0    0  0.10647998407E+02  0.14996376318E+02 -0.21003430518E+02  0.27918009717E+02  0.51100000000E-03 0. -1.
        -11    1    3    3    0    0  0.53401176291E+01 -0.11165791038E+01  0.17763332918E+01  0.57375051558E+01  0.51100000000E-03 0.  1.
        -12    1    3    3    0    0 -0.34020335477E+02 -0.10736396271E+02  0.15272781296E+02  0.38806072713E+02  0.00000000000E+00 0.  1.
</event>
<event>
 7    1  0.2684545E-013  0.7246155E+02  0.7816164E-02  0.1226708E+00
        -11   -1    0    0    0    0  0.00000000000E+00  0.00000000000E+00  0.45593999997E+02  0.45594000000E+02  0.51100000000E-03 0.  1.
         11   -1    0    0    0    0 -0.00000000000E+00 -0.00000000000E+00 -0.45593999997E+02  0.45594000000E+02  0.51100000000E-03 0. -1.
    9900012    2    1    2    0    0  0.11375391821E+02  0.14824640029E+02 -0.12289917504E+01  0.72461550475E+02  0.69999974182E+02 0.  0.
         12    1    1    2    0    0 -0.11375391821E+02 -0.14824640029E+02  0.12289917504E+01  0.18726449525E+02  0.00000000000E+00 0. -1.
         11    1    3    3    0    0  0.31307557930E+02 -0.13321080672E+01  0.38821636003E+01  0.31575447581E+02  0.51100000000E-03 0. -1.
        -11    1    3    3    0    0 -0.42933987769E+01  0.50511614882E+01 -0.17049806568E+02  0.18293261319E+02  0.51100000000E-03 0.  1.
        -12    1    3    3    0    0 -0.15638767332E+02  0.11105586608E+02  0.11938651217E+02  0.22592841575E+02  0.00000000000E+00 0.  1.
</event>
<event>
 7    1  0.2684545E-013  0.7246158E+02  0.7816164E-02  0.1226708E+00
        -11   -1    0    0    0    0  0.00000000000E+00  0.00000000000E+00  0.45593999997E+02  0.45594000000E+02  0.51100000000E-03 0.  1.
         11   -1    0    0    0    0 -0.00000000000E+00 -0.00000000000E+00 -0.45593999997E+02  0.45594000000E+02  0.51100000000E-03 0. -1.
    9900012    2    1    2    0    0 -0.57768271462E+01 -0.16815850896E+02  0.58765778344E+01  0.72461581755E+02  0.70000014930E+02 0.  0.
         12    1    1    2    0    0  0.57768271462E+01  0.16815850896E+02 -0.58765778344E+01  0.18726418245E+02  0.00000000000E+00 0. -1.
         11    1    3    3    0    0  0.14407951806E+02 -0.19459936540E+01  0.79456367139E+01  0.16568316438E+02  0.51100000000E-03 0.  1.
        -11    1    3    3    0    0 -0.19724604725E+01  0.17605494545E+02 -0.53753854013E+01  0.18513206286E+02  0.51100000000E-03 0. -1.
        -12    1    3    3    0    0 -0.18212318480E+02 -0.32475351787E+02  0.33063265218E+01  0.37380059031E+02  0.00000000000E+00 0.  1.
</event>
<event>
 7    1  0.2684545E-013  0.7246162E+02  0.7816164E-02  0.1226708E+00
        -11   -1    0    0    0    0  0.00000000000E+00  0.00000000000E+00  0.45593999997E+02  0.45594000000E+02  0.51100000000E-03 0. -1.
         11   -1    0    0    0    0 -0.00000000000E+00 -0.00000000000E+00 -0.45593999997E+02  0.45594000000E+02  0.51100000000E-03 0.  1.
    9900012    2    1    2    0    0 -0.57240993544E+01 -0.10186857298E+02 -0.14633524552E+02  0.72461617118E+02  0.70000060997E+02 0.  0.
         12    1    1    2    0    0  0.57240993544E+01  0.10186857298E+02  0.14633524552E+02  0.18726382882E+02  0.00000000000E+00 0. -1.
         11    1    3    3    0    0  0.47553989103E+01 -0.91159928208E+01  0.52718268660E+01  0.11554536021E+02  0.51100000000E-03 0. -1.
        -11    1    3    3    0    0  0.22794903136E+02 -0.58419886823E+01 -0.11821072033E+02  0.26333898022E+02  0.51100000000E-03 0.  1.
         12    1    3    3    0    0 -0.33274401401E+02  0.47711242050E+01 -0.80842793848E+01  0.34573183075E+02  0.00000000000E+00 0. -1.
</event>
<event>
 7    1  0.2684545E-013  0.7246155E+02  0.7816164E-02  0.1226708E+00
        -11   -1    0    0    0    0  0.00000000000E+00  0.00000000000E+00  0.45593999997E+02  0.45594000000E+02  0.51100000000E-03 0.  1.
         11   -1    0    0    0    0 -0.00000000000E+00 -0.00000000000E+00 -0.45593999997E+02  0.45594000000E+02  0.51100000000E-03 0. -1.
    9900012    2    1    2    0    0  0.23597113406E-01 -0.72508784836E+01  0.17265692701E+02  0.72461549721E+02  0.69999973199E+02 0.  0.
         12    1    1    2    0    0 -0.23597113406E-01  0.72508784836E+01 -0.17265692701E+02  0.18726450279E+02  0.00000000000E+00 0. -1.
         11    1    3    3    0    0  0.15257218609E+02 -0.53671864929E+01  0.60176415540E+01  0.17256923847E+02  0.51100000000E-03 0. -1.
        -11    1    3    3    0    0  0.11487690510E+02 -0.10543888849E+02 -0.11240259694E+02  0.19221968254E+02  0.51100000000E-03 0.  1.
        -12    1    3    3    0    0 -0.26721312005E+02  0.86601968588E+01  0.22488310841E+02  0.35982657620E+02  0.00000000000E+00 0.  1.
</event>
<event>
 7    1  0.2684545E-013  0.7246165E+02  0.7816164E-02  0.1226708E+00
        -11   -1    0    0    0    0  0.00000000000E+00  0.00000000000E+00  0.45593999997E+02  0.45594000000E+02  0.51100000000E-03 0. -1.
         11   -1    0    0    0    0 -0.00000000000E+00 -0.00000000000E+00 -0.45593999997E+02  0.45594000000E+02  0.51100000000E-03 0.  1.
    9900012    2    1    2    0    0 -0.56960006403E+01 -0.15718612573E+02 -0.84354638450E+01  0.72461648118E+02  0.70000101380E+02 0.  0.
         12    1    1    2    0    0  0.56960006403E+01  0.15718612573E+02  0.84354638450E+01  0.18726351882E+02  0.00000000000E+00 0. -1.
         11    1    3    3    0    0 -0.24545031453E+01 -0.10764013655E+02  0.14297907449E+02  0.18064294432E+02  0.51100000000E-03 0. -1.
        -11    1    3    3    0    0 -0.12619809224E+02 -0.24355366771E+02 -0.16303071830E+02  0.31909773217E+02  0.51100000000E-03 0.  1.
         12    1    3    3    0    0  0.93783117293E+01  0.19400767853E+02 -0.64302994635E+01  0.22487580469E+02  0.00000000000E+00 0. -1.
</event>
<event>
 7    1  0.2684545E-013  0.7246143E+02  0.7816164E-02  0.1226708E+00
        -11   -1    0    0    0    0  0.00000000000E+00  0.00000000000E+00  0.45593999997E+02  0.45594000000E+02  0.51100000000E-03 0. -1.
         11   -1    0    0    0    0 -0.00000000000E+00 -0.00000000000E+00 -0.45593999997E+02  0.45594000000E+02  0.51100000000E-03 0.  1.
    9900012    2    1    2    0    0  0.83791763043E+01  0.15043868021E+02  0.73590739247E+01  0.72461427180E+02  0.69999813566E+02 0.  0.
         12    1    1    2    0    0 -0.83791763043E+01 -0.15043868021E+02 -0.73590739247E+01  0.18726572820E+02  0.00000000000E+00 0. -1.
         11    1    3    3    0    0  0.20975175675E+02  0.52022893656E+01  0.99287570929E+01  0.23782389007E+02  0.51100000000E-03 0. -1.
        -11    1    3    3    0    0  0.65665925136E+01  0.12710856835E+02 -0.18645738976E+02  0.23502119073E+02  0.51100000000E-03 0.  1.
         12    1    3    3    0    0 -0.19162591884E+02 -0.28692781796E+01  0.16076055808E+02  0.25176919099E+02  0.00000000000E+00 0. -1.
</event>
<event>
 7    1  0.2684545E-013  0.7246157E+02  0.7816164E-02  0.1226708E+00
        -11   -1    0    0    0    0  0.00000000000E+00  0.00000000000E+00  0.45593999997E+02  0.45594000000E+02  0.51100000000E-03 0. -1.
         11   -1    0    0    0    0 -0.00000000000E+00 -0.00000000000E+00 -0.45593999997E+02  0.45594000000E+02  0.51100000000E-03 0.  1.
    9900012    2    1    2    0    0 -0.76830076118E+01  0.20833491154E+01 -0.16950229488E+02  0.72461568701E+02  0.69999997924E+02 0.  0.
         12    1    1    2    0    0  0.76830076118E+01 -0.20833491154E+01  0.16950229488E+02  0.18726431299E+02  0.00000000000E+00 0. -1.
         11    1    3    3    0    0 -0.14921153605E+02 -0.13655551212E+02  0.11628460888E+02  0.23331009551E+02  0.51100000000E-03 0. -1.
        -11    1    3    3    0    0  0.10388942876E+02 -0.51357801869E+01  0.22113773816E+01  0.11798159280E+02  0.51100000000E-03 0.  1.
        -12    1    3    3    0    0 -0.31507968820E+01  0.20874680514E+02 -0.30790067757E+02  0.37332399870E+02  0.00000000000E+00 0.  1.
</event>
<event>
 7    1  0.2684545E-013  0.7246157E+02  0.7816164E-02  0.1226708E+00
        -11   -1    0    0    0    0  0.00000000000E+00  0.00000000000E+00  0.45593999997E+02  0.45594000000E+02  0.51100000000E-03 0. -1.
         11   -1    0    0    0    0 -0.00000000000E+00 -0.00000000000E+00 -0.45593999997E+02  0.45594000000E+02  0.51100000000E-03 0.  1.
    9900012    2    1    2    0    0  0.61582136404E+01 -0.46971412586E+01 -0.17049708203E+02  0.72461567316E+02  0.69999996120E+02 0.  0.
         12    1    1    2    0    0 -0.61582136404E+01  0.46971412586E+01  0.17049708203E+02  0.18726432684E+02  0.00000000000E+00 0. -1.
         11    1    3    3    0    0 -0.10872911425E+02  0.50453339148E+01 -0.65744703327E+01  0.13671110327E+02  0.51100000000E-03 0. -1.
        -11    1    3    3    0    0 -0.70679773192E+01 -0.28267435452E-01 -0.27058342082E+02  0.27966247137E+02  0.51100000000E-03 0.  1.
         12    1    3    3    0    0  0.24099102385E+02 -0.97142077379E+01  0.16583104211E+02  0.30824209852E+02  0.00000000000E+00 0. -1.
</event>
<event>
 7    1  0.2684545E-013  0.7246152E+02  0.7816164E-02  0.1226708E+00
        -11   -1    0    0    0    0  0.00000000000E+00  0.00000000000E+00  0.45593999997E+02  0.45594000000E+02  0.51100000000E-03 0.  1.
         11   -1    0    0    0    0 -0.00000000000E+00 -0.00000000000E+00 -0.45593999997E+02  0.45594000000E+02  0.51100000000E-03 0. -1.
    9900012    2    1    2    0    0 -0.17077078768E+02  0.29328524281E+01  0.71030071729E+01  0.72461522662E+02  0.69999937949E+02 0.  0.
         12    1    1    2    0    0  0.17077078768E+02 -0.29328524281E+01 -0.71030071729E+01  0.18726477338E+02  0.00000000000E+00 0. -1.
         11    1    3    3    0    0 -0.27059592134E+01  0.24849000185E+02 -0.11817867764E+01  0.25023821565E+02  0.51100000000E-03 0. -1.
        -11    1    3    3    0    0 -0.58227990455E+01  0.11067370098E+02  0.66799165736E+00  0.12523493232E+02  0.51100000000E-03 0.  1.
        -12    1    3    3    0    0 -0.85483205090E+01 -0.32983517856E+02  0.76168022919E+01  0.34914207864E+02  0.00000000000E+00 0.  1.
</event>
<event>
 7    1  0.2684545E-013  0.7246158E+02  0.7816164E-02  0.1226708E+00
        -11   -1    0    0    0    0  0.00000000000E+00  0.00000000000E+00  0.45593999997E+02  0.45594000000E+02  0.51100000000E-03 0. -1.
         11   -1    0    0    0    0 -0.00000000000E+00 -0.00000000000E+00 -0.45593999997E+02  0.45594000000E+02  0.51100000000E-03 0.  1.
    9900012    2    1    2    0    0  0.82304341102E+01  0.98313918298E+01 -0.13648536747E+02  0.72461578391E+02  0.70000010547E+02 0.  0.
         12    1    1    2    0    0 -0.82304341102E+01 -0.98313918298E+01  0.13648536747E+02  0.18726421609E+02  0.00000000000E+00 0. -1.
         11    1    3    3    0    0 -0.12699517122E+02  0.10916762970E+02  0.96562720212E+01  0.19331245136E+02  0.51100000000E-03 0. -1.
        -11    1    3    3    0    0 -0.74396189719E+01 -0.36075059854E+01 -0.23220652330E+02  0.24648746921E+02  0.51100000000E-03 0.  1.
        -12    1    3    3    0    0  0.28369570205E+02  0.25221348452E+01 -0.84156437982E-01  0.28481586334E+02  0.00000000000E+00 0.  1.
</event>
<event>
 7    1  0.2684545E-013  0.7246158E+02  0.7816164E-02  0.1226708E+00
        -11   -1    0    0    0    0  0.00000000000E+00  0.00000000000E+00  0.45593999997E+02  0.45594000000E+02  0.51100000000E-03 0. -1.
         11   -1    0    0    0    0 -0.00000000000E+00 -0.00000000000E+00 -0.45593999997E+02  0.45594000000E+02  0.51100000000E-03 0.  1.
    9900012    2    1    2    0    0 -0.13656839254E+02 -0.11028086787E+02 -0.65230916214E+01  0.72461583341E+02  0.70000016995E+02 0.  0.
         12    1    1    2    0    0  0.13656839254E+02  0.11028086787E+02  0.65230916214E+01  0.18726416659E+02  0.00000000000E+00 0. -1.
         11    1    3    3    0    0  0.31631120559E+00 -0.11232601385E+02 -0.17809054251E+01  0.11377302451E+02  0.51100000000E-03 0. -1.
        -11    1    3    3    0    0  0.16766567080E+01 -0.24153086834E+02  0.12643159891E+02  0.27313591372E+02  0.51100000000E-03 0.  1.
        -12    1    3    3    0    0 -0.15649807168E+02  0.24357601433E+02 -0.17385346087E+02  0.33770689518E+02  0.00000000000E+00 0.  1.
</event>
<event>
 7    1  0.2684545E-013  0.7246159E+02  0.7816164E-02  0.1226708E+00
        -11   -1    0    0    0    0  0.00000000000E+00  0.00000000000E+00  0.45593999997E+02  0.45594000000E+02  0.51100000000E-03 0.  1.
         11   -1    0    0    0    0 -0.00000000000E+00 -0.00000000000E+00 -0.45593999997E+02  0.45594000000E+02  0.51100000000E-03 0. -1.
    9900012    2    1    2    0    0  0.20752860095E+01 -0.18525431586E+02 -0.17832607458E+01  0.72461589603E+02  0.70000025154E+02 0.  0.
         12    1    1    2    0    0 -0.20752860095E+01  0.18525431586E+02  0.17832607458E+01  0.18726410397E+02  0.00000000000E+00 0. -1.
         11    1    3    3    0    0  0.88516294765E+01 -0.24839192909E+02 -0.10355573321E+02  0.28329750225E+02  0.51100000000E-03 0. -1.
        -11    1    3    3    0    0 -0.13835462716E+02 -0.13644461661E+02  0.11775236142E+02  0.22721081600E+02  0.51100000000E-03 0.  1.
         12    1    3    3    0    0  0.70591192494E+01  0.19958222984E+02 -0.32029235669E+01  0.21410757779E+02  0.00000000000E+00 0. -1.
</event>
<event>
 7    1  0.2684545E-013  0.7246154E+02  0.7816164E-02  0.1226708E+00
        -11   -1    0    0    0    0  0.00000000000E+00  0.00000000000E+00  0.45593999997E+02  0.45594000000E+02  0.51100000000E-03 0. -1.
         11   -1    0    0    0    0 -0.00000000000E+00 -0.00000000000E+00 -0.45593999997E+02  0.45594000000E+02  0.51100000000E-03 0.  1.
    9900012    2    1    2    0    0  0.83840000154E+01 -0.11977790759E+02 -0.11701339290E+02  0.72461540941E+02  0.69999961762E+02 0.  0.
         12    1    1    2    0    0 -0.83840000154E+01  0.11977790759E+02  0.11701339290E+02  0.18726459059E+02  0.00000000000E+00 0. -1.
         11    1    3    3    0    0  0.11378516333E+02 -0.19089842977E+02 -0.17423934582E+02  0.28239798784E+02  0.51100000000E-03 0.  1.
        -11    1    3    3    0    0 -0.22591483615E+02 -0.68885668873E-01  0.43268546166E-01  0.22591630079E+02  0.51100000000E-03 0. -1.
         12    1    3    3    0    0  0.19596967298E+02  0.71809378865E+01  0.56793267459E+01  0.21630112078E+02  0.00000000000E+00 0. -1.
</event>
<event>
 7    1  0.2684545E-013  0.7246155E+02  0.7816164E-02  0.1226708E+00
        -11   -1    0    0    0    0  0.00000000000E+00  0.00000000000E+00  0.45593999997E+02  0.45594000000E+02  0.51100000000E-03 0.  1.
         11   -1    0    0    0    0 -0.00000000000E+00 -0.00000000000E+00 -0.45593999997E+02  0.45594000000E+02  0.51100000000E-03 0. -1.
    9900012    2    1    2    0    0  0.17719679369E+02 -0.47482442808E+01  0.37612372652E+01  0.72461554356E+02  0.69999979238E+02 0.  0.
         12    1    1    2    0    0 -0.17719679369E+02  0.47482442808E+01 -0.37612372652E+01  0.18726445644E+02  0.00000000000E+00 0. -1.
         11    1    3    3    0    0  0.42832649410E+01 -0.65750182274E+01  0.69387028775E+01  0.10474866163E+02  0.51100000000E-03 0. -1.
        -11    1    3    3    0    0  0.71371782460E+01  0.19845737195E+02  0.21944141135E+02  0.30435800114E+02  0.51100000000E-03 0.  1.
         12    1    3    3    0    0  0.62992361818E+01 -0.18018963249E+02 -0.25121606748E+02  0.31550888080E+02  0.00000000000E+00 0. -1.
</event>
<event>
 7    1  0.2684545E-013  0.7246157E+02  0.7816164E-02  0.1226708E+00
        -11   -1    0    0    0    0  0.00000000000E+00  0.00000000000E+00  0.45593999997E+02  0.45594000000E+02  0.51100000000E-03 0. -1.
         11   -1    0    0    0    0 -0.00000000000E+00 -0.00000000000E+00 -0.45593999997E+02  0.45594000000E+02  0.51100000000E-03 0.  1.
    9900012    2    1    2    0    0  0.16843833558E+02  0.57065926546E+00 -0.81632520660E+01  0.72461573079E+02  0.70000003628E+02 0.  0.
         12    1    1    2    0    0 -0.16843833558E+02 -0.57065926546E+00  0.81632520660E+01  0.18726426921E+02  0.00000000000E+00 0. -1.
         11    1    3    3    0    0 -0.15018864619E+02  0.36500658048E+01  0.73099726625E+01  0.17097513720E+02  0.51100000000E-03 0. -1.
        -11    1    3    3    0    0  0.23948511325E+01  0.17211350113E+02 -0.47994601754E+01  0.18027775872E+02  0.51100000000E-03 0.  1.
         12    1    3    3    0    0  0.29467847044E+02 -0.20290756652E+02 -0.10673764553E+02  0.37336283487E+02  0.00000000000E+00 0. -1.
</event>
<event>
 7    1  0.2684545E-013  0.7246158E+02  0.7816164E-02  0.1226708E+00
        -11   -1    0    0    0    0  0.00000000000E+00  0.00000000000E+00  0.45593999997E+02  0.45594000000E+02  0.51100000000E-03 0.  1.
         11   -1    0    0    0    0 -0.00000000000E+00 -0.00000000000E+00 -0.45593999997E+02  0.45594000000E+02  0.51100000000E-03 0. -1.
    9900012    2    1    2    0    0  0.90815847556E+01  0.59844780560E+01  0.15244326346E+02  0.72461584298E+02  0.70000018243E+02 0.  0.
         12    1    1    2    0    0 -0.90815847556E+01 -0.59844780560E+01 -0.15244326346E+02  0.18726415702E+02  0.00000000000E+00 0. -1.
         11    1    3    3    0    0  0.39931474918E+01 -0.11442356201E+02 -0.12007472293E+02  0.17060250100E+02  0.51100000000E-03 0. -1.
        -11    1    3    3    0    0  0.23206423287E+02  0.65069607754E+01  0.48399814081E+01  0.24582596295E+02  0.51100000000E-03 0.  1.
        -12    1    3    3    0    0 -0.18117986023E+02  0.10919873482E+02  0.22411817231E+02  0.30818737904E+02  0.00000000000E+00 0.  1.
</event>
<event>
 7    1  0.2684545E-013  0.7246137E+02  0.7816164E-02  0.1226709E+00
        -11   -1    0    0    0    0  0.00000000000E+00  0.00000000000E+00  0.45593999997E+02  0.45594000000E+02  0.51100000000E-03 0.  1.
         11   -1    0    0    0    0 -0.00000000000E+00 -0.00000000000E+00 -0.45593999997E+02  0.45594000000E+02  0.51100000000E-03 0. -1.
    9900012    2    1    2    0    0 -0.93185928226E+01  0.14648822913E+02  0.70187163529E+01  0.72461372857E+02  0.69999742800E+02 0.  0.
         12    1    1    2    0    0  0.93185928226E+01 -0.14648822913E+02 -0.70187163529E+01  0.18726627143E+02  0.00000000000E+00 0. -1.
         11    1    3    3    0    0  0.45770748397E+01 -0.89996443944E+01  0.76788509354E+01  0.12684950345E+02  0.51100000000E-03 0. -1.
        -11    1    3    3    0    0  0.84153738975E+01  0.13033240304E+01  0.20206756760E+02  0.21927840532E+02  0.51100000000E-03 0.  1.
         12    1    3    3    0    0 -0.22311041560E+02  0.22345143277E+02 -0.20866891343E+02  0.37848581979E+02  0.00000000000E+00 0. -1.
</event>
<event>
 7    1  0.2684545E-013  0.7246157E+02  0.7816164E-02  0.1226708E+00
        -11   -1    0    0    0    0  0.00000000000E+00  0.00000000000E+00  0.45593999997E+02  0.45594000000E+02  0.51100000000E-03 0.  1.
         11   -1    0    0    0    0 -0.00000000000E+00 -0.00000000000E+00 -0.45593999997E+02  0.45594000000E+02  0.51100000000E-03 0. -1.
    9900012    2    1    2    0    0 -0.13781319181E+02  0.94375855456E+01  0.84667720667E+01  0.72461574593E+02  0.70000005599E+02 0.  0.
         12    1    1    2    0    0  0.13781319181E+02 -0.94375855456E+01 -0.84667720667E+01  0.18726425407E+02  0.00000000000E+00 0. -1.
         11    1    3    3    0    0  0.16461302534E+01  0.17077864363E+02 -0.12460747761E+02  0.21204561562E+02  0.51100000000E-03 0. -1.
        -11    1    3    3    0    0 -0.14792440014E+02  0.16628101703E+02  0.73295259218E+01  0.23431431845E+02  0.51100000000E-03 0.  1.
         12    1    3    3    0    0 -0.63500942103E+00 -0.24268380520E+02  0.13597993906E+02  0.27825581186E+02  0.00000000000E+00 0. -1.
</event>
<event>
 7    1  0.2684545E-013  0.7246158E+02  0.7816164E-02  0.1226708E+00
        -11   -1    0    0    0    0  0.00000000000E+00  0.00000000000E+00  0.45593999997E+02  0.45594000000E+02  0.51100000000E-03 0.  1.
         11   -1    0    0    0    0 -0.00000000000E+00 -0.00000000000E+00 -0.45593999997E+02  0.45594000000E+02  0.51100000000E-03 0. -1.
    9900012    2    1    2    0    0  0.99084138254E+01 -0.14692513200E+02  0.60524439260E+01  0.72461583200E+02  0.70000016813E+02 0.  0.
         12    1    1    2    0    0 -0.99084138254E+01  0.14692513200E+02 -0.60524439260E+01  0.18726416800E+02  0.00000000000E+00 0. -1.
         11    1    3    3    0    0  0.14909699717E+01  0.62005440399E+01 -0.18448779516E+01  0.66387734383E+01  0.51100000000E-03 0. -1.
        -11    1    3    3    0    0  0.33294199401E+02 -0.11073468560E+02 -0.61361429596E+01  0.35619905535E+02  0.51100000000E-03 0.  1.
        -12    1    3    3    0    0 -0.24876755547E+02 -0.98195886803E+01  0.14033464837E+02  0.30202904227E+02  0.00000000000E+00 0.  1.
</event>
<event>
 7    1  0.2684545E-013  0.7246160E+02  0.7816164E-02  0.1226708E+00
        -11   -1    0    0    0    0  0.00000000000E+00  0.00000000000E+00  0.45593999997E+02  0.45594000000E+02  0.51100000000E-03 0. -1.
         11   -1    0    0    0    0 -0.00000000000E+00 -0.00000000000E+00 -0.45593999997E+02  0.45594000000E+02  0.51100000000E-03 0.  1.
    9900012    2    1    2    0    0 -0.12329497802E+02  0.10258735644E+02 -0.96653959910E+01  0.72461600113E+02  0.70000038845E+02 0.  0.
         12    1    1    2    0    0  0.12329497802E+02 -0.10258735644E+02  0.96653959910E+01  0.18726399887E+02  0.00000000000E+00 0. -1.
         11    1    3    3    0    0 -0.18868687991E+00  0.45566647222E+01 -0.18450092756E+01  0.49196397854E+01  0.51100000000E-03 0. -1.
        -11    1    3    3    0    0 -0.61654947929E+01 -0.16712962000E+02 -0.30358078809E+02  0.35198712677E+02  0.51100000000E-03 0.  1.
         12    1    3    3    0    0 -0.59753161292E+01  0.22415032921E+02  0.22537692094E+02  0.32343247651E+02  0.00000000000E+00 0. -1.
</event>
<event>
 7    1  0.2684545E-013  0.7246157E+02  0.7816164E-02  0.1226708E+00
        -11   -1    0    0    0    0  0.00000000000E+00  0.00000000000E+00  0.45593999997E+02  0.45594000000E+02  0.51100000000E-03 0. -1.
         11   -1    0    0    0    0 -0.00000000000E+00 -0.00000000000E+00 -0.45593999997E+02  0.45594000000E+02  0.51100000000E-03 0.  1.
    9900012    2    1    2    0    0  0.11395786830E+01 -0.13285595200E+02  0.13148142391E+02  0.72461566070E+02  0.69999994497E+02 0.  0.
         12    1    1    2    0    0 -0.11395786830E+01  0.13285595200E+02 -0.13148142391E+02  0.18726433930E+02  0.00000000000E+00 0. -1.
         11    1    3    3    0    0  0.82196305769E+01  0.18096575960E+02  0.27882357047E+02  0.34241410938E+02  0.51100000000E-03 0. -1.
        -11    1    3    3    0    0 -0.40886199428E+01 -0.11543131707E+01  0.42939741793E+00  0.42700859870E+01  0.51100000000E-03 0.  1.
        -12    1    3    3    0    0 -0.29914319512E+01 -0.30227857990E+02 -0.15163612073E+02  0.33950069144E+02  0.00000000000E+00 0.  1.
</event>
<event>
 7    1  0.2684545E-013  0.7246151E+02  0.7816164E-02  0.1226708E+00
        -11   -1    0    0    0    0  0.00000000000E+00  0.00000000000E+00  0.45593999997E+02  0.45594000000E+02  0.51100000000E-03 0.  1.
         11   -1    0    0    0    0 -0.00000000000E+00 -0.00000000000E+00 -0.45593999997E+02  0.45594000000E+02  0.51100000000E-03 0. -1.
    9900012    2    1    2    0    0  0.80824609236E+00 -0.18619839621E+02  0.18248035376E+01  0.72461505474E+02  0.69999915560E+02 0.  0.
         12    1    1    2    0    0 -0.80824609236E+00  0.18619839621E+02 -0.18248035376E+01  0.18726494526E+02  0.00000000000E+00 0. -1.
         11    1    3    3    0    0 -0.93613454407E+01 -0.11610520559E+02 -0.12350254818E+02  0.19364084550E+02  0.51100000000E-03 0. -1.
        -11    1    3    3    0    0 -0.67901120395E+01 -0.25286286732E+02  0.84877842522E+01  0.27523524483E+02  0.51100000000E-03 0.  1.
        -12    1    3    3    0    0  0.16959703573E+02  0.18276967670E+02  0.56872741036E+01  0.25573896441E+02  0.00000000000E+00 0.  1.
</event>
<event>
 7    1  0.2684545E-013  0.7246160E+02  0.7816164E-02  0.1226708E+00
        -11   -1    0    0    0    0  0.00000000000E+00  0.00000000000E+00  0.45593999997E+02  0.45594000000E+02  0.51100000000E-03 0. -1.
         11   -1    0    0    0    0 -0.00000000000E+00 -0.00000000000E+00 -0.45593999997E+02  0.45594000000E+02  0.51100000000E-03 0.  1.
    9900012    2    1    2    0    0 -0.16536288780E+02 -0.65376622586E+01 -0.58726776111E+01  0.72461595734E+02  0.70000033140E+02 0.  0.
         12    1    1    2    0    0  0.16536288780E+02  0.65376622586E+01  0.58726776111E+01  0.18726404266E+02  0.00000000000E+00 0. -1.
         11    1    3    3    0    0 -0.19403483674E+02 -0.10344295659E+02 -0.52943587756E+01  0.22617026031E+02  0.51100000000E-03 0. -1.
        -11    1    3    3    0    0 -0.60019413409E+00 -0.22325011064E+02 -0.55658856805E+01  0.23016199419E+02  0.51100000000E-03 0.  1.
         12    1    3    3    0    0  0.34673890287E+01  0.26131644464E+02  0.49875668450E+01  0.26828370284E+02  0.00000000000E+00 0. -1.
</event>
<event>
 7    1  0.2684545E-013  0.7246160E+02  0.7816164E-02  0.1226708E+00
        -11   -1    0    0    0    0  0.00000000000E+00  0.00000000000E+00  0.45593999997E+02  0.45594000000E+02  0.51100000000E-03 0. -1.
         11   -1    0    0    0    0 -0.00000000000E+00 -0.00000000000E+00 -0.45593999997E+02  0.45594000000E+02  0.51100000000E-03 0.  1.
    9900012    2    1    2    0    0  0.44678635441E+00 -0.16623610545E+02 -0.86101073457E+01  0.72461601678E+02  0.70000040884E+02 0.  0.
         12    1    1    2    0    0 -0.44678635441E+00  0.16623610545E+02  0.86101073457E+01  0.18726398322E+02  0.00000000000E+00 0. -1.
         11    1    3    3    0    0 -0.41715480755E+00 -0.38508846261E+01  0.17897672949E+02  0.18312018670E+02  0.51100000000E-03 0. -1.
        -11    1    3    3    0    0  0.92949418176E+00  0.17162327774E+02 -0.11336902382E+02  0.20589677266E+02  0.51100000000E-03 0.  1.
        -12    1    3    3    0    0 -0.65553019790E-01 -0.29935053693E+02 -0.15170877913E+02  0.33559905742E+02  0.00000000000E+00 0.  1.
</event>
<event>
 7    1  0.2684545E-013  0.7246156E+02  0.7816164E-02  0.1226708E+00
        -11   -1    0    0    0    0  0.00000000000E+00  0.00000000000E+00  0.45593999997E+02  0.45594000000E+02  0.51100000000E-03 0.  1.
         11   -1    0    0    0    0 -0.00000000000E+00 -0.00000000000E+00 -0.45593999997E+02  0.45594000000E+02  0.51100000000E-03 0. -1.
    9900012    2    1    2    0    0  0.16143675922E+02 -0.73259008697E+01  0.60326057418E+01  0.72461563397E+02  0.69999991015E+02 0.  0.
         12    1    1    2    0    0 -0.16143675922E+02  0.73259008697E+01 -0.60326057418E+01  0.18726436603E+02  0.00000000000E+00 0. -1.
         11    1    3    3    0    0  0.23504533842E+02  0.10816795224E+02 -0.22427100037E+02  0.34240925607E+02  0.51100000000E-03 0. -1.
        -11    1    3    3    0    0  0.27144678830E+01 -0.56033636224E+01  0.87354432557E+00  0.62872171684E+01  0.51100000000E-03 0.  1.
        -12    1    3    3    0    0 -0.10075325803E+02 -0.12539332471E+02  0.27586161454E+02  0.31933420622E+02  0.00000000000E+00 0.  1.
</event>
<event>
 7    1  0.2684545E-013  0.7246155E+02  0.7816164E-02  0.1226708E+00
        -11   -1    0    0    0    0  0.00000000000E+00  0.00000000000E+00  0.45593999997E+02  0.45594000000E+02  0.51100000000E-03 0.  1.
         11   -1    0    0    0    0 -0.00000000000E+00 -0.00000000000E+00 -0.45593999997E+02  0.45594000000E+02  0.51100000000E-03 0. -1.
    9900012    2    1    2    0    0 -0.12190280233E+02 -0.12642827869E+02  0.64989295417E+01  0.72461545080E+02  0.69999967154E+02 0.  0.
         12    1    1    2    0    0  0.12190280233E+02  0.12642827869E+02 -0.64989295417E+01  0.18726454920E+02  0.00000000000E+00 0. -1.
         11    1    3    3    0    0 -0.83202079804E+01  0.14884750391E+02  0.11520833682E+02  0.20579389302E+02  0.51100000000E-03 0. -1.
        -11    1    3    3    0    0  0.19833787964E+02 -0.11624391620E+02 -0.38841317142E+01  0.23315061762E+02  0.51100000000E-03 0.  1.
         12    1    3    3    0    0 -0.23703860216E+02 -0.15903186640E+02 -0.11377724263E+01  0.28567094016E+02  0.00000000000E+00 0. -1.
</event>
<event>
 7    1  0.2684545E-013  0.7246160E+02  0.7816164E-02  0.1226708E+00
        -11   -1    0    0    0    0  0.00000000000E+00  0.00000000000E+00  0.45593999997E+02  0.45594000000E+02  0.51100000000E-03 0.  1.
         11   -1    0    0    0    0 -0.00000000000E+00 -0.00000000000E+00 -0.45593999997E+02  0.45594000000E+02  0.51100000000E-03 0. -1.
    9900012    2    1    2    0    0 -0.11988547455E+02  0.13316033775E+02 -0.54438974790E+01  0.72461600310E+02  0.70000039101E+02 0.  0.
         12    1    1    2    0    0  0.11988547455E+02 -0.13316033775E+02  0.54438974790E+01  0.18726399690E+02  0.00000000000E+00 0. -1.
         11    1    3    3    0    0  0.55810865732E+01  0.12634069470E+01  0.31232605698E+01  0.65191626225E+01  0.51100000000E-03 0. -1.
        -11    1    3    3    0    0 -0.44190226543E+01  0.84605858109E+01 -0.34958485517E+02  0.36238170255E+02  0.51100000000E-03 0.  1.
        -12    1    3    3    0    0 -0.13150611374E+02  0.35920410173E+01  0.26391327468E+02  0.29704267433E+02  0.00000000000E+00 0.  1.
</event>
<event>
 7    1  0.2684545E-013  0.7246199E+02  0.7816164E-02  0.1226707E+00
        -11   -1    0    0    0    0  0.00000000000E+00  0.00000000000E+00  0.45593999997E+02  0.45594000000E+02  0.51100000000E-03 0. -1.
         11   -1    0    0    0    0 -0.00000000000E+00 -0.00000000000E+00 -0.45593999997E+02  0.45594000000E+02  0.51100000000E-03 0.  1.
    9900012    2    1    2    0    0 -0.92661469231E+01  0.52995132185E+01 -0.15385616338E+02  0.72461988432E+02  0.70000544699E+02 0.  0.
         12    1    1    2    0    0  0.92661469231E+01 -0.52995132185E+01  0.15385616338E+02  0.18726011568E+02  0.00000000000E+00 0. -1.
         11    1    3    3    0    0 -0.39861182886E+01  0.43157180791E+00  0.87831050139E+01  0.96549638623E+01  0.51100000000E-03 0. -1.
        -11    1    3    3    0    0  0.14924621569E+02  0.20313805895E+02 -0.27329265961E+02  0.37179077680E+02  0.51100000000E-03 0.  1.
         12    1    3    3    0    0 -0.20204650204E+02 -0.15445864485E+02  0.31605446091E+01  0.25627946889E+02  0.00000000000E+00 0. -1.
</event>
<event>
 7    1  0.2684545E-013  0.7246155E+02  0.7816164E-02  0.1226708E+00
        -11   -1    0    0    0    0  0.00000000000E+00  0.00000000000E+00  0.45593999997E+02  0.45594000000E+02  0.51100000000E-03 0. -1.
         11   -1    0    0    0    0 -0.00000000000E+00 -0.00000000000E+00 -0.45593999997E+02  0.45594000000E+02  0.51100000000E-03 0.  1.
    9900012    2    1    2    0    0 -0.14747709729E+02 -0.61739281225E+01 -0.97502549968E+01  0.72461553375E+02  0.69999977959E+02 0.  0.
         12    1    1    2    0    0  0.14747709729E+02  0.61739281225E+01  0.97502549968E+01  0.18726446625E+02  0.00000000000E+00 0. -1.
         11    1    3    3    0    0 -0.11529915314E+02 -0.71677477137E+01  0.10088908578E+02  0.16914539042E+02  0.51100000000E-03 0. -1.
        -11    1    3    3    0    0  0.13405972208E+02 -0.17369311666E+02  0.26376789846E+01  0.22099104716E+02  0.51100000000E-03 0.  1.
         12    1    3    3    0    0 -0.16623766622E+02  0.18363131257E+02 -0.22476842560E+02  0.33447909617E+02  0.00000000000E+00 0. -1.
</event>
<event>
 7    1  0.2684545E-013  0.7246158E+02  0.7816164E-02  0.1226708E+00
        -11   -1    0    0    0    0  0.00000000000E+00  0.00000000000E+00  0.45593999997E+02  0.45594000000E+02  0.51100000000E-03 0. -1.
         11   -1    0    0    0    0 -0.00000000000E+00 -0.00000000000E+00 -0.45593999997E+02  0.45594000000E+02  0.51100000000E-03 0.  1.
    9900012    2    1    2    0    0  0.10391483358E+02 -0.91957506440E+01 -0.12575133906E+02  0.72461581522E+02  0.70000014626E+02 0.  0.
         12    1    1    2    0    0 -0.10391483358E+02  0.91957506440E+01  0.12575133906E+02  0.18726418478E+02  0.00000000000E+00 0. -1.
         11    1    3    3    0    0  0.86381785463E+01 -0.15590987957E+02 -0.11928732258E+02  0.21447416805E+02  0.51100000000E-03 0. -1.
        -11    1    3    3    0    0  0.15243716072E+02 -0.84169898653E+01 -0.17607710026E+02  0.24763845636E+02  0.51100000000E-03 0.  1.
         12    1    3    3    0    0 -0.13490411261E+02  0.14812227178E+02  0.16961308378E+02  0.26250319081E+02  0.00000000000E+00 0. -1.
</event>
<event>
 7    1  0.2684545E-013  0.7246196E+02  0.7816164E-02  0.1226707E+00
        -11   -1    0    0    0    0  0.00000000000E+00  0.00000000000E+00  0.45593999997E+02  0.45594000000E+02  0.51100000000E-03 0.  1.
         11   -1    0    0    0    0 -0.00000000000E+00 -0.00000000000E+00 -0.45593999997E+02  0.45594000000E+02  0.51100000000E-03 0. -1.
    9900012    2    1    2    0    0  0.12733583027E+02 -0.12254322260E+02 -0.61929035309E+01  0.72461959177E+02  0.70000506589E+02 0.  0.
         12    1    1    2    0    0 -0.12733583027E+02  0.12254322260E+02  0.61929035309E+01  0.18726040823E+02  0.00000000000E+00 0. -1.
         11    1    3    3    0    0  0.15724044721E+02  0.11896803910E+02 -0.59321796634E+01  0.20590538640E+02  0.51100000000E-03 0. -1.
        -11    1    3    3    0    0  0.15893224742E+02 -0.28253661839E+01  0.12736044984E+02  0.20561715125E+02  0.51100000000E-03 0.  1.
         12    1    3    3    0    0 -0.18883686435E+02 -0.21325759986E+02 -0.12996768852E+02  0.31309705412E+02  0.00000000000E+00 0. -1.
</event>
<event>
 7    1  0.2684545E-013  0.7246166E+02  0.7816164E-02  0.1226708E+00
        -11   -1    0    0    0    0  0.00000000000E+00  0.00000000000E+00  0.45593999997E+02  0.45594000000E+02  0.51100000000E-03 0. -1.
         11   -1    0    0    0    0 -0.00000000000E+00 -0.00000000000E+00 -0.45593999997E+02  0.45594000000E+02  0.51100000000E-03 0.  1.
    9900012    2    1    2    0    0  0.10451077110E+02 -0.10291673101E+02 -0.11641835992E+02  0.72461657771E+02  0.70000113955E+02 0.  0.
         12    1    1    2    0    0 -0.10451077110E+02  0.10291673101E+02  0.11641835992E+02  0.18726342229E+02  0.00000000000E+00 0. -1.
         11    1    3    3    0    0  0.12126313221E+02 -0.39869504361E+01 -0.73776260800E+01  0.14743561746E+02  0.51100000000E-03 0. -1.
        -11    1    3    3    0    0  0.48834507984E+01 -0.55609817894E+01 -0.30128834653E+02  0.31024494968E+02  0.51100000000E-03 0.  1.
         12    1    3    3    0    0 -0.65586869091E+01 -0.74374087591E+00  0.25864624741E+02  0.26693601058E+02  0.00000000000E+00 0. -1.
</event>
<event>
 7    1  0.2684545E-013  0.7246154E+02  0.7816164E-02  0.1226708E+00
        -11   -1    0    0    0    0  0.00000000000E+00  0.00000000000E+00  0.45593999997E+02  0.45594000000E+02  0.51100000000E-03 0. -1.
         11   -1    0    0    0    0 -0.00000000000E+00 -0.00000000000E+00 -0.45593999997E+02  0.45594000000E+02  0.51100000000E-03 0.  1.
    9900012    2    1    2    0    0  0.17780572529E+02  0.45139500709E+01 -0.37624166623E+01  0.72461540542E+02  0.69999961241E+02 0.  0.
         12    1    1    2    0    0 -0.17780572529E+02 -0.45139500709E+01  0.37624166623E+01  0.18726459458E+02  0.00000000000E+00 0. -1.
         11    1    3    3    0    0  0.90276784611E+01  0.14587681205E+02  0.48900877604E+01  0.17838508343E+02  0.51100000000E-03 0. -1.
        -11    1    3    3    0    0  0.28364564860E+02  0.54533027663E+01 -0.56209462852E+01  0.29425874467E+02  0.51100000000E-03 0.  1.
        -12    1    3    3    0    0 -0.19611670792E+02 -0.15527033900E+02 -0.30315581375E+01  0.25197157731E+02  0.00000000000E+00 0.  1.
</event>
<event>
 7    1  0.2684545E-013  0.7246158E+02  0.7816164E-02  0.1226708E+00
        -11   -1    0    0    0    0  0.00000000000E+00  0.00000000000E+00  0.45593999997E+02  0.45594000000E+02  0.51100000000E-03 0. -1.
         11   -1    0    0    0    0 -0.00000000000E+00 -0.00000000000E+00 -0.45593999997E+02  0.45594000000E+02  0.51100000000E-03 0.  1.
    9900012    2    1    2    0    0 -0.17383777655E+02 -0.33349376342E+01 -0.61123751806E+01  0.72461583767E+02  0.70000017551E+02 0.  0.
         12    1    1    2    0    0  0.17383777655E+02  0.33349376342E+01  0.61123751806E+01  0.18726416233E+02  0.00000000000E+00 0. -1.
         11    1    3    3    0    0  0.95127327881E+01 -0.26925327432E-02 -0.40970321940E+01  0.10357498028E+02  0.51100000000E-03 0. -1.
        -11    1    3    3    0    0 -0.30696969782E+02  0.20468002977E+02  0.44176742056E+01  0.37158564899E+02  0.51100000000E-03 0.  1.
         12    1    3    3    0    0  0.38004593389E+01 -0.23800248079E+02 -0.64330171921E+01  0.24945520840E+02  0.00000000000E+00 0. -1.
</event>
<event>
 7    1  0.2684545E-013  0.7246156E+02  0.7816164E-02  0.1226708E+00
        -11   -1    0    0    0    0  0.00000000000E+00  0.00000000000E+00  0.45593999997E+02  0.45594000000E+02  0.51100000000E-03 0. -1.
         11   -1    0    0    0    0 -0.00000000000E+00 -0.00000000000E+00 -0.45593999997E+02  0.45594000000E+02  0.51100000000E-03 0.  1.
    9900012    2    1    2    0    0  0.14858429219E+02  0.64216701875E+01 -0.94164048540E+01  0.72461562880E+02  0.69999990341E+02 0.  0.
         12    1    1    2    0    0 -0.14858429219E+02 -0.64216701875E+01  0.94164048540E+01  0.18726437120E+02  0.00000000000E+00 0. -1.
         11    1    3    3    0    0 -0.20710335708E+02 -0.97772336084E+01  0.30163864947E+01  0.23100019262E+02  0.51100000000E-03 0. -1.
        -11    1    3    3    0    0 -0.25501726851E+01  0.47707118121E+01  0.35569174593E+01  0.64741589408E+01  0.51100000000E-03 0.  1.
        -12    1    3    3    0    0  0.38118937612E+02  0.11428191984E+02 -0.15989708808E+02  0.42887384677E+02  0.00000000000E+00 0.  1.
</event>
<event>
 7    1  0.2684545E-013  0.7246160E+02  0.7816164E-02  0.1226708E+00
        -11   -1    0    0    0    0  0.00000000000E+00  0.00000000000E+00  0.45593999997E+02  0.45594000000E+02  0.51100000000E-03 0. -1.
         11   -1    0    0    0    0 -0.00000000000E+00 -0.00000000000E+00 -0.45593999997E+02  0.45594000000E+02  0.51100000000E-03 0.  1.
    9900012    2    1    2    0    0 -0.14612203106E+02  0.47173413115E+01 -0.10719524524E+02  0.72461601663E+02  0.70000040863E+02 0.  0.
         12    1    1    2    0    0  0.14612203106E+02 -0.47173413115E+01  0.10719524524E+02  0.18726398337E+02  0.00000000000E+00 0. -1.
         11    1    3    3    0    0 -0.31028078923E+02 -0.15693890247E+02  0.11859108161E+01  0.34791468171E+02  0.51100000000E-03 0. -1.
        -11    1    3    3    0    0  0.11374158071E+02 -0.27571380299E+01 -0.15833762784E+01  0.11810180466E+02  0.51100000000E-03 0.  1.
        -12    1    3    3    0    0  0.50417177459E+01  0.23168369588E+02 -0.10322059062E+02  0.25859953026E+02  0.00000000000E+00 0.  1.
</event>
<event>
 7    1  0.2684545E-013  0.7246155E+02  0.7816164E-02  0.1226708E+00
        -11   -1    0    0    0    0  0.00000000000E+00  0.00000000000E+00  0.45593999997E+02  0.45594000000E+02  0.51100000000E-03 0.  1.
         11   -1    0    0    0    0 -0.00000000000E+00 -0.00000000000E+00 -0.45593999997E+02  0.45594000000E+02  0.51100000000E-03 0. -1.
    9900012    2    1    2    0    0 -0.11705112064E+02  0.14474674659E+02  0.20381630091E+01  0.72461549098E+02  0.69999972388E+02 0.  0.
         12    1    1    2    0    0  0.11705112064E+02 -0.14474674659E+02 -0.20381630091E+01  0.18726450902E+02  0.00000000000E+00 0. -1.
         11    1    3    3    0    0 -0.54653782900E+01  0.16528886694E+02  0.42907971010E+01  0.17930013809E+02  0.51100000000E-03 0. -1.
        -11    1    3    3    0    0 -0.10501030502E+02  0.10043092142E+02 -0.24712316679E+02  0.28667646176E+02  0.51100000000E-03 0.  1.
         12    1    3    3    0    0  0.42612967275E+01 -0.12097304176E+02  0.22459682587E+02  0.25863889113E+02  0.00000000000E+00 0. -1.
</event>
<event>
 7    1  0.2684545E-013  0.7246161E+02  0.7816164E-02  0.1226708E+00
        -11   -1    0    0    0    0  0.00000000000E+00  0.00000000000E+00  0.45593999997E+02  0.45594000000E+02  0.51100000000E-03 0.  1.
         11   -1    0    0    0    0 -0.00000000000E+00 -0.00000000000E+00 -0.45593999997E+02  0.45594000000E+02  0.51100000000E-03 0. -1.
    9900012    2    1    2    0    0 -0.84922809190E+01 -0.11679077319E+02  0.11923009337E+02  0.72461605956E+02  0.70000046456E+02 0.  0.
         12    1    1    2    0    0  0.84922809190E+01  0.11679077319E+02 -0.11923009337E+02  0.18726394044E+02  0.00000000000E+00 0. -1.
         11    1    3    3    0    0 -0.16859182452E+01 -0.91585717358E+01  0.13270270139E+02  0.16211780482E+02  0.51100000000E-03 0. -1.
        -11    1    3    3    0    0  0.21283521686E+02  0.90398419813E+01 -0.91819317525E+01  0.24880010237E+02  0.51100000000E-03 0.  1.
         12    1    3    3    0    0 -0.28089884360E+02 -0.11560347565E+02  0.78346709509E+01  0.31369815238E+02  0.00000000000E+00 0. -1.
</event>
<event>
 7    1  0.2684545E-013  0.7246157E+02  0.7816164E-02  0.1226708E+00
        -11   -1    0    0    0    0  0.00000000000E+00  0.00000000000E+00  0.45593999997E+02  0.45594000000E+02  0.51100000000E-03 0.  1.
         11   -1    0    0    0    0 -0.00000000000E+00 -0.00000000000E+00 -0.45593999997E+02  0.45594000000E+02  0.51100000000E-03 0. -1.
    9900012    2    1    2    0    0 -0.51866697377E+00 -0.65310798739E+01  0.17542954525E+02  0.72461567525E+02  0.69999996393E+02 0.  0.
         12    1    1    2    0    0  0.51866697377E+00  0.65310798739E+01 -0.17542954525E+02  0.18726432475E+02  0.00000000000E+00 0. -1.
         11    1    3    3    0    0 -0.93616708505E+01 -0.99233262463E+01  0.73535922026E+01  0.15498019340E+02  0.51100000000E-03 0. -1.
        -11    1    3    3    0    0 -0.23010587207E+02  0.68352149670E+01  0.41659062637E+01  0.24363129161E+02  0.51100000000E-03 0.  1.
         12    1    3    3    0    0  0.31853591084E+02 -0.34429685945E+01  0.60234560590E+01  0.32600419025E+02  0.00000000000E+00 0. -1.
</event>
<event>
 7    1  0.2684545E-013  0.7246164E+02  0.7816164E-02  0.1226708E+00
        -11   -1    0    0    0    0  0.00000000000E+00  0.00000000000E+00  0.45593999997E+02  0.45594000000E+02  0.51100000000E-03 0. -1.
         11   -1    0    0    0    0 -0.00000000000E+00 -0.00000000000E+00 -0.45593999997E+02  0.45594000000E+02  0.51100000000E-03 0.  1.
    9900012    2    1    2    0    0 -0.18710943655E+02 -0.70116325623E+00 -0.29231785076E+00  0.72461641782E+02  0.70000093126E+02 0.  0.
         12    1    1    2    0    0  0.18710943655E+02  0.70116325623E+00  0.29231785076E+00  0.18726358218E+02  0.00000000000E+00 0. -1.
         11    1    3    3    0    0 -0.34930779003E+01 -0.59474179144E+01 -0.63525808072E+01  0.93770281134E+01  0.51100000000E-03 0.  1.
        -11    1    3    3    0    0  0.15344655988E+02  0.22315506325E+02  0.73264930353E+01  0.28055619587E+02  0.51100000000E-03 0. -1.
         12    1    3    3    0    0 -0.30562521743E+02 -0.17069251667E+02 -0.12662300789E+01  0.35028994082E+02  0.00000000000E+00 0. -1.
</event>
<event>
 7    1  0.2684545E-013  0.7246158E+02  0.7816164E-02  0.1226708E+00
        -11   -1    0    0    0    0  0.00000000000E+00  0.00000000000E+00  0.45593999997E+02  0.45594000000E+02  0.51100000000E-03 0. -1.
         11   -1    0    0    0    0 -0.00000000000E+00 -0.00000000000E+00 -0.45593999997E+02  0.45594000000E+02  0.51100000000E-03 0.  1.
    9900012    2    1    2    0    0 -0.82531865615E+01  0.31674436883E+01 -0.16508509530E+02  0.72461583502E+02  0.70000017206E+02 0.  0.
         12    1    1    2    0    0  0.82531865615E+01 -0.31674436883E+01  0.16508509530E+02  0.18726416498E+02  0.00000000000E+00 0. -1.
         11    1    3    3    0    0  0.11153945661E+02 -0.10500680167E+01 -0.12710879664E+02  0.16943423761E+02  0.51100000000E-03 0. -1.
        -11    1    3    3    0    0 -0.21386335736E+02 -0.51711371381E+01 -0.24360980631E+02  0.32826413040E+02  0.51100000000E-03 0.  1.
         12    1    3    3    0    0  0.19792035137E+01  0.93886488431E+01  0.20563350765E+02  0.22691746701E+02  0.00000000000E+00 0. -1.
</event>
<event>
 7    1  0.2684545E-013  0.7246174E+02  0.7816164E-02  0.1226708E+00
        -11   -1    0    0    0    0  0.00000000000E+00  0.00000000000E+00  0.45593999997E+02  0.45594000000E+02  0.51100000000E-03 0.  1.
         11   -1    0    0    0    0 -0.00000000000E+00 -0.00000000000E+00 -0.45593999997E+02  0.45594000000E+02  0.51100000000E-03 0. -1.
    9900012    2    1    2    0    0  0.38971163251E+00 -0.22658280022E+01  0.18584591970E+02  0.72461737415E+02  0.70000217706E+02 0.  0.
         12    1    1    2    0    0 -0.38971163251E+00  0.22658280022E+01 -0.18584591970E+02  0.18726262585E+02  0.00000000000E+00 0. -1.
         11    1    3    3    0    0 -0.31043717160E+02  0.11775930918E+02  0.87310131563E+01  0.34330970203E+02  0.51100000000E-03 0. -1.
        -11    1    3    3    0    0  0.83104886959E+01  0.17325199756E+01  0.45849736407E+01  0.96482035311E+01  0.51100000000E-03 0.  1.
        -12    1    3    3    0    0  0.23122940097E+02 -0.15774278896E+02  0.52686051731E+01  0.28482563681E+02  0.00000000000E+00 0.  1.
</event>
<event>
 7    1  0.2684545E-013  0.7246157E+02  0.7816164E-02  0.1226708E+00
        -11   -1    0    0    0    0  0.00000000000E+00  0.00000000000E+00  0.45593999997E+02  0.45594000000E+02  0.51100000000E-03 0. -1.
         11   -1    0    0    0    0 -0.00000000000E+00 -0.00000000000E+00 -0.45593999997E+02  0.45594000000E+02  0.51100000000E-03 0.  1.
    9900012    2    1    2    0    0  0.76193822168E+01 -0.88599574338E+01 -0.14633020962E+02  0.72461571255E+02  0.70000001251E+02 0.  0.
         12    1    1    2    0    0 -0.76193822168E+01  0.88599574338E+01  0.14633020962E+02  0.18726428745E+02  0.00000000000E+00 0. -1.
         11    1    3    3    0    0 -0.32213688405E+01  0.79603002441E+01  0.70149497195E+01  0.11088422657E+02  0.51100000000E-03 0. -1.
        -11    1    3    3    0    0  0.13075513543E+02 -0.15676921597E+01 -0.37208124125E+02  0.39469877302E+02  0.51100000000E-03 0.  1.
         12    1    3    3    0    0 -0.22347624860E+01 -0.15252565518E+02  0.15560153444E+02  0.21903271296E+02  0.00000000000E+00 0. -1.
</event>
<event>
 7    1  0.2684545E-013  0.7246154E+02  0.7816164E-02  0.1226708E+00
        -11   -1    0    0    0    0  0.00000000000E+00  0.00000000000E+00  0.45593999997E+02  0.45594000000E+02  0.51100000000E-03 0.  1.
         11   -1    0    0    0    0 -0.00000000000E+00 -0.00000000000E+00 -0.45593999997E+02  0.45594000000E+02  0.51100000000E-03 0. -1.
    9900012    2    1    2    0    0  0.20457976884E+01 -0.17983889009E+02 -0.48036306137E+01  0.72461536929E+02  0.69999956536E+02 0.  0.
         12    1    1    2    0    0 -0.20457976884E+01  0.17983889009E+02  0.48036306137E+01  0.18726463071E+02  0.00000000000E+00 0. -1.
         11    1    3    3    0    0 -0.56902830614E+01  0.11613219571E+02 -0.29451647667E+00  0.12935723031E+02  0.51100000000E-03 0. -1.
        -11    1    3    3    0    0 -0.17925979707E+02 -0.27193582107E+02  0.29229733678E+01  0.32701306241E+02  0.51100000000E-03 0.  1.
         12    1    3    3    0    0  0.25662060457E+02 -0.24035264728E+01 -0.74320875048E+01  0.26824507658E+02  0.00000000000E+00 0. -1.
</event>
<event>
 7    1  0.2684545E-013  0.7246156E+02  0.7816164E-02  0.1226708E+00
        -11   -1    0    0    0    0  0.00000000000E+00  0.00000000000E+00  0.45593999997E+02  0.45594000000E+02  0.51100000000E-03 0.  1.
         11   -1    0    0    0    0 -0.00000000000E+00 -0.00000000000E+00 -0.45593999997E+02  0.45594000000E+02  0.51100000000E-03 0. -1.
    9900012    2    1    2    0    0  0.10559088648E+02  0.94381106142E+01  0.12251829692E+02  0.72461558377E+02  0.69999984476E+02 0.  0.
         12    1    1    2    0    0 -0.10559088648E+02 -0.94381106142E+01 -0.12251829692E+02  0.18726441623E+02  0.00000000000E+00 0. -1.
         11    1    3    3    0    0  0.72310394230E+01 -0.17383089037E+01  0.74979114104E+01  0.10560697172E+02  0.51100000000E-03 0. -1.
        -11    1    3    3    0    0  0.29472998320E+02  0.17005545006E+02  0.78932705582E+01  0.34930644301E+02  0.51100000000E-03 0.  1.
         12    1    3    3    0    0 -0.26144949095E+02 -0.58291254878E+01 -0.31393522766E+01  0.26970216904E+02  0.00000000000E+00 0. -1.
</event>
<event>
 7    1  0.2684545E-013  0.7246156E+02  0.7816164E-02  0.1226708E+00
        -11   -1    0    0    0    0  0.00000000000E+00  0.00000000000E+00  0.45593999997E+02  0.45594000000E+02  0.51100000000E-03 0. -1.
         11   -1    0    0    0    0 -0.00000000000E+00 -0.00000000000E+00 -0.45593999997E+02  0.45594000000E+02  0.51100000000E-03 0.  1.
    9900012    2    1    2    0    0 -0.70822881732E+01  0.14418404970E+02 -0.96244744506E+01  0.72461555701E+02  0.69999980989E+02 0.  0.
         12    1    1    2    0    0  0.70822881732E+01 -0.14418404970E+02  0.96244744506E+01  0.18726444299E+02  0.00000000000E+00 0. -1.
         11    1    3    3    0    0  0.43896727989E+01  0.17511672216E+01 -0.57282593661E+01  0.74262217544E+01  0.51100000000E-03 0. -1.
        -11    1    3    3    0    0  0.25934043348E+02  0.84072951253E+01 -0.11331326536E+01  0.27286282370E+02  0.51100000000E-03 0.  1.
         12    1    3    3    0    0 -0.37406004320E+02  0.42599426229E+01 -0.27630824309E+01  0.37749051576E+02  0.00000000000E+00 0. -1.
</event>
<event>
 7    1  0.2684545E-013  0.7246155E+02  0.7816164E-02  0.1226708E+00
        -11   -1    0    0    0    0  0.00000000000E+00  0.00000000000E+00  0.45593999997E+02  0.45594000000E+02  0.51100000000E-03 0.  1.
         11   -1    0    0    0    0 -0.00000000000E+00 -0.00000000000E+00 -0.45593999997E+02  0.45594000000E+02  0.51100000000E-03 0. -1.
    9900012    2    1    2    0    0  0.16188974920E+01 -0.11457313421E+01  0.18621128387E+02  0.72461549408E+02  0.69999972791E+02 0.  0.
         12    1    1    2    0    0 -0.16188974920E+01  0.11457313421E+01 -0.18621128387E+02  0.18726450592E+02  0.00000000000E+00 0. -1.
         11    1    3    3    0    0 -0.10267110099E+02 -0.25274518709E+02  0.53648263721E+01  0.27802809354E+02  0.51100000000E-03 0. -1.
        -11    1    3    3    0    0  0.20100331360E-01  0.33166484986E+01 -0.10444814125E+02  0.10958772908E+02  0.51100000000E-03 0.  1.
        -12    1    3    3    0    0  0.11865907259E+02  0.20812138868E+02  0.23701116139E+02  0.33699967145E+02  0.00000000000E+00 0.  1.
</event>
<event>
 7    1  0.2684545E-013  0.7246157E+02  0.7816164E-02  0.1226708E+00
        -11   -1    0    0    0    0  0.00000000000E+00  0.00000000000E+00  0.45593999997E+02  0.45594000000E+02  0.51100000000E-03 0.  1.
         11   -1    0    0    0    0 -0.00000000000E+00 -0.00000000000E+00 -0.45593999997E+02  0.45594000000E+02  0.51100000000E-03 0. -1.
    9900012    2    1    2    0    0 -0.86226769750E+01 -0.15989742085E+02  0.45449653602E+01  0.72461571609E+02  0.70000001713E+02 0.  0.
         12    1    1    2    0    0  0.86226769750E+01  0.15989742085E+02 -0.45449653602E+01  0.18726428391E+02  0.00000000000E+00 0. -1.
         11    1    3    3    0    0  0.26358451075E+01 -0.27624835905E+02 -0.23021947649E+02  0.36056751269E+02  0.51100000000E-03 0. -1.
        -11    1    3    3    0    0  0.21941141680E+01 -0.30949236206E+01  0.51598580307E+01  0.64044378643E+01  0.51100000000E-03 0.  1.
        -12    1    3    3    0    0 -0.13452636251E+02  0.14730017441E+02  0.22407054978E+02  0.30000382476E+02  0.00000000000E+00 0.  1.
</event>
<event>
 7    1  0.2684545E-013  0.7246151E+02  0.7816164E-02  0.1226708E+00
        -11   -1    0    0    0    0  0.00000000000E+00  0.00000000000E+00  0.45593999997E+02  0.45594000000E+02  0.51100000000E-03 0.  1.
         11   -1    0    0    0    0 -0.00000000000E+00 -0.00000000000E+00 -0.45593999997E+02  0.45594000000E+02  0.51100000000E-03 0. -1.
    9900012    2    1    2    0    0  0.12545008116E+01 -0.66130244973E+01  0.17474999482E+02  0.72461508813E+02  0.69999919909E+02 0.  0.
         12    1    1    2    0    0 -0.12545008116E+01  0.66130244973E+01 -0.17474999482E+02  0.18726491187E+02  0.00000000000E+00 0. -1.
         11    1    3    3    0    0 -0.24197333904E+01 -0.46396763404E+01  0.29612464738E+02  0.30071244975E+02  0.51100000000E-03 0. -1.
        -11    1    3    3    0    0 -0.65223791564E+01 -0.15724881680E+02 -0.17535564911E+02  0.24439913476E+02  0.51100000000E-03 0.  1.
         12    1    3    3    0    0  0.10196613358E+02  0.13751533523E+02  0.53980996553E+01  0.17950350362E+02  0.00000000000E+00 0. -1.
</event>
<event>
 7    1  0.2684545E-013  0.7246154E+02  0.7816164E-02  0.1226708E+00
        -11   -1    0    0    0    0  0.00000000000E+00  0.00000000000E+00  0.45593999997E+02  0.45594000000E+02  0.51100000000E-03 0.  1.
         11   -1    0    0    0    0 -0.00000000000E+00 -0.00000000000E+00 -0.45593999997E+02  0.45594000000E+02  0.51100000000E-03 0. -1.
    9900012    2    1    2    0    0 -0.23912291483E+01  0.25320647290E+01  0.18399751503E+02  0.72461543208E+02  0.69999964715E+02 0.  0.
         12    1    1    2    0    0  0.23912291483E+01 -0.25320647290E+01 -0.18399751503E+02  0.18726456792E+02  0.00000000000E+00 0. -1.
         11    1    3    3    0    0  0.35699970658E+01  0.18503305349E+01  0.14543088863E+01  0.42759346038E+01  0.51100000000E-03 0. -1.
        -11    1    3    3    0    0 -0.13357954824E+02  0.30978451796E+02  0.15052779513E+02  0.36941651345E+02  0.51100000000E-03 0.  1.
         12    1    3    3    0    0  0.73967286101E+01 -0.30296717602E+02  0.18926631038E+01  0.31243957259E+02  0.00000000000E+00 0. -1.
</event>
<event>
 7    1  0.2684545E-013  0.7246170E+02  0.7816164E-02  0.1226708E+00
        -11   -1    0    0    0    0  0.00000000000E+00  0.00000000000E+00  0.45593999997E+02  0.45594000000E+02  0.51100000000E-03 0. -1.
         11   -1    0    0    0    0 -0.00000000000E+00 -0.00000000000E+00 -0.45593999997E+02  0.45594000000E+02  0.51100000000E-03 0.  1.
    9900012    2    1    2    0    0  0.11718961363E+02 -0.10258997165E+02 -0.10396782919E+02  0.72461703694E+02  0.70000173778E+02 0.  0.
         12    1    1    2    0    0 -0.11718961363E+02  0.10258997165E+02  0.10396782919E+02  0.18726296306E+02  0.00000000000E+00 0. -1.
         11    1    3    3    0    0 -0.39101766927E+01 -0.11632757014E+01 -0.45184735691E+01  0.60876346623E+01  0.51100000000E-03 0. -1.
        -11    1    3    3    0    0  0.26341590141E+02 -0.10616264281E+02 -0.29157596694E+02  0.40703192549E+02  0.51100000000E-03 0.  1.
         12    1    3    3    0    0 -0.10712452085E+02  0.15205428180E+01  0.23279287345E+02  0.25670876483E+02  0.00000000000E+00 0. -1.
</event>
<event>
 7    1  0.2684545E-013  0.7246089E+02  0.7816164E-02  0.1226710E+00
        -11   -1    0    0    0    0  0.00000000000E+00  0.00000000000E+00  0.45593999997E+02  0.45594000000E+02  0.51100000000E-03 0. -1.
         11   -1    0    0    0    0 -0.00000000000E+00 -0.00000000000E+00 -0.45593999997E+02  0.45594000000E+02  0.51100000000E-03 0.  1.
    9900012    2    1    2    0    0  0.13865870243E+01  0.47974835955E+00 -0.18669540690E+02  0.72460893133E+02  0.69999117865E+02 0.  0.
         12    1    1    2    0    0 -0.13865870243E+01 -0.47974835955E+00  0.18669540690E+02  0.18727106867E+02  0.00000000000E+00 0. -1.
         11    1    3    3    0    0  0.57304056852E+01 -0.15249892098E+02  0.96482139154E+01  0.18933694577E+02  0.51100000000E-03 0. -1.
        -11    1    3    3    0    0  0.18372459151E+02  0.62502906747E+01 -0.19139794278E+02  0.27257019537E+02  0.51100000000E-03 0.  1.
        -12    1    3    3    0    0 -0.22716277811E+02  0.94793497830E+01 -0.91779603271E+01  0.26270179019E+02  0.00000000000E+00 0.  1.
</event>
<event>
 7    1  0.2684545E-013  0.7246157E+02  0.7816164E-02  0.1226708E+00
        -11   -1    0    0    0    0  0.00000000000E+00  0.00000000000E+00  0.45593999997E+02  0.45594000000E+02  0.51100000000E-03 0. -1.
         11   -1    0    0    0    0 -0.00000000000E+00 -0.00000000000E+00 -0.45593999997E+02  0.45594000000E+02  0.51100000000E-03 0.  1.
    9900012    2    1    2    0    0 -0.71211399150E+00  0.10505356468E+02 -0.15485787644E+02  0.72461568418E+02  0.69999997555E+02 0.  0.
         12    1    1    2    0    0  0.71211399150E+00 -0.10505356468E+02  0.15485787644E+02  0.18726431582E+02  0.00000000000E+00 0. -1.
         11    1    3    3    0    0  0.30351906491E+01  0.13099927448E+02  0.47893138011E+01  0.14274382941E+02  0.51100000000E-03 0. -1.
        -11    1    3    3    0    0  0.10610295025E+02  0.20711978035E+02 -0.20196062756E+02  0.30813071021E+02  0.51100000000E-03 0.  1.
        -12    1    3    3    0    0 -0.14357599665E+02 -0.23306549014E+02 -0.79038689187E-01  0.27374114455E+02  0.00000000000E+00 0.  1.
</event>
<event>
 7    1  0.2684545E-013  0.7246160E+02  0.7816164E-02  0.1226708E+00
        -11   -1    0    0    0    0  0.00000000000E+00  0.00000000000E+00  0.45593999997E+02  0.45594000000E+02  0.51100000000E-03 0. -1.
         11   -1    0    0    0    0 -0.00000000000E+00 -0.00000000000E+00 -0.45593999997E+02  0.45594000000E+02  0.51100000000E-03 0.  1.
    9900012    2    1    2    0    0  0.18553335161E+02 -0.14341573126E+01  0.20964373134E+01  0.72461598792E+02  0.70000037123E+02 0.  0.
         12    1    1    2    0    0 -0.18553335161E+02  0.14341573126E+01 -0.20964373134E+01  0.18726401208E+02  0.00000000000E+00 0. -1.
         11    1    3    3    0    0  0.23070165100E+01  0.19094722937E+02  0.94811397852E+01  0.21443478755E+02  0.51100000000E-03 0. -1.
        -11    1    3    3    0    0  0.26660087240E+01  0.44264594475E+01 -0.19469535694E+02  0.20143583746E+02  0.51100000000E-03 0.  1.
        -12    1    3    3    0    0  0.13580309927E+02 -0.24955339698E+02  0.12084833222E+02  0.30874536290E+02  0.00000000000E+00 0.  1.
</event>
<event>
 7    1  0.2684545E-013  0.7246162E+02  0.7816164E-02  0.1226708E+00
        -11   -1    0    0    0    0  0.00000000000E+00  0.00000000000E+00  0.45593999997E+02  0.45594000000E+02  0.51100000000E-03 0. -1.
         11   -1    0    0    0    0 -0.00000000000E+00 -0.00000000000E+00 -0.45593999997E+02  0.45594000000E+02  0.51100000000E-03 0.  1.
    9900012    2    1    2    0    0  0.17804927156E+02 -0.13065328559E+01  0.56528549216E+01  0.72461622136E+02  0.70000067533E+02 0.  0.
         12    1    1    2    0    0 -0.17804927156E+02  0.13065328559E+01 -0.56528549216E+01  0.18726377864E+02  0.00000000000E+00 0. -1.
         11    1    3    3    0    0  0.20773383809E+02 -0.81975435799E+01  0.95331041962E+01  0.24281953618E+02  0.51100000000E-03 0. -1.
        -11    1    3    3    0    0  0.14327615680E+02  0.18454415082E+02 -0.11477723031E+02  0.26030446276E+02  0.51100000000E-03 0.  1.
        -12    1    3    3    0    0 -0.17296072332E+02 -0.11563404358E+02  0.75974737565E+01  0.22149222242E+02  0.00000000000E+00 0.  1.
</event>
<event>
 7    1  0.2684545E-013  0.7246159E+02  0.7816164E-02  0.1226708E+00
        -11   -1    0    0    0    0  0.00000000000E+00  0.00000000000E+00  0.45593999997E+02  0.45594000000E+02  0.51100000000E-03 0. -1.
         11   -1    0    0    0    0 -0.00000000000E+00 -0.00000000000E+00 -0.45593999997E+02  0.45594000000E+02  0.51100000000E-03 0.  1.
    9900012    2    1    2    0    0  0.82516663970E+01  0.15995964988E+02 -0.51689149999E+01  0.72461586128E+02  0.70000020627E+02 0.  0.
         12    1    1    2    0    0 -0.82516663970E+01 -0.15995964988E+02  0.51689149999E+01  0.18726413872E+02  0.00000000000E+00 0. -1.
         11    1    3    3    0    0  0.11385925000E+02 -0.11091441422E+02  0.16651082840E+02  0.23019946154E+02  0.51100000000E-03 0. -1.
        -11    1    3    3    0    0 -0.19053887051E+01 -0.84691634529E+01 -0.29435487149E+01  0.91663359642E+01  0.51100000000E-03 0.  1.
        -12    1    3    3    0    0 -0.12288698981E+01  0.35556569862E+02 -0.18876449125E+02  0.40275304011E+02  0.00000000000E+00 0.  1.
</event>
<event>
 7    1  0.2684545E-013  0.7246159E+02  0.7816164E-02  0.1226708E+00
        -11   -1    0    0    0    0  0.00000000000E+00  0.00000000000E+00  0.45593999997E+02  0.45594000000E+02  0.51100000000E-03 0.  1.
         11   -1    0    0    0    0 -0.00000000000E+00 -0.00000000000E+00 -0.45593999997E+02  0.45594000000E+02  0.51100000000E-03 0. -1.
    9900012    2    1    2    0    0  0.10360712128E+02 -0.50085902845E+01  0.14773224612E+02  0.72461588227E+02  0.70000023361E+02 0.  0.
         12    1    1    2    0    0 -0.10360712128E+02  0.50085902845E+01 -0.14773224612E+02  0.18726411773E+02  0.00000000000E+00 0. -1.
         11    1    3    3    0    0  0.16648385476E+02 -0.11384406509E+02 -0.60240125407E+00  0.20177619732E+02  0.51100000000E-03 0. -1.
        -11    1    3    3    0    0  0.11966821028E+02  0.22089746197E+02  0.12393798816E+02  0.28013709892E+02  0.51100000000E-03 0.  1.
        -12    1    3    3    0    0 -0.18254494376E+02 -0.15713929973E+02  0.29818270502E+01  0.24270258603E+02  0.00000000000E+00 0.  1.
</event>
<event>
 7    1  0.2684545E-013  0.7246163E+02  0.7816164E-02  0.1226708E+00
        -11   -1    0    0    0    0  0.00000000000E+00  0.00000000000E+00  0.45593999997E+02  0.45594000000E+02  0.51100000000E-03 0.  1.
         11   -1    0    0    0    0 -0.00000000000E+00 -0.00000000000E+00 -0.45593999997E+02  0.45594000000E+02  0.51100000000E-03 0. -1.
    9900012    2    1    2    0    0 -0.10383928694E+02  0.13611399295E+02  0.75881991910E+01  0.72461630014E+02  0.70000077796E+02 0.  0.
         12    1    1    2    0    0  0.10383928694E+02 -0.13611399295E+02 -0.75881991910E+01  0.18726369986E+02  0.00000000000E+00 0. -1.
         11    1    3    3    0    0 -0.18286966046E+02 -0.39733161210E+01 -0.89166494178E-01  0.18713853668E+02  0.51100000000E-03 0. -1.
        -11    1    3    3    0    0 -0.18596304001E+02  0.18257500792E+02 -0.31046087387E+00  0.26062525662E+02  0.51100000000E-03 0.  1.
         12    1    3    3    0    0  0.26499341353E+02 -0.67278537655E+00  0.79878265590E+01  0.27685250684E+02  0.00000000000E+00 0. -1.
</event>
<event>
 7    1  0.2684545E-013  0.7246163E+02  0.7816164E-02  0.1226708E+00
        -11   -1    0    0    0    0  0.00000000000E+00  0.00000000000E+00  0.45593999997E+02  0.45594000000E+02  0.51100000000E-03 0.  1.
         11   -1    0    0    0    0 -0.00000000000E+00 -0.00000000000E+00 -0.45593999997E+02  0.45594000000E+02  0.51100000000E-03 0. -1.
    9900012    2    1    2    0    0 -0.11570537503E+02 -0.11906748898E+01  0.14675900978E+02  0.72461625169E+02  0.70000071484E+02 0.  0.
         12    1    1    2    0    0  0.11570537503E+02  0.11906748898E+01 -0.14675900978E+02  0.18726374831E+02  0.00000000000E+00 0. -1.
         11    1    3    3    0    0  0.11986010836E+02 -0.17551414736E+02 -0.46389451716E+01  0.21753997967E+02  0.51100000000E-03 0. -1.
        -11    1    3    3    0    0  0.63251686955E+01 -0.23670907093E+01  0.13322782458E+02  0.14936780448E+02  0.51100000000E-03 0.  1.
         12    1    3    3    0    0 -0.29881717034E+02  0.18727830555E+02  0.59920636912E+01  0.35770846754E+02  0.00000000000E+00 0. -1.
</event>
<event>
 7    1  0.2684545E-013  0.7246150E+02  0.7816164E-02  0.1226708E+00
        -11   -1    0    0    0    0  0.00000000000E+00  0.00000000000E+00  0.45593999997E+02  0.45594000000E+02  0.51100000000E-03 0. -1.
         11   -1    0    0    0    0 -0.00000000000E+00 -0.00000000000E+00 -0.45593999997E+02  0.45594000000E+02  0.51100000000E-03 0.  1.
    9900012    2    1    2    0    0  0.53646949387E+01 -0.17140306956E+02  0.53020547897E+01  0.72461498476E+02  0.69999906443E+02 0.  0.
         12    1    1    2    0    0 -0.53646949387E+01  0.17140306956E+02 -0.53020547897E+01  0.18726501524E+02  0.00000000000E+00 0. -1.
         11    1    3    3    0    0 -0.87113592147E+01 -0.77369317812E+01  0.23687930849E+02  0.26398218897E+02  0.51100000000E-03 0. -1.
        -11    1    3    3    0    0 -0.18118100603E+01 -0.20121598732E+02 -0.10654230637E+01  0.20231078019E+02  0.51100000000E-03 0.  1.
        -12    1    3    3    0    0  0.15887864214E+02  0.10718223557E+02 -0.17320452995E+02  0.25832201560E+02  0.00000000000E+00 0.  1.
</event>
<event>
 7    1  0.2684545E-013  0.7246153E+02  0.7816164E-02  0.1226708E+00
        -11   -1    0    0    0    0  0.00000000000E+00  0.00000000000E+00  0.45593999997E+02  0.45594000000E+02  0.51100000000E-03 0.  1.
         11   -1    0    0    0    0 -0.00000000000E+00 -0.00000000000E+00 -0.45593999997E+02  0.45594000000E+02  0.51100000000E-03 0. -1.
    9900012    2    1    2    0    0 -0.74321900964E+01 -0.12742903239E+02  0.11535240499E+02  0.72461526602E+02  0.69999943082E+02 0.  0.
         12    1    1    2    0    0  0.74321900964E+01  0.12742903239E+02 -0.11535240499E+02  0.18726473398E+02  0.00000000000E+00 0. -1.
         11    1    3    3    0    0  0.41372098758E+01  0.78910191144E+01 -0.20500265582E+01  0.91426088930E+01  0.51100000000E-03 0. -1.
        -11    1    3    3    0    0 -0.21654241765E+02 -0.80022283871E+00 -0.15541257255E+02  0.26666031207E+02  0.51100000000E-03 0.  1.
        -12    1    3    3    0    0  0.10084841792E+02 -0.19833699514E+02  0.29126524312E+02  0.36652886502E+02  0.00000000000E+00 0.  1.
</event>
<event>
 7    1  0.2684545E-013  0.7246161E+02  0.7816164E-02  0.1226708E+00
        -11   -1    0    0    0    0  0.00000000000E+00  0.00000000000E+00  0.45593999997E+02  0.45594000000E+02  0.51100000000E-03 0.  1.
         11   -1    0    0    0    0 -0.00000000000E+00 -0.00000000000E+00 -0.45593999997E+02  0.45594000000E+02  0.51100000000E-03 0. -1.
    9900012    2    1    2    0    0  0.62360850015E+01  0.16072468495E+02  0.73119446216E+01  0.72461613968E+02  0.70000056894E+02 0.  0.
         12    1    1    2    0    0 -0.62360850015E+01 -0.16072468495E+02 -0.73119446216E+01  0.18726386032E+02  0.00000000000E+00 0. -1.
         11    1    3    3    0    0 -0.14079305604E+02  0.25547282566E+02  0.55795368836E+00  0.29175362986E+02  0.51100000000E-03 0. -1.
        -11    1    3    3    0    0 -0.63467848826E+01 -0.97745054041E+00 -0.90894000871E+01  0.11128983876E+02  0.51100000000E-03 0.  1.
        -12    1    3    3    0    0  0.26662175488E+02 -0.84973635314E+01  0.15843391020E+02  0.32157267106E+02  0.00000000000E+00 0.  1.
</event>
<event>
 7    1  0.2684545E-013  0.7246156E+02  0.7816164E-02  0.1226708E+00
        -11   -1    0    0    0    0  0.00000000000E+00  0.00000000000E+00  0.45593999997E+02  0.45594000000E+02  0.51100000000E-03 0. -1.
         11   -1    0    0    0    0 -0.00000000000E+00 -0.00000000000E+00 -0.45593999997E+02  0.45594000000E+02  0.51100000000E-03 0.  1.
    9900012    2    1    2    0    0 -0.54595457150E+01 -0.15899753472E+02 -0.82505034447E+01  0.72461558614E+02  0.69999984785E+02 0.  0.
         12    1    1    2    0    0  0.54595457150E+01  0.15899753472E+02  0.82505034447E+01  0.18726441386E+02  0.00000000000E+00 0. -1.
         11    1    3    3    0    0 -0.19308236581E+02 -0.20457003589E+02  0.54160397145E+00  0.28135215138E+02  0.51100000000E-03 0. -1.
        -11    1    3    3    0    0 -0.38869523661E+01 -0.13472255207E+02  0.57476785906E+01  0.15154071021E+02  0.51100000000E-03 0.  1.
        -12    1    3    3    0    0  0.17735643232E+02  0.18029505324E+02 -0.14539786007E+02  0.29172272456E+02  0.00000000000E+00 0.  1.
</event>
<event>
 7    1  0.2684545E-013  0.7246158E+02  0.7816164E-02  0.1226708E+00
        -11   -1    0    0    0    0  0.00000000000E+00  0.00000000000E+00  0.45593999997E+02  0.45594000000E+02  0.51100000000E-03 0.  1.
         11   -1    0    0    0    0 -0.00000000000E+00 -0.00000000000E+00 -0.45593999997E+02  0.45594000000E+02  0.51100000000E-03 0. -1.
    9900012    2    1    2    0    0  0.17169720478E+02 -0.70852455511E+01  0.23830592486E+01  0.72461575430E+02  0.70000006690E+02 0.  0.
         12    1    1    2    0    0 -0.17169720478E+02  0.70852455511E+01 -0.23830592486E+01  0.18726424570E+02  0.00000000000E+00 0. -1.
         11    1    3    3    0    0  0.50004938636E+01 -0.61098458696E+00 -0.16691667039E+02  0.17435308711E+02  0.51100000000E-03 0. -1.
        -11    1    3    3    0    0  0.20386151933E+02  0.15610735449E+02  0.18150494343E+02  0.31444088428E+02  0.51100000000E-03 0.  1.
         12    1    3    3    0    0 -0.82169253192E+01 -0.22084996413E+02  0.92423194465E+00  0.23582178291E+02  0.00000000000E+00 0. -1.
</event>
<event>
 7    1  0.2684545E-013  0.7246162E+02  0.7816164E-02  0.1226708E+00
        -11   -1    0    0    0    0  0.00000000000E+00  0.00000000000E+00  0.45593999997E+02  0.45594000000E+02  0.51100000000E-03 0.  1.
         11   -1    0    0    0    0 -0.00000000000E+00 -0.00000000000E+00 -0.45593999997E+02  0.45594000000E+02  0.51100000000E-03 0. -1.
    9900012    2    1    2    0    0  0.42389705727E+01  0.11862239968E+02  0.13856251593E+02  0.72461619763E+02  0.70000064443E+02 0.  0.
         12    1    1    2    0    0 -0.42389705727E+01 -0.11862239968E+02 -0.13856251593E+02  0.18726380237E+02  0.00000000000E+00 0. -1.
         11    1    3    3    0    0 -0.20848433121E+02 -0.99522807527E+00  0.26435013847E+01  0.21038910199E+02  0.51100000000E-03 0. -1.
        -11    1    3    3    0    0  0.57033759697E+00 -0.77928295266E+00  0.21514900462E+02  0.21536562145E+02  0.51100000000E-03 0.  1.
        -12    1    3    3    0    0  0.24517066097E+02  0.13636750996E+02 -0.10302150254E+02  0.29886147419E+02  0.00000000000E+00 0.  1.
</event>
<event>
 7    1  0.2684545E-013  0.7246159E+02  0.7816164E-02  0.1226708E+00
        -11   -1    0    0    0    0  0.00000000000E+00  0.00000000000E+00  0.45593999997E+02  0.45594000000E+02  0.51100000000E-03 0.  1.
         11   -1    0    0    0    0 -0.00000000000E+00 -0.00000000000E+00 -0.45593999997E+02  0.45594000000E+02  0.51100000000E-03 0. -1.
    9900012    2    1    2    0    0 -0.17688216217E+02  0.61383093759E+01 -0.35588798817E+00  0.72461588406E+02  0.70000023594E+02 0.  0.
         12    1    1    2    0    0  0.17688216217E+02 -0.61383093759E+01  0.35588798817E+00  0.18726411594E+02  0.00000000000E+00 0. -1.
         11    1    3    3    0    0  0.48660856361E+01 -0.11067189113E+02 -0.18156286852E+02  0.21813120290E+02  0.51100000000E-03 0. -1.
        -11    1    3    3    0    0  0.10349797581E+02  0.41260513965E+01  0.28688791105E+00  0.11145623133E+02  0.51100000000E-03 0.  1.
        -12    1    3    3    0    0 -0.32904099434E+02  0.13079447092E+02  0.17513510953E+02  0.39502844982E+02  0.00000000000E+00 0.  1.
</event>
<event>
 7    1  0.2684545E-013  0.7246157E+02  0.7816164E-02  0.1226708E+00
        -11   -1    0    0    0    0  0.00000000000E+00  0.00000000000E+00  0.45593999997E+02  0.45594000000E+02  0.51100000000E-03 0.  1.
         11   -1    0    0    0    0 -0.00000000000E+00 -0.00000000000E+00 -0.45593999997E+02  0.45594000000E+02  0.51100000000E-03 0. -1.
    9900012    2    1    2    0    0  0.53526135322E+01 -0.16326692070E+02  0.74476701613E+01  0.72461571179E+02  0.70000001152E+02 0.  0.
         12    1    1    2    0    0 -0.53526135322E+01  0.16326692070E+02 -0.74476701613E+01  0.18726428821E+02  0.00000000000E+00 0. -1.
         11    1    3    3    0    0 -0.15482042582E+02 -0.86703894819E+01 -0.23117813236E+02  0.29142796457E+02  0.51100000000E-03 0. -1.
        -11    1    3    3    0    0  0.24438879377E+01 -0.28412268190E+01 -0.29618261848E+01  0.47767742985E+01  0.51100000000E-03 0.  1.
        -12    1    3    3    0    0  0.18390768176E+02 -0.48150757688E+01  0.33527309582E+02  0.38542000423E+02  0.00000000000E+00 0.  1.
</event>
<event>
 7    1  0.2684545E-013  0.7246158E+02  0.7816164E-02  0.1226708E+00
        -11   -1    0    0    0    0  0.00000000000E+00  0.00000000000E+00  0.45593999997E+02  0.45594000000E+02  0.51100000000E-03 0.  1.
         11   -1    0    0    0    0 -0.00000000000E+00 -0.00000000000E+00 -0.45593999997E+02  0.45594000000E+02  0.51100000000E-03 0. -1.
    9900012    2    1    2    0    0 -0.48763040205E+01 -0.48000213135E+01  0.17431591140E+02  0.72461577086E+02  0.70000008847E+02 0.  0.
         12    1    1    2    0    0  0.48763040205E+01  0.48000213135E+01 -0.17431591140E+02  0.18726422914E+02  0.00000000000E+00 0. -1.
         11    1    3    3    0    0  0.31550422759E+00 -0.18102520280E+02 -0.74197111317E+01  0.19566627122E+02  0.51100000000E-03 0. -1.
        -11    1    3    3    0    0 -0.39969118306E+01 -0.13765521446E+02  0.21148872978E+02  0.25548771269E+02  0.51100000000E-03 0.  1.
         12    1    3    3    0    0 -0.11948964175E+01  0.27068020412E+02  0.37024292931E+01  0.27346178694E+02  0.00000000000E+00 0. -1.
</event>
<event>
 7    1  0.2684545E-013  0.7246150E+02  0.7816164E-02  0.1226708E+00
        -11   -1    0    0    0    0  0.00000000000E+00  0.00000000000E+00  0.45593999997E+02  0.45594000000E+02  0.51100000000E-03 0. -1.
         11   -1    0    0    0    0 -0.00000000000E+00 -0.00000000000E+00 -0.45593999997E+02  0.45594000000E+02  0.51100000000E-03 0.  1.
    9900012    2    1    2    0    0  0.35260645068E+01 -0.10766700185E+02 -0.14910630300E+02  0.72461498465E+02  0.69999906429E+02 0.  0.
         12    1    1    2    0    0 -0.35260645068E+01  0.10766700185E+02  0.14910630300E+02  0.18726501535E+02  0.00000000000E+00 0. -1.
         11    1    3    3    0    0 -0.46739672143E+01  0.13905407135E+00 -0.14663084326E+02  0.15390625320E+02  0.51100000000E-03 0. -1.
        -11    1    3    3    0    0 -0.11786979820E+02  0.13540990038E+02 -0.13864279517E+02  0.22682802985E+02  0.51100000000E-03 0.  1.
         12    1    3    3    0    0  0.19987011541E+02 -0.24446744294E+02  0.13616733543E+02  0.34388070159E+02  0.00000000000E+00 0. -1.
</event>
<event>
 7    1  0.2684545E-013  0.7246158E+02  0.7816164E-02  0.1226708E+00
        -11   -1    0    0    0    0  0.00000000000E+00  0.00000000000E+00  0.45593999997E+02  0.45594000000E+02  0.51100000000E-03 0. -1.
         11   -1    0    0    0    0 -0.00000000000E+00 -0.00000000000E+00 -0.45593999997E+02  0.45594000000E+02  0.51100000000E-03 0.  1.
    9900012    2    1    2    0    0 -0.17283908933E+02 -0.63296187604E+01  0.34469359238E+01  0.72461576184E+02  0.70000007673E+02 0.  0.
         12    1    1    2    0    0  0.17283908933E+02  0.63296187604E+01 -0.34469359238E+01  0.18726423816E+02  0.00000000000E+00 0. -1.
         11    1    3    3    0    0  0.58968207704E+01 -0.15554592251E+02  0.28746971701E+02  0.33213042883E+02  0.51100000000E-03 0. -1.
        -11    1    3    3    0    0  0.11953282452E+01 -0.24504852777E+01 -0.10034460777E+01  0.29052696953E+01  0.51100000000E-03 0.  1.
        -12    1    3    3    0    0 -0.24376057949E+02  0.11675458768E+02 -0.24296589699E+02  0.36343263607E+02  0.00000000000E+00 0.  1.
</event>
<event>
 7    1  0.2684545E-013  0.7246159E+02  0.7816164E-02  0.1226708E+00
        -11   -1    0    0    0    0  0.00000000000E+00  0.00000000000E+00  0.45593999997E+02  0.45594000000E+02  0.51100000000E-03 0. -1.
         11   -1    0    0    0    0 -0.00000000000E+00 -0.00000000000E+00 -0.45593999997E+02  0.45594000000E+02  0.51100000000E-03 0.  1.
    9900012    2    1    2    0    0  0.12661783470E+02 -0.10298534949E+01 -0.13758520677E+02  0.72461594843E+02  0.70000031980E+02 0.  0.
         12    1    1    2    0    0 -0.12661783470E+02  0.10298534949E+01  0.13758520677E+02  0.18726405157E+02  0.00000000000E+00 0. -1.
         11    1    3    3    0    0 -0.22550268655E+02  0.93584394797E+01 -0.84331795001E+01  0.25830476625E+02  0.51100000000E-03 0. -1.
        -11    1    3    3    0    0  0.12533480530E+01  0.63899311689E+01 -0.58448254037E+01  0.87500906250E+01  0.51100000000E-03 0.  1.
        -12    1    3    3    0    0  0.33958704072E+02 -0.16778224144E+02  0.51948422661E+00  0.37881027594E+02  0.00000000000E+00 0.  1.
</event>
<event>
 7    1  0.2684545E-013  0.7246155E+02  0.7816164E-02  0.1226708E+00
        -11   -1    0    0    0    0  0.00000000000E+00  0.00000000000E+00  0.45593999997E+02  0.45594000000E+02  0.51100000000E-03 0.  1.
         11   -1    0    0    0    0 -0.00000000000E+00 -0.00000000000E+00 -0.45593999997E+02  0.45594000000E+02  0.51100000000E-03 0. -1.
    9900012    2    1    2    0    0 -0.13033261330E+02  0.13414241493E+02  0.93393650896E+00  0.72461547769E+02  0.69999970657E+02 0.  0.
         12    1    1    2    0    0  0.13033261330E+02 -0.13414241493E+02 -0.93393650896E+00  0.18726452231E+02  0.00000000000E+00 0. -1.
         11    1    3    3    0    0 -0.68005861842E+01 -0.22158825041E+01 -0.24301679776E+00  0.71566168785E+01  0.51100000000E-03 0. -1.
        -11    1    3    3    0    0 -0.29686869352E+02  0.18993548706E+02 -0.13149701653E+02  0.37616216692E+02  0.51100000000E-03 0.  1.
        -12    1    3    3    0    0  0.23454194206E+02 -0.33634247089E+01  0.14326654960E+02  0.27688714199E+02  0.00000000000E+00 0.  1.
</event>
<event>
 7    1  0.2684545E-013  0.7246141E+02  0.7816164E-02  0.1226708E+00
        -11   -1    0    0    0    0  0.00000000000E+00  0.00000000000E+00  0.45593999997E+02  0.45594000000E+02  0.51100000000E-03 0.  1.
         11   -1    0    0    0    0 -0.00000000000E+00 -0.00000000000E+00 -0.45593999997E+02  0.45594000000E+02  0.51100000000E-03 0. -1.
    9900012    2    1    2    0    0  0.15388292964E+02  0.97999931216E+01 -0.42244223710E+01  0.72461410084E+02  0.69999791296E+02 0.  0.
         12    1    1    2    0    0 -0.15388292964E+02 -0.97999931216E+01  0.42244223710E+01  0.18726589916E+02  0.00000000000E+00 0. -1.
         11    1    3    3    0    0 -0.13529502972E+02  0.20189632007E+02 -0.91526354473E+01  0.25969971643E+02  0.51100000000E-03 0. -1.
        -11    1    3    3    0    0  0.11749846581E+02  0.12771500153E+02  0.28475240525E+01  0.17586315826E+02  0.51100000000E-03 0.  1.
        -12    1    3    3    0    0  0.17167949355E+02 -0.23161139038E+02  0.20806890238E+01  0.28905122615E+02  0.00000000000E+00 0.  1.
</event>
<event>
 7    1  0.2684545E-013  0.7246137E+02  0.7816164E-02  0.1226709E+00
        -11   -1    0    0    0    0  0.00000000000E+00  0.00000000000E+00  0.45593999997E+02  0.45594000000E+02  0.51100000000E-03 0.  1.
         11   -1    0    0    0    0 -0.00000000000E+00 -0.00000000000E+00 -0.45593999997E+02  0.45594000000E+02  0.51100000000E-03 0. -1.
    9900012    2    1    2    0    0 -0.18650562558E+02 -0.13785658920E+01  0.97098035963E+00  0.72461368416E+02  0.69999737015E+02 0.  0.
         12    1    1    2    0    0  0.18650562558E+02  0.13785658920E+01 -0.97098035963E+00  0.18726631584E+02  0.00000000000E+00 0. -1.
         11    1    3    3    0    0  0.15552473769E+01 -0.34440809237E+01  0.26003365936E+02  0.26276520471E+02  0.51100000000E-03 0. -1.
        -11    1    3    3    0    0 -0.17255337974E+02 -0.13861970264E+02 -0.10826832723E+02  0.24639829855E+02  0.51100000000E-03 0.  1.
         12    1    3    3    0    0 -0.29504719605E+01  0.15927485295E+02 -0.14205552853E+02  0.21545018090E+02  0.00000000000E+00 0. -1.
</event>
<event>
 7    1  0.2684545E-013  0.7246154E+02  0.7816164E-02  0.1226708E+00
        -11   -1    0    0    0    0  0.00000000000E+00  0.00000000000E+00  0.45593999997E+02  0.45594000000E+02  0.51100000000E-03 0. -1.
         11   -1    0    0    0    0 -0.00000000000E+00 -0.00000000000E+00 -0.45593999997E+02  0.45594000000E+02  0.51100000000E-03 0.  1.
    9900012    2    1    2    0    0 -0.96151669765E+01 -0.10567811711E+02 -0.12105799874E+02  0.72461535546E+02  0.69999954734E+02 0.  0.
         12    1    1    2    0    0  0.96151669765E+01  0.10567811711E+02  0.12105799874E+02  0.18726464454E+02  0.00000000000E+00 0. -1.
         11    1    3    3    0    0 -0.78423190879E+01 -0.20851399853E+02  0.50372179868E+01  0.22839798813E+02  0.51100000000E-03 0. -1.
        -11    1    3    3    0    0  0.88121555136E+01  0.16471425309E+02  0.90080683224E+01  0.20739026777E+02  0.51100000000E-03 0.  1.
         12    1    3    3    0    0 -0.10585003402E+02 -0.61878371664E+01 -0.26151086184E+02  0.28882709956E+02  0.00000000000E+00 0. -1.
</event>
<event>
 7    1  0.2684545E-013  0.7246158E+02  0.7816164E-02  0.1226708E+00
        -11   -1    0    0    0    0  0.00000000000E+00  0.00000000000E+00  0.45593999997E+02  0.45594000000E+02  0.51100000000E-03 0. -1.
         11   -1    0    0    0    0 -0.00000000000E+00 -0.00000000000E+00 -0.45593999997E+02  0.45594000000E+02  0.51100000000E-03 0.  1.
    9900012    2    1    2    0    0 -0.14362879874E+02  0.86003092486E+00 -0.11985278259E+02  0.72461578387E+02  0.70000010543E+02 0.  0.
         12    1    1    2    0    0  0.14362879874E+02 -0.86003092486E+00  0.11985278259E+02  0.18726421613E+02  0.00000000000E+00 0. -1.
         11    1    3    3    0    0  0.10684704507E+02  0.31565359001E+01 -0.75661606809E+01  0.13467494830E+02  0.51100000000E-03 0. -1.
        -11    1    3    3    0    0  0.22063693494E+01  0.44322028885E+01 -0.24168718298E+02  0.24670618813E+02  0.51100000000E-03 0.  1.
         12    1    3    3    0    0 -0.27253953731E+02 -0.67287078638E+01  0.19749600720E+02  0.34323464744E+02  0.00000000000E+00 0. -1.
</event>
<event>
 7    1  0.2684545E-013  0.7246157E+02  0.7816164E-02  0.1226708E+00
        -11   -1    0    0    0    0  0.00000000000E+00  0.00000000000E+00  0.45593999997E+02  0.45594000000E+02  0.51100000000E-03 0. -1.
         11   -1    0    0    0    0 -0.00000000000E+00 -0.00000000000E+00 -0.45593999997E+02  0.45594000000E+02  0.51100000000E-03 0.  1.
    9900012    2    1    2    0    0  0.10804870243E+02  0.14528744646E+02 -0.47800995609E+01  0.72461574988E+02  0.70000006114E+02 0.  0.
         12    1    1    2    0    0 -0.10804870243E+02 -0.14528744646E+02  0.47800995609E+01  0.18726425012E+02  0.00000000000E+00 0. -1.
         11    1    3    3    0    0  0.17448294411E+01  0.31196360328E+02  0.72580870547E+01  0.32077050292E+02  0.51100000000E-03 0. -1.
        -11    1    3    3    0    0 -0.27593206511E+01  0.53574934682E+01 -0.14069771444E+02  0.15306046369E+02  0.51100000000E-03 0.  1.
         12    1    3    3    0    0  0.11819361452E+02 -0.22025109151E+02  0.20315848281E+01  0.25078478326E+02  0.00000000000E+00 0. -1.
</event>
<event>
 7    1  0.2684545E-013  0.7246156E+02  0.7816164E-02  0.1226708E+00
        -11   -1    0    0    0    0  0.00000000000E+00  0.00000000000E+00  0.45593999997E+02  0.45594000000E+02  0.51100000000E-03 0. -1.
         11   -1    0    0    0    0 -0.00000000000E+00 -0.00000000000E+00 -0.45593999997E+02  0.45594000000E+02  0.51100000000E-03 0.  1.
    9900012    2    1    2    0    0  0.86290687047E+01  0.15582357177E+02 -0.57800303379E+01  0.72461563270E+02  0.69999990850E+02 0.  0.
         12    1    1    2    0    0 -0.86290687047E+01 -0.15582357177E+02  0.57800303379E+01  0.18726436730E+02  0.00000000000E+00 0. -1.
         11    1    3    3    0    0  0.11596746579E+02  0.57686355761E+01  0.20000302837E+02  0.23828004563E+02  0.51100000000E-03 0. -1.
        -11    1    3    3    0    0  0.60709505018E+01 -0.13976876857E+02 -0.59055017372E+01  0.16342719409E+02  0.51100000000E-03 0.  1.
        -12    1    3    3    0    0 -0.90386283762E+01  0.23790598457E+02 -0.19874831438E+02  0.32290839298E+02  0.00000000000E+00 0.  1.
</event>
<event>
 7    1  0.2684545E-013  0.7246148E+02  0.7816164E-02  0.1226708E+00
        -11   -1    0    0    0    0  0.00000000000E+00  0.00000000000E+00  0.45593999997E+02  0.45594000000E+02  0.51100000000E-03 0. -1.
         11   -1    0    0    0    0 -0.00000000000E+00 -0.00000000000E+00 -0.45593999997E+02  0.45594000000E+02  0.51100000000E-03 0.  1.
    9900012    2    1    2    0    0 -0.15399600273E+02  0.35898121022E+01  0.10032351984E+02  0.72461480680E+02  0.69999883261E+02 0.  0.
         12    1    1    2    0    0  0.15399600273E+02 -0.35898121022E+01 -0.10032351984E+02  0.18726519320E+02  0.00000000000E+00 0. -1.
         11    1    3    3    0    0 -0.14739442860E+01  0.18223170646E+02 -0.10239272597E+02  0.20954693119E+02  0.51100000000E-03 0. -1.
        -11    1    3    3    0    0 -0.17535798052E+02  0.11381595757E+02  0.67640736368E+01  0.21972656365E+02  0.51100000000E-03 0.  1.
         12    1    3    3    0    0  0.36101420655E+01 -0.26014954301E+02  0.13507550944E+02  0.29534131196E+02  0.00000000000E+00 0. -1.
</event>
<event>
 7    1  0.2684545E-013  0.7246157E+02  0.7816164E-02  0.1226708E+00
        -11   -1    0    0    0    0  0.00000000000E+00  0.00000000000E+00  0.45593999997E+02  0.45594000000E+02  0.51100000000E-03 0. -1.
         11   -1    0    0    0    0 -0.00000000000E+00 -0.00000000000E+00 -0.45593999997E+02  0.45594000000E+02  0.51100000000E-03 0.  1.
    9900012    2    1    2    0    0 -0.10456425908E+02 -0.61885422430E+01 -0.14249360428E+02  0.72461570269E+02  0.69999999967E+02 0.  0.
         12    1    1    2    0    0  0.10456425908E+02  0.61885422430E+01  0.14249360428E+02  0.18726429731E+02  0.00000000000E+00 0. -1.
         11    1    3    3    0    0 -0.10297620097E+02  0.13295031524E+02 -0.39000062456E+01  0.17262934046E+02  0.51100000000E-03 0. -1.
        -11    1    3    3    0    0  0.11112770140E+02  0.11451897283E+02 -0.15055900199E+02  0.21939000493E+02  0.51100000000E-03 0.  1.
         12    1    3    3    0    0 -0.11271575951E+02 -0.30935471050E+02  0.47065460168E+01  0.33259635730E+02  0.00000000000E+00 0. -1.
</event>
<event>
 7    1  0.2684545E-013  0.7246156E+02  0.7816164E-02  0.1226708E+00
        -11   -1    0    0    0    0  0.00000000000E+00  0.00000000000E+00  0.45593999997E+02  0.45594000000E+02  0.51100000000E-03 0.  1.
         11   -1    0    0    0    0 -0.00000000000E+00 -0.00000000000E+00 -0.45593999997E+02  0.45594000000E+02  0.51100000000E-03 0. -1.
    9900012    2    1    2    0    0  0.10743567559E+02 -0.11256747538E+02  0.10418305120E+02  0.72461556381E+02  0.69999981875E+02 0.  0.
         12    1    1    2    0    0 -0.10743567559E+02  0.11256747538E+02 -0.10418305120E+02  0.18726443619E+02  0.00000000000E+00 0. -1.
         11    1    3    3    0    0  0.52922484020E+01  0.11222090626E+02 -0.10827127304E+02  0.16467237081E+02  0.51100000000E-03 0. -1.
        -11    1    3    3    0    0 -0.94661550265E+01 -0.18897598224E+02 -0.82969175299E+01  0.22706081793E+02  0.51100000000E-03 0.  1.
         12    1    3    3    0    0  0.14917474183E+02 -0.35812399407E+01  0.29542349954E+02  0.33288237507E+02  0.00000000000E+00 0. -1.
</event>
<event>
 7    1  0.2684545E-013  0.7246157E+02  0.7816164E-02  0.1226708E+00
        -11   -1    0    0    0    0  0.00000000000E+00  0.00000000000E+00  0.45593999997E+02  0.45594000000E+02  0.51100000000E-03 0. -1.
         11   -1    0    0    0    0 -0.00000000000E+00 -0.00000000000E+00 -0.45593999997E+02  0.45594000000E+02  0.51100000000E-03 0.  1.
    9900012    2    1    2    0    0 -0.58658380123E+01  0.73255738921E+01 -0.16205158194E+02  0.72461568399E+02  0.69999997531E+02 0.  0.
         12    1    1    2    0    0  0.58658380123E+01 -0.73255738921E+01  0.16205158194E+02  0.18726431601E+02  0.00000000000E+00 0. -1.
         11    1    3    3    0    0  0.35749729165E+01  0.64920486845E+00 -0.52048236792E+01  0.63476049111E+01  0.51100000000E-03 0. -1.
        -11    1    3    3    0    0 -0.31134675055E+01  0.35269178793E+02 -0.19382541563E+01  0.35459349713E+02  0.51100000000E-03 0.  1.
         12    1    3    3    0    0 -0.63273434233E+01 -0.28592809769E+02 -0.90620803582E+01  0.30654613775E+02  0.00000000000E+00 0. -1.
</event>
<event>
 7    1  0.2684545E-013  0.7246128E+02  0.7816164E-02  0.1226709E+00
        -11   -1    0    0    0    0  0.00000000000E+00  0.00000000000E+00  0.45593999997E+02  0.45594000000E+02  0.51100000000E-03 0. -1.
         11   -1    0    0    0    0 -0.00000000000E+00 -0.00000000000E+00 -0.45593999997E+02  0.45594000000E+02  0.51100000000E-03 0.  1.
    9900012    2    1    2    0    0  0.17911040792E+02  0.49957458915E+01  0.22197665975E+01  0.72461275166E+02  0.69999615539E+02 0.  0.
         12    1    1    2    0    0 -0.17911040792E+02 -0.49957458915E+01 -0.22197665975E+01  0.18726724834E+02  0.00000000000E+00 0. -1.
         11    1    3    3    0    0  0.16331582969E+02  0.45016783846E+01 -0.36076890926E+01  0.17320540737E+02  0.51100000000E-03 0. -1.
        -11    1    3    3    0    0 -0.10283357830E+02  0.15870259079E+02 -0.16818771479E+02  0.25307778366E+02  0.51100000000E-03 0.  1.
         12    1    3    3    0    0  0.11862815653E+02 -0.15376191572E+02  0.22646227169E+02  0.29832956063E+02  0.00000000000E+00 0. -1.
</event>
<event>
 7    1  0.2684545E-013  0.7246162E+02  0.7816164E-02  0.1226708E+00
        -11   -1    0    0    0    0  0.00000000000E+00  0.00000000000E+00  0.45593999997E+02  0.45594000000E+02  0.51100000000E-03 0.  1.
         11   -1    0    0    0    0 -0.00000000000E+00 -0.00000000000E+00 -0.45593999997E+02  0.45594000000E+02  0.51100000000E-03 0. -1.
    9900012    2    1    2    0    0 -0.11033757559E+02  0.61547976838E+01 -0.13822154921E+02  0.72461620023E+02  0.70000064781E+02 0.  0.
         12    1    1    2    0    0  0.11033757559E+02 -0.61547976838E+01  0.13822154921E+02  0.18726379977E+02  0.00000000000E+00 0. -1.
         11    1    3    3    0    0 -0.10828242560E+02 -0.13199994539E+02 -0.33306211211E+01  0.17394934035E+02  0.51100000000E-03 0. -1.
        -11    1    3    3    0    0 -0.21922880659E+02  0.11220270289E+02 -0.18206197225E+02  0.30626341267E+02  0.51100000000E-03 0.  1.
        -12    1    3    3    0    0  0.21717365660E+02  0.81345219336E+01  0.77146634251E+01  0.24440344721E+02  0.00000000000E+00 0.  1.
</event>
<event>
 7    1  0.2684545E-013  0.7246156E+02  0.7816164E-02  0.1226708E+00
        -11   -1    0    0    0    0  0.00000000000E+00  0.00000000000E+00  0.45593999997E+02  0.45594000000E+02  0.51100000000E-03 0. -1.
         11   -1    0    0    0    0 -0.00000000000E+00 -0.00000000000E+00 -0.45593999997E+02  0.45594000000E+02  0.51100000000E-03 0.  1.
    9900012    2    1    2    0    0  0.48003856892E+01 -0.17960513928E+02 -0.22484793943E+01  0.72461563528E+02  0.69999991186E+02 0.  0.
         12    1    1    2    0    0 -0.48003856892E+01  0.17960513928E+02  0.22484793943E+01  0.18726436472E+02  0.00000000000E+00 0. -1.
         11    1    3    3    0    0  0.40364332354E+01  0.25219767597E+02 -0.51451383481E+01  0.26053827354E+02  0.51100000000E-03 0. -1.
        -11    1    3    3    0    0  0.26188900879E+01 -0.68904952366E+01  0.65844086204E+01  0.98839236662E+01  0.51100000000E-03 0.  1.
        -12    1    3    3    0    0 -0.18549376341E+01 -0.36289786289E+02 -0.36877496666E+01  0.36523812508E+02  0.00000000000E+00 0.  1.
</event>
<event>
 7    1  0.2684545E-013  0.7246158E+02  0.7816164E-02  0.1226708E+00
        -11   -1    0    0    0    0  0.00000000000E+00  0.00000000000E+00  0.45593999997E+02  0.45594000000E+02  0.51100000000E-03 0.  1.
         11   -1    0    0    0    0 -0.00000000000E+00 -0.00000000000E+00 -0.45593999997E+02  0.45594000000E+02  0.51100000000E-03 0. -1.
    9900012    2    1    2    0    0 -0.29374185308E+01  0.18453518847E+02 -0.12320690158E+01  0.72461580707E+02  0.70000013565E+02 0.  0.
         12    1    1    2    0    0  0.29374185308E+01 -0.18453518847E+02  0.12320690158E+01  0.18726419293E+02  0.00000000000E+00 0. -1.
         11    1    3    3    0    0  0.12959659931E+02 -0.61873291691E+01  0.55382516502E+01  0.15391817936E+02  0.51100000000E-03 0. -1.
        -11    1    3    3    0    0  0.20693687376E+01 -0.39403779149E+00  0.17635550720E+02  0.17760917831E+02  0.51100000000E-03 0.  1.
         12    1    3    3    0    0 -0.17966447200E+02  0.25034885808E+02 -0.24405871386E+02  0.39308844940E+02  0.00000000000E+00 0. -1.
</event>
<event>
 7    1  0.2684545E-013  0.7246188E+02  0.7816164E-02  0.1226707E+00
        -11   -1    0    0    0    0  0.00000000000E+00  0.00000000000E+00  0.45593999997E+02  0.45594000000E+02  0.51100000000E-03 0.  1.
         11   -1    0    0    0    0 -0.00000000000E+00 -0.00000000000E+00 -0.45593999997E+02  0.45594000000E+02  0.51100000000E-03 0. -1.
    9900012    2    1    2    0    0 -0.14169002894E+02 -0.27173638141E+01  0.11938298229E+02  0.72461877237E+02  0.70000399849E+02 0.  0.
         12    1    1    2    0    0  0.14169002894E+02  0.27173638141E+01 -0.11938298229E+02  0.18726122763E+02  0.00000000000E+00 0. -1.
         11    1    3    3    0    0 -0.65725993136E+01  0.14382466490E+02 -0.14537275858E+02  0.21479916054E+02  0.51100000000E-03 0. -1.
        -11    1    3    3    0    0 -0.21462761005E+02 -0.34779907767E+01  0.22211076193E+02  0.31081802324E+02  0.51100000000E-03 0.  1.
        -12    1    3    3    0    0  0.13866357425E+02 -0.13621839527E+02  0.42644978941E+01  0.19900158859E+02  0.00000000000E+00 0.  1.
</event>
<event>
 7    1  0.2684545E-013  0.7246158E+02  0.7816164E-02  0.1226708E+00
        -11   -1    0    0    0    0  0.00000000000E+00  0.00000000000E+00  0.45593999997E+02  0.45594000000E+02  0.51100000000E-03 0. -1.
         11   -1    0    0    0    0 -0.00000000000E+00 -0.00000000000E+00 -0.45593999997E+02  0.45594000000E+02  0.51100000000E-03 0.  1.
    9900012    2    1    2    0    0  0.15231764408E+02  0.14030034744E+01 -0.10802942728E+02  0.72461584505E+02  0.70000018511E+02 0.  0.
         12    1    1    2    0    0 -0.15231764408E+02 -0.14030034744E+01  0.10802942728E+02  0.18726415495E+02  0.00000000000E+00 0. -1.
         11    1    3    3    0    0 -0.15727293599E+02  0.25329813849E+02 -0.11491073859E+02  0.31952965625E+02  0.51100000000E-03 0. -1.
        -11    1    3    3    0    0  0.18475941321E+01 -0.58692117620E+01 -0.87899189023E+00  0.62156156403E+01  0.51100000000E-03 0.  1.
        -12    1    3    3    0    0  0.29111463875E+02 -0.18057598612E+02  0.15671230218E+01  0.34293003239E+02  0.00000000000E+00 0.  1.
</event>
<event>
 7    1  0.2684545E-013  0.7246159E+02  0.7816164E-02  0.1226708E+00
        -11   -1    0    0    0    0  0.00000000000E+00  0.00000000000E+00  0.45593999997E+02  0.45594000000E+02  0.51100000000E-03 0.  1.
         11   -1    0    0    0    0 -0.00000000000E+00 -0.00000000000E+00 -0.45593999997E+02  0.45594000000E+02  0.51100000000E-03 0. -1.
    9900012    2    1    2    0    0 -0.36348702531E+01  0.12104373087E+02  0.13818474327E+02  0.72461591847E+02  0.70000028076E+02 0.  0.
         12    1    1    2    0    0  0.36348702531E+01 -0.12104373087E+02 -0.13818474327E+02  0.18726408153E+02  0.00000000000E+00 0. -1.
         11    1    3    3    0    0 -0.71436818823E+00  0.52910318303E+01 -0.20310662153E+02  0.21000674682E+02  0.51100000000E-03 0. -1.
        -11    1    3    3    0    0 -0.60745173068E+01 -0.40398232458E+01 -0.62025374068E+01  0.95755627987E+01  0.51100000000E-03 0.  1.
        -12    1    3    3    0    0  0.31540152419E+01  0.10853164503E+02  0.40331673887E+02  0.41885354366E+02  0.00000000000E+00 0.  1.
</event>
<event>
 7    1  0.2684545E-013  0.7246167E+02  0.7816164E-02  0.1226708E+00
        -11   -1    0    0    0    0  0.00000000000E+00  0.00000000000E+00  0.45593999997E+02  0.45594000000E+02  0.51100000000E-03 0.  1.
         11   -1    0    0    0    0 -0.00000000000E+00 -0.00000000000E+00 -0.45593999997E+02  0.45594000000E+02  0.51100000000E-03 0. -1.
    9900012    2    1    2    0    0  0.42847892002E+01  0.17348438602E+02  0.55989169024E+01  0.72461665311E+02  0.70000123776E+02 0.  0.
         12    1    1    2    0    0 -0.42847892002E+01 -0.17348438602E+02 -0.55989169024E+01  0.18726334689E+02  0.00000000000E+00 0. -1.
         11    1    3    3    0    0  0.28040030208E+02  0.40562639152E+01  0.15383043430E+01  0.28373631272E+02  0.51100000000E-03 0. -1.
        -11    1    3    3    0    0 -0.10198932685E+01  0.64655241762E+01  0.16166456368E+02  0.17441258467E+02  0.51100000000E-03 0.  1.
         12    1    3    3    0    0 -0.22735347740E+02  0.68266505103E+01 -0.12105843809E+02  0.26646775572E+02  0.00000000000E+00 0. -1.
</event>
<event>
 7    1  0.2684545E-013  0.7246150E+02  0.7816164E-02  0.1226708E+00
        -11   -1    0    0    0    0  0.00000000000E+00  0.00000000000E+00  0.45593999997E+02  0.45594000000E+02  0.51100000000E-03 0. -1.
         11   -1    0    0    0    0 -0.00000000000E+00 -0.00000000000E+00 -0.45593999997E+02  0.45594000000E+02  0.51100000000E-03 0.  1.
    9900012    2    1    2    0    0 -0.61546206527E+00 -0.15926356009E+01 -0.18648498946E+02  0.72461500203E+02  0.69999908693E+02 0.  0.
         12    1    1    2    0    0  0.61546206527E+00  0.15926356009E+01  0.18648498946E+02  0.18726499797E+02  0.00000000000E+00 0. -1.
         11    1    3    3    0    0  0.37630055728E+01 -0.40009124239E+01  0.88164999556E+01  0.10387405012E+02  0.51100000000E-03 0. -1.
        -11    1    3    3    0    0  0.15992282763E+02  0.21825485471E+02 -0.17480785797E+02  0.32213084242E+02  0.51100000000E-03 0.  1.
         12    1    3    3    0    0 -0.20370750401E+02 -0.19417208648E+02 -0.99842131044E+01  0.29861010949E+02  0.00000000000E+00 0. -1.
</event>
<event>
 7    1  0.2684545E-013  0.7246155E+02  0.7816164E-02  0.1226708E+00
        -11   -1    0    0    0    0  0.00000000000E+00  0.00000000000E+00  0.45593999997E+02  0.45594000000E+02  0.51100000000E-03 0.  1.
         11   -1    0    0    0    0 -0.00000000000E+00 -0.00000000000E+00 -0.45593999997E+02  0.45594000000E+02  0.51100000000E-03 0. -1.
    9900012    2    1    2    0    0  0.69605554791E+01  0.66295700189E+01  0.16071074151E+02  0.72461549307E+02  0.69999972660E+02 0.  0.
         12    1    1    2    0    0 -0.69605554791E+01 -0.66295700189E+01 -0.16071074151E+02  0.18726450693E+02  0.00000000000E+00 0. -1.
         11    1    3    3    0    0 -0.62839399968E+01 -0.14009253309E+02 -0.50281825149E+01  0.16156413581E+02  0.51100000000E-03 0. -1.
        -11    1    3    3    0    0  0.41903294639E+01  0.17805206901E+00 -0.14036715313E+02  0.14649912648E+02  0.51100000000E-03 0.  1.
        -12    1    3    3    0    0  0.90541660119E+01  0.20460771259E+02  0.35135971979E+02  0.41655223077E+02  0.00000000000E+00 0.  1.
</event>
<event>
 7    1  0.2684545E-013  0.7246168E+02  0.7816164E-02  0.1226708E+00
        -11   -1    0    0    0    0  0.00000000000E+00  0.00000000000E+00  0.45593999997E+02  0.45594000000E+02  0.51100000000E-03 0.  1.
         11   -1    0    0    0    0 -0.00000000000E+00 -0.00000000000E+00 -0.45593999997E+02  0.45594000000E+02  0.51100000000E-03 0. -1.
    9900012    2    1    2    0    0 -0.44037706350E+01  0.10880557100E+02  0.14590939697E+02  0.72461675217E+02  0.70000136682E+02 0.  0.
         12    1    1    2    0    0  0.44037706350E+01 -0.10880557100E+02 -0.14590939697E+02  0.18726324783E+02  0.00000000000E+00 0. -1.
         11    1    3    3    0    0  0.23832430811E+02 -0.84229211820E+01 -0.38648793647E+01  0.25570835973E+02  0.51100000000E-03 0. -1.
        -11    1    3    3    0    0 -0.63441650633E+01  0.57852629136E+01  0.19325276916E+02  0.21146726117E+02  0.51100000000E-03 0.  1.
        -12    1    3    3    0    0 -0.21892036383E+02  0.13518215369E+02 -0.86945785418E+00  0.25744113127E+02  0.00000000000E+00 0.  1.
</event>
<event>
 7    1  0.2684545E-013  0.7246157E+02  0.7816164E-02  0.1226708E+00
        -11   -1    0    0    0    0  0.00000000000E+00  0.00000000000E+00  0.45593999997E+02  0.45594000000E+02  0.51100000000E-03 0.  1.
         11   -1    0    0    0    0 -0.00000000000E+00 -0.00000000000E+00 -0.45593999997E+02  0.45594000000E+02  0.51100000000E-03 0. -1.
    9900012    2    1    2    0    0  0.69148916263E+01  0.14914762637E+02  0.89673508806E+01  0.72461568078E+02  0.69999997113E+02 0.  0.
         12    1    1    2    0    0 -0.69148916263E+01 -0.14914762637E+02 -0.89673508806E+01  0.18726431922E+02  0.00000000000E+00 0. -1.
         11    1    3    3    0    0  0.49971455927E+01 -0.28896505247E-01 -0.16675942666E+02  0.17408600264E+02  0.51100000000E-03 0. -1.
        -11    1    3    3    0    0  0.14948966906E+02  0.12739381630E+02 -0.61834336174E+01  0.20591219183E+02  0.51100000000E-03 0.  1.
         12    1    3    3    0    0 -0.13031220872E+02  0.22042775122E+01  0.31826727164E+02  0.34461748632E+02  0.00000000000E+00 0. -1.
</event>
<event>
 7    1  0.2684545E-013  0.7246153E+02  0.7816164E-02  0.1226708E+00
        -11   -1    0    0    0    0  0.00000000000E+00  0.00000000000E+00  0.45593999997E+02  0.45594000000E+02  0.51100000000E-03 0. -1.
         11   -1    0    0    0    0 -0.00000000000E+00 -0.00000000000E+00 -0.45593999997E+02  0.45594000000E+02  0.51100000000E-03 0.  1.
    9900012    2    1    2    0    0 -0.52965951479E+01  0.13992138313E+02 -0.11262635726E+02  0.72461526273E+02  0.69999942654E+02 0.  0.
         12    1    1    2    0    0  0.52965951479E+01 -0.13992138313E+02  0.11262635726E+02  0.18726473727E+02  0.00000000000E+00 0. -1.
         11    1    3    3    0    0  0.40356856924E+01  0.50175058104E+00  0.14347287508E+02  0.14912517284E+02  0.51100000000E-03 0. -1.
        -11    1    3    3    0    0 -0.88844596419E+01 -0.16003041741E+02  0.27364198318E+00  0.18305896545E+02  0.51100000000E-03 0.  1.
         12    1    3    3    0    0 -0.44782119831E+00  0.29493429474E+02 -0.25883565218E+02  0.39243112444E+02  0.00000000000E+00 0. -1.
</event>
<event>
 7    1  0.2684545E-013  0.7246157E+02  0.7816164E-02  0.1226708E+00
        -11   -1    0    0    0    0  0.00000000000E+00  0.00000000000E+00  0.45593999997E+02  0.45594000000E+02  0.51100000000E-03 0. -1.
         11   -1    0    0    0    0 -0.00000000000E+00 -0.00000000000E+00 -0.45593999997E+02  0.45594000000E+02  0.51100000000E-03 0.  1.
    9900012    2    1    2    0    0 -0.10262486506E+02 -0.10311605178E+02 -0.11791163411E+02  0.72461565070E+02  0.69999993194E+02 0.  0.
         12    1    1    2    0    0  0.10262486506E+02  0.10311605178E+02  0.11791163411E+02  0.18726434930E+02  0.00000000000E+00 0. -1.
         11    1    3    3    0    0 -0.13542419266E+01 -0.14991069168E+02 -0.31681070746E+01  0.15381905887E+02  0.51100000000E-03 0.  1.
        -11    1    3    3    0    0  0.33912857590E+01  0.28163894389E+02 -0.11082859421E+02  0.30455468137E+02  0.51100000000E-03 0. -1.
         12    1    3    3    0    0 -0.12299530338E+02 -0.23484430398E+02  0.24598030853E+01  0.26624191046E+02  0.00000000000E+00 0. -1.
</event>
<event>
 7    1  0.2684545E-013  0.7246155E+02  0.7816164E-02  0.1226708E+00
        -11   -1    0    0    0    0  0.00000000000E+00  0.00000000000E+00  0.45593999997E+02  0.45594000000E+02  0.51100000000E-03 0.  1.
         11   -1    0    0    0    0 -0.00000000000E+00 -0.00000000000E+00 -0.45593999997E+02  0.45594000000E+02  0.51100000000E-03 0. -1.
    9900012    2    1    2    0    0  0.47892351862E+01 -0.18101716858E+02  0.26676909454E+00  0.72461545648E+02  0.69999967893E+02 0.  0.
         12    1    1    2    0    0 -0.47892351862E+01  0.18101716858E+02 -0.26676909454E+00  0.18726454352E+02  0.00000000000E+00 0. -1.
         11    1    3    3    0    0 -0.14278694332E+02 -0.52049671426E+01  0.52703774552E+01  0.16085697796E+02  0.51100000000E-03 0.  1.
        -11    1    3    3    0    0  0.33037159553E+02  0.46153280149E+01 -0.62566454680E+01  0.33939663770E+02  0.51100000000E-03 0. -1.
         12    1    3    3    0    0 -0.13969230035E+02 -0.17512077730E+02  0.12530371073E+01  0.22436184082E+02  0.00000000000E+00 0. -1.
</event>
<event>
 7    1  0.2684545E-013  0.7246178E+02  0.7816164E-02  0.1226707E+00
        -11   -1    0    0    0    0  0.00000000000E+00  0.00000000000E+00  0.45593999997E+02  0.45594000000E+02  0.51100000000E-03 0.  1.
         11   -1    0    0    0    0 -0.00000000000E+00 -0.00000000000E+00 -0.45593999997E+02  0.45594000000E+02  0.51100000000E-03 0. -1.
    9900012    2    1    2    0    0 -0.18599687817E+02 -0.12587864451E+01 -0.17715437272E+01  0.72461780483E+02  0.70000273809E+02 0.  0.
         12    1    1    2    0    0  0.18599687817E+02  0.12587864451E+01  0.17715437272E+01  0.18726219517E+02  0.00000000000E+00 0. -1.
         11    1    3    3    0    0 -0.17324811197E+02  0.15040119034E+01 -0.70974921085E+01  0.18782585799E+02  0.51100000000E-03 0. -1.
        -11    1    3    3    0    0 -0.13188875038E+02  0.98100857536E+01  0.23431898530E+02  0.28622335269E+02  0.51100000000E-03 0.  1.
        -12    1    3    3    0    0  0.11913998418E+02 -0.12572884102E+02 -0.18105950149E+02  0.25056859415E+02  0.00000000000E+00 0.  1.
</event>
<event>
 7    1  0.2684545E-013  0.7246080E+02  0.7816164E-02  0.1226710E+00
        -11   -1    0    0    0    0  0.00000000000E+00  0.00000000000E+00  0.45593999997E+02  0.45594000000E+02  0.51100000000E-03 0. -1.
         11   -1    0    0    0    0 -0.00000000000E+00 -0.00000000000E+00 -0.45593999997E+02  0.45594000000E+02  0.51100000000E-03 0.  1.
    9900012    2    1    2    0    0 -0.15368922684E+02  0.10407415038E+02  0.24879706290E+01  0.72460798658E+02  0.69998994794E+02 0.  0.
         12    1    1    2    0    0  0.15368922684E+02 -0.10407415038E+02 -0.24879706290E+01  0.18727201342E+02  0.00000000000E+00 0. -1.
         11    1    3    3    0    0 -0.13066026494E+02  0.25266698371E+02  0.12468988712E+02  0.31058054908E+02  0.51100000000E-03 0. -1.
        -11    1    3    3    0    0  0.13772415671E+02  0.48567213071E+01 -0.19920520781E+01  0.14738909289E+02  0.51100000000E-03 0.  1.
        -12    1    3    3    0    0 -0.16075311860E+02 -0.19716004640E+02 -0.79889660045E+01  0.26663834462E+02  0.00000000000E+00 0.  1.
</event>
<event>
 7    1  0.2684545E-013  0.7246159E+02  0.7816164E-02  0.1226708E+00
        -11   -1    0    0    0    0  0.00000000000E+00  0.00000000000E+00  0.45593999997E+02  0.45594000000E+02  0.51100000000E-03 0. -1.
         11   -1    0    0    0    0 -0.00000000000E+00 -0.00000000000E+00 -0.45593999997E+02  0.45594000000E+02  0.51100000000E-03 0.  1.
    9900012    2    1    2    0    0  0.22000150731E+01  0.85393482669E+01 -0.16520224075E+02  0.72461592479E+02  0.70000028899E+02 0.  0.
         12    1    1    2    0    0 -0.22000150731E+01 -0.85393482669E+01  0.16520224075E+02  0.18726407521E+02  0.00000000000E+00 0. -1.
         11    1    3    3    0    0 -0.12934480782E+02 -0.48579427437E+01 -0.11618969998E+01  0.13865439254E+02  0.51100000000E-03 0. -1.
        -11    1    3    3    0    0  0.13819110672E+02 -0.18418402815E+02 -0.13516161879E+02  0.26700037719E+02  0.51100000000E-03 0.  1.
        -12    1    3    3    0    0  0.13153851834E+01  0.31815693825E+02 -0.18421651969E+01  0.31896115506E+02  0.00000000000E+00 0.  1.
</event>
<event>
 7    1  0.2684545E-013  0.7246159E+02  0.7816164E-02  0.1226708E+00
        -11   -1    0    0    0    0  0.00000000000E+00  0.00000000000E+00  0.45593999997E+02  0.45594000000E+02  0.51100000000E-03 0.  1.
         11   -1    0    0    0    0 -0.00000000000E+00 -0.00000000000E+00 -0.45593999997E+02  0.45594000000E+02  0.51100000000E-03 0. -1.
    9900012    2    1    2    0    0  0.31218661756E+01  0.45042563597E+01  0.17906537216E+02  0.72461589537E+02  0.70000025067E+02 0.  0.
         12    1    1    2    0    0 -0.31218661756E+01 -0.45042563597E+01 -0.17906537216E+02  0.18726410463E+02  0.00000000000E+00 0. -1.
         11    1    3    3    0    0  0.52451110308E+01 -0.24315955123E+01 -0.82196366822E+01  0.10049192699E+02  0.51100000000E-03 0. -1.
        -11    1    3    3    0    0  0.13165266872E+01 -0.24004850898E+01  0.42858171431E+02  0.42945528636E+02  0.51100000000E-03 0.  1.
         12    1    3    3    0    0 -0.34397715423E+01  0.93363369617E+01 -0.16731997533E+02  0.19466868201E+02  0.00000000000E+00 0. -1.
</event>
<event>
 7    1  0.2684545E-013  0.7246156E+02  0.7816164E-02  0.1226708E+00
        -11   -1    0    0    0    0  0.00000000000E+00  0.00000000000E+00  0.45593999997E+02  0.45594000000E+02  0.51100000000E-03 0.  1.
         11   -1    0    0    0    0 -0.00000000000E+00 -0.00000000000E+00 -0.45593999997E+02  0.45594000000E+02  0.51100000000E-03 0. -1.
    9900012    2    1    2    0    0 -0.10143803268E+02 -0.10205313398E+02  0.11984752501E+02  0.72461562571E+02  0.69999989939E+02 0.  0.
         12    1    1    2    0    0  0.10143803268E+02  0.10205313398E+02 -0.11984752501E+02  0.18726437429E+02  0.00000000000E+00 0. -1.
         11    1    3    3    0    0  0.15486550806E+02 -0.31550380679E+00 -0.66794537970E+01  0.16868547709E+02  0.51100000000E-03 0. -1.
        -11    1    3    3    0    0  0.77883226283E+01 -0.99893086083E+01  0.18196296155E+02  0.22170914502E+02  0.51100000000E-03 0.  1.
         12    1    3    3    0    0 -0.33418676702E+02  0.99499017261E-01  0.46791014346E+00  0.33422100360E+02  0.00000000000E+00 0. -1.
</event>
<event>
 7    1  0.2684545E-013  0.7246156E+02  0.7816164E-02  0.1226708E+00
        -11   -1    0    0    0    0  0.00000000000E+00  0.00000000000E+00  0.45593999997E+02  0.45594000000E+02  0.51100000000E-03 0.  1.
         11   -1    0    0    0    0 -0.00000000000E+00 -0.00000000000E+00 -0.45593999997E+02  0.45594000000E+02  0.51100000000E-03 0. -1.
    9900012    2    1    2    0    0 -0.14225069700E+02 -0.47201798201E+01  0.11227053367E+02  0.72461563264E+02  0.69999990842E+02 0.  0.
         12    1    1    2    0    0  0.14225069700E+02  0.47201798201E+01 -0.11227053367E+02  0.18726436736E+02  0.00000000000E+00 0. -1.
         11    1    3    3    0    0  0.17743355993E+01 -0.18196133813E+02  0.11026115439E+02  0.21350006428E+02  0.51100000000E-03 0. -1.
        -11    1    3    3    0    0  0.14012799492E+02  0.35448373714E+01  0.10497875209E+02  0.17864204593E+02  0.51100000000E-03 0.  1.
        -12    1    3    3    0    0 -0.30012204792E+02  0.99311166212E+01 -0.10296937280E+02  0.33247352243E+02  0.00000000000E+00 0.  1.
</event>
<event>
 7    1  0.2684545E-013  0.7246137E+02  0.7816164E-02  0.1226709E+00
        -11   -1    0    0    0    0  0.00000000000E+00  0.00000000000E+00  0.45593999997E+02  0.45594000000E+02  0.51100000000E-03 0.  1.
         11   -1    0    0    0    0 -0.00000000000E+00 -0.00000000000E+00 -0.45593999997E+02  0.45594000000E+02  0.51100000000E-03 0. -1.
    9900012    2    1    2    0    0 -0.18323998524E+02 -0.17565459596E+01  0.34397953623E+01  0.72461372761E+02  0.69999742676E+02 0.  0.
         12    1    1    2    0    0  0.18323998524E+02  0.17565459596E+01 -0.34397953623E+01  0.18726627239E+02  0.00000000000E+00 0. -1.
         11    1    3    3    0    0 -0.13147159625E+02 -0.29965486894E+01  0.11375641277E+02  0.17641777829E+02  0.51100000000E-03 0. -1.
        -11    1    3    3    0    0  0.22268791124E+02 -0.99776601731E+01 -0.58707009684E+01  0.25098165088E+02  0.51100000000E-03 0.  1.
         12    1    3    3    0    0 -0.27445630023E+02  0.11217662903E+02 -0.20651449463E+01  0.29721429844E+02  0.00000000000E+00 0. -1.
</event>
<event>
 7    1  0.2684545E-013  0.7246160E+02  0.7816164E-02  0.1226708E+00
        -11   -1    0    0    0    0  0.00000000000E+00  0.00000000000E+00  0.45593999997E+02  0.45594000000E+02  0.51100000000E-03 0. -1.
         11   -1    0    0    0    0 -0.00000000000E+00 -0.00000000000E+00 -0.45593999997E+02  0.45594000000E+02  0.51100000000E-03 0.  1.
    9900012    2    1    2    0    0  0.93757188016E+01 -0.16111423205E+02  0.17877250915E+01  0.72461600940E+02  0.70000039922E+02 0.  0.
         12    1    1    2    0    0 -0.93757188016E+01  0.16111423205E+02 -0.17877250915E+01  0.18726399060E+02  0.00000000000E+00 0. -1.
         11    1    3    3    0    0 -0.14375920959E+02  0.38488511773E+00  0.89337626308E+01  0.16930072503E+02  0.51100000000E-03 0. -1.
        -11    1    3    3    0    0  0.18014241842E+02 -0.15835573426E+02  0.17836506832E+02  0.29890119959E+02  0.51100000000E-03 0.  1.
        -12    1    3    3    0    0  0.57373979183E+01 -0.66073489631E+00 -0.24982544372E+02  0.25641408478E+02  0.00000000000E+00 0.  1.
</event>
<event>
 7    1  0.2684545E-013  0.7246157E+02  0.7816164E-02  0.1226708E+00
        -11   -1    0    0    0    0  0.00000000000E+00  0.00000000000E+00  0.45593999997E+02  0.45594000000E+02  0.51100000000E-03 0. -1.
         11   -1    0    0    0    0 -0.00000000000E+00 -0.00000000000E+00 -0.45593999997E+02  0.45594000000E+02  0.51100000000E-03 0.  1.
    9900012    2    1    2    0    0 -0.16520247106E+02  0.88157239923E+01  0.20917681845E+00  0.72461566573E+02  0.69999995153E+02 0.  0.
         12    1    1    2    0    0  0.16520247106E+02 -0.88157239923E+01 -0.20917681845E+00  0.18726433427E+02  0.00000000000E+00 0. -1.
         11    1    3    3    0    0 -0.21501760163E+02 -0.18892160028E+01  0.46930293199E+01  0.22088896570E+02  0.51100000000E-03 0. -1.
        -11    1    3    3    0    0 -0.20857472254E+02 -0.15784671173E+01 -0.58822068347E+01  0.21728462090E+02  0.51100000000E-03 0.  1.
         12    1    3    3    0    0  0.25838985311E+02  0.12283407112E+02  0.13983543333E+01  0.28644207914E+02  0.00000000000E+00 0. -1.
</event>
<event>
 7    1  0.2684545E-013  0.7246151E+02  0.7816164E-02  0.1226708E+00
        -11   -1    0    0    0    0  0.00000000000E+00  0.00000000000E+00  0.45593999997E+02  0.45594000000E+02  0.51100000000E-03 0.  1.
         11   -1    0    0    0    0 -0.00000000000E+00 -0.00000000000E+00 -0.45593999997E+02  0.45594000000E+02  0.51100000000E-03 0. -1.
    9900012    2    1    2    0    0  0.14232418559E+01  0.14365387110E+02  0.11928596546E+02  0.72461511281E+02  0.69999923123E+02 0.  0.
         12    1    1    2    0    0 -0.14232418559E+01 -0.14365387110E+02 -0.11928596546E+02  0.18726488719E+02  0.00000000000E+00 0. -1.
         11    1    3    3    0    0  0.28040899235E+02 -0.45123154670E+01 -0.11384693707E+02  0.30598435774E+02  0.51100000000E-03 0. -1.
        -11    1    3    3    0    0 -0.29233760900E+01  0.34560919612E+01  0.92261664621E+01  0.10276811142E+02  0.51100000000E-03 0.  1.
        -12    1    3    3    0    0 -0.23694281289E+02  0.15421610616E+02  0.14087123791E+02  0.31586264364E+02  0.00000000000E+00 0.  1.
</event>
<event>
 7    1  0.2684545E-013  0.7246157E+02  0.7816164E-02  0.1226708E+00
        -11   -1    0    0    0    0  0.00000000000E+00  0.00000000000E+00  0.45593999997E+02  0.45594000000E+02  0.51100000000E-03 0.  1.
         11   -1    0    0    0    0 -0.00000000000E+00 -0.00000000000E+00 -0.45593999997E+02  0.45594000000E+02  0.51100000000E-03 0. -1.
    9900012    2    1    2    0    0 -0.15062497058E+02 -0.45132191011E+01  0.10170119354E+02  0.72461567026E+02  0.69999995742E+02 0.  0.
         12    1    1    2    0    0  0.15062497058E+02  0.45132191011E+01 -0.10170119354E+02  0.18726432974E+02  0.00000000000E+00 0. -1.
         11    1    3    3    0    0 -0.26449250665E+02  0.45572827319E+01  0.83737724323E+01  0.28114973797E+02  0.51100000000E-03 0. -1.
        -11    1    3    3    0    0 -0.12332611010E+02  0.83810510109E+00 -0.10155803348E+02  0.15998001637E+02  0.51100000000E-03 0.  1.
        -12    1    3    3    0    0  0.23719364617E+02 -0.99086069342E+01  0.11952150269E+02  0.28348591592E+02  0.00000000000E+00 0.  1.
</event>
<event>
 7    1  0.2684545E-013  0.7246156E+02  0.7816164E-02  0.1226708E+00
        -11   -1    0    0    0    0  0.00000000000E+00  0.00000000000E+00  0.45593999997E+02  0.45594000000E+02  0.51100000000E-03 0. -1.
         11   -1    0    0    0    0 -0.00000000000E+00 -0.00000000000E+00 -0.45593999997E+02  0.45594000000E+02  0.51100000000E-03 0.  1.
    9900012    2    1    2    0    0 -0.12038240446E+02 -0.59666441830E+01 -0.13044517081E+02  0.72461561425E+02  0.69999988446E+02 0.  0.
         12    1    1    2    0    0  0.12038240446E+02  0.59666441830E+01  0.13044517081E+02  0.18726438575E+02  0.00000000000E+00 0. -1.
         11    1    3    3    0    0  0.61769830630E+01  0.83428560835E+01 -0.15867896961E+02  0.18961764728E+02  0.51100000000E-03 0. -1.
        -11    1    3    3    0    0  0.12079724508E+02 -0.12273961760E+01 -0.12226357591E+02  0.17231078485E+02  0.51100000000E-03 0.  1.
         12    1    3    3    0    0 -0.30294948016E+02 -0.13082104091E+02  0.15049737471E+02  0.36268718212E+02  0.00000000000E+00 0. -1.
</event>
<event>
 7    1  0.2684545E-013  0.7246158E+02  0.7816164E-02  0.1226708E+00
        -11   -1    0    0    0    0  0.00000000000E+00  0.00000000000E+00  0.45593999997E+02  0.45594000000E+02  0.51100000000E-03 0.  1.
         11   -1    0    0    0    0 -0.00000000000E+00 -0.00000000000E+00 -0.45593999997E+02  0.45594000000E+02  0.51100000000E-03 0. -1.
    9900012    2    1    2    0    0  0.78288004429E+01 -0.16474831056E+02  0.42389418042E+01  0.72461580098E+02  0.70000012772E+02 0.  0.
         12    1    1    2    0    0 -0.78288004429E+01  0.16474831056E+02 -0.42389418042E+01  0.18726419902E+02  0.00000000000E+00 0. -1.
         11    1    3    3    0    0 -0.11027829934E+02 -0.34608111269E+02  0.20724891860E+01  0.36381720827E+02  0.51100000000E-03 0. -1.
        -11    1    3    3    0    0  0.64406303100E+01 -0.51445902193E+01  0.48459835144E+01  0.95620125390E+01  0.51100000000E-03 0.  1.
        -12    1    3    3    0    0  0.12416000067E+02  0.23277870432E+02 -0.26795308962E+01  0.26517846732E+02  0.00000000000E+00 0.  1.
</event>
<event>
 7    1  0.4360595E-013  0.7246194E+02  0.7816164E-02  0.1226707E+00
        -11   -1    0    0    0    0  0.00000000000E+00  0.00000000000E+00  0.45593999997E+02  0.45594000000E+02  0.51100000000E-03 0. -1.
         11   -1    0    0    0    0 -0.00000000000E+00 -0.00000000000E+00 -0.45593999997E+02  0.45594000000E+02  0.51100000000E-03 0.  1.
    9900012    2    1    2    0    0 -0.13388357520E+01  0.15520884696E+02 -0.10391101502E+02  0.72461939727E+02  0.70000481253E+02 0.  0.
         12    1    1    2    0    0  0.13388357520E+01 -0.15520884696E+02  0.10391101502E+02  0.18726060273E+02  0.00000000000E+00 0. -1.
         11    1    3    3    0    0 -0.10223756005E+02 -0.21826781693E+01  0.19703648282E+02  0.22305224202E+02  0.51100000000E-03 0. -1.
        -11    1    3    3    0    0  0.10983230050E+02  0.55406436842E+01  0.47528660066E+01  0.13187866026E+02  0.51100000000E-03 0.  1.
        -12    1    3    3    0    0 -0.20983097975E+01  0.12162919181E+02 -0.34847615790E+02  0.36968849499E+02  0.00000000000E+00 0.  1.
</event>
<event>
 7    1  0.2684545E-013  0.7246159E+02  0.7816164E-02  0.1226708E+00
        -11   -1    0    0    0    0  0.00000000000E+00  0.00000000000E+00  0.45593999997E+02  0.45594000000E+02  0.51100000000E-03 0.  1.
         11   -1    0    0    0    0 -0.00000000000E+00 -0.00000000000E+00 -0.45593999997E+02  0.45594000000E+02  0.51100000000E-03 0. -1.
    9900012    2    1    2    0    0 -0.28525658573E+01 -0.17110533837E+02 -0.70548574711E+01  0.72461587794E+02  0.70000022797E+02 0.  0.
         12    1    1    2    0    0  0.28525658573E+01  0.17110533837E+02  0.70548574711E+01  0.18726412206E+02  0.00000000000E+00 0. -1.
         11    1    3    3    0    0 -0.23279297451E+01 -0.37550026337E+01  0.25539462505E+02  0.25918785600E+02  0.51100000000E-03 0.  1.
        -11    1    3    3    0    0 -0.15464736511E+02 -0.68934648868E+01 -0.17312604524E+02  0.24215784298E+02  0.51100000000E-03 0. -1.
        -12    1    3    3    0    0  0.14940100398E+02 -0.64620663165E+01 -0.15281715452E+02  0.22327017897E+02  0.00000000000E+00 0.  1.
</event>
<event>
 7    1  0.2684545E-013  0.7246155E+02  0.7816164E-02  0.1226708E+00
        -11   -1    0    0    0    0  0.00000000000E+00  0.00000000000E+00  0.45593999997E+02  0.45594000000E+02  0.51100000000E-03 0.  1.
         11   -1    0    0    0    0 -0.00000000000E+00 -0.00000000000E+00 -0.45593999997E+02  0.45594000000E+02  0.51100000000E-03 0. -1.
    9900012    2    1    2    0    0 -0.13382634582E+02  0.15177404077E+01  0.13010823194E+02  0.72461549068E+02  0.69999972349E+02 0.  0.
         12    1    1    2    0    0  0.13382634582E+02 -0.15177404077E+01 -0.13010823194E+02  0.18726450932E+02  0.00000000000E+00 0. -1.
         11    1    3    3    0    0  0.15848750711E+01  0.19457224816E+00  0.16254216674E+02  0.16332459928E+02  0.51100000000E-03 0. -1.
        -11    1    3    3    0    0 -0.30350949111E+02  0.81179088472E+01  0.11804564683E+02  0.33562304802E+02  0.51100000000E-03 0.  1.
         12    1    3    3    0    0  0.15383439458E+02 -0.67947406877E+01 -0.15047958162E+02  0.22566784339E+02  0.00000000000E+00 0. -1.
</event>
<event>
 7    1  0.2684545E-013  0.7246158E+02  0.7816164E-02  0.1226708E+00
        -11   -1    0    0    0    0  0.00000000000E+00  0.00000000000E+00  0.45593999997E+02  0.45594000000E+02  0.51100000000E-03 0. -1.
         11   -1    0    0    0    0 -0.00000000000E+00 -0.00000000000E+00 -0.45593999997E+02  0.45594000000E+02  0.51100000000E-03 0.  1.
    9900012    2    1    2    0    0 -0.46607516318E+01  0.16905550644E+02 -0.65695231185E+01  0.72461577962E+02  0.70000009989E+02 0.  0.
         12    1    1    2    0    0  0.46607516318E+01 -0.16905550644E+02  0.65695231185E+01  0.18726422038E+02  0.00000000000E+00 0. -1.
         11    1    3    3    0    0 -0.24589159897E+02 -0.63710795510E+00  0.36659406649E+01  0.24869093514E+02  0.51100000000E-03 0. -1.
        -11    1    3    3    0    0 -0.65373659724E+01  0.18877265731E+02 -0.41697249671E+01  0.20407717214E+02  0.51100000000E-03 0.  1.
        -12    1    3    3    0    0  0.26465774237E+02 -0.13346071322E+01 -0.60657388163E+01  0.27184767234E+02  0.00000000000E+00 0.  1.
</event>
<event>
 7    1  0.2684545E-013  0.7246156E+02  0.7816164E-02  0.1226708E+00
        -11   -1    0    0    0    0  0.00000000000E+00  0.00000000000E+00  0.45593999997E+02  0.45594000000E+02  0.51100000000E-03 0. -1.
         11   -1    0    0    0    0 -0.00000000000E+00 -0.00000000000E+00 -0.45593999997E+02  0.45594000000E+02  0.51100000000E-03 0.  1.
    9900012    2    1    2    0    0 -0.18087792211E+02 -0.28092735879E+00 -0.48406881334E+01  0.72461563904E+02  0.69999991676E+02 0.  0.
         12    1    1    2    0    0  0.18087792211E+02  0.28092735879E+00  0.48406881334E+01  0.18726436096E+02  0.00000000000E+00 0. -1.
         11    1    3    3    0    0  0.73262602085E+01  0.11259548001E+02  0.25601052076E+01  0.13675000869E+02  0.51100000000E-03 0. -1.
        -11    1    3    3    0    0 -0.17033153664E+01  0.19059126791E+02  0.10503206103E+01  0.19163892374E+02  0.51100000000E-03 0.  1.
        -12    1    3    3    0    0 -0.23710737053E+02 -0.30599602151E+02 -0.84511139513E+01  0.39622670662E+02  0.00000000000E+00 0.  1.
</event>
<event>
 7    1  0.2684545E-013  0.7246159E+02  0.7816164E-02  0.1226708E+00
        -11   -1    0    0    0    0  0.00000000000E+00  0.00000000000E+00  0.45593999997E+02  0.45594000000E+02  0.51100000000E-03 0.  1.
         11   -1    0    0    0    0 -0.00000000000E+00 -0.00000000000E+00 -0.45593999997E+02  0.45594000000E+02  0.51100000000E-03 0. -1.
    9900012    2    1    2    0    0 -0.86741602875E+01  0.16227926559E+02 -0.34773338615E+01  0.72461587960E+02  0.70000023013E+02 0.  0.
         12    1    1    2    0    0  0.86741602875E+01 -0.16227926559E+02  0.34773338615E+01  0.18726412040E+02  0.00000000000E+00 0. -1.
         11    1    3    3    0    0 -0.18827961763E+02  0.96277625840E+01  0.76754373664E+01  0.22496628537E+02  0.51100000000E-03 0. -1.
        -11    1    3    3    0    0  0.22849899014E+02 -0.12076273540E+02 -0.32961530755E+01  0.26054153084E+02  0.51100000000E-03 0.  1.
         12    1    3    3    0    0 -0.12696097538E+02  0.18676437516E+02 -0.78566181524E+01  0.23910806339E+02  0.00000000000E+00 0. -1.
</event>
<event>
 7    1  0.2684545E-013  0.7246161E+02  0.7816164E-02  0.1226708E+00
        -11   -1    0    0    0    0  0.00000000000E+00  0.00000000000E+00  0.45593999997E+02  0.45594000000E+02  0.51100000000E-03 0.  1.
         11   -1    0    0    0    0 -0.00000000000E+00 -0.00000000000E+00 -0.45593999997E+02  0.45594000000E+02  0.51100000000E-03 0. -1.
    9900012    2    1    2    0    0 -0.26809737503E+00  0.17206743003E+02  0.73847095075E+01  0.72461606448E+02  0.70000047096E+02 0.  0.
         12    1    1    2    0    0  0.26809737503E+00 -0.17206743003E+02 -0.73847095075E+01  0.18726393552E+02  0.00000000000E+00 0. -1.
         11    1    3    3    0    0 -0.13361457542E+02  0.54969846207E+00  0.50590403335E+00  0.13382326225E+02  0.51100000000E-03 0.  1.
        -11    1    3    3    0    0  0.74255854140E+01  0.23198073966E+02 -0.19573155930E+02  0.31247374094E+02  0.51100000000E-03 0. -1.
         12    1    3    3    0    0  0.56677747533E+01 -0.65410294248E+01  0.26451961404E+02  0.27831906128E+02  0.00000000000E+00 0. -1.
</event>
<event>
 7    1  0.2684545E-013  0.7246157E+02  0.7816164E-02  0.1226708E+00
        -11   -1    0    0    0    0  0.00000000000E+00  0.00000000000E+00  0.45593999997E+02  0.45594000000E+02  0.51100000000E-03 0.  1.
         11   -1    0    0    0    0 -0.00000000000E+00 -0.00000000000E+00 -0.45593999997E+02  0.45594000000E+02  0.51100000000E-03 0. -1.
    9900012    2    1    2    0    0 -0.27409911342E+01  0.15153684772E+01  0.18462657410E+02  0.72461572346E+02  0.70000002673E+02 0.  0.
         12    1    1    2    0    0  0.27409911342E+01 -0.15153684772E+01 -0.18462657410E+02  0.18726427654E+02  0.00000000000E+00 0. -1.
         11    1    3    3    0    0  0.58518590731E+01 -0.20378678588E+02  0.56362727879E+01  0.21938604486E+02  0.51100000000E-03 0. -1.
        -11    1    3    3    0    0  0.14279120192E+02  0.18542616895E+02  0.14185295641E+02  0.27366850887E+02  0.51100000000E-03 0.  1.
         12    1    3    3    0    0 -0.22871970399E+02  0.33514301699E+01 -0.13589110189E+01  0.23156116973E+02  0.00000000000E+00 0. -1.
</event>
<event>
 7    1  0.2684545E-013  0.7246191E+02  0.7816164E-02  0.1226707E+00
        -11   -1    0    0    0    0  0.00000000000E+00  0.00000000000E+00  0.45593999997E+02  0.45594000000E+02  0.51100000000E-03 0.  1.
         11   -1    0    0    0    0 -0.00000000000E+00 -0.00000000000E+00 -0.45593999997E+02  0.45594000000E+02  0.51100000000E-03 0. -1.
    9900012    2    1    2    0    0  0.97052466284E+01  0.15917562456E+02 -0.17623823981E+01  0.72461905950E+02  0.70000437253E+02 0.  0.
         12    1    1    2    0    0 -0.97052466284E+01 -0.15917562456E+02  0.17623823981E+01  0.18726094050E+02  0.00000000000E+00 0. -1.
         11    1    3    3    0    0 -0.97691689224E+01  0.20675365608E+02 -0.83852942677E+01  0.24356119655E+02  0.51100000000E-03 0. -1.
        -11    1    3    3    0    0 -0.92378652329E+01  0.90527482124E+01 -0.54481922637E+01  0.14034714228E+02  0.51100000000E-03 0.  1.
        -12    1    3    3    0    0  0.28712280784E+02 -0.13810551365E+02  0.12071104133E+02  0.34071072067E+02  0.00000000000E+00 0.  1.
</event>
<event>
 7    1  0.2684545E-013  0.7246149E+02  0.7816164E-02  0.1226708E+00
        -11   -1    0    0    0    0  0.00000000000E+00  0.00000000000E+00  0.45593999997E+02  0.45594000000E+02  0.51100000000E-03 0. -1.
         11   -1    0    0    0    0 -0.00000000000E+00 -0.00000000000E+00 -0.45593999997E+02  0.45594000000E+02  0.51100000000E-03 0.  1.
    9900012    2    1    2    0    0  0.11508585455E+01  0.65677828063E+01 -0.17499202898E+02  0.72461485417E+02  0.69999889431E+02 0.  0.
         12    1    1    2    0    0 -0.11508585455E+01 -0.65677828063E+01  0.17499202898E+02  0.18726514583E+02  0.00000000000E+00 0. -1.
         11    1    3    3    0    0 -0.80374978151E+00 -0.15654104344E+02  0.18220313787E-01  0.15674735365E+02  0.51100000000E-03 0. -1.
        -11    1    3    3    0    0 -0.16484854751E+01 -0.84362622493E+01 -0.23782503179E+02  0.25288247919E+02  0.51100000000E-03 0.  1.
         12    1    3    3    0    0  0.36030938020E+01  0.30658149400E+02  0.62650799674E+01  0.31498502132E+02  0.00000000000E+00 0. -1.
</event>
<event>
 7    1  0.2684545E-013  0.7246156E+02  0.7816164E-02  0.1226708E+00
        -11   -1    0    0    0    0  0.00000000000E+00  0.00000000000E+00  0.45593999997E+02  0.45594000000E+02  0.51100000000E-03 0.  1.
         11   -1    0    0    0    0 -0.00000000000E+00 -0.00000000000E+00 -0.45593999997E+02  0.45594000000E+02  0.51100000000E-03 0. -1.
    9900012    2    1    2    0    0 -0.59539615296E+00  0.17788896074E+02 -0.58206718848E+01  0.72461560368E+02  0.69999987069E+02 0.  0.
         12    1    1    2    0    0  0.59539615296E+00 -0.17788896074E+02  0.58206718848E+01  0.18726439632E+02  0.00000000000E+00 0. -1.
         11    1    3    3    0    0 -0.11219223685E+02  0.18317041631E+02 -0.20502043202E+02  0.29693749678E+02  0.51100000000E-03 0. -1.
        -11    1    3    3    0    0  0.18943628644E+01  0.18218317719E+02  0.18002674805E+01  0.18404800310E+02  0.51100000000E-03 0.  1.
         12    1    3    3    0    0  0.87294646676E+01 -0.18746463276E+02  0.12881103837E+02  0.24363010381E+02  0.00000000000E+00 0. -1.
</event>
<event>
 7    1  0.2684545E-013  0.7246165E+02  0.7816164E-02  0.1226708E+00
        -11   -1    0    0    0    0  0.00000000000E+00  0.00000000000E+00  0.45593999997E+02  0.45594000000E+02  0.51100000000E-03 0.  1.
         11   -1    0    0    0    0 -0.00000000000E+00 -0.00000000000E+00 -0.45593999997E+02  0.45594000000E+02  0.51100000000E-03 0. -1.
    9900012    2    1    2    0    0 -0.15967118147E+02  0.64778827690E+01  0.73324218771E+01  0.72461648576E+02  0.70000101976E+02 0.  0.
         12    1    1    2    0    0  0.15967118147E+02 -0.64778827690E+01 -0.73324218771E+01  0.18726351424E+02  0.00000000000E+00 0. -1.
         11    1    3    3    0    0 -0.10467720405E+02 -0.17717914415E+02 -0.11773782970E+02  0.23709062137E+02  0.51100000000E-03 0. -1.
        -11    1    3    3    0    0 -0.46768253066E+00 -0.99158510918E+01  0.15086000222E+01  0.10040851762E+02  0.51100000000E-03 0.  1.
        -12    1    3    3    0    0 -0.50317152113E+01  0.34111648276E+02  0.17597604825E+02  0.38711734677E+02  0.00000000000E+00 0.  1.
</event>
<event>
 7    1  0.2684545E-013  0.7246153E+02  0.7816164E-02  0.1226708E+00
        -11   -1    0    0    0    0  0.00000000000E+00  0.00000000000E+00  0.45593999997E+02  0.45594000000E+02  0.51100000000E-03 0.  1.
         11   -1    0    0    0    0 -0.00000000000E+00 -0.00000000000E+00 -0.45593999997E+02  0.45594000000E+02  0.51100000000E-03 0. -1.
    9900012    2    1    2    0    0  0.60088271523E+01 -0.14486767169E+01  0.17676988215E+02  0.72461532626E+02  0.69999950930E+02 0.  0.
         12    1    1    2    0    0 -0.60088271523E+01  0.14486767169E+01 -0.17676988215E+02  0.18726467374E+02  0.00000000000E+00 0. -1.
         11    1    3    3    0    0 -0.10416888860E+02  0.10835103632E+02 -0.17033187685E+02  0.22716525421E+02  0.51100000000E-03 0. -1.
        -11    1    3    3    0    0 -0.61557992113E+01 -0.37230979745E+01 -0.31525243094E+00  0.72010212341E+01  0.51100000000E-03 0.  1.
        -12    1    3    3    0    0  0.22581515223E+02 -0.85606823743E+01  0.35025428331E+02  0.42543985970E+02  0.00000000000E+00 0.  1.
</event>
<event>
 7    1  0.4184502E-013  0.7246149E+02  0.7816164E-02  0.1226708E+00
        -11   -1    0    0    0    0  0.00000000000E+00  0.00000000000E+00  0.45593999997E+02  0.45594000000E+02  0.51100000000E-03 0. -1.
         11   -1    0    0    0    0 -0.00000000000E+00 -0.00000000000E+00 -0.45593999997E+02  0.45594000000E+02  0.51100000000E-03 0.  1.
    9900012    2    1    2    0    0  0.49216392135E+01 -0.10041657734E+02 -0.15020815849E+02  0.72461485873E+02  0.69999890025E+02 0.  0.
         12    1    1    2    0    0 -0.49216392135E+01  0.10041657734E+02  0.15020815849E+02  0.18726514127E+02  0.00000000000E+00 0. -1.
         11    1    3    3    0    0 -0.25283238897E+01 -0.21070335598E+01  0.24444917391E+02  0.24665481925E+02  0.51100000000E-03 0. -1.
        -11    1    3    3    0    0  0.74409537710E+01 -0.43067413589E+00  0.17083883681E+00  0.74553644715E+01  0.51100000000E-03 0.  1.
        -12    1    3    3    0    0  0.90093322057E-02 -0.75039500380E+01 -0.39636572077E+02  0.40340639476E+02  0.00000000000E+00 0.  1.
</event>
<event>
 7    1  0.2684545E-013  0.7246218E+02  0.7816164E-02  0.1226706E+00
        -11   -1    0    0    0    0  0.00000000000E+00  0.00000000000E+00  0.45593999997E+02  0.45594000000E+02  0.51100000000E-03 0.  1.
         11   -1    0    0    0    0 -0.00000000000E+00 -0.00000000000E+00 -0.45593999997E+02  0.45594000000E+02  0.51100000000E-03 0. -1.
    9900012    2    1    2    0    0 -0.14480437492E+02  0.11470335052E+02  0.30667296096E+01  0.72462175942E+02  0.70000788964E+02 0.  0.
         12    1    1    2    0    0  0.14480437492E+02 -0.11470335052E+02 -0.30667296096E+01  0.18725824058E+02  0.00000000000E+00 0. -1.
         11    1    3    3    0    0  0.16013179965E+02  0.72834462758E+01  0.17557213816E+01  0.17679170797E+02  0.51100000000E-03 0. -1.
        -11    1    3    3    0    0 -0.32195499737E+01  0.20808114650E+02  0.73028561345E+01  0.22286203026E+02  0.51100000000E-03 0.  1.
         12    1    3    3    0    0 -0.27274067483E+02 -0.16621225874E+02 -0.59918479065E+01  0.32496802119E+02  0.00000000000E+00 0. -1.
</event>
<event>
 7    1  0.2684545E-013  0.7246156E+02  0.7816164E-02  0.1226708E+00
        -11   -1    0    0    0    0  0.00000000000E+00  0.00000000000E+00  0.45593999997E+02  0.45594000000E+02  0.51100000000E-03 0. -1.
         11   -1    0    0    0    0 -0.00000000000E+00 -0.00000000000E+00 -0.45593999997E+02  0.45594000000E+02  0.51100000000E-03 0.  1.
    9900012    2    1    2    0    0  0.13242988010E+02  0.13176599281E+02 -0.12961151526E+01  0.72461563752E+02  0.69999991478E+02 0.  0.
         12    1    1    2    0    0 -0.13242988010E+02 -0.13176599281E+02  0.12961151526E+01  0.18726436248E+02  0.00000000000E+00 0. -1.
         11    1    3    3    0    0  0.24112414373E+00 -0.18889902672E+02 -0.11960299838E+02  0.22359233804E+02  0.51100000000E-03 0. -1.
        -11    1    3    3    0    0 -0.77883660177E+01  0.15975930542E+02  0.15246084440E+02  0.23416491900E+02  0.51100000000E-03 0.  1.
        -12    1    3    3    0    0  0.20790229884E+02  0.16090571411E+02 -0.45818997537E+01  0.26685838048E+02  0.00000000000E+00 0.  1.
</event>
<event>
 7    1  0.2684545E-013  0.7246195E+02  0.7816164E-02  0.1226707E+00
        -11   -1    0    0    0    0  0.00000000000E+00  0.00000000000E+00  0.45593999997E+02  0.45594000000E+02  0.51100000000E-03 0.  1.
         11   -1    0    0    0    0 -0.00000000000E+00 -0.00000000000E+00 -0.45593999997E+02  0.45594000000E+02  0.51100000000E-03 0. -1.
    9900012    2    1    2    0    0  0.12639650639E+02 -0.29134099555E+01  0.13506160928E+02  0.72461945721E+02  0.70000489061E+02 0.  0.
         12    1    1    2    0    0 -0.12639650639E+02  0.29134099555E+01 -0.13506160928E+02  0.18726054279E+02  0.00000000000E+00 0. -1.
         11    1    3    3    0    0 -0.44644757791E+01 -0.15707055581E+02  0.20079662992E+02  0.25881190180E+02  0.51100000000E-03 0. -1.
        -11    1    3    3    0    0  0.25595968394E+02  0.25334151997E+01  0.79047951575E+01  0.26908317996E+02  0.51100000000E-03 0.  1.
         12    1    3    3    0    0 -0.84918419765E+01  0.10260230426E+02 -0.14478297221E+02  0.19672437545E+02  0.00000000000E+00 0. -1.
</event>
<event>
 7    1  0.2684545E-013  0.7246120E+02  0.7816164E-02  0.1226709E+00
        -11   -1    0    0    0    0  0.00000000000E+00  0.00000000000E+00  0.45593999997E+02  0.45594000000E+02  0.51100000000E-03 0.  1.
         11   -1    0    0    0    0 -0.00000000000E+00 -0.00000000000E+00 -0.45593999997E+02  0.45594000000E+02  0.51100000000E-03 0. -1.
    9900012    2    1    2    0    0 -0.88791373491E+01 -0.16187416924E+02 -0.31339512932E+01  0.72461195750E+02  0.69999512084E+02 0.  0.
         12    1    1    2    0    0  0.88791373491E+01  0.16187416924E+02  0.31339512932E+01  0.18726804250E+02  0.00000000000E+00 0. -1.
         11    1    3    3    0    0 -0.30883837149E+01  0.16972167561E+01  0.11833146562E+02  0.12346741129E+02  0.51100000000E-03 0. -1.
        -11    1    3    3    0    0 -0.79637339647E+01  0.14063620486E+02  0.10437266578E+02  0.19239101167E+02  0.51100000000E-03 0.  1.
         12    1    3    3    0    0  0.21729803305E+01 -0.31948254166E+02 -0.25404364433E+02  0.40875353454E+02  0.00000000000E+00 0. -1.
</event>
<event>
 7    1  0.2684545E-013  0.7246160E+02  0.7816164E-02  0.1226708E+00
        -11   -1    0    0    0    0  0.00000000000E+00  0.00000000000E+00  0.45593999997E+02  0.45594000000E+02  0.51100000000E-03 0. -1.
         11   -1    0    0    0    0 -0.00000000000E+00 -0.00000000000E+00 -0.45593999997E+02  0.45594000000E+02  0.51100000000E-03 0.  1.
    9900012    2    1    2    0    0 -0.13827333229E+02  0.10279698368E+02 -0.73355903658E+01  0.72461595412E+02  0.70000032721E+02 0.  0.
         12    1    1    2    0    0  0.13827333229E+02 -0.10279698368E+02  0.73355903658E+01  0.18726404588E+02  0.00000000000E+00 0. -1.
         11    1    3    3    0    0 -0.12065410715E+02  0.29488859911E+01 -0.41846524698E+00  0.12427597424E+02  0.51100000000E-03 0. -1.
        -11    1    3    3    0    0 -0.21697405647E+02  0.12657670997E+02  0.15538604737E+02  0.29537133989E+02  0.51100000000E-03 0.  1.
         12    1    3    3    0    0  0.19935483132E+02 -0.53268586195E+01 -0.22455729855E+02  0.30496864000E+02  0.00000000000E+00 0. -1.
</event>
<event>
 7    1  0.2684545E-013  0.7246153E+02  0.7816164E-02  0.1226708E+00
        -11   -1    0    0    0    0  0.00000000000E+00  0.00000000000E+00  0.45593999997E+02  0.45594000000E+02  0.51100000000E-03 0.  1.
         11   -1    0    0    0    0 -0.00000000000E+00 -0.00000000000E+00 -0.45593999997E+02  0.45594000000E+02  0.51100000000E-03 0. -1.
    9900012    2    1    2    0    0  0.14979650147E+02  0.61578492403E+01  0.94006199887E+01  0.72461529912E+02  0.69999947394E+02 0.  0.
         12    1    1    2    0    0 -0.14979650147E+02 -0.61578492403E+01 -0.94006199887E+01  0.18726470088E+02  0.00000000000E+00 0. -1.
         11    1    3    3    0    0 -0.33943568200E+01 -0.14269688509E+00 -0.19645988196E+02  0.19937574404E+02  0.51100000000E-03 0. -1.
        -11    1    3    3    0    0 -0.55546276210E+01  0.79347024660E+01 -0.49822917929E+01  0.10892044023E+02  0.51100000000E-03 0.  1.
        -12    1    3    3    0    0  0.23928634588E+02 -0.16341563406E+01  0.34028899978E+02  0.41631911485E+02  0.00000000000E+00 0.  1.
</event>
<event>
 7    1  0.2684545E-013  0.7246157E+02  0.7816164E-02  0.1226708E+00
        -11   -1    0    0    0    0  0.00000000000E+00  0.00000000000E+00  0.45593999997E+02  0.45594000000E+02  0.51100000000E-03 0. -1.
         11   -1    0    0    0    0 -0.00000000000E+00 -0.00000000000E+00 -0.45593999997E+02  0.45594000000E+02  0.51100000000E-03 0.  1.
    9900012    2    1    2    0    0  0.16823619443E+02 -0.42303451626E+01  0.70533025939E+01  0.72461572982E+02  0.70000003502E+02 0.  0.
         12    1    1    2    0    0 -0.16823619443E+02  0.42303451626E+01 -0.70533025939E+01  0.18726427018E+02  0.00000000000E+00 0. -1.
         11    1    3    3    0    0 -0.28960266724E+00 -0.24851636582E+02 -0.18214938546E+01  0.24919982958E+02  0.51100000000E-03 0. -1.
        -11    1    3    3    0    0  0.34002878412E+01 -0.10911990205E+02 -0.17250921363E+01  0.11558954571E+02  0.51100000000E-03 0.  1.
        -12    1    3    3    0    0  0.13712934269E+02  0.31533281623E+02  0.10599888585E+02  0.35982635454E+02  0.00000000000E+00 0.  1.
</event>
<event>
 7    1  0.2684545E-013  0.7246160E+02  0.7816164E-02  0.1226708E+00
        -11   -1    0    0    0    0  0.00000000000E+00  0.00000000000E+00  0.45593999997E+02  0.45594000000E+02  0.51100000000E-03 0.  1.
         11   -1    0    0    0    0 -0.00000000000E+00 -0.00000000000E+00 -0.45593999997E+02  0.45594000000E+02  0.51100000000E-03 0. -1.
    9900012    2    1    2    0    0  0.49662526221E+00 -0.73508040174E+01  0.17216192585E+02  0.72461595020E+02  0.70000032210E+02 0.  0.
         12    1    1    2    0    0 -0.49662526221E+00  0.73508040174E+01 -0.17216192585E+02  0.18726404980E+02  0.00000000000E+00 0. -1.
         11    1    3    3    0    0 -0.17373928161E+02  0.40895647853E+01  0.29831764100E+01  0.18096332822E+02  0.51100000000E-03 0. -1.
        -11    1    3    3    0    0 -0.51285200267E+01 -0.19556281142E+02 -0.76319254361E+01  0.21610093380E+02  0.51100000000E-03 0.  1.
        -12    1    3    3    0    0  0.22999073450E+02  0.81159123392E+01  0.21864941611E+02  0.32755168818E+02  0.00000000000E+00 0.  1.
</event>
<event>
 7    1  0.2684545E-013  0.7246154E+02  0.7816164E-02  0.1226708E+00
        -11   -1    0    0    0    0  0.00000000000E+00  0.00000000000E+00  0.45593999997E+02  0.45594000000E+02  0.51100000000E-03 0. -1.
         11   -1    0    0    0    0 -0.00000000000E+00 -0.00000000000E+00 -0.45593999997E+02  0.45594000000E+02  0.51100000000E-03 0.  1.
    9900012    2    1    2    0    0  0.97321854433E+01 -0.14003402848E+02 -0.77375344097E+01  0.72461543753E+02  0.69999965425E+02 0.  0.
         12    1    1    2    0    0 -0.97321854433E+01  0.14003402848E+02  0.77375344097E+01  0.18726456247E+02  0.00000000000E+00 0. -1.
         11    1    3    3    0    0  0.43876490361E+01 -0.18790750666E+02  0.13758612337E+02  0.23699012392E+02  0.51100000000E-03 0. -1.
        -11    1    3    3    0    0 -0.34838327063E+01  0.10358967300E+02  0.10469980038E+02  0.15134919098E+02  0.51100000000E-03 0.  1.
        -12    1    3    3    0    0  0.88283691135E+01 -0.55716194824E+01 -0.31966126785E+02  0.33627612263E+02  0.00000000000E+00 0.  1.
</event>
<event>
 7    1  0.2684545E-013  0.7246157E+02  0.7816164E-02  0.1226708E+00
        -11   -1    0    0    0    0  0.00000000000E+00  0.00000000000E+00  0.45593999997E+02  0.45594000000E+02  0.51100000000E-03 0. -1.
         11   -1    0    0    0    0 -0.00000000000E+00 -0.00000000000E+00 -0.45593999997E+02  0.45594000000E+02  0.51100000000E-03 0.  1.
    9900012    2    1    2    0    0 -0.13038416303E+02  0.13410405468E+02  0.91653533109E+00  0.72461566502E+02  0.69999995060E+02 0.  0.
         12    1    1    2    0    0  0.13038416303E+02 -0.13410405468E+02 -0.91653533109E+00  0.18726433498E+02  0.00000000000E+00 0. -1.
         11    1    3    3    0    0 -0.14501084731E+02 -0.34003587493E+01  0.21085222698E+02  0.25815315503E+02  0.51100000000E-03 0. -1.
        -11    1    3    3    0    0  0.11998412260E+02 -0.84548779845E+01 -0.74794931736E+01  0.16473908974E+02  0.51100000000E-03 0.  1.
        -12    1    3    3    0    0 -0.10535743833E+02  0.25265642202E+02 -0.12689194194E+02  0.30172342025E+02  0.00000000000E+00 0.  1.
</event>
<event>
 7    1  0.2684545E-013  0.7246160E+02  0.7816164E-02  0.1226708E+00
        -11   -1    0    0    0    0  0.00000000000E+00  0.00000000000E+00  0.45593999997E+02  0.45594000000E+02  0.51100000000E-03 0.  1.
         11   -1    0    0    0    0 -0.00000000000E+00 -0.00000000000E+00 -0.45593999997E+02  0.45594000000E+02  0.51100000000E-03 0. -1.
    9900012    2    1    2    0    0 -0.11781709790E+02 -0.30353018536E+01  0.14235742735E+02  0.72461598473E+02  0.70000036708E+02 0.  0.
         12    1    1    2    0    0  0.11781709790E+02  0.30353018536E+01 -0.14235742735E+02  0.18726401527E+02  0.00000000000E+00 0. -1.
         11    1    3    3    0    0 -0.12916959003E+02  0.23078732382E+02 -0.27085317710E+01  0.26585933553E+02  0.51100000000E-03 0. -1.
        -11    1    3    3    0    0 -0.50057589054E+01  0.71644031069E+01  0.25785837030E+01  0.91123755559E+01  0.51100000000E-03 0.  1.
        -12    1    3    3    0    0  0.61410081182E+01 -0.33278437343E+02  0.14365690803E+02  0.36763289365E+02  0.00000000000E+00 0.  1.
</event>
<event>
 7    1  0.2684545E-013  0.7246173E+02  0.7816164E-02  0.1226708E+00
        -11   -1    0    0    0    0  0.00000000000E+00  0.00000000000E+00  0.45593999997E+02  0.45594000000E+02  0.51100000000E-03 0.  1.
         11   -1    0    0    0    0 -0.00000000000E+00 -0.00000000000E+00 -0.45593999997E+02  0.45594000000E+02  0.51100000000E-03 0. -1.
    9900012    2    1    2    0    0 -0.15986932555E+02  0.17029379280E+01  0.96016333855E+01  0.72461725043E+02  0.70000201588E+02 0.  0.
         12    1    1    2    0    0  0.15986932555E+02 -0.17029379280E+01 -0.96016333855E+01  0.18726274957E+02  0.00000000000E+00 0. -1.
         11    1    3    3    0    0 -0.38356959470E+01 -0.20182302311E+01  0.81594823508E+01  0.92392082538E+01  0.51100000000E-03 0. -1.
        -11    1    3    3    0    0 -0.75681745591E+01 -0.28481281456E+02 -0.54603392073E+01  0.29971252294E+02  0.51100000000E-03 0.  1.
         12    1    3    3    0    0 -0.45830620488E+01  0.32202449615E+02  0.69024902420E+01  0.33251264495E+02  0.00000000000E+00 0. -1.
</event>
<event>
 7    1  0.2684545E-013  0.7246157E+02  0.7816164E-02  0.1226708E+00
        -11   -1    0    0    0    0  0.00000000000E+00  0.00000000000E+00  0.45593999997E+02  0.45594000000E+02  0.51100000000E-03 0.  1.
         11   -1    0    0    0    0 -0.00000000000E+00 -0.00000000000E+00 -0.45593999997E+02  0.45594000000E+02  0.51100000000E-03 0. -1.
    9900012    2    1    2    0    0  0.78420591669E+01  0.16179886306E+02  0.52338029492E+01  0.72461566646E+02  0.69999995247E+02 0.  0.
         12    1    1    2    0    0 -0.78420591669E+01 -0.16179886306E+02 -0.52338029492E+01  0.18726433354E+02  0.00000000000E+00 0. -1.
         11    1    3    3    0    0  0.18843804969E+02  0.22935688274E+02  0.38302260843E+01  0.29930008594E+02  0.51100000000E-03 0. -1.
        -11    1    3    3    0    0 -0.63652389849E+01  0.28279374535E+01 -0.18605452636E+02  0.19866463339E+02  0.51100000000E-03 0.  1.
        -12    1    3    3    0    0 -0.46365068172E+01 -0.95837394216E+01  0.20009029500E+02  0.22665094712E+02  0.00000000000E+00 0.  1.
</event>
<event>
 7    1  0.2684545E-013  0.7246215E+02  0.7816164E-02  0.1226706E+00
        -11   -1    0    0    0    0  0.00000000000E+00  0.00000000000E+00  0.45593999997E+02  0.45594000000E+02  0.51100000000E-03 0. -1.
         11   -1    0    0    0    0 -0.00000000000E+00 -0.00000000000E+00 -0.45593999997E+02  0.45594000000E+02  0.51100000000E-03 0.  1.
    9900012    2    1    2    0    0 -0.16880939218E+02  0.45097541057E+01 -0.67344891610E+01  0.72462153284E+02  0.70000759449E+02 0.  0.
         12    1    1    2    0    0  0.16880939218E+02 -0.45097541057E+01  0.67344891610E+01  0.18725846716E+02  0.00000000000E+00 0. -1.
         11    1    3    3    0    0  0.14299898278E+02  0.32644765842E+01 -0.29050399540E+01  0.14952697266E+02  0.51100000000E-03 0. -1.
        -11    1    3    3    0    0 -0.13721238807E+01  0.18010624128E+02 -0.12817156985E+02  0.22148246406E+02  0.51100000000E-03 0.  1.
        -12    1    3    3    0    0 -0.29808713615E+02 -0.16765346606E+02  0.89877077779E+01  0.35361209613E+02  0.00000000000E+00 0.  1.
</event>
<event>
 7    1  0.2684545E-013  0.7246156E+02  0.7816164E-02  0.1226708E+00
        -11   -1    0    0    0    0  0.00000000000E+00  0.00000000000E+00  0.45593999997E+02  0.45594000000E+02  0.51100000000E-03 0.  1.
         11   -1    0    0    0    0 -0.00000000000E+00 -0.00000000000E+00 -0.45593999997E+02  0.45594000000E+02  0.51100000000E-03 0. -1.
    9900012    2    1    2    0    0 -0.21863869926E+01 -0.27078823501E+01  0.18400181687E+02  0.72461558773E+02  0.69999984991E+02 0.  0.
         12    1    1    2    0    0  0.21863869926E+01  0.27078823501E+01 -0.18400181687E+02  0.18726441227E+02  0.00000000000E+00 0. -1.
         11    1    3    3    0    0 -0.16690894630E+02  0.24491315590E+02 -0.65657794985E+01  0.30356547294E+02  0.51100000000E-03 0. -1.
        -11    1    3    3    0    0  0.77600629040E+01 -0.34418398324E+01  0.28532325227E+01  0.89557676274E+01  0.51100000000E-03 0.  1.
        -12    1    3    3    0    0  0.67444447338E+01 -0.23757358108E+02  0.22112728663E+02  0.33149243852E+02  0.00000000000E+00 0.  1.
</event>
<event>
 7    1  0.2684545E-013  0.7246167E+02  0.7816164E-02  0.1226708E+00
        -11   -1    0    0    0    0  0.00000000000E+00  0.00000000000E+00  0.45593999997E+02  0.45594000000E+02  0.51100000000E-03 0. -1.
         11   -1    0    0    0    0 -0.00000000000E+00 -0.00000000000E+00 -0.45593999997E+02  0.45594000000E+02  0.51100000000E-03 0.  1.
    9900012    2    1    2    0    0  0.11246709062E+02 -0.14782282481E+02 -0.23813976065E+01  0.72461671085E+02  0.70000131299E+02 0.  0.
         12    1    1    2    0    0 -0.11246709062E+02  0.14782282481E+02  0.23813976065E+01  0.18726328915E+02  0.00000000000E+00 0. -1.
         11    1    3    3    0    0  0.33636588851E+01  0.40138235256E+01  0.57741566141E+01  0.77952463242E+01  0.51100000000E-03 0. -1.
        -11    1    3    3    0    0 -0.13071461253E+02 -0.54066018855E+01  0.21642623923E+02  0.25855320802E+02  0.51100000000E-03 0.  1.
         12    1    3    3    0    0  0.20954511430E+02 -0.13389504121E+02 -0.29798178143E+02  0.38811103959E+02  0.00000000000E+00 0. -1.
</event>
<event>
 7    1  0.2684545E-013  0.7246165E+02  0.7816164E-02  0.1226708E+00
        -11   -1    0    0    0    0  0.00000000000E+00  0.00000000000E+00  0.45593999997E+02  0.45594000000E+02  0.51100000000E-03 0. -1.
         11   -1    0    0    0    0 -0.00000000000E+00 -0.00000000000E+00 -0.45593999997E+02  0.45594000000E+02  0.51100000000E-03 0.  1.
    9900012    2    1    2    0    0 -0.80982440300E+01  0.16170871379E+02 -0.48577408186E+01  0.72461647355E+02  0.70000100386E+02 0.  0.
         12    1    1    2    0    0  0.80982440300E+01 -0.16170871379E+02  0.48577408186E+01  0.18726352645E+02  0.00000000000E+00 0. -1.
         11    1    3    3    0    0  0.95725912843E+01  0.12498878225E+02 -0.42522170186E+01  0.16307599781E+02  0.51100000000E-03 0. -1.
        -11    1    3    3    0    0 -0.17798186532E+02  0.24391888720E+02 -0.12017896647E+02  0.32498761811E+02  0.51100000000E-03 0.  1.
         12    1    3    3    0    0  0.12735121797E+00 -0.20719895566E+02  0.11412372847E+02  0.23655285764E+02  0.00000000000E+00 0. -1.
</event>
<event>
 7    1  0.2684545E-013  0.7246147E+02  0.7816164E-02  0.1226708E+00
        -11   -1    0    0    0    0  0.00000000000E+00  0.00000000000E+00  0.45593999997E+02  0.45594000000E+02  0.51100000000E-03 0. -1.
         11   -1    0    0    0    0 -0.00000000000E+00 -0.00000000000E+00 -0.45593999997E+02  0.45594000000E+02  0.51100000000E-03 0.  1.
    9900012    2    1    2    0    0  0.85437428665E+01  0.16385699952E+02  0.30325436901E+01  0.72461467318E+02  0.69999865854E+02 0.  0.
         12    1    1    2    0    0 -0.85437428665E+01 -0.16385699952E+02 -0.30325436901E+01  0.18726532682E+02  0.00000000000E+00 0. -1.
         11    1    3    3    0    0 -0.81059906963E+01  0.54980669878E+00  0.71492445891E+01  0.10822248890E+02  0.51100000000E-03 0. -1.
        -11    1    3    3    0    0  0.35017846334E+01 -0.33725065792E+01 -0.27923545172E+02  0.28343617826E+02  0.51100000000E-03 0.  1.
         12    1    3    3    0    0  0.13147948929E+02  0.19208399832E+02  0.23806844273E+02  0.33295600601E+02  0.00000000000E+00 0. -1.
</event>
<event>
 7    1  0.2684545E-013  0.7246159E+02  0.7816164E-02  0.1226708E+00
        -11   -1    0    0    0    0  0.00000000000E+00  0.00000000000E+00  0.45593999997E+02  0.45594000000E+02  0.51100000000E-03 0. -1.
         11   -1    0    0    0    0 -0.00000000000E+00 -0.00000000000E+00 -0.45593999997E+02  0.45594000000E+02  0.51100000000E-03 0.  1.
    9900012    2    1    2    0    0  0.68482700998E+01 -0.72047310865E+01 -0.15870459846E+02  0.72461589530E+02  0.70000025058E+02 0.  0.
         12    1    1    2    0    0 -0.68482700998E+01  0.72047310865E+01  0.15870459846E+02  0.18726410470E+02  0.00000000000E+00 0. -1.
         11    1    3    3    0    0  0.18860689338E+02 -0.29925142590E+00  0.21166771765E+02  0.28352202400E+02  0.51100000000E-03 0. -1.
        -11    1    3    3    0    0 -0.31855296304E+01  0.17044842926E+01  0.12986858921E+01  0.38391992704E+01  0.51100000000E-03 0.  1.
        -12    1    3    3    0    0 -0.88268896082E+01 -0.86099639532E+01 -0.38335917503E+02  0.40270187859E+02  0.00000000000E+00 0.  1.
</event>
<event>
 7    1  0.2684545E-013  0.7246155E+02  0.7816164E-02  0.1226708E+00
        -11   -1    0    0    0    0  0.00000000000E+00  0.00000000000E+00  0.45593999997E+02  0.45594000000E+02  0.51100000000E-03 0. -1.
         11   -1    0    0    0    0 -0.00000000000E+00 -0.00000000000E+00 -0.45593999997E+02  0.45594000000E+02  0.51100000000E-03 0.  1.
    9900012    2    1    2    0    0  0.13078636070E+02  0.77379563501E+00 -0.13380227822E+02  0.72461548716E+02  0.69999971890E+02 0.  0.
         12    1    1    2    0    0 -0.13078636070E+02 -0.77379563501E+00  0.13380227822E+02  0.18726451284E+02  0.00000000000E+00 0. -1.
         11    1    3    3    0    0 -0.11989804983E+02  0.36953489682E+01 -0.16348006260E+02  0.20607482536E+02  0.51100000000E-03 0.  1.
        -11    1    3    3    0    0  0.36398775862E+02  0.64365321328E+01  0.59353572153E+00  0.36968258209E+02  0.51100000000E-03 0. -1.
         12    1    3    3    0    0 -0.11330334808E+02 -0.93580854660E+01  0.23742427166E+01  0.14885807971E+02  0.00000000000E+00 0. -1.
</event>
<event>
 7    1  0.2684545E-013  0.7246149E+02  0.7816164E-02  0.1226708E+00
        -11   -1    0    0    0    0  0.00000000000E+00  0.00000000000E+00  0.45593999997E+02  0.45594000000E+02  0.51100000000E-03 0.  1.
         11   -1    0    0    0    0 -0.00000000000E+00 -0.00000000000E+00 -0.45593999997E+02  0.45594000000E+02  0.51100000000E-03 0. -1.
    9900012    2    1    2    0    0 -0.52268038078E+01  0.24497308761E+01  0.17814638735E+02  0.72461494382E+02  0.69999901110E+02 0.  0.
         12    1    1    2    0    0  0.52268038078E+01 -0.24497308761E+01 -0.17814638735E+02  0.18726505618E+02  0.00000000000E+00 0. -1.
         11    1    3    3    0    0  0.11409510491E+02  0.20069799706E+02 -0.48015984547E+01  0.23580270097E+02  0.51100000000E-03 0. -1.
        -11    1    3    3    0    0 -0.14389818534E+01  0.94164840043E+01  0.13559110678E+02  0.16570767104E+02  0.51100000000E-03 0.  1.
         12    1    3    3    0    0 -0.15197332445E+02 -0.27036552834E+02  0.90571265116E+01  0.32310457181E+02  0.00000000000E+00 0. -1.
</event>
<event>
 7    1  0.2684545E-013  0.7246155E+02  0.7816164E-02  0.1226708E+00
        -11   -1    0    0    0    0  0.00000000000E+00  0.00000000000E+00  0.45593999997E+02  0.45594000000E+02  0.51100000000E-03 0. -1.
         11   -1    0    0    0    0 -0.00000000000E+00 -0.00000000000E+00 -0.45593999997E+02  0.45594000000E+02  0.51100000000E-03 0.  1.
    9900012    2    1    2    0    0 -0.24056479489E+01  0.52090193918E+01 -0.17825791485E+02  0.72461551668E+02  0.69999975736E+02 0.  0.
         12    1    1    2    0    0  0.24056479489E+01 -0.52090193918E+01  0.17825791485E+02  0.18726448332E+02  0.00000000000E+00 0. -1.
         11    1    3    3    0    0  0.86205964847E+00  0.12306417276E+01  0.96540412137E+01  0.97702680576E+01  0.51100000000E-03 0. -1.
        -11    1    3    3    0    0 -0.26021678807E+02 -0.10822890310E+02 -0.80508115694E+01  0.29310037356E+02  0.51100000000E-03 0.  1.
         12    1    3    3    0    0  0.22753971210E+02  0.14801267975E+02 -0.19429021129E+02  0.33381246255E+02  0.00000000000E+00 0. -1.
</event>
<event>
 7    1  0.2684545E-013  0.7246165E+02  0.7816164E-02  0.1226708E+00
        -11   -1    0    0    0    0  0.00000000000E+00  0.00000000000E+00  0.45593999997E+02  0.45594000000E+02  0.51100000000E-03 0. -1.
         11   -1    0    0    0    0 -0.00000000000E+00 -0.00000000000E+00 -0.45593999997E+02  0.45594000000E+02  0.51100000000E-03 0.  1.
    9900012    2    1    2    0    0  0.62890986794E+01  0.15645040813E+02 -0.81459264022E+01  0.72461650084E+02  0.70000103941E+02 0.  0.
         12    1    1    2    0    0 -0.62890986794E+01 -0.15645040813E+02  0.81459264022E+01  0.18726349916E+02  0.00000000000E+00 0. -1.
         11    1    3    3    0    0 -0.15093336061E+01 -0.11203977211E+02 -0.74431377236E+01  0.13535416237E+02  0.51100000000E-03 0. -1.
        -11    1    3    3    0    0 -0.21063803439E+02  0.42965093291E+01 -0.49272457425E+01  0.22054966755E+02  0.51100000000E-03 0.  1.
        -12    1    3    3    0    0  0.28862235724E+02  0.22552508695E+02  0.42244570639E+01  0.36871267091E+02  0.00000000000E+00 0.  1.
</event>
<event>
 7    1  0.3133908E-013  0.7246155E+02  0.7816164E-02  0.1226708E+00
        -11   -1    0    0    0    0  0.00000000000E+00  0.00000000000E+00  0.45593999997E+02  0.45594000000E+02  0.51100000000E-03 0. -1.
         11   -1    0    0    0    0 -0.00000000000E+00 -0.00000000000E+00 -0.45593999997E+02  0.45594000000E+02  0.51100000000E-03 0.  1.
    9900012    2    1    2    0    0 -0.72273299314E+01  0.34706356935E+01 -0.16923371040E+02  0.72461545520E+02  0.69999967726E+02 0.  0.
         12    1    1    2    0    0  0.72273299314E+01 -0.34706356935E+01  0.16923371040E+02  0.18726454480E+02  0.00000000000E+00 0. -1.
         11    1    3    3    0    0 -0.66395468654E+01  0.98658868554E+01  0.22079168077E+02  0.25078057525E+02  0.51100000000E-03 0. -1.
        -11    1    3    3    0    0 -0.32927050141E+01  0.98756728506E+01 -0.15426982620E+02  0.18610819798E+02  0.51100000000E-03 0.  1.
        -12    1    3    3    0    0  0.27049219481E+01 -0.16270924013E+02 -0.23575556497E+02  0.28772668196E+02  0.00000000000E+00 0.  1.
</event>
<event>
 7    1  0.2684545E-013  0.7246157E+02  0.7816164E-02  0.1226708E+00
        -11   -1    0    0    0    0  0.00000000000E+00  0.00000000000E+00  0.45593999997E+02  0.45594000000E+02  0.51100000000E-03 0.  1.
         11   -1    0    0    0    0 -0.00000000000E+00 -0.00000000000E+00 -0.45593999997E+02  0.45594000000E+02  0.51100000000E-03 0. -1.
    9900012    2    1    2    0    0  0.79247406254E+00  0.10410514859E+02  0.15545818298E+02  0.72461566775E+02  0.69999995416E+02 0.  0.
         12    1    1    2    0    0 -0.79247406254E+00 -0.10410514859E+02 -0.15545818298E+02  0.18726433225E+02  0.00000000000E+00 0. -1.
         11    1    3    3    0    0 -0.28008877210E+01 -0.47567888219E+01  0.22611301418E+02  0.23275372478E+02  0.51100000000E-03 0. -1.
        -11    1    3    3    0    0  0.21898409307E+02  0.11320840405E+02  0.71782703321E+01  0.25675461493E+02  0.51100000000E-03 0.  1.
         12    1    3    3    0    0 -0.18305047524E+02  0.38464632757E+01 -0.14243753452E+02  0.23510732804E+02  0.00000000000E+00 0. -1.
</event>
<event>
 7    1  0.2684545E-013  0.7246149E+02  0.7816164E-02  0.1226708E+00
        -11   -1    0    0    0    0  0.00000000000E+00  0.00000000000E+00  0.45593999997E+02  0.45594000000E+02  0.51100000000E-03 0. -1.
         11   -1    0    0    0    0 -0.00000000000E+00 -0.00000000000E+00 -0.45593999997E+02  0.45594000000E+02  0.51100000000E-03 0.  1.
    9900012    2    1    2    0    0  0.72581190945E+01 -0.10383717502E+02 -0.13790581403E+02  0.72461494256E+02  0.69999900946E+02 0.  0.
         12    1    1    2    0    0 -0.72581190945E+01  0.10383717502E+02  0.13790581403E+02  0.18726505744E+02  0.00000000000E+00 0. -1.
         11    1    3    3    0    0  0.85076618177E+01 -0.35853050379E+02 -0.50458032415E+01  0.37192494696E+02  0.51100000000E-03 0. -1.
        -11    1    3    3    0    0 -0.98601118781E+01  0.49879417871E+01  0.81900238036E+00  0.11080258782E+02  0.51100000000E-03 0.  1.
        -12    1    3    3    0    0  0.86105691549E+01  0.20481391090E+02 -0.95637805418E+01  0.24188740778E+02  0.00000000000E+00 0.  1.
</event>
<event>
 7    1  0.2684545E-013  0.7246155E+02  0.7816164E-02  0.1226708E+00
        -11   -1    0    0    0    0  0.00000000000E+00  0.00000000000E+00  0.45593999997E+02  0.45594000000E+02  0.51100000000E-03 0.  1.
         11   -1    0    0    0    0 -0.00000000000E+00 -0.00000000000E+00 -0.45593999997E+02  0.45594000000E+02  0.51100000000E-03 0. -1.
    9900012    2    1    2    0    0 -0.53578545844E+01 -0.12693996600E+02  0.12682101237E+02  0.72461552200E+02  0.69999976429E+02 0.  0.
         12    1    1    2    0    0  0.53578545844E+01  0.12693996600E+02 -0.12682101237E+02  0.18726447800E+02  0.00000000000E+00 0. -1.
         11    1    3    3    0    0 -0.60327099216E+01 -0.15039167567E+02  0.42377191447E+01  0.16748982474E+02  0.51100000000E-03 0. -1.
        -11    1    3    3    0    0  0.10039542706E+02 -0.12409078488E+02  0.26276863535E+02  0.30744937862E+02  0.51100000000E-03 0.  1.
         12    1    3    3    0    0 -0.93646873687E+01  0.14754249454E+02 -0.17832481443E+02  0.24967631864E+02  0.00000000000E+00 0. -1.
</event>
<event>
 7    1  0.2684545E-013  0.7246159E+02  0.7816164E-02  0.1226708E+00
        -11   -1    0    0    0    0  0.00000000000E+00  0.00000000000E+00  0.45593999997E+02  0.45594000000E+02  0.51100000000E-03 0.  1.
         11   -1    0    0    0    0 -0.00000000000E+00 -0.00000000000E+00 -0.45593999997E+02  0.45594000000E+02  0.51100000000E-03 0. -1.
    9900012    2    1    2    0    0  0.16986015827E+02 -0.57531600397E+01  0.53902424801E+01  0.72461593561E+02  0.70000030310E+02 0.  0.
         12    1    1    2    0    0 -0.16986015827E+02  0.57531600397E+01 -0.53902424801E+01  0.18726406439E+02  0.00000000000E+00 0. -1.
         11    1    3    3    0    0  0.21034429007E+02  0.12740924436E+02 -0.75529989110E+01  0.25725982040E+02  0.51100000000E-03 0. -1.
        -11    1    3    3    0    0 -0.60167732793E+01  0.91113500370E+01  0.15480849810E+02  0.18943995653E+02  0.51100000000E-03 0.  1.
         12    1    3    3    0    0  0.19683600990E+01 -0.27605434512E+02 -0.25376084187E+01  0.27791615868E+02  0.00000000000E+00 0. -1.
</event>
<event>
 7    1  0.2684545E-013  0.7246155E+02  0.7816164E-02  0.1226708E+00
        -11   -1    0    0    0    0  0.00000000000E+00  0.00000000000E+00  0.45593999997E+02  0.45594000000E+02  0.51100000000E-03 0. -1.
         11   -1    0    0    0    0 -0.00000000000E+00 -0.00000000000E+00 -0.45593999997E+02  0.45594000000E+02  0.51100000000E-03 0.  1.
    9900012    2    1    2    0    0  0.18436071558E+02 -0.19597299380E+01 -0.26364437066E+01  0.72461545147E+02  0.69999967241E+02 0.  0.
         12    1    1    2    0    0 -0.18436071558E+02  0.19597299380E+01  0.26364437066E+01  0.18726454853E+02  0.00000000000E+00 0. -1.
         11    1    3    3    0    0  0.17263443942E+02  0.10267246355E+00 -0.40139530616E+01  0.17724244915E+02  0.51100000000E-03 0. -1.
        -11    1    3    3    0    0  0.63895570486E+01  0.17317448239E+02 -0.18751579440E+02  0.26312396024E+02  0.51100000000E-03 0.  1.
         12    1    3    3    0    0 -0.52169294320E+01 -0.19379850640E+02  0.20129088795E+02  0.28424904208E+02  0.00000000000E+00 0. -1.
</event>
<event>
 7    1  0.2684545E-013  0.7246156E+02  0.7816164E-02  0.1226708E+00
        -11   -1    0    0    0    0  0.00000000000E+00  0.00000000000E+00  0.45593999997E+02  0.45594000000E+02  0.51100000000E-03 0. -1.
         11   -1    0    0    0    0 -0.00000000000E+00 -0.00000000000E+00 -0.45593999997E+02  0.45594000000E+02  0.51100000000E-03 0.  1.
    9900012    2    1    2    0    0 -0.49460486911E+01 -0.12973240184E+02 -0.12566265015E+02  0.72461564809E+02  0.69999992855E+02 0.  0.
         12    1    1    2    0    0  0.49460486911E+01  0.12973240184E+02  0.12566265015E+02  0.18726435191E+02  0.00000000000E+00 0. -1.
         11    1    3    3    0    0  0.14761966505E+02 -0.61735405945E+01  0.11026793780E+02  0.19432406951E+02  0.51100000000E-03 0. -1.
        -11    1    3    3    0    0  0.90095907632E+01 -0.10906139968E+02 -0.18953745903E+02  0.23650816027E+02  0.51100000000E-03 0.  1.
         12    1    3    3    0    0 -0.28717605960E+02  0.41064403792E+01 -0.46393128926E+01  0.29378341831E+02  0.00000000000E+00 0. -1.
</event>
<event>
 7    1  0.2684545E-013  0.7246156E+02  0.7816164E-02  0.1226708E+00
        -11   -1    0    0    0    0  0.00000000000E+00  0.00000000000E+00  0.45593999997E+02  0.45594000000E+02  0.51100000000E-03 0.  1.
         11   -1    0    0    0    0 -0.00000000000E+00 -0.00000000000E+00 -0.45593999997E+02  0.45594000000E+02  0.51100000000E-03 0. -1.
    9900012    2    1    2    0    0  0.99736229542E+01 -0.12992102404E+02  0.90780876750E+01  0.72461559987E+02  0.69999986573E+02 0.  0.
         12    1    1    2    0    0 -0.99736229542E+01  0.12992102404E+02 -0.90780876750E+01  0.18726440013E+02  0.00000000000E+00 0. -1.
         11    1    3    3    0    0  0.72010392704E+01  0.81186610863E-01  0.90180496987E+01  0.11540657627E+02  0.51100000000E-03 0. -1.
        -11    1    3    3    0    0  0.77228865860E+01 -0.35741430688E+02  0.57890689791E+01  0.37021698567E+02  0.51100000000E-03 0.  1.
         12    1    3    3    0    0 -0.49503029022E+01  0.22668141673E+02 -0.57290310028E+01  0.23899203793E+02  0.00000000000E+00 0. -1.
</event>
<event>
 7    1  0.2684545E-013  0.7246158E+02  0.7816164E-02  0.1226708E+00
        -11   -1    0    0    0    0  0.00000000000E+00  0.00000000000E+00  0.45593999997E+02  0.45594000000E+02  0.51100000000E-03 0.  1.
         11   -1    0    0    0    0 -0.00000000000E+00 -0.00000000000E+00 -0.45593999997E+02  0.45594000000E+02  0.51100000000E-03 0. -1.
    9900012    2    1    2    0    0  0.12938976746E+02  0.13474100293E+02 -0.13077348050E+01  0.72461583678E+02  0.70000017435E+02 0.  0.
         12    1    1    2    0    0 -0.12938976746E+02 -0.13474100293E+02  0.13077348050E+01  0.18726416322E+02  0.00000000000E+00 0. -1.
         11    1    3    3    0    0  0.20177952280E+01 -0.45765368084E+01  0.73235853490E+01  0.88685449407E+01  0.51100000000E-03 0. -1.
        -11    1    3    3    0    0  0.12221871787E+02  0.12983371212E+02  0.24360502309E+02  0.30189007122E+02  0.51100000000E-03 0.  1.
         12    1    3    3    0    0 -0.13006902697E+01  0.50672658894E+01 -0.32991822463E+02  0.33404031616E+02  0.00000000000E+00 0. -1.
</event>
<event>
 7    1  0.2684545E-013  0.7246150E+02  0.7816164E-02  0.1226708E+00
        -11   -1    0    0    0    0  0.00000000000E+00  0.00000000000E+00  0.45593999997E+02  0.45594000000E+02  0.51100000000E-03 0.  1.
         11   -1    0    0    0    0 -0.00000000000E+00 -0.00000000000E+00 -0.45593999997E+02  0.45594000000E+02  0.51100000000E-03 0. -1.
    9900012    2    1    2    0    0  0.14575560690E+02 -0.78464471083E+01  0.87560411792E+01  0.72461495820E+02  0.69999902984E+02 0.  0.
         12    1    1    2    0    0 -0.14575560690E+02  0.78464471083E+01 -0.87560411792E+01  0.18726504180E+02  0.00000000000E+00 0. -1.
         11    1    3    3    0    0 -0.45406481899E+00 -0.27319219615E+01  0.35290893147E+01  0.44859830713E+01  0.51100000000E-03 0. -1.
        -11    1    3    3    0    0  0.34979816694E+02 -0.19868669198E+02  0.12486745720E+02  0.42122089343E+02  0.51100000000E-03 0.  1.
         12    1    3    3    0    0 -0.19950191185E+02  0.14754144052E+02 -0.72597938552E+01  0.25853423406E+02  0.00000000000E+00 0. -1.
</event>
<event>
 7    1  0.2684545E-013  0.7246158E+02  0.7816164E-02  0.1226708E+00
        -11   -1    0    0    0    0  0.00000000000E+00  0.00000000000E+00  0.45593999997E+02  0.45594000000E+02  0.51100000000E-03 0.  1.
         11   -1    0    0    0    0 -0.00000000000E+00 -0.00000000000E+00 -0.45593999997E+02  0.45594000000E+02  0.51100000000E-03 0. -1.
    9900012    2    1    2    0    0  0.10765705323E+02  0.48979926838E+01  0.14518540092E+02  0.72461581500E+02  0.70000014597E+02 0.  0.
         12    1    1    2    0    0 -0.10765705323E+02 -0.48979926838E+01 -0.14518540092E+02  0.18726418500E+02  0.00000000000E+00 0. -1.
         11    1    3    3    0    0 -0.75776701847E+01  0.15176711000E+02 -0.16550875426E+02  0.23699897042E+02  0.51100000000E-03 0. -1.
        -11    1    3    3    0    0 -0.52628433215E+01 -0.10818032886E+02  0.36399639132E+01  0.12568877949E+02  0.51100000000E-03 0.  1.
        -12    1    3    3    0    0  0.23606218830E+02  0.53931456969E+00  0.27429451605E+02  0.36192806509E+02  0.00000000000E+00 0.  1.
</event>
<event>
 7    1  0.2684545E-013  0.7246158E+02  0.7816164E-02  0.1226708E+00
        -11   -1    0    0    0    0  0.00000000000E+00  0.00000000000E+00  0.45593999997E+02  0.45594000000E+02  0.51100000000E-03 0. -1.
         11   -1    0    0    0    0 -0.00000000000E+00 -0.00000000000E+00 -0.45593999997E+02  0.45594000000E+02  0.51100000000E-03 0.  1.
    9900012    2    1    2    0    0  0.66453246766E+01  0.13657829809E+02  0.10953632070E+02  0.72461582546E+02  0.70000015960E+02 0.  0.
         12    1    1    2    0    0 -0.66453246766E+01 -0.13657829809E+02 -0.10953632070E+02  0.18726417454E+02  0.00000000000E+00 0. -1.
         11    1    3    3    0    0 -0.78795336687E+01 -0.51864944784E+00  0.10808653284E+02  0.13385926721E+02  0.51100000000E-03 0. -1.
        -11    1    3    3    0    0  0.29702506171E+02  0.26041715303E+02  0.29287753861E+01  0.39610447287E+02  0.51100000000E-03 0.  1.
         12    1    3    3    0    0 -0.15177647825E+02 -0.11865236046E+02 -0.27837966006E+01  0.19465208539E+02  0.00000000000E+00 0. -1.
</event>
<event>
 7    1  0.2684545E-013  0.7246158E+02  0.7816164E-02  0.1226708E+00
        -11   -1    0    0    0    0  0.00000000000E+00  0.00000000000E+00  0.45593999997E+02  0.45594000000E+02  0.51100000000E-03 0. -1.
         11   -1    0    0    0    0 -0.00000000000E+00 -0.00000000000E+00 -0.45593999997E+02  0.45594000000E+02  0.51100000000E-03 0.  1.
    9900012    2    1    2    0    0 -0.10779033137E+02  0.33146905252E+01  0.14950057179E+02  0.72461576467E+02  0.70000008042E+02 0.  0.
         12    1    1    2    0    0  0.10779033137E+02 -0.33146905252E+01 -0.14950057179E+02  0.18726423533E+02  0.00000000000E+00 0. -1.
         11    1    3    3    0    0  0.38718359930E+01 -0.16653045018E+01  0.34396575397E+02  0.34653841812E+02  0.51100000000E-03 0. -1.
        -11    1    3    3    0    0 -0.13160879538E+02  0.15166709135E+02 -0.61700356707E+01  0.21007311980E+02  0.51100000000E-03 0.  1.
        -12    1    3    3    0    0 -0.14899895926E+01 -0.10186714107E+02 -0.13276482546E+02  0.16800422676E+02  0.00000000000E+00 0.  1.
</event>
<event>
 7    1  0.2684545E-013  0.7246154E+02  0.7816164E-02  0.1226708E+00
        -11   -1    0    0    0    0  0.00000000000E+00  0.00000000000E+00  0.45593999997E+02  0.45594000000E+02  0.51100000000E-03 0.  1.
         11   -1    0    0    0    0 -0.00000000000E+00 -0.00000000000E+00 -0.45593999997E+02  0.45594000000E+02  0.51100000000E-03 0. -1.
    9900012    2    1    2    0    0 -0.12601234601E+02  0.13463024057E+02  0.32613345073E+01  0.72461536559E+02  0.69999956053E+02 0.  0.
         12    1    1    2    0    0  0.12601234601E+02 -0.13463024057E+02 -0.32613345073E+01  0.18726463441E+02  0.00000000000E+00 0. -1.
         11    1    3    3    0    0 -0.16961356527E+02 -0.16090772424E+02 -0.16966581789E+02  0.28887115991E+02  0.51100000000E-03 0. -1.
        -11    1    3    3    0    0 -0.22336359242E+01 -0.38882001099E+01  0.18597367371E+01  0.48544670696E+01  0.51100000000E-03 0.  1.
        -12    1    3    3    0    0  0.65937578500E+01  0.33441996591E+02  0.18368179559E+02  0.38719953498E+02  0.00000000000E+00 0.  1.
</event>
<event>
 7    1  0.2684545E-013  0.7246128E+02  0.7816164E-02  0.1226709E+00
        -11   -1    0    0    0    0  0.00000000000E+00  0.00000000000E+00  0.45593999997E+02  0.45594000000E+02  0.51100000000E-03 0. -1.
         11   -1    0    0    0    0 -0.00000000000E+00 -0.00000000000E+00 -0.45593999997E+02  0.45594000000E+02  0.51100000000E-03 0.  1.
    9900012    2    1    2    0    0 -0.81149456612E+01 -0.11814554890E+02  0.12052137942E+02  0.72461279003E+02  0.69999620538E+02 0.  0.
         12    1    1    2    0    0  0.81149456612E+01  0.11814554890E+02 -0.12052137942E+02  0.18726720997E+02  0.00000000000E+00 0. -1.
         11    1    3    3    0    0 -0.13444104101E+02 -0.23575627332E+01  0.27051473409E+02  0.30299905131E+02  0.51100000000E-03 0. -1.
        -11    1    3    3    0    0 -0.12124004940E+02  0.23730074794E+01  0.47846853908E+01  0.13248240443E+02  0.51100000000E-03 0.  1.
         12    1    3    3    0    0  0.17453163380E+02 -0.11829999637E+02 -0.19784020858E+02  0.28913133429E+02  0.00000000000E+00 0. -1.
</event>
<event>
 7    1  0.2684545E-013  0.7246169E+02  0.7816164E-02  0.1226708E+00
        -11   -1    0    0    0    0  0.00000000000E+00  0.00000000000E+00  0.45593999997E+02  0.45594000000E+02  0.51100000000E-03 0.  1.
         11   -1    0    0    0    0 -0.00000000000E+00 -0.00000000000E+00 -0.45593999997E+02  0.45594000000E+02  0.51100000000E-03 0. -1.
    9900012    2    1    2    0    0  0.32401799800E+01  0.15579651056E+02 -0.98716960426E+01  0.72461690271E+02  0.70000156291E+02 0.  0.
         12    1    1    2    0    0 -0.32401799800E+01 -0.15579651056E+02  0.98716960426E+01  0.18726309729E+02  0.00000000000E+00 0. -1.
         11    1    3    3    0    0 -0.10113569588E+01 -0.12074454287E+02 -0.25744753524E+01  0.12387219737E+02  0.51100000000E-03 0. -1.
        -11    1    3    3    0    0  0.19417738161E+02 -0.95037765883E+00 -0.17470357616E+02  0.26137428497E+02  0.51100000000E-03 0.  1.
        -12    1    3    3    0    0 -0.15166201222E+02  0.28604483001E+02  0.10173136925E+02  0.33937042036E+02  0.00000000000E+00 0.  1.
</event>
<event>
 7    1  0.2684545E-013  0.7246159E+02  0.7816164E-02  0.1226708E+00
        -11   -1    0    0    0    0  0.00000000000E+00  0.00000000000E+00  0.45593999997E+02  0.45594000000E+02  0.51100000000E-03 0.  1.
         11   -1    0    0    0    0 -0.00000000000E+00 -0.00000000000E+00 -0.45593999997E+02  0.45594000000E+02  0.51100000000E-03 0. -1.
    9900012    2    1    2    0    0  0.13949397466E+02  0.11724014413E+02 -0.43174151275E+01  0.72461594125E+02  0.70000031044E+02 0.  0.
         12    1    1    2    0    0 -0.13949397466E+02 -0.11724014413E+02  0.43174151275E+01  0.18726405875E+02  0.00000000000E+00 0. -1.
         11    1    3    3    0    0  0.29637143219E+02 -0.10105798366E+02  0.10197335381E+02  0.32931338690E+02  0.51100000000E-03 0. -1.
        -11    1    3    3    0    0 -0.90603748864E+01  0.10185902706E+02  0.61074664303E+01  0.14938010358E+02  0.51100000000E-03 0.  1.
        -12    1    3    3    0    0 -0.66273708666E+01  0.11643910074E+02 -0.20622216939E+02  0.24592245076E+02  0.00000000000E+00 0.  1.
</event>
<event>
 7    1  0.2684545E-013  0.7246158E+02  0.7816164E-02  0.1226708E+00
        -11   -1    0    0    0    0  0.00000000000E+00  0.00000000000E+00  0.45593999997E+02  0.45594000000E+02  0.51100000000E-03 0. -1.
         11   -1    0    0    0    0 -0.00000000000E+00 -0.00000000000E+00 -0.45593999997E+02  0.45594000000E+02  0.51100000000E-03 0.  1.
    9900012    2    1    2    0    0 -0.63706635547E+01 -0.13493688180E+02 -0.11314317942E+02  0.72461581087E+02  0.70000014059E+02 0.  0.
         12    1    1    2    0    0  0.63706635547E+01  0.13493688180E+02  0.11314317942E+02  0.18726418913E+02  0.00000000000E+00 0. -1.
         11    1    3    3    0    0  0.74265414431E+01  0.21093202363E+01 -0.22851648201E+02  0.24120542602E+02  0.51100000000E-03 0.  1.
        -11    1    3    3    0    0 -0.13166877883E+02  0.56462425481E+00 -0.13283717754E+02  0.18712098529E+02  0.51100000000E-03 0. -1.
         12    1    3    3    0    0 -0.63032711507E+00 -0.16167632671E+02  0.24821048013E+02  0.29628939956E+02  0.00000000000E+00 0. -1.
</event>
<event>
 7    1  0.2684545E-013  0.7246158E+02  0.7816164E-02  0.1226708E+00
        -11   -1    0    0    0    0  0.00000000000E+00  0.00000000000E+00  0.45593999997E+02  0.45594000000E+02  0.51100000000E-03 0.  1.
         11   -1    0    0    0    0 -0.00000000000E+00 -0.00000000000E+00 -0.45593999997E+02  0.45594000000E+02  0.51100000000E-03 0. -1.
    9900012    2    1    2    0    0  0.40254749296E+01  0.65678415073E+01  0.17068624202E+02  0.72461576887E+02  0.70000008588E+02 0.  0.
         12    1    1    2    0    0 -0.40254749296E+01 -0.65678415073E+01 -0.17068624202E+02  0.18726423113E+02  0.00000000000E+00 0. -1.
         11    1    3    3    0    0 -0.97859210925E+00  0.15556306919E+01  0.22452018165E+02  0.22527111429E+02  0.51100000000E-03 0. -1.
        -11    1    3    3    0    0  0.62252993088E+01  0.13842912222E+02  0.18798770088E+02  0.24161422296E+02  0.51100000000E-03 0.  1.
         12    1    3    3    0    0 -0.12212322700E+01 -0.88307014070E+01 -0.24182164052E+02  0.25773043162E+02  0.00000000000E+00 0. -1.
</event>
<event>
 7    1  0.2684545E-013  0.7246161E+02  0.7816164E-02  0.1226708E+00
        -11   -1    0    0    0    0  0.00000000000E+00  0.00000000000E+00  0.45593999997E+02  0.45594000000E+02  0.51100000000E-03 0. -1.
         11   -1    0    0    0    0 -0.00000000000E+00 -0.00000000000E+00 -0.45593999997E+02  0.45594000000E+02  0.51100000000E-03 0.  1.
    9900012    2    1    2    0    0 -0.16180958658E+02 -0.12015160139E+01 -0.93493658329E+01  0.72461609390E+02  0.70000050929E+02 0.  0.
         12    1    1    2    0    0  0.16180958658E+02  0.12015160139E+01  0.93493658329E+01  0.18726390610E+02  0.00000000000E+00 0. -1.
         11    1    3    3    0    0  0.17288999348E+02 -0.85780434019E+01  0.11734754467E+02  0.22587536159E+02  0.51100000000E-03 0. -1.
        -11    1    3    3    0    0  0.11224356540E+01 -0.42523200807E+01  0.37098733871E+01  0.57537160753E+01  0.51100000000E-03 0.  1.
        -12    1    3    3    0    0 -0.34592393660E+02  0.11628847469E+02 -0.24793993686E+02  0.44120357155E+02  0.00000000000E+00 0.  1.
</event>
<event>
 7    1  0.2684545E-013  0.7246142E+02  0.7816164E-02  0.1226708E+00
        -11   -1    0    0    0    0  0.00000000000E+00  0.00000000000E+00  0.45593999997E+02  0.45594000000E+02  0.51100000000E-03 0. -1.
         11   -1    0    0    0    0 -0.00000000000E+00 -0.00000000000E+00 -0.45593999997E+02  0.45594000000E+02  0.51100000000E-03 0.  1.
    9900012    2    1    2    0    0 -0.53680330043E+01  0.17858622053E+02 -0.17142196883E+01  0.72461422387E+02  0.69999807323E+02 0.  0.
         12    1    1    2    0    0  0.53680330043E+01 -0.17858622053E+02  0.17142196883E+01  0.18726577613E+02  0.00000000000E+00 0. -1.
         11    1    3    3    0    0  0.19110221934E+01 -0.91197102100E+01  0.76932198804E+01  0.12083325392E+02  0.51100000000E-03 0. -1.
        -11    1    3    3    0    0 -0.21185878662E+02  0.85047193809E+01  0.14558198061E+02  0.27076056535E+02  0.51100000000E-03 0.  1.
        -12    1    3    3    0    0  0.13906823464E+02  0.18473612882E+02 -0.23965637630E+02  0.33302040460E+02  0.00000000000E+00 0.  1.
</event>
<event>
 7    1  0.2684545E-013  0.7246197E+02  0.7816164E-02  0.1226707E+00
        -11   -1    0    0    0    0  0.00000000000E+00  0.00000000000E+00  0.45593999997E+02  0.45594000000E+02  0.51100000000E-03 0. -1.
         11   -1    0    0    0    0 -0.00000000000E+00 -0.00000000000E+00 -0.45593999997E+02  0.45594000000E+02  0.51100000000E-03 0.  1.
    9900012    2    1    2    0    0  0.57103485292E+01  0.37181349058E+00 -0.17830254746E+02  0.72461967054E+02  0.70000516851E+02 0.  0.
         12    1    1    2    0    0 -0.57103485292E+01 -0.37181349058E+00  0.17830254746E+02  0.18726032946E+02  0.00000000000E+00 0. -1.
         11    1    3    3    0    0  0.24946681614E+02 -0.12507474165E+02  0.32925824385E+01  0.28100087775E+02  0.51100000000E-03 0. -1.
        -11    1    3    3    0    0  0.83334564792E+00  0.55571575156E+01 -0.22269455853E+02  0.22967479811E+02  0.51100000000E-03 0.  1.
        -12    1    3    3    0    0 -0.20069678733E+02  0.73221301402E+01  0.11466186682E+01  0.21394399468E+02  0.00000000000E+00 0.  1.
</event>
<event>
 7    1  0.2684545E-013  0.7246155E+02  0.7816164E-02  0.1226708E+00
        -11   -1    0    0    0    0  0.00000000000E+00  0.00000000000E+00  0.45593999997E+02  0.45594000000E+02  0.51100000000E-03 0.  1.
         11   -1    0    0    0    0 -0.00000000000E+00 -0.00000000000E+00 -0.45593999997E+02  0.45594000000E+02  0.51100000000E-03 0. -1.
    9900012    2    1    2    0    0  0.70036115127E+01 -0.30496251680E+01  0.17097640605E+02  0.72461545394E+02  0.69999967562E+02 0.  0.
         12    1    1    2    0    0 -0.70036115127E+01  0.30496251680E+01 -0.17097640605E+02  0.18726454606E+02  0.00000000000E+00 0. -1.
         11    1    3    3    0    0 -0.33039100169E+01  0.22395041118E+02 -0.98909050493E+01  0.24703920560E+02  0.51100000000E-03 0. -1.
        -11    1    3    3    0    0  0.59004948440E+01 -0.65059225139E+01 -0.51595011804E+01  0.10186428219E+02  0.51100000000E-03 0.  1.
        -12    1    3    3    0    0  0.44070266856E+01 -0.18938743772E+02  0.32148046834E+02  0.37571196615E+02  0.00000000000E+00 0.  1.
</event>
<event>
 7    1  0.2684545E-013  0.7246154E+02  0.7816164E-02  0.1226708E+00
        -11   -1    0    0    0    0  0.00000000000E+00  0.00000000000E+00  0.45593999997E+02  0.45594000000E+02  0.51100000000E-03 0.  1.
         11   -1    0    0    0    0 -0.00000000000E+00 -0.00000000000E+00 -0.45593999997E+02  0.45594000000E+02  0.51100000000E-03 0. -1.
    9900012    2    1    2    0    0 -0.47904571527E+01 -0.14715887727E+02  0.10543932141E+02  0.72461539141E+02  0.69999959416E+02 0.  0.
         12    1    1    2    0    0  0.47904571527E+01  0.14715887727E+02 -0.10543932141E+02  0.18726460859E+02  0.00000000000E+00 0. -1.
         11    1    3    3    0    0 -0.11977940912E+02 -0.37321630472E+01 -0.92262807251E+01  0.15573193820E+02  0.51100000000E-03 0. -1.
        -11    1    3    3    0    0  0.67045339669E+01  0.63994479625E+01 -0.15217171571E+02  0.17817576177E+02  0.51100000000E-03 0.  1.
        -12    1    3    3    0    0  0.48294979192E+00 -0.17383172642E+02  0.34987384438E+02  0.39070769143E+02  0.00000000000E+00 0.  1.
</event>
<event>
 7    1  0.2684545E-013  0.7246157E+02  0.7816164E-02  0.1226708E+00
        -11   -1    0    0    0    0  0.00000000000E+00  0.00000000000E+00  0.45593999997E+02  0.45594000000E+02  0.51100000000E-03 0.  1.
         11   -1    0    0    0    0 -0.00000000000E+00 -0.00000000000E+00 -0.45593999997E+02  0.45594000000E+02  0.51100000000E-03 0. -1.
    9900012    2    1    2    0    0 -0.83735053355E+01 -0.65610408028E+01  0.15411569927E+02  0.72461565859E+02  0.69999994222E+02 0.  0.
         12    1    1    2    0    0  0.83735053355E+01  0.65610408028E+01 -0.15411569927E+02  0.18726434141E+02  0.00000000000E+00 0. -1.
         11    1    3    3    0    0 -0.28861058677E+02  0.10935416941E+02 -0.28526950761E+01  0.30994869271E+02  0.51100000000E-03 0. -1.
        -11    1    3    3    0    0  0.14559167790E+01 -0.19708531324E+01 -0.62817479658E+01  0.67427230036E+01  0.51100000000E-03 0.  1.
        -12    1    3    3    0    0  0.19031636563E+02 -0.15525604612E+02  0.24546012969E+02  0.34723973585E+02  0.00000000000E+00 0.  1.
</event>
<event>
 7    1  0.2684545E-013  0.7246157E+02  0.7816164E-02  0.1226708E+00
        -11   -1    0    0    0    0  0.00000000000E+00  0.00000000000E+00  0.45593999997E+02  0.45594000000E+02  0.51100000000E-03 0. -1.
         11   -1    0    0    0    0 -0.00000000000E+00 -0.00000000000E+00 -0.45593999997E+02  0.45594000000E+02  0.51100000000E-03 0.  1.
    9900012    2    1    2    0    0  0.90278609479E+00  0.18545256451E+02  0.24367106208E+01  0.72461571664E+02  0.70000001784E+02 0.  0.
         12    1    1    2    0    0 -0.90278609479E+00 -0.18545256451E+02 -0.24367106208E+01  0.18726428336E+02  0.00000000000E+00 0. -1.
         11    1    3    3    0    0  0.16832653014E+02  0.16363837147E+02  0.15738989139E+02  0.28263565823E+02  0.51100000000E-03 0. -1.
        -11    1    3    3    0    0  0.66922082904E+01  0.80725147340E+00  0.97613594155E+01  0.11862606992E+02  0.51100000000E-03 0.  1.
        -12    1    3    3    0    0 -0.22622075209E+02  0.13741678306E+01 -0.23063637933E+02  0.32335398849E+02  0.00000000000E+00 0.  1.
</event>
<event>
 7    1  0.2684545E-013  0.7246150E+02  0.7816164E-02  0.1226708E+00
        -11   -1    0    0    0    0  0.00000000000E+00  0.00000000000E+00  0.45593999997E+02  0.45594000000E+02  0.51100000000E-03 0.  1.
         11   -1    0    0    0    0 -0.00000000000E+00 -0.00000000000E+00 -0.45593999997E+02  0.45594000000E+02  0.51100000000E-03 0. -1.
    9900012    2    1    2    0    0  0.77654861480E+01  0.89417032078E+01  0.14506037019E+02  0.72461496286E+02  0.69999903590E+02 0.  0.
         12    1    1    2    0    0 -0.77654861480E+01 -0.89417032078E+01 -0.14506037019E+02  0.18726503714E+02  0.00000000000E+00 0. -1.
         11    1    3    3    0    0  0.18219812161E+02 -0.76778387028E+01  0.65481277257E+01  0.20827595620E+02  0.51100000000E-03 0. -1.
        -11    1    3    3    0    0  0.40156650166E+01  0.30615974435E+02  0.43935431091E+01  0.31189207708E+02  0.51100000000E-03 0.  1.
         12    1    3    3    0    0 -0.14469991030E+02 -0.13996432525E+02  0.35643661842E+01  0.20444692957E+02  0.00000000000E+00 0. -1.
</event>
<event>
 7    1  0.2684545E-013  0.7246159E+02  0.7816164E-02  0.1226708E+00
        -11   -1    0    0    0    0  0.00000000000E+00  0.00000000000E+00  0.45593999997E+02  0.45594000000E+02  0.51100000000E-03 0.  1.
         11   -1    0    0    0    0 -0.00000000000E+00 -0.00000000000E+00 -0.45593999997E+02  0.45594000000E+02  0.51100000000E-03 0. -1.
    9900012    2    1    2    0    0 -0.10522302090E+02 -0.10362027810E+02 -0.11514689283E+02  0.72461587346E+02  0.70000022213E+02 0.  0.
         12    1    1    2    0    0  0.10522302090E+02  0.10362027810E+02  0.11514689283E+02  0.18726412654E+02  0.00000000000E+00 0. -1.
         11    1    3    3    0    0 -0.17695764214E+02 -0.31137600494E+01  0.16725630725E+02  0.24547551735E+02  0.51100000000E-03 0. -1.
        -11    1    3    3    0    0 -0.59524734300E+01  0.12867797166E+02 -0.68301703292E+01  0.15737324132E+02  0.51100000000E-03 0.  1.
         12    1    3    3    0    0  0.13125935555E+02 -0.20116064927E+02 -0.21410149679E+02  0.32176711479E+02  0.00000000000E+00 0. -1.
</event>
<event>
 7    1  0.2684545E-013  0.7246155E+02  0.7816164E-02  0.1226708E+00
        -11   -1    0    0    0    0  0.00000000000E+00  0.00000000000E+00  0.45593999997E+02  0.45594000000E+02  0.51100000000E-03 0.  1.
         11   -1    0    0    0    0 -0.00000000000E+00 -0.00000000000E+00 -0.45593999997E+02  0.45594000000E+02  0.51100000000E-03 0. -1.
    9900012    2    1    2    0    0  0.10850214835E+02 -0.12994958020E+02  0.80052439873E+01  0.72461547394E+02  0.69999970168E+02 0.  0.
         12    1    1    2    0    0 -0.10850214835E+02  0.12994958020E+02 -0.80052439873E+01  0.18726452606E+02  0.00000000000E+00 0. -1.
         11    1    3    3    0    0  0.79857749494E+01 -0.88125482955E+01 -0.22274306710E+02  0.25250313833E+02  0.51100000000E-03 0. -1.
        -11    1    3    3    0    0 -0.10135254822E+02  0.11796720879E+02  0.11577995319E+02  0.19389068819E+02  0.51100000000E-03 0.  1.
        -12    1    3    3    0    0  0.12999694708E+02 -0.15979130604E+02  0.18701555378E+02  0.27822164741E+02  0.00000000000E+00 0.  1.
</event>
<event>
 7    1  0.2684545E-013  0.7246168E+02  0.7816164E-02  0.1226708E+00
        -11   -1    0    0    0    0  0.00000000000E+00  0.00000000000E+00  0.45593999997E+02  0.45594000000E+02  0.51100000000E-03 0.  1.
         11   -1    0    0    0    0 -0.00000000000E+00 -0.00000000000E+00 -0.45593999997E+02  0.45594000000E+02  0.51100000000E-03 0. -1.
    9900012    2    1    2    0    0 -0.10975107791E+02 -0.86041796363E+01  0.12497605437E+02  0.72461680556E+02  0.70000143637E+02 0.  0.
         12    1    1    2    0    0  0.10975107791E+02  0.86041796363E+01 -0.12497605437E+02  0.18726319444E+02  0.00000000000E+00 0. -1.
         11    1    3    3    0    0 -0.41547653459E+01  0.18485043559E+02 -0.74985448010E+01  0.20376140088E+02  0.51100000000E-03 0. -1.
        -11    1    3    3    0    0 -0.84050443240E+01 -0.20206840035E+01  0.25018437685E+02  0.26469797097E+02  0.51100000000E-03 0.  1.
        -12    1    3    3    0    0  0.15847018785E+01 -0.25068539192E+02 -0.50222874468E+01  0.25615743371E+02  0.00000000000E+00 0.  1.
</event>
<event>
 7    1  0.2684545E-013  0.7246157E+02  0.7816164E-02  0.1226708E+00
        -11   -1    0    0    0    0  0.00000000000E+00  0.00000000000E+00  0.45593999997E+02  0.45594000000E+02  0.51100000000E-03 0. -1.
         11   -1    0    0    0    0 -0.00000000000E+00 -0.00000000000E+00 -0.45593999997E+02  0.45594000000E+02  0.51100000000E-03 0.  1.
    9900012    2    1    2    0    0 -0.13862372773E+02 -0.69354189061E+01 -0.10507804318E+02  0.72461565051E+02  0.69999993170E+02 0.  0.
         12    1    1    2    0    0  0.13862372773E+02  0.69354189061E+01  0.10507804318E+02  0.18726434949E+02  0.00000000000E+00 0. -1.
         11    1    3    3    0    0  0.11016191245E+02 -0.47402227926E+01  0.83167789264E+01  0.14594348004E+02  0.51100000000E-03 0. -1.
        -11    1    3    3    0    0  0.13557741833E+02  0.39390134337E+01  0.10624208488E+01  0.14158281279E+02  0.51100000000E-03 0.  1.
        -12    1    3    3    0    0 -0.38436305851E+02 -0.61342095472E+01 -0.19887004093E+02  0.43708935769E+02  0.00000000000E+00 0.  1.
</event>
<event>
 7    1  0.2684545E-013  0.7246156E+02  0.7816164E-02  0.1226708E+00
        -11   -1    0    0    0    0  0.00000000000E+00  0.00000000000E+00  0.45593999997E+02  0.45594000000E+02  0.51100000000E-03 0.  1.
         11   -1    0    0    0    0 -0.00000000000E+00 -0.00000000000E+00 -0.45593999997E+02  0.45594000000E+02  0.51100000000E-03 0. -1.
    9900012    2    1    2    0    0 -0.78474754407E-01  0.11707054031E+02  0.14615688616E+02  0.72461558104E+02  0.69999984120E+02 0.  0.
         12    1    1    2    0    0  0.78474754407E-01 -0.11707054031E+02 -0.14615688616E+02  0.18726441896E+02  0.00000000000E+00 0. -1.
         11    1    3    3    0    0  0.13747376242E+02 -0.16123890650E+01 -0.68705656531E+01  0.15452987565E+02  0.51100000000E-03 0. -1.
        -11    1    3    3    0    0  0.24979180271E+01  0.38389310920E+01 -0.15132555737E+02  0.15810478481E+02  0.51100000000E-03 0.  1.
        -12    1    3    3    0    0 -0.16323769023E+02  0.94805120045E+01  0.36618810006E+02  0.41198092058E+02  0.00000000000E+00 0.  1.
</event>
<event>
 7    1  0.2684545E-013  0.7246159E+02  0.7816164E-02  0.1226708E+00
        -11   -1    0    0    0    0  0.00000000000E+00  0.00000000000E+00  0.45593999997E+02  0.45594000000E+02  0.51100000000E-03 0. -1.
         11   -1    0    0    0    0 -0.00000000000E+00 -0.00000000000E+00 -0.45593999997E+02  0.45594000000E+02  0.51100000000E-03 0.  1.
    9900012    2    1    2    0    0  0.56259045324E+01 -0.67029884001E+01 -0.16555886889E+02  0.72461594953E+02  0.70000032122E+02 0.  0.
         12    1    1    2    0    0 -0.56259045324E+01  0.67029884001E+01  0.16555886889E+02  0.18726405047E+02  0.00000000000E+00 0. -1.
         11    1    3    3    0    0  0.52788864210E+01  0.12764627950E+02 -0.10310373747E+02  0.17236768131E+02  0.51100000000E-03 0. -1.
        -11    1    3    3    0    0  0.25129522567E+02 -0.36474111896E+01 -0.43451034742E+01  0.25761918355E+02  0.51100000000E-03 0.  1.
         12    1    3    3    0    0 -0.24782504456E+02 -0.15820205160E+02 -0.19004096684E+01  0.29462908467E+02  0.00000000000E+00 0. -1.
</event>
<event>
 7    1  0.2684545E-013  0.7246155E+02  0.7816164E-02  0.1226708E+00
        -11   -1    0    0    0    0  0.00000000000E+00  0.00000000000E+00  0.45593999997E+02  0.45594000000E+02  0.51100000000E-03 0. -1.
         11   -1    0    0    0    0 -0.00000000000E+00 -0.00000000000E+00 -0.45593999997E+02  0.45594000000E+02  0.51100000000E-03 0.  1.
    9900012    2    1    2    0    0  0.16688223897E+01 -0.15009520948E+02 -0.11072901320E+02  0.72461552635E+02  0.69999976995E+02 0.  0.
         12    1    1    2    0    0 -0.16688223897E+01  0.15009520948E+02  0.11072901320E+02  0.18726447365E+02  0.00000000000E+00 0. -1.
         11    1    3    3    0    0 -0.14291502783E+02 -0.78901396789E+00  0.22204467167E+02  0.26417947635E+02  0.51100000000E-03 0. -1.
        -11    1    3    3    0    0  0.95225593815E+01  0.47396594400E+01 -0.60206720267E+01  0.12222602043E+02  0.51100000000E-03 0.  1.
        -12    1    3    3    0    0  0.64377657914E+01 -0.18960166420E+02 -0.27256696460E+02  0.33821002957E+02  0.00000000000E+00 0.  1.
</event>
<event>
 7    1  0.2684545E-013  0.7246154E+02  0.7816164E-02  0.1226708E+00
        -11   -1    0    0    0    0  0.00000000000E+00  0.00000000000E+00  0.45593999997E+02  0.45594000000E+02  0.51100000000E-03 0. -1.
         11   -1    0    0    0    0 -0.00000000000E+00 -0.00000000000E+00 -0.45593999997E+02  0.45594000000E+02  0.51100000000E-03 0.  1.
    9900012    2    1    2    0    0  0.13695282751E+02  0.37258383249E+01 -0.12216285339E+02  0.72461540955E+02  0.69999961781E+02 0.  0.
         12    1    1    2    0    0 -0.13695282751E+02 -0.37258383249E+01  0.12216285339E+02  0.18726459045E+02  0.00000000000E+00 0. -1.
         11    1    3    3    0    0 -0.13506400796E+02  0.75627461482E+00  0.14076069061E+02  0.19522564745E+02  0.51100000000E-03 0. -1.
        -11    1    3    3    0    0  0.21736191336E+01 -0.13854863902E+02 -0.19015066220E+01  0.14152653517E+02  0.51100000000E-03 0.  1.
        -12    1    3    3    0    0  0.25028064413E+02  0.16824427612E+02 -0.24390847778E+02  0.38786322694E+02  0.00000000000E+00 0.  1.
</event>
<event>
 7    1  0.2684545E-013  0.7246155E+02  0.7816164E-02  0.1226708E+00
        -11   -1    0    0    0    0  0.00000000000E+00  0.00000000000E+00  0.45593999997E+02  0.45594000000E+02  0.51100000000E-03 0.  1.
         11   -1    0    0    0    0 -0.00000000000E+00 -0.00000000000E+00 -0.45593999997E+02  0.45594000000E+02  0.51100000000E-03 0. -1.
    9900012    2    1    2    0    0 -0.11390481016E+02  0.14658175863E+02  0.24647271605E+01  0.72461546588E+02  0.69999969118E+02 0.  0.
         12    1    1    2    0    0  0.11390481016E+02 -0.14658175863E+02 -0.24647271605E+01  0.18726453412E+02  0.00000000000E+00 0. -1.
         11    1    3    3    0    0 -0.18061342307E+00  0.20930174710E+02 -0.10260120736E+02  0.23310403522E+02  0.51100000000E-03 0. -1.
        -11    1    3    3    0    0 -0.13216372704E+02  0.14649033413E+02  0.18821731606E+02  0.27267641414E+02  0.51100000000E-03 0.  1.
         12    1    3    3    0    0  0.20065051110E+01 -0.20921032259E+02 -0.60968837102E+01  0.21883501652E+02  0.00000000000E+00 0. -1.
</event>
<event>
 7    1  0.2684545E-013  0.7246140E+02  0.7816164E-02  0.1226708E+00
        -11   -1    0    0    0    0  0.00000000000E+00  0.00000000000E+00  0.45593999997E+02  0.45594000000E+02  0.51100000000E-03 0. -1.
         11   -1    0    0    0    0 -0.00000000000E+00 -0.00000000000E+00 -0.45593999997E+02  0.45594000000E+02  0.51100000000E-03 0.  1.
    9900012    2    1    2    0    0 -0.16974952994E+01 -0.12552069112E+02 -0.13793099759E+02  0.72461400462E+02  0.69999778762E+02 0.  0.
         12    1    1    2    0    0  0.16974952994E+01  0.12552069112E+02  0.13793099759E+02  0.18726599538E+02  0.00000000000E+00 0. -1.
         11    1    3    3    0    0 -0.21580289802E+02 -0.13600321544E+02 -0.49699718944E+01  0.25988040998E+02  0.51100000000E-03 0. -1.
        -11    1    3    3    0    0 -0.40075674339E+01 -0.15736661687E+02 -0.52050599136E+01  0.17052734876E+02  0.51100000000E-03 0.  1.
        -12    1    3    3    0    0  0.23890361937E+02  0.16784914119E+02 -0.36180679515E+01  0.29420624588E+02  0.00000000000E+00 0.  1.
</event>
<event>
 7    1  0.2684545E-013  0.7246161E+02  0.7816164E-02  0.1226708E+00
        -11   -1    0    0    0    0  0.00000000000E+00  0.00000000000E+00  0.45593999997E+02  0.45594000000E+02  0.51100000000E-03 0. -1.
         11   -1    0    0    0    0 -0.00000000000E+00 -0.00000000000E+00 -0.45593999997E+02  0.45594000000E+02  0.51100000000E-03 0.  1.
    9900012    2    1    2    0    0  0.15794030310E+02 -0.54539793700E+01  0.84546007380E+01  0.72461613322E+02  0.70000056051E+02 0.  0.
         12    1    1    2    0    0 -0.15794030310E+02  0.54539793700E+01 -0.84546007380E+01  0.18726386678E+02  0.00000000000E+00 0. -1.
         11    1    3    3    0    0 -0.36066746158E+00  0.33076037045E+01  0.19995127904E+00  0.33332122733E+01  0.51100000000E-03 0. -1.
        -11    1    3    3    0    0  0.61881482648E+01 -0.23687318795E+02 -0.22674372777E+02  0.33369288751E+02  0.51100000000E-03 0.  1.
         12    1    3    3    0    0  0.99665495065E+01  0.14925735720E+02  0.30929022236E+02  0.35759112298E+02  0.00000000000E+00 0. -1.
</event>
<event>
 7    1  0.2684545E-013  0.7246160E+02  0.7816164E-02  0.1226708E+00
        -11   -1    0    0    0    0  0.00000000000E+00  0.00000000000E+00  0.45593999997E+02  0.45594000000E+02  0.51100000000E-03 0. -1.
         11   -1    0    0    0    0 -0.00000000000E+00 -0.00000000000E+00 -0.45593999997E+02  0.45594000000E+02  0.51100000000E-03 0.  1.
    9900012    2    1    2    0    0 -0.24664598764E+01 -0.10660908122E+02 -0.15196704008E+02  0.72461596208E+02  0.70000033757E+02 0.  0.
         12    1    1    2    0    0  0.24664598764E+01  0.10660908122E+02  0.15196704008E+02  0.18726403792E+02  0.00000000000E+00 0. -1.
         11    1    3    3    0    0  0.25734361730E+02 -0.51394811120E+01  0.83999617293E+01  0.27554146640E+02  0.51100000000E-03 0. -1.
        -11    1    3    3    0    0  0.42289299961E+01  0.11006055944E+01 -0.20032894404E+00  0.43743929331E+01  0.51100000000E-03 0.  1.
        -12    1    3    3    0    0 -0.32429751602E+02 -0.66220326042E+01 -0.23396336793E+02  0.40533056634E+02  0.00000000000E+00 0.  1.
</event>
<event>
 7    1  0.2684545E-013  0.7246156E+02  0.7816164E-02  0.1226708E+00
        -11   -1    0    0    0    0  0.00000000000E+00  0.00000000000E+00  0.45593999997E+02  0.45594000000E+02  0.51100000000E-03 0. -1.
         11   -1    0    0    0    0 -0.00000000000E+00 -0.00000000000E+00 -0.45593999997E+02  0.45594000000E+02  0.51100000000E-03 0.  1.
    9900012    2    1    2    0    0  0.93514887025E+01 -0.25974940750E+01 -0.16015060397E+02  0.72461562113E+02  0.69999989342E+02 0.  0.
         12    1    1    2    0    0 -0.93514887025E+01  0.25974940750E+01  0.16015060397E+02  0.18726437887E+02  0.00000000000E+00 0. -1.
         11    1    3    3    0    0 -0.12653583815E+02  0.45629602485E+01  0.20004841884E+02  0.24106586002E+02  0.51100000000E-03 0. -1.
        -11    1    3    3    0    0  0.40112998191E+01 -0.43794350437E+01  0.19454823538E+01  0.62493903215E+01  0.51100000000E-03 0.  1.
        -12    1    3    3    0    0  0.17993772698E+02 -0.27810192798E+01 -0.37965384635E+02  0.42105585789E+02  0.00000000000E+00 0.  1.
</event>
<event>
 7    1  0.2684545E-013  0.7246159E+02  0.7816164E-02  0.1226708E+00
        -11   -1    0    0    0    0  0.00000000000E+00  0.00000000000E+00  0.45593999997E+02  0.45594000000E+02  0.51100000000E-03 0.  1.
         11   -1    0    0    0    0 -0.00000000000E+00 -0.00000000000E+00 -0.45593999997E+02  0.45594000000E+02  0.51100000000E-03 0. -1.
    9900012    2    1    2    0    0 -0.10220402034E+02 -0.10197641601E+02  0.11926017269E+02  0.72461590844E+02  0.70000026770E+02 0.  0.
         12    1    1    2    0    0  0.10220402034E+02  0.10197641601E+02 -0.11926017269E+02  0.18726409156E+02  0.00000000000E+00 0. -1.
         11    1    3    3    0    0  0.74560724764E+00  0.55986452401E+01  0.30383446553E+01  0.64134465927E+01  0.51100000000E-03 0. -1.
        -11    1    3    3    0    0  0.75138351881E+01  0.43618041486E+01  0.30169788332E+02  0.31395846587E+02  0.51100000000E-03 0.  1.
         12    1    3    3    0    0 -0.18479844470E+02 -0.20158090990E+02 -0.21282115718E+02  0.34652297664E+02  0.00000000000E+00 0. -1.
</event>
<event>
 7    1  0.2684545E-013  0.7246158E+02  0.7816164E-02  0.1226708E+00
        -11   -1    0    0    0    0  0.00000000000E+00  0.00000000000E+00  0.45593999997E+02  0.45594000000E+02  0.51100000000E-03 0.  1.
         11   -1    0    0    0    0 -0.00000000000E+00 -0.00000000000E+00 -0.45593999997E+02  0.45594000000E+02  0.51100000000E-03 0. -1.
    9900012    2    1    2    0    0  0.94121515788E+01  0.84824124665E+01  0.13789087444E+02  0.72461578795E+02  0.70000011074E+02 0.  0.
         12    1    1    2    0    0 -0.94121515788E+01 -0.84824124665E+01 -0.13789087444E+02  0.18726421205E+02  0.00000000000E+00 0. -1.
         11    1    3    3    0    0  0.27056218191E+02  0.22219898958E+02 -0.67946637350E+01  0.35664131954E+02  0.51100000000E-03 0. -1.
        -11    1    3    3    0    0  0.21393741418E+01 -0.25521361840E+01 -0.26803771955E+01  0.42748968399E+01  0.51100000000E-03 0.  1.
        -12    1    3    3    0    0 -0.19783440754E+02 -0.11185350307E+02  0.23264128374E+02  0.32522550002E+02  0.00000000000E+00 0.  1.
</event>
<event>
 7    1  0.2684545E-013  0.7246158E+02  0.7816164E-02  0.1226708E+00
        -11   -1    0    0    0    0  0.00000000000E+00  0.00000000000E+00  0.45593999997E+02  0.45594000000E+02  0.51100000000E-03 0.  1.
         11   -1    0    0    0    0 -0.00000000000E+00 -0.00000000000E+00 -0.45593999997E+02  0.45594000000E+02  0.51100000000E-03 0. -1.
    9900012    2    1    2    0    0 -0.15857927754E+02  0.48857832762E+01  0.86795289834E+01  0.72461575509E+02  0.70000006792E+02 0.  0.
         12    1    1    2    0    0  0.15857927754E+02 -0.48857832762E+01 -0.86795289834E+01  0.18726424491E+02  0.00000000000E+00 0. -1.
         11    1    3    3    0    0  0.78153576638E+01 -0.13683866216E+02 -0.17240077076E+02  0.23356974716E+02  0.51100000000E-03 0. -1.
        -11    1    3    3    0    0  0.47927958552E+01  0.17762961183E+01 -0.23382382761E+01  0.56208076383E+01  0.51100000000E-03 0.  1.
        -12    1    3    3    0    0 -0.28466081273E+02  0.16793353374E+02  0.28257844336E+02  0.43483793154E+02  0.00000000000E+00 0.  1.
</event>
<event>
 7    1  0.2684545E-013  0.7246163E+02  0.7816164E-02  0.1226708E+00
        -11   -1    0    0    0    0  0.00000000000E+00  0.00000000000E+00  0.45593999997E+02  0.45594000000E+02  0.51100000000E-03 0.  1.
         11   -1    0    0    0    0 -0.00000000000E+00 -0.00000000000E+00 -0.45593999997E+02  0.45594000000E+02  0.51100000000E-03 0. -1.
    9900012    2    1    2    0    0 -0.21423410020E+01 -0.18595942212E+02 -0.52742861313E+00  0.72461631621E+02  0.70000079889E+02 0.  0.
         12    1    1    2    0    0  0.21423410020E+01  0.18595942212E+02  0.52742861313E+00  0.18726368379E+02  0.00000000000E+00 0. -1.
         11    1    3    3    0    0  0.64173935299E+01 -0.13470565028E+02 -0.14453672451E+02  0.20773726423E+02  0.51100000000E-03 0. -1.
        -11    1    3    3    0    0  0.34379260753E+01 -0.94048127434E+01  0.29740817465E+02  0.31381301155E+02  0.51100000000E-03 0.  1.
         12    1    3    3    0    0 -0.11997660607E+02  0.42794355594E+01 -0.15814573627E+02  0.20306604043E+02  0.00000000000E+00 0. -1.
</event>
<event>
 7    1  0.2684545E-013  0.7246157E+02  0.7816164E-02  0.1226708E+00
        -11   -1    0    0    0    0  0.00000000000E+00  0.00000000000E+00  0.45593999997E+02  0.45594000000E+02  0.51100000000E-03 0.  1.
         11   -1    0    0    0    0 -0.00000000000E+00 -0.00000000000E+00 -0.45593999997E+02  0.45594000000E+02  0.51100000000E-03 0. -1.
    9900012    2    1    2    0    0  0.18044149195E+02 -0.44140183222E+01  0.23673302542E+01  0.72461571337E+02  0.70000001359E+02 0.  0.
         12    1    1    2    0    0 -0.18044149195E+02  0.44140183222E+01 -0.23673302542E+01  0.18726428663E+02  0.00000000000E+00 0. -1.
         11    1    3    3    0    0 -0.16612893853E+01  0.12424889331E+02  0.18350854848E+01  0.12669068486E+02  0.51100000000E-03 0. -1.
        -11    1    3    3    0    0 -0.74990422346E+01 -0.19495515034E+01  0.21168214176E+02  0.22541731902E+02  0.51100000000E-03 0.  1.
         12    1    3    3    0    0  0.27204480815E+02 -0.14889356150E+02 -0.20635969406E+02  0.37250770949E+02  0.00000000000E+00 0. -1.
</event>
<event>
 7    1  0.2684545E-013  0.7246162E+02  0.7816164E-02  0.1226708E+00
        -11   -1    0    0    0    0  0.00000000000E+00  0.00000000000E+00  0.45593999997E+02  0.45594000000E+02  0.51100000000E-03 0.  1.
         11   -1    0    0    0    0 -0.00000000000E+00 -0.00000000000E+00 -0.45593999997E+02  0.45594000000E+02  0.51100000000E-03 0. -1.
    9900012    2    1    2    0    0  0.11962108008E+02 -0.48353180881E+01  0.13572217212E+02  0.72461617299E+02  0.70000061232E+02 0.  0.
         12    1    1    2    0    0 -0.11962108008E+02  0.48353180881E+01 -0.13572217212E+02  0.18726382701E+02  0.00000000000E+00 0. -1.
         11    1    3    3    0    0  0.11203312860E+02  0.14028223724E+02 -0.17141650791E+02  0.24822197163E+02  0.51100000000E-03 0. -1.
        -11    1    3    3    0    0 -0.60741599959E+01  0.67986116228E+01  0.39488515330E+01  0.99352890418E+01  0.51100000000E-03 0.  1.
        -12    1    3    3    0    0  0.68329551434E+01 -0.25662153435E+02  0.26765016470E+02  0.37704131094E+02  0.00000000000E+00 0.  1.
</event>
<event>
 7    1  0.2684545E-013  0.7246160E+02  0.7816164E-02  0.1226708E+00
        -11   -1    0    0    0    0  0.00000000000E+00  0.00000000000E+00  0.45593999997E+02  0.45594000000E+02  0.51100000000E-03 0. -1.
         11   -1    0    0    0    0 -0.00000000000E+00 -0.00000000000E+00 -0.45593999997E+02  0.45594000000E+02  0.51100000000E-03 0.  1.
    9900012    2    1    2    0    0  0.16980026360E+02 -0.78754321045E+01  0.57814782969E+00  0.72461602030E+02  0.70000041341E+02 0.  0.
         12    1    1    2    0    0 -0.16980026360E+02  0.78754321045E+01 -0.57814782969E+00  0.18726397970E+02  0.00000000000E+00 0. -1.
         11    1    3    3    0    0 -0.35914479161E+01  0.58619159282E+01 -0.13965609982E+02  0.15565950626E+02  0.51100000000E-03 0. -1.
        -11    1    3    3    0    0 -0.12703024231E+02  0.80174135203E+01  0.17000994148E+01  0.15117409912E+02  0.51100000000E-03 0.  1.
         12    1    3    3    0    0  0.33274498507E+02 -0.21754761553E+02  0.12843658396E+02  0.41778241492E+02  0.00000000000E+00 0. -1.
</event>
<event>
 7    1  0.2684545E-013  0.7246164E+02  0.7816164E-02  0.1226708E+00
        -11   -1    0    0    0    0  0.00000000000E+00  0.00000000000E+00  0.45593999997E+02  0.45594000000E+02  0.51100000000E-03 0. -1.
         11   -1    0    0    0    0 -0.00000000000E+00 -0.00000000000E+00 -0.45593999997E+02  0.45594000000E+02  0.51100000000E-03 0.  1.
    9900012    2    1    2    0    0 -0.58332665112E+01  0.51444743795E-02 -0.17794645845E+02  0.72461643029E+02  0.70000094751E+02 0.  0.
         12    1    1    2    0    0  0.58332665112E+01 -0.51444743795E-02  0.17794645845E+02  0.18726356971E+02  0.00000000000E+00 0. -1.
         11    1    3    3    0    0 -0.13072339772E+02  0.86025771800E+01 -0.38897198394E+01  0.16125145641E+02  0.51100000000E-03 0. -1.
        -11    1    3    3    0    0 -0.20075977248E+02 -0.34800037191E+01  0.70183604652E+01  0.21550236013E+02  0.51100000000E-03 0.  1.
        -12    1    3    3    0    0  0.27315050509E+02 -0.51174289866E+01 -0.20923286470E+02  0.34786261375E+02  0.00000000000E+00 0.  1.
</event>
<event>
 7    1  0.2684545E-013  0.7246146E+02  0.7816164E-02  0.1226708E+00
        -11   -1    0    0    0    0  0.00000000000E+00  0.00000000000E+00  0.45593999997E+02  0.45594000000E+02  0.51100000000E-03 0.  1.
         11   -1    0    0    0    0 -0.00000000000E+00 -0.00000000000E+00 -0.45593999997E+02  0.45594000000E+02  0.51100000000E-03 0. -1.
    9900012    2    1    2    0    0 -0.48976691373E+01 -0.12819424782E+02  0.12741997465E+02  0.72461459633E+02  0.69999855842E+02 0.  0.
         12    1    1    2    0    0  0.48976691373E+01  0.12819424782E+02 -0.12741997465E+02  0.18726540367E+02  0.00000000000E+00 0. -1.
         11    1    3    3    0    0  0.12920225458E+02 -0.20484296895E+02  0.81369964323E+00  0.24232225497E+02  0.51100000000E-03 0. -1.
        -11    1    3    3    0    0 -0.44923391932E+01 -0.12572828167E+02  0.18785535661E+02  0.23046767016E+02  0.51100000000E-03 0.  1.
         12    1    3    3    0    0 -0.13325555403E+02  0.20237700280E+02 -0.68572378391E+01  0.25182467119E+02  0.00000000000E+00 0. -1.
</event>
<event>
 7    1  0.2684545E-013  0.7246159E+02  0.7816164E-02  0.1226708E+00
        -11   -1    0    0    0    0  0.00000000000E+00  0.00000000000E+00  0.45593999997E+02  0.45594000000E+02  0.51100000000E-03 0. -1.
         11   -1    0    0    0    0 -0.00000000000E+00 -0.00000000000E+00 -0.45593999997E+02  0.45594000000E+02  0.51100000000E-03 0.  1.
    9900012    2    1    2    0    0 -0.13684389277E+01  0.12822584297E+02 -0.13578928884E+02  0.72461585426E+02  0.70000019712E+02 0.  0.
         12    1    1    2    0    0  0.13684389277E+01 -0.12822584297E+02  0.13578928884E+02  0.18726414574E+02  0.00000000000E+00 0. -1.
         11    1    3    3    0    0 -0.12041166527E+02  0.16326092544E+02  0.74601900583E+01  0.21614472583E+02  0.51100000000E-03 0. -1.
        -11    1    3    3    0    0  0.88413525607E+01  0.71545148726E+01  0.11730657349E+02  0.16339061180E+02  0.51100000000E-03 0.  1.
        -12    1    3    3    0    0  0.18313750385E+01 -0.10658023120E+02 -0.32769776291E+02  0.34508051663E+02  0.00000000000E+00 0.  1.
</event>
<event>
 7    1  0.2684545E-013  0.7246159E+02  0.7816164E-02  0.1226708E+00
        -11   -1    0    0    0    0  0.00000000000E+00  0.00000000000E+00  0.45593999997E+02  0.45594000000E+02  0.51100000000E-03 0.  1.
         11   -1    0    0    0    0 -0.00000000000E+00 -0.00000000000E+00 -0.45593999997E+02  0.45594000000E+02  0.51100000000E-03 0. -1.
    9900012    2    1    2    0    0 -0.16464557731E+02 -0.88695192255E+01 -0.96355962316E+00  0.72461588712E+02  0.70000023993E+02 0.  0.
         12    1    1    2    0    0  0.16464557731E+02  0.88695192255E+01  0.96355962316E+00  0.18726411288E+02  0.00000000000E+00 0. -1.
         11    1    3    3    0    0  0.76603758073E+01  0.63166181470E+01  0.20151494952E+02  0.22464722820E+02  0.51100000000E-03 0. -1.
        -11    1    3    3    0    0  0.88549278077E+01 -0.36568948167E+01 -0.86356273234E+01  0.12897933389E+02  0.51100000000E-03 0.  1.
        -12    1    3    3    0    0 -0.32979861346E+02 -0.11529242556E+02 -0.12479427252E+02  0.37098932503E+02  0.00000000000E+00 0.  1.
</event>
<event>
 7    1  0.2684545E-013  0.7246157E+02  0.7816164E-02  0.1226708E+00
        -11   -1    0    0    0    0  0.00000000000E+00  0.00000000000E+00  0.45593999997E+02  0.45594000000E+02  0.51100000000E-03 0.  1.
         11   -1    0    0    0    0 -0.00000000000E+00 -0.00000000000E+00 -0.45593999997E+02  0.45594000000E+02  0.51100000000E-03 0. -1.
    9900012    2    1    2    0    0 -0.80077585710E+01  0.14610078836E+02  0.85498790114E+01  0.72461573965E+02  0.70000004782E+02 0.  0.
         12    1    1    2    0    0  0.80077585710E+01 -0.14610078836E+02 -0.85498790114E+01  0.18726426035E+02  0.00000000000E+00 0. -1.
         11    1    3    3    0    0 -0.92376454262E+01  0.16134558406E+02 -0.21286105089E+02  0.28262277652E+02  0.51100000000E-03 0. -1.
        -11    1    3    3    0    0 -0.84226134372E+01  0.23396409432E+01 -0.33965968346E+01  0.93782304927E+01  0.51100000000E-03 0.  1.
        -12    1    3    3    0    0  0.96525002924E+01 -0.38641205126E+01  0.33232580935E+02  0.34821065820E+02  0.00000000000E+00 0.  1.
</event>
<event>
 7    1  0.2684545E-013  0.7246161E+02  0.7816164E-02  0.1226708E+00
        -11   -1    0    0    0    0  0.00000000000E+00  0.00000000000E+00  0.45593999997E+02  0.45594000000E+02  0.51100000000E-03 0. -1.
         11   -1    0    0    0    0 -0.00000000000E+00 -0.00000000000E+00 -0.45593999997E+02  0.45594000000E+02  0.51100000000E-03 0.  1.
    9900012    2    1    2    0    0 -0.35156394005E+01  0.63648508885E+01 -0.17257073174E+02  0.72461611620E+02  0.70000053834E+02 0.  0.
         12    1    1    2    0    0  0.35156394005E+01 -0.63648508885E+01  0.17257073174E+02  0.18726388380E+02  0.00000000000E+00 0. -1.
         11    1    3    3    0    0 -0.12968735371E+01  0.19227236247E+02 -0.13397815696E-01  0.19270928219E+02  0.51100000000E-03 0. -1.
        -11    1    3    3    0    0 -0.12240826689E+02  0.12626431353E+02 -0.18819179867E+02  0.25757059962E+02  0.51100000000E-03 0.  1.
        -12    1    3    3    0    0  0.10022060825E+02 -0.25488816711E+02  0.15755045090E+01  0.27433623439E+02  0.00000000000E+00 0.  1.
</event>
<event>
 7    1  0.2684545E-013  0.7246158E+02  0.7816164E-02  0.1226708E+00
        -11   -1    0    0    0    0  0.00000000000E+00  0.00000000000E+00  0.45593999997E+02  0.45594000000E+02  0.51100000000E-03 0.  1.
         11   -1    0    0    0    0 -0.00000000000E+00 -0.00000000000E+00 -0.45593999997E+02  0.45594000000E+02  0.51100000000E-03 0. -1.
    9900012    2    1    2    0    0  0.92530484063E+01  0.15247478900E+02 -0.57073932607E+01  0.72461578680E+02  0.70000010925E+02 0.  0.
         12    1    1    2    0    0 -0.92530484063E+01 -0.15247478900E+02  0.57073932607E+01  0.18726421320E+02  0.00000000000E+00 0. -1.
         11    1    3    3    0    0 -0.91267591852E+01  0.21387943710E+02  0.23416798560E+02  0.33001338222E+02  0.51100000000E-03 0. -1.
        -11    1    3    3    0    0  0.66962053420E+01  0.16225820491E+01  0.26489317804E+00  0.68950784728E+01  0.51100000000E-03 0.  1.
        -12    1    3    3    0    0  0.11683602249E+02 -0.77630468597E+01 -0.29389084999E+02  0.32565161986E+02  0.00000000000E+00 0.  1.
</event>
<event>
 7    1  0.2684545E-013  0.7246152E+02  0.7816164E-02  0.1226708E+00
        -11   -1    0    0    0    0  0.00000000000E+00  0.00000000000E+00  0.45593999997E+02  0.45594000000E+02  0.51100000000E-03 0.  1.
         11   -1    0    0    0    0 -0.00000000000E+00 -0.00000000000E+00 -0.45593999997E+02  0.45594000000E+02  0.51100000000E-03 0. -1.
    9900012    2    1    2    0    0 -0.10505379266E+01  0.84875025307E+01  0.16659523045E+02  0.72461520426E+02  0.69999935037E+02 0.  0.
         12    1    1    2    0    0  0.10505379266E+01 -0.84875025307E+01 -0.16659523045E+02  0.18726479574E+02  0.00000000000E+00 0. -1.
         11    1    3    3    0    0 -0.71385966556E+01 -0.24189107406E+02  0.60708501834E+01  0.25940850054E+02  0.51100000000E-03 0. -1.
        -11    1    3    3    0    0 -0.38201851357E+00  0.55142835712E+01  0.16996361704E+02  0.17872592785E+02  0.51100000000E-03 0.  1.
        -12    1    3    3    0    0  0.64700772426E+01  0.27162326365E+02 -0.64076888416E+01  0.28648077586E+02  0.00000000000E+00 0.  1.
</event>
<event>
 7    1  0.2684545E-013  0.7246155E+02  0.7816164E-02  0.1226708E+00
        -11   -1    0    0    0    0  0.00000000000E+00  0.00000000000E+00  0.45593999997E+02  0.45594000000E+02  0.51100000000E-03 0. -1.
         11   -1    0    0    0    0 -0.00000000000E+00 -0.00000000000E+00 -0.45593999997E+02  0.45594000000E+02  0.51100000000E-03 0.  1.
    9900012    2    1    2    0    0 -0.67669507936E+01 -0.82001016413E+01 -0.15415787910E+02  0.72461553278E+02  0.69999977832E+02 0.  0.
         12    1    1    2    0    0  0.67669507936E+01  0.82001016413E+01  0.15415787910E+02  0.18726446722E+02  0.00000000000E+00 0. -1.
         11    1    3    3    0    0 -0.76394604725E+01  0.39807304612E+01  0.34465587083E+01  0.92782723880E+01  0.51100000000E-03 0. -1.
        -11    1    3    3    0    0  0.12174916218E+02 -0.16764755028E+02  0.16045673761E+02  0.26205900915E+02  0.51100000000E-03 0.  1.
         12    1    3    3    0    0 -0.11302406539E+02  0.45839229252E+01 -0.34908020379E+02  0.36977379974E+02  0.00000000000E+00 0. -1.
</event>
<event>
 7    1  0.2684545E-013  0.7246155E+02  0.7816164E-02  0.1226708E+00
        -11   -1    0    0    0    0  0.00000000000E+00  0.00000000000E+00  0.45593999997E+02  0.45594000000E+02  0.51100000000E-03 0.  1.
         11   -1    0    0    0    0 -0.00000000000E+00 -0.00000000000E+00 -0.45593999997E+02  0.45594000000E+02  0.51100000000E-03 0. -1.
    9900012    2    1    2    0    0  0.18426761137E+02 -0.16129568461E+01  0.29210600021E+01  0.72461554867E+02  0.69999979902E+02 0.  0.
         12    1    1    2    0    0 -0.18426761137E+02  0.16129568461E+01 -0.29210600021E+01  0.18726445133E+02  0.00000000000E+00 0. -1.
         11    1    3    3    0    0  0.43308414192E+01  0.18960593435E+02  0.19391019858E+01  0.19545342350E+02  0.51100000000E-03 0. -1.
        -11    1    3    3    0    0  0.11896296659E+02  0.20467023379E+01 -0.19095563336E+02  0.22590958457E+02  0.51100000000E-03 0.  1.
        -12    1    3    3    0    0  0.21996230596E+01 -0.22620252619E+02  0.20077521352E+02  0.30325254060E+02  0.00000000000E+00 0.  1.
</event>
<event>
 7    1  0.2684545E-013  0.7246159E+02  0.7816164E-02  0.1226708E+00
        -11   -1    0    0    0    0  0.00000000000E+00  0.00000000000E+00  0.45593999997E+02  0.45594000000E+02  0.51100000000E-03 0.  1.
         11   -1    0    0    0    0 -0.00000000000E+00 -0.00000000000E+00 -0.45593999997E+02  0.45594000000E+02  0.51100000000E-03 0. -1.
    9900012    2    1    2    0    0  0.92648053946E+01  0.49742392461E+01  0.15495122542E+02  0.72461588233E+02  0.70000023368E+02 0.  0.
         12    1    1    2    0    0 -0.92648053946E+01 -0.49742392461E+01 -0.15495122542E+02  0.18726411767E+02  0.00000000000E+00 0. -1.
         11    1    3    3    0    0  0.99196602135E+01  0.24862564459E+01 -0.64162712554E+01  0.12072682674E+02  0.51100000000E-03 0. -1.
        -11    1    3    3    0    0 -0.14712745713E+02  0.22077231963E+02  0.24533441636E+02  0.36135284921E+02  0.51100000000E-03 0.  1.
         12    1    3    3    0    0  0.14057890894E+02 -0.19589249162E+02 -0.26220478386E+01  0.24253620637E+02  0.00000000000E+00 0. -1.
</event>
<event>
 7    1  0.2684545E-013  0.7246161E+02  0.7816164E-02  0.1226708E+00
        -11   -1    0    0    0    0  0.00000000000E+00  0.00000000000E+00  0.45593999997E+02  0.45594000000E+02  0.51100000000E-03 0. -1.
         11   -1    0    0    0    0 -0.00000000000E+00 -0.00000000000E+00 -0.45593999997E+02  0.45594000000E+02  0.51100000000E-03 0.  1.
    9900012    2    1    2    0    0  0.15862216697E+02  0.60490346973E+01 -0.79042356659E+01  0.72461610044E+02  0.70000051781E+02 0.  0.
         12    1    1    2    0    0 -0.15862216697E+02 -0.60490346973E+01  0.79042356659E+01  0.18726389956E+02  0.00000000000E+00 0. -1.
         11    1    3    3    0    0 -0.14086328259E+02 -0.51629890351E+01 -0.26428396074E+02  0.30389820975E+02  0.51100000000E-03 0. -1.
        -11    1    3    3    0    0  0.73762593906E+00 -0.31107225052E+01 -0.18418465554E+01  0.36895915120E+01  0.51100000000E-03 0.  1.
         12    1    3    3    0    0  0.29210919017E+02  0.14322746238E+02  0.20366006964E+02  0.38382197557E+02  0.00000000000E+00 0. -1.
</event>
<event>
 7    1  0.2684545E-013  0.7246150E+02  0.7816164E-02  0.1226708E+00
        -11   -1    0    0    0    0  0.00000000000E+00  0.00000000000E+00  0.45593999997E+02  0.45594000000E+02  0.51100000000E-03 0.  1.
         11   -1    0    0    0    0 -0.00000000000E+00 -0.00000000000E+00 -0.45593999997E+02  0.45594000000E+02  0.51100000000E-03 0. -1.
    9900012    2    1    2    0    0 -0.18127193347E+01 -0.18623647080E+02  0.74536938159E+00  0.72461501196E+02  0.69999909986E+02 0.  0.
         12    1    1    2    0    0  0.18127193347E+01  0.18623647080E+02 -0.74536938159E+00  0.18726498804E+02  0.00000000000E+00 0. -1.
         11    1    3    3    0    0  0.54651602755E+01 -0.18767313067E+02 -0.16731599647E+02  0.25729874535E+02  0.51100000000E-03 0. -1.
        -11    1    3    3    0    0 -0.10096625953E+02  0.10407057802E+02 -0.97668432373E+01  0.17482560876E+02  0.51100000000E-03 0.  1.
        -12    1    3    3    0    0  0.28187463427E+01 -0.10263391814E+02  0.27243812266E+02  0.29249065784E+02  0.00000000000E+00 0.  1.
</event>
<event>
 7    1  0.2684545E-013  0.7246145E+02  0.7816164E-02  0.1226708E+00
        -11   -1    0    0    0    0  0.00000000000E+00  0.00000000000E+00  0.45593999997E+02  0.45594000000E+02  0.51100000000E-03 0.  1.
         11   -1    0    0    0    0 -0.00000000000E+00 -0.00000000000E+00 -0.45593999997E+02  0.45594000000E+02  0.51100000000E-03 0. -1.
    9900012    2    1    2    0    0 -0.15772177872E+02  0.83239121840E+00  0.10061273343E+02  0.72461449564E+02  0.69999842726E+02 0.  0.
         12    1    1    2    0    0  0.15772177872E+02 -0.83239121840E+00 -0.10061273343E+02  0.18726550436E+02  0.00000000000E+00 0. -1.
         11    1    3    3    0    0  0.56821059448E+01 -0.24978305753E+02 -0.12250107079E+02  0.28394844778E+02  0.51100000000E-03 0.  1.
        -11    1    3    3    0    0  0.14704529294E+01  0.81673877924E+00 -0.17927526413E+01  0.24583035503E+01  0.51100000000E-03 0. -1.
         12    1    3    3    0    0 -0.22924736746E+02  0.24993958192E+02  0.24104133063E+02  0.41608301236E+02  0.00000000000E+00 0. -1.
</event>
<event>
 7    1  0.2684545E-013  0.7246152E+02  0.7816164E-02  0.1226708E+00
        -11   -1    0    0    0    0  0.00000000000E+00  0.00000000000E+00  0.45593999997E+02  0.45594000000E+02  0.51100000000E-03 0.  1.
         11   -1    0    0    0    0 -0.00000000000E+00 -0.00000000000E+00 -0.45593999997E+02  0.45594000000E+02  0.51100000000E-03 0. -1.
    9900012    2    1    2    0    0  0.22262535725E+01 -0.10176912311E+02  0.15561335613E+02  0.72461523684E+02  0.69999939281E+02 0.  0.
         12    1    1    2    0    0 -0.22262535725E+01  0.10176912311E+02 -0.15561335613E+02  0.18726476316E+02  0.00000000000E+00 0. -1.
         11    1    3    3    0    0 -0.15901081451E+02  0.93775953553E+01  0.22157569044E+02  0.28839929822E+02  0.51100000000E-03 0. -1.
        -11    1    3    3    0    0  0.17087581718E+02  0.51674861255E+01  0.56988733561E+00  0.17860938768E+02  0.51100000000E-03 0.  1.
         12    1    3    3    0    0  0.10397533054E+01 -0.24721993792E+02 -0.71661207659E+01  0.25760655093E+02  0.00000000000E+00 0. -1.
</event>
<event>
 7    1  0.2684545E-013  0.7246156E+02  0.7816164E-02  0.1226708E+00
        -11   -1    0    0    0    0  0.00000000000E+00  0.00000000000E+00  0.45593999997E+02  0.45594000000E+02  0.51100000000E-03 0.  1.
         11   -1    0    0    0    0 -0.00000000000E+00 -0.00000000000E+00 -0.45593999997E+02  0.45594000000E+02  0.51100000000E-03 0. -1.
    9900012    2    1    2    0    0 -0.12662933075E+02 -0.11956453778E+02  0.68827968820E+01  0.72461560031E+02  0.69999986630E+02 0.  0.
         12    1    1    2    0    0  0.12662933075E+02  0.11956453778E+02 -0.68827968820E+01  0.18726439969E+02  0.00000000000E+00 0. -1.
         11    1    3    3    0    0 -0.66593087040E+01  0.23741514104E+02 -0.17855312051E+01  0.24722338205E+02  0.51100000000E-03 0. -1.
        -11    1    3    3    0    0 -0.11034698728E+02 -0.78791195311E+00  0.54202109664E+01  0.12319256002E+02  0.51100000000E-03 0.  1.
        -12    1    3    3    0    0  0.50310743564E+01 -0.34910055929E+02  0.32481171207E+01  0.35419965824E+02  0.00000000000E+00 0.  1.
</event>
<event>
 7    1  0.2684545E-013  0.7246155E+02  0.7816164E-02  0.1226708E+00
        -11   -1    0    0    0    0  0.00000000000E+00  0.00000000000E+00  0.45593999997E+02  0.45594000000E+02  0.51100000000E-03 0.  1.
         11   -1    0    0    0    0 -0.00000000000E+00 -0.00000000000E+00 -0.45593999997E+02  0.45594000000E+02  0.51100000000E-03 0. -1.
    9900012    2    1    2    0    0 -0.11887913900E+02  0.12169563233E+02  0.78268127940E+01  0.72461554403E+02  0.69999979298E+02 0.  0.
         12    1    1    2    0    0  0.11887913900E+02 -0.12169563233E+02 -0.78268127940E+01  0.18726445597E+02  0.00000000000E+00 0. -1.
         11    1    3    3    0    0 -0.19815006501E+02  0.28457302525E+02 -0.91453264086E+01  0.35862090640E+02  0.51100000000E-03 0. -1.
        -11    1    3    3    0    0  0.12711211686E+00  0.74342506865E+01  0.33649580895E+01  0.81613224397E+01  0.51100000000E-03 0.  1.
        -12    1    3    3    0    0  0.77999804836E+01 -0.23721989979E+02  0.13607181113E+02  0.28438141324E+02  0.00000000000E+00 0.  1.
</event>
<event>
 7    1  0.2684545E-013  0.7246151E+02  0.7816164E-02  0.1226708E+00
        -11   -1    0    0    0    0  0.00000000000E+00  0.00000000000E+00  0.45593999997E+02  0.45594000000E+02  0.51100000000E-03 0. -1.
         11   -1    0    0    0    0 -0.00000000000E+00 -0.00000000000E+00 -0.45593999997E+02  0.45594000000E+02  0.51100000000E-03 0.  1.
    9900012    2    1    2    0    0  0.36814238534E+01 -0.15952540878E+02  0.90909310194E+01  0.72461508902E+02  0.69999920025E+02 0.  0.
         12    1    1    2    0    0 -0.36814238534E+01  0.15952540878E+02 -0.90909310194E+01  0.18726491098E+02  0.00000000000E+00 0. -1.
         11    1    3    3    0    0  0.15245387220E+02  0.58173559339E+01  0.66565037804E+00  0.16331152814E+02  0.51100000000E-03 0. -1.
        -11    1    3    3    0    0 -0.19076304517E+02 -0.72984960036E+01 -0.16560573278E+02  0.26294980994E+02  0.51100000000E-03 0.  1.
         12    1    3    3    0    0  0.75123411507E+01 -0.14471400808E+02  0.24985853919E+02  0.29835375094E+02  0.00000000000E+00 0. -1.
</event>
<event>
 7    1  0.2684545E-013  0.7246156E+02  0.7816164E-02  0.1226708E+00
        -11   -1    0    0    0    0  0.00000000000E+00  0.00000000000E+00  0.45593999997E+02  0.45594000000E+02  0.51100000000E-03 0.  1.
         11   -1    0    0    0    0 -0.00000000000E+00 -0.00000000000E+00 -0.45593999997E+02  0.45594000000E+02  0.51100000000E-03 0. -1.
    9900012    2    1    2    0    0  0.14370483851E+02  0.95043284586E+01 -0.73373243541E+01  0.72461564295E+02  0.69999992184E+02 0.  0.
         12    1    1    2    0    0 -0.14370483851E+02 -0.95043284586E+01  0.73373243541E+01  0.18726435705E+02  0.00000000000E+00 0. -1.
         11    1    3    3    0    0 -0.18389592500E+02  0.12949343838E+02  0.16047830726E+02  0.27629612545E+02  0.51100000000E-03 0. -1.
        -11    1    3    3    0    0  0.32743642397E+01 -0.76679418457E+01 -0.36562257833E+01  0.91042177348E+01  0.51100000000E-03 0.  1.
        -12    1    3    3    0    0  0.29485712111E+02  0.42229264665E+01 -0.19728929297E+02  0.35727734014E+02  0.00000000000E+00 0.  1.
</event>
<event>
 7    1  0.2684545E-013  0.7246156E+02  0.7816164E-02  0.1226708E+00
        -11   -1    0    0    0    0  0.00000000000E+00  0.00000000000E+00  0.45593999997E+02  0.45594000000E+02  0.51100000000E-03 0.  1.
         11   -1    0    0    0    0 -0.00000000000E+00 -0.00000000000E+00 -0.45593999997E+02  0.45594000000E+02  0.51100000000E-03 0. -1.
    9900012    2    1    2    0    0 -0.17722113521E+02  0.57448286792E+01 -0.18981794033E+01  0.72461562825E+02  0.69999990270E+02 0.  0.
         12    1    1    2    0    0  0.17722113521E+02 -0.57448286792E+01  0.18981794033E+01  0.18726437175E+02  0.00000000000E+00 0. -1.
         11    1    3    3    0    0 -0.34629688792E+01 -0.39526091611E+01 -0.52303318393E+01  0.74142864828E+01  0.51100000000E-03 0. -1.
        -11    1    3    3    0    0 -0.11590266595E+02 -0.25561581515E+02  0.84685239296E+01  0.29316286039E+02  0.51100000000E-03 0.  1.
         12    1    3    3    0    0 -0.26688780468E+01  0.35259019355E+02 -0.51363714936E+01  0.35730990303E+02  0.00000000000E+00 0. -1.
</event>
<event>
 7    1  0.2684545E-013  0.7246157E+02  0.7816164E-02  0.1226708E+00
        -11   -1    0    0    0    0  0.00000000000E+00  0.00000000000E+00  0.45593999997E+02  0.45594000000E+02  0.51100000000E-03 0.  1.
         11   -1    0    0    0    0 -0.00000000000E+00 -0.00000000000E+00 -0.45593999997E+02  0.45594000000E+02  0.51100000000E-03 0. -1.
    9900012    2    1    2    0    0 -0.48781272247E+01  0.50144368596E+01  0.17370620516E+02  0.72461570566E+02  0.70000000354E+02 0.  0.
         12    1    1    2    0    0  0.48781272247E+01 -0.50144368596E+01 -0.17370620516E+02  0.18726429434E+02  0.00000000000E+00 0. -1.
         11    1    3    3    0    0  0.33283710578E+01  0.62974671062E-01  0.19744050997E+02  0.20022726331E+02  0.51100000000E-03 0. -1.
        -11    1    3    3    0    0  0.13787540529E+02  0.14248836044E+02  0.13300916497E+02  0.23875510097E+02  0.51100000000E-03 0.  1.
         12    1    3    3    0    0 -0.21994038812E+02 -0.92973738558E+01 -0.15674346978E+02  0.28563334138E+02  0.00000000000E+00 0. -1.
</event>
<event>
 7    1  0.2684545E-013  0.7246158E+02  0.7816164E-02  0.1226708E+00
        -11   -1    0    0    0    0  0.00000000000E+00  0.00000000000E+00  0.45593999997E+02  0.45594000000E+02  0.51100000000E-03 0.  1.
         11   -1    0    0    0    0 -0.00000000000E+00 -0.00000000000E+00 -0.45593999997E+02  0.45594000000E+02  0.51100000000E-03 0. -1.
    9900012    2    1    2    0    0 -0.89696056474E+00  0.47847216770E+01  0.18082611916E+02  0.72461576062E+02  0.70000007514E+02 0.  0.
         12    1    1    2    0    0  0.89696056474E+00 -0.47847216770E+01 -0.18082611916E+02  0.18726423938E+02  0.00000000000E+00 0. -1.
         11    1    3    3    0    0  0.22630529514E+02 -0.11891436207E-01 -0.86535087169E+01  0.24228582725E+02  0.51100000000E-03 0. -1.
        -11    1    3    3    0    0  0.32254262629E+01 -0.19718922229E+01  0.19280632285E+02  0.19647761070E+02  0.51100000000E-03 0.  1.
         12    1    3    3    0    0 -0.26752916342E+02  0.67685053362E+01  0.74554883484E+01  0.28585232267E+02  0.00000000000E+00 0. -1.
</event>
<event>
 7    1  0.2684545E-013  0.7246128E+02  0.7816164E-02  0.1226709E+00
        -11   -1    0    0    0    0  0.00000000000E+00  0.00000000000E+00  0.45593999997E+02  0.45594000000E+02  0.51100000000E-03 0.  1.
         11   -1    0    0    0    0 -0.00000000000E+00 -0.00000000000E+00 -0.45593999997E+02  0.45594000000E+02  0.51100000000E-03 0. -1.
    9900012    2    1    2    0    0  0.97727975294E+01  0.55783129013E+01  0.14968791730E+02  0.72461284531E+02  0.69999627740E+02 0.  0.
         12    1    1    2    0    0 -0.97727975294E+01 -0.55783129013E+01 -0.14968791730E+02  0.18726715469E+02  0.00000000000E+00 0. -1.
         11    1    3    3    0    0  0.66129046158E+01 -0.13616215494E+02 -0.11621866521E+02  0.19084014607E+02  0.51100000000E-03 0. -1.
        -11    1    3    3    0    0 -0.11698978510E+02  0.77127276054E+01 -0.64091870514E+01  0.15408761930E+02  0.51100000000E-03 0.  1.
        -12    1    3    3    0    0  0.14858871423E+02  0.11481800790E+02  0.32999845303E+02  0.37968507995E+02  0.00000000000E+00 0.  1.
</event>
<event>
 7    1  0.2684545E-013  0.7246161E+02  0.7816164E-02  0.1226708E+00
        -11   -1    0    0    0    0  0.00000000000E+00  0.00000000000E+00  0.45593999997E+02  0.45594000000E+02  0.51100000000E-03 0. -1.
         11   -1    0    0    0    0 -0.00000000000E+00 -0.00000000000E+00 -0.45593999997E+02  0.45594000000E+02  0.51100000000E-03 0.  1.
    9900012    2    1    2    0    0 -0.79462519987E+01  0.13566648080E+02  0.10172553487E+02  0.72461609387E+02  0.70000050926E+02 0.  0.
         12    1    1    2    0    0  0.79462519987E+01 -0.13566648080E+02 -0.10172553487E+02  0.18726390613E+02  0.00000000000E+00 0. -1.
         11    1    3    3    0    0 -0.11355794386E+02  0.12731818125E+02  0.49841393537E+01  0.17773432540E+02  0.51100000000E-03 0. -1.
        -11    1    3    3    0    0 -0.21926945825E+02 -0.59649634784E+01  0.14379827136E+02  0.26891470232E+02  0.51100000000E-03 0.  1.
         12    1    3    3    0    0  0.25336488212E+02  0.67997934325E+01 -0.91914130032E+01  0.27796706615E+02  0.00000000000E+00 0. -1.
</event>
<event>
 7    1  0.2684545E-013  0.7246160E+02  0.7816164E-02  0.1226708E+00
        -11   -1    0    0    0    0  0.00000000000E+00  0.00000000000E+00  0.45593999997E+02  0.45594000000E+02  0.51100000000E-03 0.  1.
         11   -1    0    0    0    0 -0.00000000000E+00 -0.00000000000E+00 -0.45593999997E+02  0.45594000000E+02  0.51100000000E-03 0. -1.
    9900012    2    1    2    0    0  0.14453685079E+01  0.17030687273E+02  0.76514524640E+01  0.72461598212E+02  0.70000036368E+02 0.  0.
         12    1    1    2    0    0 -0.14453685079E+01 -0.17030687273E+02 -0.76514524640E+01  0.18726401788E+02  0.00000000000E+00 0. -1.
         11    1    3    3    0    0 -0.66483554169E+01  0.11091024419E+02  0.27949012604E+01  0.13229623038E+02  0.51100000000E-03 0. -1.
        -11    1    3    3    0    0  0.28379660227E+02  0.18481331245E+02 -0.32969552804E+01  0.34026969210E+02  0.51100000000E-03 0.  1.
         12    1    3    3    0    0 -0.20285936302E+02 -0.12541668390E+02  0.81535064840E+01  0.25205005964E+02  0.00000000000E+00 0. -1.
</event>
<event>
 7    1  0.2684545E-013  0.7246154E+02  0.7816164E-02  0.1226708E+00
        -11   -1    0    0    0    0  0.00000000000E+00  0.00000000000E+00  0.45593999997E+02  0.45594000000E+02  0.51100000000E-03 0.  1.
         11   -1    0    0    0    0 -0.00000000000E+00 -0.00000000000E+00 -0.45593999997E+02  0.45594000000E+02  0.51100000000E-03 0. -1.
    9900012    2    1    2    0    0 -0.82767656203E+01  0.12080379026E+02  0.11672192200E+02  0.72461535376E+02  0.69999954513E+02 0.  0.
         12    1    1    2    0    0  0.82767656203E+01 -0.12080379026E+02 -0.11672192200E+02  0.18726464624E+02  0.00000000000E+00 0. -1.
         11    1    3    3    0    0  0.10717841981E+02  0.20630281313E+02  0.89921236165E+01  0.24926671081E+02  0.51100000000E-03 0.  1.
        -11    1    3    3    0    0 -0.14943213691E+01 -0.19820989540E+02  0.13545613193E+02  0.24053861639E+02  0.51100000000E-03 0. -1.
         12    1    3    3    0    0 -0.17500286233E+02  0.11271087253E+02 -0.10865544609E+02  0.23481002656E+02  0.00000000000E+00 0. -1.
</event>
<event>
 7    1  0.2684545E-013  0.7246113E+02  0.7816164E-02  0.1226709E+00
        -11   -1    0    0    0    0  0.00000000000E+00  0.00000000000E+00  0.45593999997E+02  0.45594000000E+02  0.51100000000E-03 0. -1.
         11   -1    0    0    0    0 -0.00000000000E+00 -0.00000000000E+00 -0.45593999997E+02  0.45594000000E+02  0.51100000000E-03 0.  1.
    9900012    2    1    2    0    0 -0.17612658709E+02 -0.63413647624E+01 -0.52632905229E+00  0.72461129570E+02  0.69999425872E+02 0.  0.
         12    1    1    2    0    0  0.17612658709E+02  0.63413647624E+01  0.52632905229E+00  0.18726870430E+02  0.00000000000E+00 0. -1.
         11    1    3    3    0    0  0.44442151617E+01 -0.19404159684E+02  0.69328355074E+01  0.21079294815E+02  0.51100000000E-03 0. -1.
        -11    1    3    3    0    0  0.84222870352E+01  0.99313236796E+01  0.97249169955E+01  0.16252388125E+02  0.51100000000E-03 0.  1.
         12    1    3    3    0    0 -0.30479160905E+02  0.31314712425E+01 -0.17184081555E+02  0.35129446630E+02  0.00000000000E+00 0. -1.
</event>
<event>
 7    1  0.2684545E-013  0.7246159E+02  0.7816164E-02  0.1226708E+00
        -11   -1    0    0    0    0  0.00000000000E+00  0.00000000000E+00  0.45593999997E+02  0.45594000000E+02  0.51100000000E-03 0.  1.
         11   -1    0    0    0    0 -0.00000000000E+00 -0.00000000000E+00 -0.45593999997E+02  0.45594000000E+02  0.51100000000E-03 0. -1.
    9900012    2    1    2    0    0 -0.65477026961E-02  0.86291871787E+01  0.16619727917E+02  0.72461594305E+02  0.70000031278E+02 0.  0.
         12    1    1    2    0    0  0.65477026961E-02 -0.86291871787E+01 -0.16619727917E+02  0.18726405695E+02  0.00000000000E+00 0. -1.
         11    1    3    3    0    0 -0.17790085782E+02 -0.30182079356E+01 -0.13713424101E+02  0.22663952261E+02  0.51100000000E-03 0. -1.
        -11    1    3    3    0    0  0.23225505691E+02  0.20910995574E+01  0.75702346888E+01  0.24517448185E+02  0.51100000000E-03 0.  1.
        -12    1    3    3    0    0 -0.54419676118E+01  0.95562955569E+01  0.22762917328E+02  0.25280193859E+02  0.00000000000E+00 0.  1.
</event>
<event>
 7    1  0.2684545E-013  0.7246157E+02  0.7816164E-02  0.1226708E+00
        -11   -1    0    0    0    0  0.00000000000E+00  0.00000000000E+00  0.45593999997E+02  0.45594000000E+02  0.51100000000E-03 0. -1.
         11   -1    0    0    0    0 -0.00000000000E+00 -0.00000000000E+00 -0.45593999997E+02  0.45594000000E+02  0.51100000000E-03 0.  1.
    9900012    2    1    2    0    0  0.15281587335E+02  0.10821044676E+02 -0.23894195758E+00  0.72461574484E+02  0.70000005458E+02 0.  0.
         12    1    1    2    0    0 -0.15281587335E+02 -0.10821044676E+02  0.23894195758E+00  0.18726425516E+02  0.00000000000E+00 0. -1.
         11    1    3    3    0    0 -0.16557090288E+02  0.38580977099E+00  0.17136326815E+01  0.16650003760E+02  0.51100000000E-03 0. -1.
        -11    1    3    3    0    0  0.54835505600E+01 -0.12107085857E+02 -0.13803338759E+02  0.19162020140E+02  0.51100000000E-03 0.  1.
        -12    1    3    3    0    0  0.26355127062E+02  0.22542320762E+02  0.11850764120E+02  0.36649550584E+02  0.00000000000E+00 0.  1.
</event>
<event>
 7    1  0.2684545E-013  0.7246162E+02  0.7816164E-02  0.1226708E+00
        -11   -1    0    0    0    0  0.00000000000E+00  0.00000000000E+00  0.45593999997E+02  0.45594000000E+02  0.51100000000E-03 0.  1.
         11   -1    0    0    0    0 -0.00000000000E+00 -0.00000000000E+00 -0.45593999997E+02  0.45594000000E+02  0.51100000000E-03 0. -1.
    9900012    2    1    2    0    0  0.17093291405E+02  0.22849511488E+01  0.72990211932E+01  0.72461619592E+02  0.70000064220E+02 0.  0.
         12    1    1    2    0    0 -0.17093291405E+02 -0.22849511488E+01 -0.72990211932E+01  0.18726380408E+02  0.00000000000E+00 0. -1.
         11    1    3    3    0    0  0.44864255310E+01 -0.44943725038E+01 -0.10343611646E+02  0.12137450325E+02  0.51100000000E-03 0. -1.
        -11    1    3    3    0    0  0.16782376019E+02  0.87762144740E+01 -0.16954390628E+02  0.25418919079E+02  0.51100000000E-03 0.  1.
         12    1    3    3    0    0 -0.41755101454E+01 -0.19968908215E+01  0.34597023467E+02  0.34905250188E+02  0.00000000000E+00 0. -1.
</event>
<event>
 7    1  0.2684545E-013  0.7246155E+02  0.7816164E-02  0.1226708E+00
        -11   -1    0    0    0    0  0.00000000000E+00  0.00000000000E+00  0.45593999997E+02  0.45594000000E+02  0.51100000000E-03 0. -1.
         11   -1    0    0    0    0 -0.00000000000E+00 -0.00000000000E+00 -0.45593999997E+02  0.45594000000E+02  0.51100000000E-03 0.  1.
    9900012    2    1    2    0    0 -0.13379982609E+02  0.13101630378E+02 -0.56608811669E-01  0.72461551918E+02  0.69999976062E+02 0.  0.
         12    1    1    2    0    0  0.13379982609E+02 -0.13101630378E+02  0.56608811669E-01  0.18726448082E+02  0.00000000000E+00 0. -1.
         11    1    3    3    0    0 -0.20850651725E+02  0.33293087290E+02  0.79494424578E+01  0.40079583011E+02  0.51100000000E-03 0. -1.
        -11    1    3    3    0    0 -0.42864423310E+01 -0.36447901845E+01  0.56055407857E+01  0.79423026326E+01  0.51100000000E-03 0.  1.
         12    1    3    3    0    0  0.11757111447E+02 -0.16546666727E+02 -0.13611592055E+02  0.24439666275E+02  0.00000000000E+00 0. -1.
</event>
<event>
 7    1  0.2684545E-013  0.7246149E+02  0.7816164E-02  0.1226708E+00
        -11   -1    0    0    0    0  0.00000000000E+00  0.00000000000E+00  0.45593999997E+02  0.45594000000E+02  0.51100000000E-03 0.  1.
         11   -1    0    0    0    0 -0.00000000000E+00 -0.00000000000E+00 -0.45593999997E+02  0.45594000000E+02  0.51100000000E-03 0. -1.
    9900012    2    1    2    0    0  0.17085569383E+02 -0.76599374901E+01 -0.30111096564E+00  0.72461494952E+02  0.69999901853E+02 0.  0.
         12    1    1    2    0    0 -0.17085569383E+02  0.76599374901E+01  0.30111096564E+00  0.18726505048E+02  0.00000000000E+00 0. -1.
         11    1    3    3    0    0  0.11003987723E+02 -0.17609968306E+02 -0.15503192900E+02  0.25914237783E+02  0.51100000000E-03 0. -1.
        -11    1    3    3    0    0  0.16919436633E+01 -0.16677319253E+02  0.82308007802E+01  0.18674628043E+02  0.51100000000E-03 0.  1.
        -12    1    3    3    0    0  0.43896379970E+01  0.26627350069E+02  0.69712811538E+01  0.27872629125E+02  0.00000000000E+00 0.  1.
</event>
<event>
 7    1  0.2684545E-013  0.7246157E+02  0.7816164E-02  0.1226708E+00
        -11   -1    0    0    0    0  0.00000000000E+00  0.00000000000E+00  0.45593999997E+02  0.45594000000E+02  0.51100000000E-03 0. -1.
         11   -1    0    0    0    0 -0.00000000000E+00 -0.00000000000E+00 -0.45593999997E+02  0.45594000000E+02  0.51100000000E-03 0.  1.
    9900012    2    1    2    0    0  0.11346083934E+02  0.34076302085E+01 -0.14502880032E+02  0.72461572324E+02  0.70000002644E+02 0.  0.
         12    1    1    2    0    0 -0.11346083934E+02 -0.34076302085E+01  0.14502880032E+02  0.18726427676E+02  0.00000000000E+00 0. -1.
         11    1    3    3    0    0 -0.12764125835E+02  0.57016853124E+01  0.97704307151E+01  0.17055598505E+02  0.51100000000E-03 0. -1.
        -11    1    3    3    0    0  0.28441107190E+02 -0.87613706126E+01  0.16252069103E+00  0.29760453734E+02  0.51100000000E-03 0.  1.
        -12    1    3    3    0    0 -0.43308974213E+01  0.64673155087E+01 -0.24435831438E+02  0.25645520085E+02  0.00000000000E+00 0.  1.
</event>
<event>
 7    1  0.2684545E-013  0.7246104E+02  0.7816164E-02  0.1226709E+00
        -11   -1    0    0    0    0  0.00000000000E+00  0.00000000000E+00  0.45593999997E+02  0.45594000000E+02  0.51100000000E-03 0.  1.
         11   -1    0    0    0    0 -0.00000000000E+00 -0.00000000000E+00 -0.45593999997E+02  0.45594000000E+02  0.51100000000E-03 0. -1.
    9900012    2    1    2    0    0  0.27495131955E+01  0.39376071456E+01  0.18100677240E+02  0.72461038437E+02  0.69999307154E+02 0.  0.
         12    1    1    2    0    0 -0.27495131955E+01 -0.39376071456E+01 -0.18100677240E+02  0.18726961563E+02  0.00000000000E+00 0. -1.
         11    1    3    3    0    0  0.93069995858E+00 -0.23801233684E+01  0.50407010764E+01  0.56515358324E+01  0.51100000000E-03 0. -1.
        -11    1    3    3    0    0 -0.18419792156E+02 -0.22805343217E+02  0.93745369316E+00  0.29330039924E+02  0.51100000000E-03 0.  1.
         12    1    3    3    0    0  0.20238605393E+02  0.29123073731E+02  0.12122522470E+02  0.37479462680E+02  0.00000000000E+00 0. -1.
</event>
<event>
 7    1  0.2684545E-013  0.7246165E+02  0.7816164E-02  0.1226708E+00
        -11   -1    0    0    0    0  0.00000000000E+00  0.00000000000E+00  0.45593999997E+02  0.45594000000E+02  0.51100000000E-03 0. -1.
         11   -1    0    0    0    0 -0.00000000000E+00 -0.00000000000E+00 -0.45593999997E+02  0.45594000000E+02  0.51100000000E-03 0.  1.
    9900012    2    1    2    0    0  0.12461670514E+02  0.54860802722E+01 -0.12856356235E+02  0.72461649465E+02  0.70000103134E+02 0.  0.
         12    1    1    2    0    0 -0.12461670514E+02 -0.54860802722E+01  0.12856356235E+02  0.18726350535E+02  0.00000000000E+00 0. -1.
         11    1    3    3    0    0  0.13285777803E+02 -0.27777064032E+02  0.55739532824E+01  0.31291310831E+02  0.51100000000E-03 0. -1.
        -11    1    3    3    0    0 -0.10385401398E+01  0.58114699044E+01  0.27347853629E+01  0.65062123631E+01  0.51100000000E-03 0.  1.
        -12    1    3    3    0    0  0.21443285054E+00  0.27451674400E+02 -0.21165094880E+02  0.34664126270E+02  0.00000000000E+00 0.  1.
</event>
<event>
 7    1  0.2684545E-013  0.7246149E+02  0.7816164E-02  0.1226708E+00
        -11   -1    0    0    0    0  0.00000000000E+00  0.00000000000E+00  0.45593999997E+02  0.45594000000E+02  0.51100000000E-03 0.  1.
         11   -1    0    0    0    0 -0.00000000000E+00 -0.00000000000E+00 -0.45593999997E+02  0.45594000000E+02  0.51100000000E-03 0. -1.
    9900012    2    1    2    0    0 -0.15323326080E+02 -0.21730299193E+01  0.10543052744E+02  0.72461485579E+02  0.69999889643E+02 0.  0.
         12    1    1    2    0    0  0.15323326080E+02  0.21730299193E+01 -0.10543052744E+02  0.18726514421E+02  0.00000000000E+00 0. -1.
         11    1    3    3    0    0 -0.39375537795E+01 -0.20233326058E+01  0.21360816039E+02  0.21814735083E+02  0.51100000000E-03 0. -1.
        -11    1    3    3    0    0 -0.27529351859E+02  0.52480096842E+01  0.37079972500E+01  0.28269348476E+02  0.51100000000E-03 0.  1.
         12    1    3    3    0    0  0.16143579558E+02 -0.53977069978E+01 -0.14525760545E+02  0.22377402021E+02  0.00000000000E+00 0. -1.
</event>
<event>
 7    1  0.2684545E-013  0.7246175E+02  0.7816164E-02  0.1226708E+00
        -11   -1    0    0    0    0  0.00000000000E+00  0.00000000000E+00  0.45593999997E+02  0.45594000000E+02  0.51100000000E-03 0. -1.
         11   -1    0    0    0    0 -0.00000000000E+00 -0.00000000000E+00 -0.45593999997E+02  0.45594000000E+02  0.51100000000E-03 0.  1.
    9900012    2    1    2    0    0 -0.16349450277E+02 -0.48738317880E+01 -0.77209941323E+01  0.72461748078E+02  0.70000231596E+02 0.  0.
         12    1    1    2    0    0  0.16349450277E+02  0.48738317880E+01  0.77209941323E+01  0.18726251922E+02  0.00000000000E+00 0. -1.
         11    1    3    3    0    0  0.11616995849E+02  0.10219169025E+02  0.15204709946E+02  0.21692607334E+02  0.51100000000E-03 0. -1.
        -11    1    3    3    0    0 -0.32002236243E+01  0.86813064622E+01  0.40501457872E+00  0.92612391291E+01  0.51100000000E-03 0.  1.
        -12    1    3    3    0    0 -0.24766222502E+02 -0.23774307276E+02 -0.23330718657E+02  0.41507901615E+02  0.00000000000E+00 0.  1.
</event>
<event>
 7    1  0.2684545E-013  0.7246158E+02  0.7816164E-02  0.1226708E+00
        -11   -1    0    0    0    0  0.00000000000E+00  0.00000000000E+00  0.45593999997E+02  0.45594000000E+02  0.51100000000E-03 0.  1.
         11   -1    0    0    0    0 -0.00000000000E+00 -0.00000000000E+00 -0.45593999997E+02  0.45594000000E+02  0.51100000000E-03 0. -1.
    9900012    2    1    2    0    0 -0.10896574180E+02 -0.55179767563E+01  0.14194913490E+02  0.72461575746E+02  0.70000007102E+02 0.  0.
         12    1    1    2    0    0  0.10896574180E+02  0.55179767563E+01 -0.14194913490E+02  0.18726424254E+02  0.00000000000E+00 0. -1.
         11    1    3    3    0    0  0.20007731901E+01 -0.10826801019E+02  0.40432092293E+02  0.41904376873E+02  0.51100000000E-03 0.  1.
        -11    1    3    3    0    0 -0.44177052894E+01 -0.16213538495E+01 -0.82959520026E+01  0.95377003633E+01  0.51100000000E-03 0. -1.
        -12    1    3    3    0    0 -0.84796420812E+01  0.69301781124E+01 -0.17941226800E+02  0.21019498509E+02  0.00000000000E+00 0.  1.
</event>
<event>
 7    1  0.2684545E-013  0.7246169E+02  0.7816164E-02  0.1226708E+00
        -11   -1    0    0    0    0  0.00000000000E+00  0.00000000000E+00  0.45593999997E+02  0.45594000000E+02  0.51100000000E-03 0. -1.
         11   -1    0    0    0    0 -0.00000000000E+00 -0.00000000000E+00 -0.45593999997E+02  0.45594000000E+02  0.51100000000E-03 0.  1.
    9900012    2    1    2    0    0 -0.97299817853E+01 -0.86359875518E+01 -0.13469292361E+02  0.72461690613E+02  0.70000156738E+02 0.  0.
         12    1    1    2    0    0  0.97299817853E+01  0.86359875518E+01  0.13469292361E+02  0.18726309387E+02  0.00000000000E+00 0. -1.
         11    1    3    3    0    0 -0.14117205170E+02 -0.14765256804E+01 -0.24706417404E+01  0.14407625786E+02  0.51100000000E-03 0.  1.
        -11    1    3    3    0    0  0.10653519853E+02 -0.29623185700E+02  0.16492369425E+01  0.31523810033E+02  0.51100000000E-03 0. -1.
         12    1    3    3    0    0 -0.62662964676E+01  0.22463723828E+02 -0.12647887563E+02  0.26530254795E+02  0.00000000000E+00 0. -1.
</event>
<event>
 7    1  0.2684545E-013  0.7246095E+02  0.7816164E-02  0.1226710E+00
        -11   -1    0    0    0    0  0.00000000000E+00  0.00000000000E+00  0.45593999997E+02  0.45594000000E+02  0.51100000000E-03 0. -1.
         11   -1    0    0    0    0 -0.00000000000E+00 -0.00000000000E+00 -0.45593999997E+02  0.45594000000E+02  0.51100000000E-03 0.  1.
    9900012    2    1    2    0    0 -0.15231669809E+02 -0.87577261360E+01 -0.64808207942E+01  0.72460945495E+02  0.69999186079E+02 0.  0.
         12    1    1    2    0    0  0.15231669809E+02  0.87577261360E+01  0.64808207942E+01  0.18727054505E+02  0.00000000000E+00 0. -1.
         11    1    3    3    0    0 -0.48509556816E+01 -0.16749183112E+02 -0.54579846908E+01  0.18271740560E+02  0.51100000000E-03 0.  1.
        -11    1    3    3    0    0 -0.13390313995E+02  0.24700954075E+02  0.14114300514E+02  0.31442823034E+02  0.51100000000E-03 0. -1.
         12    1    3    3    0    0  0.30095998677E+01 -0.16709497099E+02 -0.15137136617E+02  0.22746381902E+02  0.00000000000E+00 0. -1.
</event>
<event>
 7    1  0.2684545E-013  0.7246146E+02  0.7816164E-02  0.1226708E+00
        -11   -1    0    0    0    0  0.00000000000E+00  0.00000000000E+00  0.45593999997E+02  0.45594000000E+02  0.51100000000E-03 0. -1.
         11   -1    0    0    0    0 -0.00000000000E+00 -0.00000000000E+00 -0.45593999997E+02  0.45594000000E+02  0.51100000000E-03 0.  1.
    9900012    2    1    2    0    0 -0.32497865227E+01 -0.17428659469E+02 -0.60302691050E+01  0.72461456571E+02  0.69999851854E+02 0.  0.
         12    1    1    2    0    0  0.32497865227E+01  0.17428659469E+02  0.60302691050E+01  0.18726543429E+02  0.00000000000E+00 0. -1.
         11    1    3    3    0    0 -0.15176417908E+02 -0.19233023473E+02 -0.19231610283E+02  0.31146230700E+02  0.51100000000E-03 0. -1.
        -11    1    3    3    0    0  0.79895852674E+01 -0.60998924903E+01 -0.11387171968E+02  0.15189135816E+02  0.51100000000E-03 0.  1.
         12    1    3    3    0    0  0.39370461182E+01  0.79042564952E+01  0.24588513146E+02  0.26126090056E+02  0.00000000000E+00 0. -1.
</event>
<event>
 7    1  0.2684545E-013  0.7246196E+02  0.7816164E-02  0.1226707E+00
        -11   -1    0    0    0    0  0.00000000000E+00  0.00000000000E+00  0.45593999997E+02  0.45594000000E+02  0.51100000000E-03 0.  1.
         11   -1    0    0    0    0 -0.00000000000E+00 -0.00000000000E+00 -0.45593999997E+02  0.45594000000E+02  0.51100000000E-03 0. -1.
    9900012    2    1    2    0    0 -0.71615931986E+01 -0.10906721353E+02  0.13432033877E+02  0.72461961394E+02  0.70000509478E+02 0.  0.
         12    1    1    2    0    0  0.71615931986E+01  0.10906721353E+02 -0.13432033877E+02  0.18726038606E+02  0.00000000000E+00 0. -1.
         11    1    3    3    0    0  0.99305883793E+01 -0.32635685120E+00 -0.84882676815E+01  0.13068044339E+02  0.51100000000E-03 0. -1.
        -11    1    3    3    0    0  0.13646642229E+02  0.86516607594E+01  0.15842019288E+02  0.22628558359E+02  0.51100000000E-03 0.  1.
         12    1    3    3    0    0 -0.30738823807E+02 -0.19232025261E+02  0.60782822705E+01  0.36765358696E+02  0.00000000000E+00 0. -1.
</event>
<event>
 7    1  0.2684545E-013  0.7246126E+02  0.7816164E-02  0.1226709E+00
        -11   -1    0    0    0    0  0.00000000000E+00  0.00000000000E+00  0.45593999997E+02  0.45594000000E+02  0.51100000000E-03 0. -1.
         11   -1    0    0    0    0 -0.00000000000E+00 -0.00000000000E+00 -0.45593999997E+02  0.45594000000E+02  0.51100000000E-03 0.  1.
    9900012    2    1    2    0    0 -0.65356695232E+01 -0.66811322375E+00 -0.17536518637E+02  0.72461258764E+02  0.69999594173E+02 0.  0.
         12    1    1    2    0    0  0.65356695232E+01  0.66811322375E+00  0.17536518637E+02  0.18726741236E+02  0.00000000000E+00 0. -1.
         11    1    3    3    0    0  0.56593190435E+00 -0.89307972860E+01  0.28265681275E+01  0.93845035417E+01  0.51100000000E-03 0. -1.
        -11    1    3    3    0    0  0.98317262892E+00 -0.90289781474E+01 -0.36789233230E+02  0.37893756171E+02  0.51100000000E-03 0.  1.
         12    1    3    3    0    0 -0.80847740565E+01  0.17291662210E+02  0.16426146466E+02  0.25182999052E+02  0.00000000000E+00 0. -1.
</event>
<event>
 7    1  0.2684545E-013  0.7246133E+02  0.7816164E-02  0.1226709E+00
        -11   -1    0    0    0    0  0.00000000000E+00  0.00000000000E+00  0.45593999997E+02  0.45594000000E+02  0.51100000000E-03 0. -1.
         11   -1    0    0    0    0 -0.00000000000E+00 -0.00000000000E+00 -0.45593999997E+02  0.45594000000E+02  0.51100000000E-03 0.  1.
    9900012    2    1    2    0    0 -0.14113931760E+02 -0.11799551639E+02  0.35007885722E+01  0.72461334273E+02  0.69999692538E+02 0.  0.
         12    1    1    2    0    0  0.14113931760E+02  0.11799551639E+02 -0.35007885722E+01  0.18726665727E+02  0.00000000000E+00 0. -1.
         11    1    3    3    0    0 -0.15252603528E+02 -0.83312037574E+01 -0.46103441024E+01  0.17980715876E+02  0.51100000000E-03 0. -1.
        -11    1    3    3    0    0  0.91999394180E+01  0.22428360103E+02 -0.43559079946E+01  0.24630147318E+02  0.51100000000E-03 0.  1.
         12    1    3    3    0    0 -0.80612676505E+01 -0.25896707984E+02  0.12467040669E+02  0.29850471079E+02  0.00000000000E+00 0. -1.
</event>
<event>
 7    1  0.2684545E-013  0.7246151E+02  0.7816164E-02  0.1226708E+00
        -11   -1    0    0    0    0  0.00000000000E+00  0.00000000000E+00  0.45593999997E+02  0.45594000000E+02  0.51100000000E-03 0.  1.
         11   -1    0    0    0    0 -0.00000000000E+00 -0.00000000000E+00 -0.45593999997E+02  0.45594000000E+02  0.51100000000E-03 0. -1.
    9900012    2    1    2    0    0  0.13428139585E+02 -0.40516769937E+01  0.12407670601E+02  0.72461513172E+02  0.69999925588E+02 0.  0.
         12    1    1    2    0    0 -0.13428139585E+02  0.40516769937E+01 -0.12407670601E+02  0.18726486828E+02  0.00000000000E+00 0. -1.
         11    1    3    3    0    0 -0.64935891570E+00 -0.58624489286E+01 -0.33901119873E-01  0.58984001212E+01  0.51100000000E-03 0. -1.
        -11    1    3    3    0    0  0.20491995177E+02 -0.22237785556E+02 -0.11188468016E+02  0.32243182064E+02  0.51100000000E-03 0.  1.
         12    1    3    3    0    0 -0.64144966756E+01  0.24048557491E+02  0.23630039737E+02  0.34319930987E+02  0.00000000000E+00 0. -1.
</event>
<event>
 7    1  0.2684545E-013  0.7246138E+02  0.7816164E-02  0.1226709E+00
        -11   -1    0    0    0    0  0.00000000000E+00  0.00000000000E+00  0.45593999997E+02  0.45594000000E+02  0.51100000000E-03 0.  1.
         11   -1    0    0    0    0 -0.00000000000E+00 -0.00000000000E+00 -0.45593999997E+02  0.45594000000E+02  0.51100000000E-03 0. -1.
    9900012    2    1    2    0    0 -0.69372665977E+01  0.12179050405E+02  0.12418998705E+02  0.72461375492E+02  0.69999746234E+02 0.  0.
         12    1    1    2    0    0  0.69372665977E+01 -0.12179050405E+02 -0.12418998705E+02  0.18726624508E+02  0.00000000000E+00 0. -1.
         11    1    3    3    0    0 -0.25355716070E+01 -0.10602162050E+02  0.62562039067E+01  0.12568812636E+02  0.51100000000E-03 0. -1.
        -11    1    3    3    0    0 -0.20258882214E+02 -0.36772845279E+01  0.17506614269E+02  0.27026399566E+02  0.51100000000E-03 0.  1.
         12    1    3    3    0    0  0.15857187223E+02  0.26458496983E+02 -0.11343819471E+02  0.32866163290E+02  0.00000000000E+00 0. -1.
</event>
<event>
 7    1  0.2684545E-013  0.7246156E+02  0.7816164E-02  0.1226708E+00
        -11   -1    0    0    0    0  0.00000000000E+00  0.00000000000E+00  0.45593999997E+02  0.45594000000E+02  0.51100000000E-03 0.  1.
         11   -1    0    0    0    0 -0.00000000000E+00 -0.00000000000E+00 -0.45593999997E+02  0.45594000000E+02  0.51100000000E-03 0. -1.
    9900012    2    1    2    0    0 -0.11851989155E+02  0.12280921503E+01  0.14446506300E+02  0.72461564100E+02  0.69999991930E+02 0.  0.
         12    1    1    2    0    0  0.11851989155E+02 -0.12280921503E+01 -0.14446506300E+02  0.18726435900E+02  0.00000000000E+00 0. -1.
         11    1    3    3    0    0 -0.10061679567E+01  0.31612842245E+00  0.73616209465E+01  0.74367852165E+01  0.51100000000E-03 0. -1.
        -11    1    3    3    0    0 -0.60725290358E+01  0.25561568070E+02  0.23316575924E+02  0.35127369446E+02  0.51100000000E-03 0.  1.
         12    1    3    3    0    0 -0.47732921625E+01 -0.24649604342E+02 -0.16231690571E+02  0.29897409438E+02  0.00000000000E+00 0. -1.
</event>
<event>
 7    1  0.2684545E-013  0.7246160E+02  0.7816164E-02  0.1226708E+00
        -11   -1    0    0    0    0  0.00000000000E+00  0.00000000000E+00  0.45593999997E+02  0.45594000000E+02  0.51100000000E-03 0. -1.
         11   -1    0    0    0    0 -0.00000000000E+00 -0.00000000000E+00 -0.45593999997E+02  0.45594000000E+02  0.51100000000E-03 0.  1.
    9900012    2    1    2    0    0  0.38577901023E+01 -0.13878359372E+02 -0.11966069146E+02  0.72461595803E+02  0.70000033230E+02 0.  0.
         12    1    1    2    0    0 -0.38577901023E+01  0.13878359372E+02  0.11966069146E+02  0.18726404197E+02  0.00000000000E+00 0. -1.
         11    1    3    3    0    0  0.10667337397E+02  0.41684062341E+01 -0.99764773906E+01  0.15188739219E+02  0.51100000000E-03 0. -1.
        -11    1    3    3    0    0  0.91359949748E+01 -0.32499654704E+02  0.60541510715E+01  0.34297911095E+02  0.51100000000E-03 0.  1.
         12    1    3    3    0    0 -0.15945542270E+02  0.14452889097E+02 -0.80437428270E+01  0.22974945489E+02  0.00000000000E+00 0. -1.
</event>
<event>
 7    1  0.2684545E-013  0.7246148E+02  0.7816164E-02  0.1226708E+00
        -11   -1    0    0    0    0  0.00000000000E+00  0.00000000000E+00  0.45593999997E+02  0.45594000000E+02  0.51100000000E-03 0.  1.
         11   -1    0    0    0    0 -0.00000000000E+00 -0.00000000000E+00 -0.45593999997E+02  0.45594000000E+02  0.51100000000E-03 0. -1.
    9900012    2    1    2    0    0  0.12209136231E+02 -0.44218130918E+01  0.13493227948E+02  0.72461477660E+02  0.69999879326E+02 0.  0.
         12    1    1    2    0    0 -0.12209136231E+02  0.44218130918E+01 -0.13493227948E+02  0.18726522340E+02  0.00000000000E+00 0. -1.
         11    1    3    3    0    0  0.98846309826E+00  0.91193110148E+01 -0.57587435626E+01  0.10830605725E+02  0.51100000000E-03 0. -1.
        -11    1    3    3    0    0  0.20088092363E+02 -0.13335913943E+02  0.35620320822E+02  0.43013780480E+02  0.51100000000E-03 0.  1.
         12    1    3    3    0    0 -0.88674192310E+01 -0.20521016401E+00 -0.16368349312E+02  0.18617091454E+02  0.00000000000E+00 0. -1.
</event>
<event>
 7    1  0.2684545E-013  0.7246156E+02  0.7816164E-02  0.1226708E+00
        -11   -1    0    0    0    0  0.00000000000E+00  0.00000000000E+00  0.45593999997E+02  0.45594000000E+02  0.51100000000E-03 0.  1.
         11   -1    0    0    0    0 -0.00000000000E+00 -0.00000000000E+00 -0.45593999997E+02  0.45594000000E+02  0.51100000000E-03 0. -1.
    9900012    2    1    2    0    0  0.26339087167E+01  0.12171092367E+02  0.13985942120E+02  0.72461560362E+02  0.69999987062E+02 0.  0.
         12    1    1    2    0    0 -0.26339087167E+01 -0.12171092367E+02 -0.13985942120E+02  0.18726439638E+02  0.00000000000E+00 0. -1.
         11    1    3    3    0    0  0.63722731965E+01  0.70909483686E+01 -0.21117698178E+02  0.23169907014E+02  0.51100000000E-03 0. -1.
        -11    1    3    3    0    0  0.83415599125E+01  0.11876808316E+02  0.37187237463E+01  0.14982293020E+02  0.51100000000E-03 0.  1.
         12    1    3    3    0    0 -0.12079924392E+02 -0.67966643185E+01  0.31384916552E+02  0.34309360328E+02  0.00000000000E+00 0. -1.
</event>
<event>
 7    1  0.2684545E-013  0.7246144E+02  0.7816164E-02  0.1226708E+00
        -11   -1    0    0    0    0  0.00000000000E+00  0.00000000000E+00  0.45593999997E+02  0.45594000000E+02  0.51100000000E-03 0.  1.
         11   -1    0    0    0    0 -0.00000000000E+00 -0.00000000000E+00 -0.45593999997E+02  0.45594000000E+02  0.51100000000E-03 0. -1.
    9900012    2    1    2    0    0  0.33434984300E+01 -0.18341276130E+02  0.17614664428E+01  0.72461437159E+02  0.69999826566E+02 0.  0.
         12    1    1    2    0    0 -0.33434984300E+01  0.18341276130E+02 -0.17614664428E+01  0.18726562841E+02  0.00000000000E+00 0. -1.
         11    1    3    3    0    0 -0.57720496011E+01  0.32333950093E+01 -0.25376274189E+01  0.70859687455E+01  0.51100000000E-03 0. -1.
        -11    1    3    3    0    0 -0.13199998212E+02  0.12768048047E+02  0.14229839176E+02  0.23232548869E+02  0.51100000000E-03 0.  1.
        -12    1    3    3    0    0  0.22315546243E+02 -0.34342719186E+02 -0.99307453140E+01  0.42142919544E+02  0.00000000000E+00 0.  1.
</event>
<event>
 7    1  0.2684545E-013  0.7246159E+02  0.7816164E-02  0.1226708E+00
        -11   -1    0    0    0    0  0.00000000000E+00  0.00000000000E+00  0.45593999997E+02  0.45594000000E+02  0.51100000000E-03 0.  1.
         11   -1    0    0    0    0 -0.00000000000E+00 -0.00000000000E+00 -0.45593999997E+02  0.45594000000E+02  0.51100000000E-03 0. -1.
    9900012    2    1    2    0    0 -0.47437494505E+01 -0.73497697959E+01  0.16557665675E+02  0.72461586368E+02  0.70000020939E+02 0.  0.
         12    1    1    2    0    0  0.47437494505E+01  0.73497697959E+01 -0.16557665675E+02  0.18726413632E+02  0.00000000000E+00 0. -1.
         11    1    3    3    0    0  0.25205060777E+01 -0.18564405612E+02  0.33439092766E+01  0.19030812808E+02  0.51100000000E-03 0. -1.
        -11    1    3    3    0    0 -0.19538743494E+02 -0.12388787559E+02  0.13575254374E+02  0.26824095252E+02  0.51100000000E-03 0.  1.
         12    1    3    3    0    0  0.12274487966E+02  0.23603423375E+02 -0.36149797516E+00  0.26606678309E+02  0.00000000000E+00 0. -1.
</event>
<event>
 7    1  0.2684545E-013  0.7246161E+02  0.7816164E-02  0.1226708E+00
        -11   -1    0    0    0    0  0.00000000000E+00  0.00000000000E+00  0.45593999997E+02  0.45594000000E+02  0.51100000000E-03 0. -1.
         11   -1    0    0    0    0 -0.00000000000E+00 -0.00000000000E+00 -0.45593999997E+02  0.45594000000E+02  0.51100000000E-03 0.  1.
    9900012    2    1    2    0    0 -0.12221865023E+02 -0.14188151681E+02  0.15161109578E-01  0.72461605190E+02  0.70000045457E+02 0.  0.
         12    1    1    2    0    0  0.12221865023E+02  0.14188151681E+02 -0.15161109578E-01  0.18726394810E+02  0.00000000000E+00 0. -1.
         11    1    3    3    0    0  0.15354308480E+01  0.21758329019E+01  0.95096555486E+01  0.98754921710E+01  0.51100000000E-03 0. -1.
        -11    1    3    3    0    0 -0.66761681112E+01  0.19897398190E+02  0.70012367874E+01  0.22124533717E+02  0.51100000000E-03 0.  1.
         12    1    3    3    0    0 -0.70811277593E+01 -0.36261382772E+02 -0.16495731226E+02  0.40461579302E+02  0.00000000000E+00 0. -1.
</event>
<event>
 7    1  0.2684545E-013  0.7246224E+02  0.7816164E-02  0.1226706E+00
        -11   -1    0    0    0    0  0.00000000000E+00  0.00000000000E+00  0.45593999997E+02  0.45594000000E+02  0.51100000000E-03 0.  1.
         11   -1    0    0    0    0 -0.00000000000E+00 -0.00000000000E+00 -0.45593999997E+02  0.45594000000E+02  0.51100000000E-03 0. -1.
    9900012    2    1    2    0    0 -0.30850982228E+01 -0.85731583621E+01  0.16359616377E+02  0.72462244385E+02  0.70000878123E+02 0.  0.
         12    1    1    2    0    0  0.30850982228E+01  0.85731583621E+01 -0.16359616377E+02  0.18725755615E+02  0.00000000000E+00 0. -1.
         11    1    3    3    0    0 -0.11317736782E+02  0.10804643632E+02 -0.17322954293E+02  0.23343440954E+02  0.51100000000E-03 0. -1.
        -11    1    3    3    0    0  0.95208061216E+01  0.25621754953E+01  0.12462625775E+01  0.99379909009E+01  0.51100000000E-03 0.  1.
         12    1    3    3    0    0 -0.12881675627E+01 -0.21939977490E+02  0.32436308092E+02  0.39180812531E+02  0.00000000000E+00 0. -1.
</event>
<event>
 7    1  0.2684545E-013  0.7246154E+02  0.7816164E-02  0.1226708E+00
        -11   -1    0    0    0    0  0.00000000000E+00  0.00000000000E+00  0.45593999997E+02  0.45594000000E+02  0.51100000000E-03 0.  1.
         11   -1    0    0    0    0 -0.00000000000E+00 -0.00000000000E+00 -0.45593999997E+02  0.45594000000E+02  0.51100000000E-03 0. -1.
    9900012    2    1    2    0    0  0.11219190288E+02  0.61837185009E+01  0.13659124044E+02  0.72461540782E+02  0.69999961554E+02 0.  0.
         12    1    1    2    0    0 -0.11219190288E+02 -0.61837185009E+01 -0.13659124044E+02  0.18726459218E+02  0.00000000000E+00 0. -1.
         11    1    3    3    0    0 -0.12734865803E+02 -0.16271200585E+02 -0.11626780315E+01  0.20694941313E+02  0.51100000000E-03 0. -1.
        -11    1    3    3    0    0  0.20022651912E+02 -0.29035345945E+01  0.16418194212E+02  0.26055598326E+02  0.51100000000E-03 0.  1.
         12    1    3    3    0    0  0.39314041789E+01  0.25358453680E+02 -0.15963921362E+01  0.25711001142E+02  0.00000000000E+00 0. -1.
</event>
<event>
 7    1  0.2684545E-013  0.7246156E+02  0.7816164E-02  0.1226708E+00
        -11   -1    0    0    0    0  0.00000000000E+00  0.00000000000E+00  0.45593999997E+02  0.45594000000E+02  0.51100000000E-03 0. -1.
         11   -1    0    0    0    0 -0.00000000000E+00 -0.00000000000E+00 -0.45593999997E+02  0.45594000000E+02  0.51100000000E-03 0.  1.
    9900012    2    1    2    0    0 -0.12223155522E+02  0.13586238992E+02 -0.40851055363E+01  0.72461561254E+02  0.69999988223E+02 0.  0.
         12    1    1    2    0    0  0.12223155522E+02 -0.13586238992E+02  0.40851055363E+01  0.18726438746E+02  0.00000000000E+00 0. -1.
         11    1    3    3    0    0  0.52609421226E+01 -0.21941213460E+02 -0.67167997081E+01  0.23541660067E+02  0.51100000000E-03 0. -1.
        -11    1    3    3    0    0 -0.77006361092E+01 -0.19340276648E+01 -0.51012013126E+01  0.94372938169E+01  0.51100000000E-03 0.  1.
        -12    1    3    3    0    0 -0.97834615353E+01  0.37461480117E+02  0.77328954845E+01  0.39482607370E+02  0.00000000000E+00 0.  1.
</event>
<event>
 7    1  0.2684545E-013  0.7246155E+02  0.7816164E-02  0.1226708E+00
        -11   -1    0    0    0    0  0.00000000000E+00  0.00000000000E+00  0.45593999997E+02  0.45594000000E+02  0.51100000000E-03 0. -1.
         11   -1    0    0    0    0 -0.00000000000E+00 -0.00000000000E+00 -0.45593999997E+02  0.45594000000E+02  0.51100000000E-03 0.  1.
    9900012    2    1    2    0    0 -0.94100188526E+01  0.14370551219E+02 -0.74578007720E+01  0.72461548401E+02  0.69999971480E+02 0.  0.
         12    1    1    2    0    0  0.94100188526E+01 -0.14370551219E+02  0.74578007720E+01  0.18726451599E+02  0.00000000000E+00 0. -1.
         11    1    3    3    0    0  0.45356029102E+01  0.17878953494E+02 -0.22406179228E+02  0.29021811447E+02  0.51100000000E-03 0. -1.
        -11    1    3    3    0    0 -0.11914098498E+02  0.92213764922E+01 -0.80450603443E+01  0.17079301029E+02  0.51100000000E-03 0.  1.
        -12    1    3    3    0    0 -0.20315232643E+01 -0.12729778767E+02  0.22993438801E+02  0.26360435924E+02  0.00000000000E+00 0.  1.
</event>
<event>
 7    1  0.2684545E-013  0.7246155E+02  0.7816164E-02  0.1226708E+00
        -11   -1    0    0    0    0  0.00000000000E+00  0.00000000000E+00  0.45593999997E+02  0.45594000000E+02  0.51100000000E-03 0. -1.
         11   -1    0    0    0    0 -0.00000000000E+00 -0.00000000000E+00 -0.45593999997E+02  0.45594000000E+02  0.51100000000E-03 0.  1.
    9900012    2    1    2    0    0  0.11322791583E+02 -0.12650559902E+02  0.79017387739E+01  0.72461554776E+02  0.69999979785E+02 0.  0.
         12    1    1    2    0    0 -0.11322791583E+02  0.12650559902E+02 -0.79017387739E+01  0.18726445224E+02  0.00000000000E+00 0. -1.
         11    1    3    3    0    0  0.60523839451E+00  0.11057443919E+02  0.11945648563E+02  0.16289011615E+02  0.51100000000E-03 0. -1.
        -11    1    3    3    0    0 -0.10899517413E+02  0.10312749602E+02 -0.51083994256E+01  0.15850805315E+02  0.51100000000E-03 0.  1.
        -12    1    3    3    0    0  0.21617070601E+02 -0.34020753423E+02  0.10644896366E+01  0.40321737847E+02  0.00000000000E+00 0.  1.
</event>
<event>
 7    1  0.2684545E-013  0.7246159E+02  0.7816164E-02  0.1226708E+00
        -11   -1    0    0    0    0  0.00000000000E+00  0.00000000000E+00  0.45593999997E+02  0.45594000000E+02  0.51100000000E-03 0.  1.
         11   -1    0    0    0    0 -0.00000000000E+00 -0.00000000000E+00 -0.45593999997E+02  0.45594000000E+02  0.51100000000E-03 0. -1.
    9900012    2    1    2    0    0 -0.16657339248E+02  0.85421506425E+01  0.49303795414E+00  0.72461591513E+02  0.70000027641E+02 0.  0.
         12    1    1    2    0    0  0.16657339248E+02 -0.85421506425E+01 -0.49303795414E+00  0.18726408487E+02  0.00000000000E+00 0. -1.
         11    1    3    3    0    0 -0.18075129668E+02  0.16540765443E+02  0.31140610957E+01  0.24698271412E+02  0.51100000000E-03 0. -1.
        -11    1    3    3    0    0 -0.17098030537E+02 -0.76293531301E+01  0.13602623306E+02  0.23142623847E+02  0.51100000000E-03 0.  1.
         12    1    3    3    0    0  0.18515820958E+02 -0.36926167077E+00 -0.16223646448E+02  0.24620696253E+02  0.00000000000E+00 0. -1.
</event>
<event>
 7    1  0.2684545E-013  0.7246160E+02  0.7816164E-02  0.1226708E+00
        -11   -1    0    0    0    0  0.00000000000E+00  0.00000000000E+00  0.45593999997E+02  0.45594000000E+02  0.51100000000E-03 0.  1.
         11   -1    0    0    0    0 -0.00000000000E+00 -0.00000000000E+00 -0.45593999997E+02  0.45594000000E+02  0.51100000000E-03 0. -1.
    9900012    2    1    2    0    0 -0.10217738499E+02  0.40954359926E+01  0.15149367856E+02  0.72461598251E+02  0.70000036419E+02 0.  0.
         12    1    1    2    0    0  0.10217738499E+02 -0.40954359926E+01 -0.15149367856E+02  0.18726401749E+02  0.00000000000E+00 0. -1.
         11    1    3    3    0    0 -0.35046561751E+01  0.19742197456E+02 -0.18879335356E+02  0.27540266503E+02  0.51100000000E-03 0. -1.
        -11    1    3    3    0    0  0.78814535256E+01  0.61629438710E-01  0.89307672014E+01  0.11911327001E+02  0.51100000000E-03 0.  1.
         12    1    3    3    0    0 -0.14594535850E+02 -0.15708390902E+02  0.25097936011E+02  0.33010004747E+02  0.00000000000E+00 0. -1.
</event>
<event>
 7    1  0.2684545E-013  0.7246142E+02  0.7816164E-02  0.1226708E+00
        -11   -1    0    0    0    0  0.00000000000E+00  0.00000000000E+00  0.45593999997E+02  0.45594000000E+02  0.51100000000E-03 0.  1.
         11   -1    0    0    0    0 -0.00000000000E+00 -0.00000000000E+00 -0.45593999997E+02  0.45594000000E+02  0.51100000000E-03 0. -1.
    9900012    2    1    2    0    0 -0.53693722211E+01 -0.13487639494E+02  0.11829545022E+02  0.72461422294E+02  0.69999807202E+02 0.  0.
         12    1    1    2    0    0  0.53693722211E+01  0.13487639494E+02 -0.11829545022E+02  0.18726577706E+02  0.00000000000E+00 0. -1.
         11    1    3    3    0    0 -0.10477541927E+02  0.10884763169E+02 -0.47335967217E+01  0.15832368499E+02  0.51100000000E-03 0. -1.
        -11    1    3    3    0    0  0.22851723276E+02  0.12729392493E+00  0.16741582130E+01  0.22913320720E+02  0.51100000000E-03 0.  1.
        -12    1    3    3    0    0 -0.17743553570E+02 -0.24499696588E+02  0.14888983531E+02  0.33715733075E+02  0.00000000000E+00 0.  1.
</event>
<event>
 7    1  0.2684545E-013  0.7246172E+02  0.7816164E-02  0.1226708E+00
        -11   -1    0    0    0    0  0.00000000000E+00  0.00000000000E+00  0.45593999997E+02  0.45594000000E+02  0.51100000000E-03 0.  1.
         11   -1    0    0    0    0 -0.00000000000E+00 -0.00000000000E+00 -0.45593999997E+02  0.45594000000E+02  0.51100000000E-03 0. -1.
    9900012    2    1    2    0    0  0.10130815714E+02 -0.10891462353E+02  0.11376120186E+02  0.72461721947E+02  0.70000197555E+02 0.  0.
         12    1    1    2    0    0 -0.10130815714E+02  0.10891462353E+02 -0.11376120186E+02  0.18726278053E+02  0.00000000000E+00 0. -1.
         11    1    3    3    0    0 -0.33770676918E+00  0.36929850518E+01  0.22671813709E+01  0.43465268991E+01  0.51100000000E-03 0. -1.
        -11    1    3    3    0    0 -0.22100850458E+02 -0.22043477237E+02 -0.54175490177E+01  0.31681419117E+02  0.51100000000E-03 0.  1.
         12    1    3    3    0    0  0.32569372941E+02  0.74590298320E+01  0.14526487833E+02  0.36433775931E+02  0.00000000000E+00 0. -1.
</event>
<event>
 7    1  0.2684545E-013  0.7246132E+02  0.7816164E-02  0.1226709E+00
        -11   -1    0    0    0    0  0.00000000000E+00  0.00000000000E+00  0.45593999997E+02  0.45594000000E+02  0.51100000000E-03 0.  1.
         11   -1    0    0    0    0 -0.00000000000E+00 -0.00000000000E+00 -0.45593999997E+02  0.45594000000E+02  0.51100000000E-03 0. -1.
    9900012    2    1    2    0    0 -0.92475222326E+00  0.10335211361E+02  0.15588997617E+02  0.72461318307E+02  0.69999671739E+02 0.  0.
         12    1    1    2    0    0  0.92475222326E+00 -0.10335211361E+02 -0.15588997617E+02  0.18726681693E+02  0.00000000000E+00 0. -1.
         11    1    3    3    0    0  0.11490930139E+01 -0.62509303787E+01  0.29300594119E+01  0.69985565492E+01  0.51100000000E-03 0. -1.
        -11    1    3    3    0    0  0.22048532817E+02 -0.99642305047E+01  0.16647687428E+02  0.29369528186E+02  0.51100000000E-03 0.  1.
         12    1    3    3    0    0 -0.24122378054E+02  0.26550372244E+02 -0.39887492237E+01  0.36093233571E+02  0.00000000000E+00 0. -1.
</event>
<event>
 7    1  0.2684545E-013  0.7246157E+02  0.7816164E-02  0.1226708E+00
        -11   -1    0    0    0    0  0.00000000000E+00  0.00000000000E+00  0.45593999997E+02  0.45594000000E+02  0.51100000000E-03 0. -1.
         11   -1    0    0    0    0 -0.00000000000E+00 -0.00000000000E+00 -0.45593999997E+02  0.45594000000E+02  0.51100000000E-03 0.  1.
    9900012    2    1    2    0    0  0.69269334087E+01 -0.17393076356E+02 -0.42140073346E+00  0.72461572414E+02  0.70000002761E+02 0.  0.
         12    1    1    2    0    0 -0.69269334087E+01  0.17393076356E+02  0.42140073346E+00  0.18726427586E+02  0.00000000000E+00 0. -1.
         11    1    3    3    0    0 -0.31228252997E+01  0.58785642977E+01 -0.62739861699E+01  0.91472650982E+01  0.51100000000E-03 0. -1.
        -11    1    3    3    0    0  0.19203321386E+02  0.46606910312E+01 -0.17011842495E+02  0.26074745991E+02  0.51100000000E-03 0.  1.
         12    1    3    3    0    0 -0.91535626775E+01 -0.27932331685E+02  0.22864427932E+02  0.37239561325E+02  0.00000000000E+00 0. -1.
</event>
<event>
 7    1  0.2684545E-013  0.7246159E+02  0.7816164E-02  0.1226708E+00
        -11   -1    0    0    0    0  0.00000000000E+00  0.00000000000E+00  0.45593999997E+02  0.45594000000E+02  0.51100000000E-03 0.  1.
         11   -1    0    0    0    0 -0.00000000000E+00 -0.00000000000E+00 -0.45593999997E+02  0.45594000000E+02  0.51100000000E-03 0. -1.
    9900012    2    1    2    0    0  0.42413869837E+01  0.41817083972E+01  0.17753942163E+02  0.72461587878E+02  0.70000022905E+02 0.  0.
         12    1    1    2    0    0 -0.42413869837E+01 -0.41817083972E+01 -0.17753942163E+02  0.18726412122E+02  0.00000000000E+00 0. -1.
         11    1    3    3    0    0  0.11676977864E+00  0.16938165710E+02  0.32873287786E+01  0.17254611660E+02  0.51100000000E-03 0. -1.
        -11    1    3    3    0    0  0.25528875598E+02  0.39564061472E+01  0.41896186203E+01  0.26171158617E+02  0.51100000000E-03 0.  1.
        -12    1    3    3    0    0 -0.21404258393E+02 -0.16712863460E+02  0.10276994764E+02  0.29035817601E+02  0.00000000000E+00 0.  1.
</event>
<event>
 7    1  0.2684545E-013  0.7246164E+02  0.7816164E-02  0.1226708E+00
        -11   -1    0    0    0    0  0.00000000000E+00  0.00000000000E+00  0.45593999997E+02  0.45594000000E+02  0.51100000000E-03 0. -1.
         11   -1    0    0    0    0 -0.00000000000E+00 -0.00000000000E+00 -0.45593999997E+02  0.45594000000E+02  0.51100000000E-03 0.  1.
    9900012    2    1    2    0    0 -0.61449276537E+01 -0.16031139977E+02 -0.74779042474E+01  0.72461637920E+02  0.70000088095E+02 0.  0.
         12    1    1    2    0    0  0.61449276537E+01  0.16031139977E+02  0.74779042474E+01  0.18726362080E+02  0.00000000000E+00 0. -1.
         11    1    3    3    0    0  0.84621931308E+01  0.14503738098E+02 -0.15438482879E+02  0.22810389853E+02  0.51100000000E-03 0. -1.
        -11    1    3    3    0    0 -0.13627269609E+02  0.13898284390E+01  0.10998933853E+02  0.17567317560E+02  0.51100000000E-03 0.  1.
        -12    1    3    3    0    0 -0.97985117499E+00 -0.31924706514E+02 -0.30383552217E+01  0.32083930507E+02  0.00000000000E+00 0.  1.
</event>
<event>
 7    1  0.2684545E-013  0.7246158E+02  0.7816164E-02  0.1226708E+00
        -11   -1    0    0    0    0  0.00000000000E+00  0.00000000000E+00  0.45593999997E+02  0.45594000000E+02  0.51100000000E-03 0.  1.
         11   -1    0    0    0    0 -0.00000000000E+00 -0.00000000000E+00 -0.45593999997E+02  0.45594000000E+02  0.51100000000E-03 0. -1.
    9900012    2    1    2    0    0  0.20880058684E+00 -0.10732750386E+02  0.15344166314E+02  0.72461575664E+02  0.70000006995E+02 0.  0.
         12    1    1    2    0    0 -0.20880058684E+00  0.10732750386E+02 -0.15344166314E+02  0.18726424336E+02  0.00000000000E+00 0. -1.
         11    1    3    3    0    0 -0.56448126558E+01 -0.14705223176E+00  0.29889822191E+01  0.63890178623E+01  0.51100000000E-03 0. -1.
        -11    1    3    3    0    0 -0.27806759793E+02 -0.96429403338E+00  0.13751507543E+02  0.31036264485E+02  0.51100000000E-03 0.  1.
         12    1    3    3    0    0  0.33660373036E+02 -0.96214041211E+01 -0.13963234480E+01  0.35036293317E+02  0.00000000000E+00 0. -1.
</event>
<event>
 7    1  0.2684545E-013  0.7246155E+02  0.7816164E-02  0.1226708E+00
        -11   -1    0    0    0    0  0.00000000000E+00  0.00000000000E+00  0.45593999997E+02  0.45594000000E+02  0.51100000000E-03 0. -1.
         11   -1    0    0    0    0 -0.00000000000E+00 -0.00000000000E+00 -0.45593999997E+02  0.45594000000E+02  0.51100000000E-03 0.  1.
    9900012    2    1    2    0    0 -0.13408934621E+02  0.11591786241E+02 -0.60424269736E+01  0.72461549197E+02  0.69999972517E+02 0.  0.
         12    1    1    2    0    0  0.13408934621E+02 -0.11591786241E+02  0.60424269736E+01  0.18726450803E+02  0.00000000000E+00 0. -1.
         11    1    3    3    0    0  0.93607244811E+01 -0.11363635253E+01  0.77948249778E+01  0.12234123653E+02  0.51100000000E-03 0. -1.
        -11    1    3    3    0    0 -0.21210707977E+02 -0.17242734858E+02 -0.12837283112E+02  0.30199368805E+02  0.51100000000E-03 0.  1.
         12    1    3    3    0    0 -0.15589511254E+01  0.29970884625E+02 -0.99996883933E+00  0.30028056739E+02  0.00000000000E+00 0. -1.
</event>
<event>
 7    1  0.2684545E-013  0.7246156E+02  0.7816164E-02  0.1226708E+00
        -11   -1    0    0    0    0  0.00000000000E+00  0.00000000000E+00  0.45593999997E+02  0.45594000000E+02  0.51100000000E-03 0. -1.
         11   -1    0    0    0    0 -0.00000000000E+00 -0.00000000000E+00 -0.45593999997E+02  0.45594000000E+02  0.51100000000E-03 0.  1.
    9900012    2    1    2    0    0  0.10420969403E+02 -0.92507533161E+01 -0.12510251545E+02  0.72461563234E+02  0.69999990803E+02 0.  0.
         12    1    1    2    0    0 -0.10420969403E+02  0.92507533161E+01  0.12510251545E+02  0.18726436766E+02  0.00000000000E+00 0. -1.
         11    1    3    3    0    0  0.82699274694E+00  0.14528881571E+02  0.11089905577E+02  0.18296401905E+02  0.51100000000E-03 0.  1.
        -11    1    3    3    0    0  0.11641374092E+01  0.11638032460E+02 -0.20986022770E+01  0.11882893050E+02  0.51100000000E-03 0. -1.
        -12    1    3    3    0    0  0.84298392473E+01 -0.35417667347E+02 -0.21501554845E+02  0.42282268279E+02  0.00000000000E+00 0.  1.
</event>
<event>
 7    1  0.2684545E-013  0.7246110E+02  0.7816164E-02  0.1226709E+00
        -11   -1    0    0    0    0  0.00000000000E+00  0.00000000000E+00  0.45593999997E+02  0.45594000000E+02  0.51100000000E-03 0.  1.
         11   -1    0    0    0    0 -0.00000000000E+00 -0.00000000000E+00 -0.45593999997E+02  0.45594000000E+02  0.51100000000E-03 0. -1.
    9900012    2    1    2    0    0 -0.11823389313E+02  0.10083555777E+02  0.10451133766E+02  0.72461098790E+02  0.69999385775E+02 0.  0.
         12    1    1    2    0    0  0.11823389313E+02 -0.10083555777E+02 -0.10451133766E+02  0.18726901210E+02  0.00000000000E+00 0. -1.
         11    1    3    3    0    0 -0.15090681209E+02 -0.43513970979E+01  0.95990413491E+01  0.18406653991E+02  0.51100000000E-03 0. -1.
        -11    1    3    3    0    0 -0.21398840907E+02  0.81752743537E+00  0.11041204796E+02  0.24093296721E+02  0.51100000000E-03 0.  1.
         12    1    3    3    0    0  0.24666132803E+02  0.13617425440E+02 -0.10189112379E+02  0.29961148078E+02  0.00000000000E+00 0. -1.
</event>
<event>
 7    1  0.2684545E-013  0.7246154E+02  0.7816164E-02  0.1226708E+00
        -11   -1    0    0    0    0  0.00000000000E+00  0.00000000000E+00  0.45593999997E+02  0.45594000000E+02  0.51100000000E-03 0.  1.
         11   -1    0    0    0    0 -0.00000000000E+00 -0.00000000000E+00 -0.45593999997E+02  0.45594000000E+02  0.51100000000E-03 0. -1.
    9900012    2    1    2    0    0 -0.61617765034E+01  0.73025137161E+01  0.16105467268E+02  0.72461540854E+02  0.69999961648E+02 0.  0.
         12    1    1    2    0    0  0.61617765034E+01 -0.73025137161E+01 -0.16105467268E+02  0.18726459146E+02  0.00000000000E+00 0. -1.
         11    1    3    3    0    0  0.40622717097E+01 -0.20453464342E+02  0.68163607622E+01  0.21938756331E+02  0.51100000000E-03 0. -1.
        -11    1    3    3    0    0  0.13127707752E+02  0.16924521327E+02  0.12146071417E+02  0.24623224486E+02  0.51100000000E-03 0.  1.
        -12    1    3    3    0    0 -0.23351755965E+02  0.10831456731E+02 -0.28569649117E+01  0.25899560036E+02  0.00000000000E+00 0.  1.
</event>
<event>
 7    1  0.2684545E-013  0.7246157E+02  0.7816164E-02  0.1226708E+00
        -11   -1    0    0    0    0  0.00000000000E+00  0.00000000000E+00  0.45593999997E+02  0.45594000000E+02  0.51100000000E-03 0.  1.
         11   -1    0    0    0    0 -0.00000000000E+00 -0.00000000000E+00 -0.45593999997E+02  0.45594000000E+02  0.51100000000E-03 0. -1.
    9900012    2    1    2    0    0 -0.24126737298E+01  0.18298747314E+02  0.31644929515E+01  0.72461570457E+02  0.70000000212E+02 0.  0.
         12    1    1    2    0    0  0.24126737298E+01 -0.18298747314E+02 -0.31644929515E+01  0.18726429543E+02  0.00000000000E+00 0. -1.
         11    1    3    3    0    0 -0.99599464416E+01  0.11158017834E+02 -0.84183560798E+01  0.17163059589E+02  0.51100000000E-03 0. -1.
        -11    1    3    3    0    0 -0.22736558811E+02  0.68356398722E+01  0.62054021399E+01  0.24539439582E+02  0.51100000000E-03 0.  1.
        -12    1    3    3    0    0  0.30283831522E+02  0.30508960757E+00  0.53774468914E+01  0.30759071287E+02  0.00000000000E+00 0.  1.
</event>
<event>
 7    1  0.2684545E-013  0.7246166E+02  0.7816164E-02  0.1226708E+00
        -11   -1    0    0    0    0  0.00000000000E+00  0.00000000000E+00  0.45593999997E+02  0.45594000000E+02  0.51100000000E-03 0.  1.
         11   -1    0    0    0    0 -0.00000000000E+00 -0.00000000000E+00 -0.45593999997E+02  0.45594000000E+02  0.51100000000E-03 0. -1.
    9900012    2    1    2    0    0  0.50554461073E+01  0.17859692799E+02  0.24798380672E+01  0.72461661354E+02  0.70000118623E+02 0.  0.
         12    1    1    2    0    0 -0.50554461073E+01 -0.17859692799E+02 -0.24798380672E+01  0.18726338646E+02  0.00000000000E+00 0. -1.
         11    1    3    3    0    0  0.19081770127E+02 -0.47136941426E+01 -0.11711083915E+01  0.19690209719E+02  0.51100000000E-03 0. -1.
        -11    1    3    3    0    0 -0.32434515494E+00  0.22999742819E+02 -0.16564925801E+02  0.28345901583E+02  0.51100000000E-03 0.  1.
        -12    1    3    3    0    0 -0.13701978865E+02 -0.42635587700E+00  0.20215872260E+02  0.24425550052E+02  0.00000000000E+00 0.  1.
</event>
<event>
 7    1  0.2684545E-013  0.7246157E+02  0.7816164E-02  0.1226708E+00
        -11   -1    0    0    0    0  0.00000000000E+00  0.00000000000E+00  0.45593999997E+02  0.45594000000E+02  0.51100000000E-03 0.  1.
         11   -1    0    0    0    0 -0.00000000000E+00 -0.00000000000E+00 -0.45593999997E+02  0.45594000000E+02  0.51100000000E-03 0. -1.
    9900012    2    1    2    0    0  0.10192880382E+02 -0.10816162781E+02  0.11392763660E+02  0.72461568103E+02  0.69999997145E+02 0.  0.
         12    1    1    2    0    0 -0.10192880382E+02  0.10816162781E+02 -0.11392763660E+02  0.18726431897E+02  0.00000000000E+00 0. -1.
         11    1    3    3    0    0  0.12820530637E+02 -0.60781066821E+00 -0.18767626167E+02  0.22736737493E+02  0.51100000000E-03 0. -1.
        -11    1    3    3    0    0 -0.40982643426E+01  0.10233536755E+02 -0.23710793225E+01  0.11275773258E+02  0.51100000000E-03 0.  1.
        -12    1    3    3    0    0  0.14706140875E+01 -0.20441888868E+02  0.32531469149E+02  0.38449057352E+02  0.00000000000E+00 0.  1.
</event>
<event>
 7    1  0.2684545E-013  0.7246155E+02  0.7816164E-02  0.1226708E+00
        -11   -1    0    0    0    0  0.00000000000E+00  0.00000000000E+00  0.45593999997E+02  0.45594000000E+02  0.51100000000E-03 0.  1.
         11   -1    0    0    0    0 -0.00000000000E+00 -0.00000000000E+00 -0.45593999997E+02  0.45594000000E+02  0.51100000000E-03 0. -1.
    9900012    2    1    2    0    0 -0.14225410393E+01  0.18551736437E+02  0.21187998482E+01  0.72461551842E+02  0.69999975962E+02 0.  0.
         12    1    1    2    0    0  0.14225410393E+01 -0.18551736437E+02 -0.21187998482E+01  0.18726448158E+02  0.00000000000E+00 0. -1.
         11    1    3    3    0    0 -0.57842110048E+01  0.16514038048E+02  0.79865646857E+00  0.17515947078E+02  0.51100000000E-03 0. -1.
        -11    1    3    3    0    0 -0.18290169528E+02  0.66443920846E+00  0.18847438243E+02  0.26271614138E+02  0.51100000000E-03 0.  1.
        -12    1    3    3    0    0  0.22651839493E+02  0.13732591799E+01 -0.17527294863E+02  0.28673990626E+02  0.00000000000E+00 0.  1.
</event>
<event>
 7    1  0.2684545E-013  0.7246173E+02  0.7816164E-02  0.1226708E+00
        -11   -1    0    0    0    0  0.00000000000E+00  0.00000000000E+00  0.45593999997E+02  0.45594000000E+02  0.51100000000E-03 0. -1.
         11   -1    0    0    0    0 -0.00000000000E+00 -0.00000000000E+00 -0.45593999997E+02  0.45594000000E+02  0.51100000000E-03 0.  1.
    9900012    2    1    2    0    0 -0.92033559796E+01  0.36252537038E+00 -0.16304599282E+02  0.72461731186E+02  0.70000209591E+02 0.  0.
         12    1    1    2    0    0  0.92033559796E+01 -0.36252537038E+00  0.16304599282E+02  0.18726268814E+02  0.00000000000E+00 0. -1.
         11    1    3    3    0    0 -0.37985323706E+01  0.68499242409E+01 -0.16209355092E+02  0.18002597119E+02  0.51100000000E-03 0. -1.
        -11    1    3    3    0    0  0.96916866349E+01 -0.24085409215E+02 -0.11763119846E+02  0.28502749265E+02  0.51100000000E-03 0.  1.
         12    1    3    3    0    0 -0.15096510244E+02  0.17598010345E+02  0.11667875656E+02  0.25956384801E+02  0.00000000000E+00 0. -1.
</event>
<event>
 7    1  0.2684545E-013  0.7246152E+02  0.7816164E-02  0.1226708E+00
        -11   -1    0    0    0    0  0.00000000000E+00  0.00000000000E+00  0.45593999997E+02  0.45594000000E+02  0.51100000000E-03 0.  1.
         11   -1    0    0    0    0 -0.00000000000E+00 -0.00000000000E+00 -0.45593999997E+02  0.45594000000E+02  0.51100000000E-03 0. -1.
    9900012    2    1    2    0    0  0.31420079920E+01 -0.18844791386E+01  0.18364578305E+02  0.72461515755E+02  0.69999928953E+02 0.  0.
         12    1    1    2    0    0 -0.31420079920E+01  0.18844791386E+01 -0.18364578305E+02  0.18726484245E+02  0.00000000000E+00 0. -1.
         11    1    3    3    0    0  0.36389746885E+01  0.12949121796E+02  0.23202422212E+02  0.26819289492E+02  0.51100000000E-03 0. -1.
        -11    1    3    3    0    0 -0.21188382166E+02 -0.11397783416E+02  0.24383854098E+00  0.24060682931E+02  0.51100000000E-03 0.  1.
         12    1    3    3    0    0  0.20691415469E+02 -0.34358175193E+01 -0.50816824478E+01  0.21581543333E+02  0.00000000000E+00 0. -1.
</event>
<event>
 7    1  0.2684545E-013  0.7246159E+02  0.7816164E-02  0.1226708E+00
        -11   -1    0    0    0    0  0.00000000000E+00  0.00000000000E+00  0.45593999997E+02  0.45594000000E+02  0.51100000000E-03 0.  1.
         11   -1    0    0    0    0 -0.00000000000E+00 -0.00000000000E+00 -0.45593999997E+02  0.45594000000E+02  0.51100000000E-03 0. -1.
    9900012    2    1    2    0    0  0.11818172699E+02  0.14516364939E+02  0.53330372381E+00  0.72461588976E+02  0.70000024336E+02 0.  0.
         12    1    1    2    0    0 -0.11818172699E+02 -0.14516364939E+02 -0.53330372381E+00  0.18726411024E+02  0.00000000000E+00 0. -1.
         11    1    3    3    0    0 -0.32841441942E+01 -0.24544137126E+02  0.52490043362E+01  0.25313085887E+02  0.51100000000E-03 0. -1.
        -11    1    3    3    0    0  0.31270609097E+01 -0.19571828945E+01  0.14737028431E+01  0.39725149649E+01  0.51100000000E-03 0.  1.
        -12    1    3    3    0    0  0.11975255983E+02  0.41017684960E+02 -0.61894034555E+01  0.43175988124E+02  0.00000000000E+00 0.  1.
</event>
<event>
 7    1  0.2684545E-013  0.7246159E+02  0.7816164E-02  0.1226708E+00
        -11   -1    0    0    0    0  0.00000000000E+00  0.00000000000E+00  0.45593999997E+02  0.45594000000E+02  0.51100000000E-03 0.  1.
         11   -1    0    0    0    0 -0.00000000000E+00 -0.00000000000E+00 -0.45593999997E+02  0.45594000000E+02  0.51100000000E-03 0. -1.
    9900012    2    1    2    0    0 -0.81526208351E+01  0.50142992131E+01  0.16095655236E+02  0.72461587088E+02  0.70000021877E+02 0.  0.
         12    1    1    2    0    0  0.81526208351E+01 -0.50142992131E+01 -0.16095655236E+02  0.18726412912E+02  0.00000000000E+00 0. -1.
         11    1    3    3    0    0 -0.41601346517E+01  0.53125899658E+01  0.32636349585E+01  0.74954416727E+01  0.51100000000E-03 0. -1.
        -11    1    3    3    0    0 -0.58525873309E+00  0.30971956091E+02 -0.43901783077E-01  0.30977516355E+02  0.51100000000E-03 0.  1.
         12    1    3    3    0    0 -0.34072274502E+01 -0.31270246843E+02  0.12875922060E+02  0.33988629061E+02  0.00000000000E+00 0. -1.
</event>
<event>
 7    1  0.2684545E-013  0.7246145E+02  0.7816164E-02  0.1226708E+00
        -11   -1    0    0    0    0  0.00000000000E+00  0.00000000000E+00  0.45593999997E+02  0.45594000000E+02  0.51100000000E-03 0.  1.
         11   -1    0    0    0    0 -0.00000000000E+00 -0.00000000000E+00 -0.45593999997E+02  0.45594000000E+02  0.51100000000E-03 0. -1.
    9900012    2    1    2    0    0 -0.13539282355E+02  0.98054992041E+01  0.84394185787E+01  0.72461447534E+02  0.69999840082E+02 0.  0.
         12    1    1    2    0    0  0.13539282355E+02 -0.98054992041E+01 -0.84394185787E+01  0.18726552466E+02  0.00000000000E+00 0. -1.
         11    1    3    3    0    0 -0.33845898282E+00  0.15489160657E+02 -0.50908139389E+01  0.16307821410E+02  0.51100000000E-03 0. -1.
        -11    1    3    3    0    0  0.17248408214E+02 -0.12762166235E+02 -0.14161330197E+01  0.21503160370E+02  0.51100000000E-03 0.  1.
         12    1    3    3    0    0 -0.30449231586E+02  0.70785047821E+01  0.14946365537E+02  0.34650465753E+02  0.00000000000E+00 0. -1.
</event>
<event>
 7    1  0.2684545E-013  0.7246170E+02  0.7816164E-02  0.1226708E+00
        -11   -1    0    0    0    0  0.00000000000E+00  0.00000000000E+00  0.45593999997E+02  0.45594000000E+02  0.51100000000E-03 0. -1.
         11   -1    0    0    0    0 -0.00000000000E+00 -0.00000000000E+00 -0.45593999997E+02  0.45594000000E+02  0.51100000000E-03 0.  1.
    9900012    2    1    2    0    0 -0.96794812713E+01  0.13131214240E+02 -0.91952869999E+01  0.72461696358E+02  0.70000164221E+02 0.  0.
         12    1    1    2    0    0  0.96794812713E+01 -0.13131214240E+02  0.91952869999E+01  0.18726303642E+02  0.00000000000E+00 0. -1.
         11    1    3    3    0    0  0.17129402456E+01  0.89043521213E+01 -0.11550521114E+02  0.14684556148E+02  0.51100000000E-03 0. -1.
        -11    1    3    3    0    0 -0.97011561785E+01 -0.36549131061E+01 -0.26162712925E+02  0.28141754900E+02  0.51100000000E-03 0.  1.
         12    1    3    3    0    0 -0.16912653384E+01  0.78817752244E+01  0.28517947039E+02  0.29635385310E+02  0.00000000000E+00 0. -1.
</event>
<event>
 7    1  0.2684545E-013  0.7246153E+02  0.7816164E-02  0.1226708E+00
        -11   -1    0    0    0    0  0.00000000000E+00  0.00000000000E+00  0.45593999997E+02  0.45594000000E+02  0.51100000000E-03 0. -1.
         11   -1    0    0    0    0 -0.00000000000E+00 -0.00000000000E+00 -0.45593999997E+02  0.45594000000E+02  0.51100000000E-03 0.  1.
    9900012    2    1    2    0    0 -0.91445998988E+01 -0.14735587619E+02  0.70653716934E+01  0.72461528711E+02  0.69999945830E+02 0.  0.
         12    1    1    2    0    0  0.91445998988E+01  0.14735587619E+02 -0.70653716934E+01  0.18726471289E+02  0.00000000000E+00 0. -1.
         11    1    3    3    0    0 -0.21200620703E+02  0.19279772438E+01  0.24259033969E+02  0.32275131972E+02  0.51100000000E-03 0. -1.
        -11    1    3    3    0    0 -0.71618335988E+01 -0.42677852864E+01  0.37820540722E+01  0.91547684304E+01  0.51100000000E-03 0.  1.
        -12    1    3    3    0    0  0.19217854403E+02 -0.12395779576E+02 -0.20975716348E+02  0.31031628308E+02  0.00000000000E+00 0.  1.
</event>
<event>
 7    1  0.2684545E-013  0.7246159E+02  0.7816164E-02  0.1226708E+00
        -11   -1    0    0    0    0  0.00000000000E+00  0.00000000000E+00  0.45593999997E+02  0.45594000000E+02  0.51100000000E-03 0.  1.
         11   -1    0    0    0    0 -0.00000000000E+00 -0.00000000000E+00 -0.45593999997E+02  0.45594000000E+02  0.51100000000E-03 0. -1.
    9900012    2    1    2    0    0  0.12131073939E+02  0.42005373275E+01  0.13633453408E+02  0.72461587621E+02  0.70000022572E+02 0.  0.
         12    1    1    2    0    0 -0.12131073939E+02 -0.42005373275E+01 -0.13633453408E+02  0.18726412379E+02  0.00000000000E+00 0. -1.
         11    1    3    3    0    0  0.51834842739E+00 -0.21355780175E+01  0.18646284446E+02  0.18775337612E+02  0.51100000000E-03 0. -1.
        -11    1    3    3    0    0  0.78537143792E+01  0.28358052393E+02  0.38010778103E+01  0.29669987493E+02  0.51100000000E-03 0.  1.
         12    1    3    3    0    0  0.37590111320E+01 -0.22021937048E+02 -0.88139088480E+01  0.24016262515E+02  0.00000000000E+00 0. -1.
</event>
<event>
 7    1  0.2684545E-013  0.7246158E+02  0.7816164E-02  0.1226708E+00
        -11   -1    0    0    0    0  0.00000000000E+00  0.00000000000E+00  0.45593999997E+02  0.45594000000E+02  0.51100000000E-03 0.  1.
         11   -1    0    0    0    0 -0.00000000000E+00 -0.00000000000E+00 -0.45593999997E+02  0.45594000000E+02  0.51100000000E-03 0. -1.
    9900012    2    1    2    0    0  0.14347914846E+02 -0.26317062486E+01 -0.11742676474E+02  0.72461575115E+02  0.70000006280E+02 0.  0.
         12    1    1    2    0    0 -0.14347914846E+02  0.26317062486E+01  0.11742676474E+02  0.18726424885E+02  0.00000000000E+00 0. -1.
         11    1    3    3    0    0  0.11777425391E+02 -0.20609477373E+02 -0.69803943458E+01  0.24742356636E+02  0.51100000000E-03 0.  1.
        -11    1    3    3    0    0 -0.30592377157E+01 -0.41164345133E+01 -0.19769116084E+02  0.20423562851E+02  0.51100000000E-03 0. -1.
        -12    1    3    3    0    0  0.56297271709E+01  0.22094205638E+02  0.15006833956E+02  0.27295655628E+02  0.00000000000E+00 0.  1.
</event>
<event>
 7    1  0.2684545E-013  0.7246156E+02  0.7816164E-02  0.1226708E+00
        -11   -1    0    0    0    0  0.00000000000E+00  0.00000000000E+00  0.45593999997E+02  0.45594000000E+02  0.51100000000E-03 0. -1.
         11   -1    0    0    0    0 -0.00000000000E+00 -0.00000000000E+00 -0.45593999997E+02  0.45594000000E+02  0.51100000000E-03 0.  1.
    9900012    2    1    2    0    0  0.13778747163E+02 -0.11306945233E+02 -0.57426897946E+01  0.72461564943E+02  0.69999993029E+02 0.  0.
         12    1    1    2    0    0 -0.13778747163E+02  0.11306945233E+02  0.57426897946E+01  0.18726435057E+02  0.00000000000E+00 0. -1.
         11    1    3    3    0    0  0.25867255051E+02 -0.28276936130E+02  0.72533924789E+01  0.39003995994E+02  0.51100000000E-03 0. -1.
        -11    1    3    3    0    0  0.19524042694E+01 -0.15149739858E+00  0.47134644513E+01  0.51040749688E+01  0.51100000000E-03 0.  1.
        -12    1    3    3    0    0 -0.14040912158E+02  0.17121488296E+02 -0.17709546725E+02  0.28353493980E+02  0.00000000000E+00 0.  1.
</event>
<event>
 7    1  0.2684545E-013  0.7246161E+02  0.7816164E-02  0.1226708E+00
        -11   -1    0    0    0    0  0.00000000000E+00  0.00000000000E+00  0.45593999997E+02  0.45594000000E+02  0.51100000000E-03 0.  1.
         11   -1    0    0    0    0 -0.00000000000E+00 -0.00000000000E+00 -0.45593999997E+02  0.45594000000E+02  0.51100000000E-03 0. -1.
    9900012    2    1    2    0    0  0.87727195920E+01  0.38024207293E+01  0.16101514309E+02  0.72461607515E+02  0.70000048487E+02 0.  0.
         12    1    1    2    0    0 -0.87727195920E+01 -0.38024207293E+01 -0.16101514309E+02  0.18726392485E+02  0.00000000000E+00 0. -1.
         11    1    3    3    0    0  0.24308971485E+01  0.20312523389E+01  0.14182400010E+02  0.14531886228E+02  0.51100000000E-03 0. -1.
        -11    1    3    3    0    0  0.10409417931E+02  0.19878978226E+02  0.21411053544E+02  0.31015527902E+02  0.51100000000E-03 0.  1.
         12    1    3    3    0    0 -0.40675954871E+01 -0.18107809835E+02 -0.19491939245E+02  0.26914193386E+02  0.00000000000E+00 0. -1.
</event>
<event>
 7    1  0.2684545E-013  0.7246157E+02  0.7816164E-02  0.1226708E+00
        -11   -1    0    0    0    0  0.00000000000E+00  0.00000000000E+00  0.45593999997E+02  0.45594000000E+02  0.51100000000E-03 0.  1.
         11   -1    0    0    0    0 -0.00000000000E+00 -0.00000000000E+00 -0.45593999997E+02  0.45594000000E+02  0.51100000000E-03 0. -1.
    9900012    2    1    2    0    0  0.15846580924E+02  0.67094907802E+01 -0.73856555149E+01  0.72461566787E+02  0.69999995431E+02 0.  0.
         12    1    1    2    0    0 -0.15846580924E+02 -0.67094907802E+01  0.73856555149E+01  0.18726433213E+02  0.00000000000E+00 0. -1.
         11    1    3    3    0    0  0.59966437555E+01 -0.17356843280E+02  0.82326865887E+01  0.20124534124E+02  0.51100000000E-03 0. -1.
        -11    1    3    3    0    0  0.15364491316E+02 -0.53928258504E+01  0.36752318737E+01  0.16693037280E+02  0.51100000000E-03 0.  1.
        -12    1    3    3    0    0 -0.55145541475E+01  0.29459159910E+02 -0.19293573977E+02  0.35643995383E+02  0.00000000000E+00 0.  1.
</event>
<event>
 7    1  0.2684545E-013  0.7246153E+02  0.7816164E-02  0.1226708E+00
        -11   -1    0    0    0    0  0.00000000000E+00  0.00000000000E+00  0.45593999997E+02  0.45594000000E+02  0.51100000000E-03 0. -1.
         11   -1    0    0    0    0 -0.00000000000E+00 -0.00000000000E+00 -0.45593999997E+02  0.45594000000E+02  0.51100000000E-03 0.  1.
    9900012    2    1    2    0    0 -0.40450296428E+00 -0.12038507705E+02 -0.14338464330E+02  0.72461525432E+02  0.69999941558E+02 0.  0.
         12    1    1    2    0    0  0.40450296428E+00  0.12038507705E+02  0.14338464330E+02  0.18726474568E+02  0.00000000000E+00 0. -1.
         11    1    3    3    0    0  0.50429853019E+01  0.72184334308E+01  0.22393319203E+02  0.24062381992E+02  0.51100000000E-03 0. -1.
        -11    1    3    3    0    0  0.66455334815E+01 -0.43817490176E+01 -0.12334562938E+01  0.80550763123E+01  0.51100000000E-03 0.  1.
        -12    1    3    3    0    0 -0.12093021748E+02 -0.14875192119E+02 -0.35498327239E+02  0.40344067127E+02  0.00000000000E+00 0.  1.
</event>
<event>
 7    1  0.2684545E-013  0.7246157E+02  0.7816164E-02  0.1226708E+00
        -11   -1    0    0    0    0  0.00000000000E+00  0.00000000000E+00  0.45593999997E+02  0.45594000000E+02  0.51100000000E-03 0.  1.
         11   -1    0    0    0    0 -0.00000000000E+00 -0.00000000000E+00 -0.45593999997E+02  0.45594000000E+02  0.51100000000E-03 0. -1.
    9900012    2    1    2    0    0  0.79085073282E+01  0.10056680875E+02  0.13674717569E+02  0.72461568974E+02  0.69999998280E+02 0.  0.
         12    1    1    2    0    0 -0.79085073282E+01 -0.10056680875E+02 -0.13674717569E+02  0.18726431026E+02  0.00000000000E+00 0. -1.
         11    1    3    3    0    0 -0.11984834848E+01 -0.17854239386E+01  0.18533036607E+01  0.28388089093E+01  0.51100000000E-03 0. -1.
        -11    1    3    3    0    0 -0.31927537194E+01  0.38673001362E+02  0.98834120261E+01  0.40043433222E+02  0.51100000000E-03 0.  1.
         12    1    3    3    0    0  0.12299744532E+02 -0.26830896549E+02  0.19380018820E+01  0.29579326843E+02  0.00000000000E+00 0. -1.
</event>
<event>
 7    1  0.2684545E-013  0.7246167E+02  0.7816164E-02  0.1226708E+00
        -11   -1    0    0    0    0  0.00000000000E+00  0.00000000000E+00  0.45593999997E+02  0.45594000000E+02  0.51100000000E-03 0.  1.
         11   -1    0    0    0    0 -0.00000000000E+00 -0.00000000000E+00 -0.45593999997E+02  0.45594000000E+02  0.51100000000E-03 0. -1.
    9900012    2    1    2    0    0 -0.75329931701E+01 -0.99608578794E+01  0.13953875815E+02  0.72461672916E+02  0.70000133684E+02 0.  0.
         12    1    1    2    0    0  0.75329931701E+01  0.99608578794E+01 -0.13953875815E+02  0.18726327084E+02  0.00000000000E+00 0. -1.
         11    1    3    3    0    0  0.54441623574E+01  0.45610642572E+01 -0.10969333495E+02  0.13067841769E+02  0.51100000000E-03 0. -1.
        -11    1    3    3    0    0  0.16682325501E+02  0.60873633393E+01  0.71939205247E+01  0.19160074878E+02  0.51100000000E-03 0.  1.
         12    1    3    3    0    0 -0.29659481029E+02 -0.20609285476E+02  0.17729288785E+02  0.40233756269E+02  0.00000000000E+00 0. -1.
</event>
<event>
 7    1  0.2684545E-013  0.7246151E+02  0.7816164E-02  0.1226708E+00
        -11   -1    0    0    0    0  0.00000000000E+00  0.00000000000E+00  0.45593999997E+02  0.45594000000E+02  0.51100000000E-03 0. -1.
         11   -1    0    0    0    0 -0.00000000000E+00 -0.00000000000E+00 -0.45593999997E+02  0.45594000000E+02  0.51100000000E-03 0.  1.
    9900012    2    1    2    0    0  0.41255296596E+01  0.18264001109E+02 -0.29639713282E+00  0.72461505861E+02  0.69999916063E+02 0.  0.
         12    1    1    2    0    0 -0.41255296596E+01 -0.18264001109E+02  0.29639713282E+00  0.18726494139E+02  0.00000000000E+00 0. -1.
         11    1    3    3    0    0 -0.63618910769E+01  0.25343107714E+02  0.19637833684E+01  0.26203114548E+02  0.51100000000E-03 0. -1.
        -11    1    3    3    0    0  0.40859985019E+01  0.18246291663E+02  0.45897915957E+01  0.19253278431E+02  0.51100000000E-03 0.  1.
        -12    1    3    3    0    0  0.64014222346E+01 -0.25325398267E+02 -0.68499720969E+01  0.27005112881E+02  0.00000000000E+00 0.  1.
</event>
<event>
 7    1  0.2684545E-013  0.7246159E+02  0.7816164E-02  0.1226708E+00
        -11   -1    0    0    0    0  0.00000000000E+00  0.00000000000E+00  0.45593999997E+02  0.45594000000E+02  0.51100000000E-03 0. -1.
         11   -1    0    0    0    0 -0.00000000000E+00 -0.00000000000E+00 -0.45593999997E+02  0.45594000000E+02  0.51100000000E-03 0.  1.
    9900012    2    1    2    0    0  0.35396025057E+01 -0.12647446861E+02 -0.13348851698E+02  0.72461587112E+02  0.70000021909E+02 0.  0.
         12    1    1    2    0    0 -0.35396025057E+01  0.12647446861E+02  0.13348851698E+02  0.18726412888E+02  0.00000000000E+00 0. -1.
         11    1    3    3    0    0 -0.18046917545E+02 -0.10573663166E+02  0.79235868582E+01  0.22366868680E+02  0.51100000000E-03 0. -1.
        -11    1    3    3    0    0 -0.55523967016E+01  0.34352046190E+01  0.76466810987E+01  0.10054922774E+02  0.51100000000E-03 0.  1.
        -12    1    3    3    0    0  0.27138916752E+02 -0.55089883138E+01 -0.28919119655E+02  0.40039795658E+02  0.00000000000E+00 0.  1.
</event>
<event>
 7    1  0.2684545E-013  0.7246161E+02  0.7816164E-02  0.1226708E+00
        -11   -1    0    0    0    0  0.00000000000E+00  0.00000000000E+00  0.45593999997E+02  0.45594000000E+02  0.51100000000E-03 0.  1.
         11   -1    0    0    0    0 -0.00000000000E+00 -0.00000000000E+00 -0.45593999997E+02  0.45594000000E+02  0.51100000000E-03 0. -1.
    9900012    2    1    2    0    0  0.16124867570E+02  0.78109035129E+01  0.54457455889E+01  0.72461609188E+02  0.70000050666E+02 0.  0.
         12    1    1    2    0    0 -0.16124867570E+02 -0.78109035129E+01 -0.54457455889E+01  0.18726390812E+02  0.00000000000E+00 0. -1.
         11    1    3    3    0    0 -0.10099633428E+01 -0.16436348528E+02  0.61335239360E+01  0.17572526711E+02  0.51100000000E-03 0. -1.
        -11    1    3    3    0    0  0.25486026209E+02  0.11931191382E+02 -0.16946126629E+02  0.32849080165E+02  0.51100000000E-03 0.  1.
         12    1    3    3    0    0 -0.83511952957E+01  0.12316060659E+02  0.16258348282E+02  0.22040002311E+02  0.00000000000E+00 0. -1.
</event>
<event>
 7    1  0.2684545E-013  0.7246158E+02  0.7816164E-02  0.1226708E+00
        -11   -1    0    0    0    0  0.00000000000E+00  0.00000000000E+00  0.45593999997E+02  0.45594000000E+02  0.51100000000E-03 0.  1.
         11   -1    0    0    0    0 -0.00000000000E+00 -0.00000000000E+00 -0.45593999997E+02  0.45594000000E+02  0.51100000000E-03 0. -1.
    9900012    2    1    2    0    0 -0.13824047309E+02 -0.73661085532E+01  0.10262299039E+02  0.72461584946E+02  0.70000019086E+02 0.  0.
         12    1    1    2    0    0  0.13824047309E+02  0.73661085532E+01 -0.10262299039E+02  0.18726415054E+02  0.00000000000E+00 0. -1.
         11    1    3    3    0    0  0.80365535579E+01 -0.67938072636E+01 -0.28475764926E+01  0.10901866921E+02  0.51100000000E-03 0. -1.
        -11    1    3    3    0    0  0.14800838113E+02  0.13176224954E+02 -0.12486485256E+01  0.19855398164E+02  0.51100000000E-03 0.  1.
        -12    1    3    3    0    0 -0.36661438979E+02 -0.13748526243E+02  0.14358524057E+02  0.41704319860E+02  0.00000000000E+00 0.  1.
</event>
<event>
 7    1  0.2684545E-013  0.7246154E+02  0.7816164E-02  0.1226708E+00
        -11   -1    0    0    0    0  0.00000000000E+00  0.00000000000E+00  0.45593999997E+02  0.45594000000E+02  0.51100000000E-03 0. -1.
         11   -1    0    0    0    0 -0.00000000000E+00 -0.00000000000E+00 -0.45593999997E+02  0.45594000000E+02  0.51100000000E-03 0.  1.
    9900012    2    1    2    0    0 -0.23244260360E+01 -0.22872759937E+01 -0.18440329214E+02  0.72461539325E+02  0.69999959657E+02 0.  0.
         12    1    1    2    0    0  0.23244260360E+01  0.22872759937E+01  0.18440329214E+02  0.18726460675E+02  0.00000000000E+00 0. -1.
         11    1    3    3    0    0 -0.19540107888E+02  0.61090213468E+01  0.13854370452E+02  0.24720023038E+02  0.51100000000E-03 0. -1.
        -11    1    3    3    0    0  0.67180782435E+01  0.28205809675E+01  0.40123756261E+01  0.83178970122E+01  0.51100000000E-03 0.  1.
        -12    1    3    3    0    0  0.10497603609E+02 -0.11216878308E+02 -0.36307075292E+02  0.39423619275E+02  0.00000000000E+00 0.  1.
</event>
<event>
 7    1  0.2684545E-013  0.7246089E+02  0.7816164E-02  0.1226710E+00
        -11   -1    0    0    0    0  0.00000000000E+00  0.00000000000E+00  0.45593999997E+02  0.45594000000E+02  0.51100000000E-03 0.  1.
         11   -1    0    0    0    0 -0.00000000000E+00 -0.00000000000E+00 -0.45593999997E+02  0.45594000000E+02  0.51100000000E-03 0. -1.
    9900012    2    1    2    0    0 -0.88132202919E+01  0.15379517101E+02 -0.60417007686E+01  0.72460892739E+02  0.69999117353E+02 0.  0.
         12    1    1    2    0    0  0.88132202919E+01 -0.15379517101E+02  0.60417007686E+01  0.18727107261E+02  0.00000000000E+00 0. -1.
         11    1    3    3    0    0  0.42596080411E+01  0.22891591627E+02 -0.71725800402E+01  0.24364218283E+02  0.51100000000E-03 0. -1.
        -11    1    3    3    0    0 -0.78838293100E+01  0.16267807262E+02 -0.10728889260E+02  0.21021545679E+02  0.51100000000E-03 0.  1.
        -12    1    3    3    0    0 -0.51889990229E+01 -0.23779881788E+02  0.11859768532E+02  0.27075128777E+02  0.00000000000E+00 0.  1.
</event>
<event>
 7    1  0.2684545E-013  0.7246164E+02  0.7816164E-02  0.1226708E+00
        -11   -1    0    0    0    0  0.00000000000E+00  0.00000000000E+00  0.45593999997E+02  0.45594000000E+02  0.51100000000E-03 0. -1.
         11   -1    0    0    0    0 -0.00000000000E+00 -0.00000000000E+00 -0.45593999997E+02  0.45594000000E+02  0.51100000000E-03 0.  1.
    9900012    2    1    2    0    0 -0.10949792121E+02  0.86415250116E+01  0.12494107598E+02  0.72461638189E+02  0.70000088445E+02 0.  0.
         12    1    1    2    0    0  0.10949792121E+02 -0.86415250116E+01 -0.12494107598E+02  0.18726361811E+02  0.00000000000E+00 0. -1.
         11    1    3    3    0    0 -0.56859335408E+01  0.72245014202E+01 -0.91102410958E+00  0.92386809768E+01  0.51100000000E-03 0. -1.
        -11    1    3    3    0    0  0.68545267878E+01 -0.36954100541E+01 -0.23122993140E+02  0.24399045165E+02  0.51100000000E-03 0.  1.
         12    1    3    3    0    0 -0.12118385368E+02  0.51124336455E+01  0.36528124848E+02  0.38823912047E+02  0.00000000000E+00 0. -1.
</event>
<event>
 7    1  0.2684545E-013  0.7246158E+02  0.7816164E-02  0.1226708E+00
        -11   -1    0    0    0    0  0.00000000000E+00  0.00000000000E+00  0.45593999997E+02  0.45594000000E+02  0.51100000000E-03 0.  1.
         11   -1    0    0    0    0 -0.00000000000E+00 -0.00000000000E+00 -0.45593999997E+02  0.45594000000E+02  0.51100000000E-03 0. -1.
    9900012    2    1    2    0    0  0.85347106303E+01 -0.79490426648E+01  0.14650948345E+02  0.72461578766E+02  0.70000011036E+02 0.  0.
         12    1    1    2    0    0 -0.85347106303E+01  0.79490426648E+01 -0.14650948345E+02  0.18726421234E+02  0.00000000000E+00 0. -1.
         11    1    3    3    0    0  0.13585473676E+01  0.55528488601E+01  0.29782461535E+01  0.64459081459E+01  0.51100000000E-03 0. -1.
        -11    1    3    3    0    0 -0.60605700885E+01 -0.18017575062E+02  0.34415568549E+02  0.39316598018E+02  0.51100000000E-03 0.  1.
         12    1    3    3    0    0  0.13236733351E+02  0.45156835367E+01 -0.22742866358E+02  0.26699072601E+02  0.00000000000E+00 0. -1.
</event>
<event>
 7    1  0.2684545E-013  0.7246168E+02  0.7816164E-02  0.1226708E+00
        -11   -1    0    0    0    0  0.00000000000E+00  0.00000000000E+00  0.45593999997E+02  0.45594000000E+02  0.51100000000E-03 0. -1.
         11   -1    0    0    0    0 -0.00000000000E+00 -0.00000000000E+00 -0.45593999997E+02  0.45594000000E+02  0.51100000000E-03 0.  1.
    9900012    2    1    2    0    0  0.32978217548E+01 -0.17821693608E+02 -0.47102570809E+01  0.72461683941E+02  0.70000148046E+02 0.  0.
         12    1    1    2    0    0 -0.32978217548E+01  0.17821693608E+02  0.47102570809E+01  0.18726316059E+02  0.00000000000E+00 0. -1.
         11    1    3    3    0    0 -0.91197881568E+01  0.35232064693E+01  0.22168011142E+02  0.24228170341E+02  0.51100000000E-03 0. -1.
        -11    1    3    3    0    0 -0.99869496062E+01 -0.43851559360E+01 -0.28811334953E+01  0.11281386683E+02  0.51100000000E-03 0.  1.
        -12    1    3    3    0    0  0.22404559518E+02 -0.16959744141E+02 -0.23997134727E+02  0.36952126916E+02  0.00000000000E+00 0.  1.
</event>
<event>
 7    1  0.2684545E-013  0.7246160E+02  0.7816164E-02  0.1226708E+00
        -11   -1    0    0    0    0  0.00000000000E+00  0.00000000000E+00  0.45593999997E+02  0.45594000000E+02  0.51100000000E-03 0.  1.
         11   -1    0    0    0    0 -0.00000000000E+00 -0.00000000000E+00 -0.45593999997E+02  0.45594000000E+02  0.51100000000E-03 0. -1.
    9900012    2    1    2    0    0 -0.16024318812E+02 -0.58091019014E+01  0.77558870429E+01  0.72461595056E+02  0.70000032257E+02 0.  0.
         12    1    1    2    0    0  0.16024318812E+02  0.58091019014E+01 -0.77558870429E+01  0.18726404944E+02  0.00000000000E+00 0. -1.
         11    1    3    3    0    0  0.65593946576E+01  0.23880303769E+01  0.99133396745E+00  0.70506092397E+01  0.51100000000E-03 0. -1.
        -11    1    3    3    0    0  0.20915007853E+02 -0.42607729028E+01  0.32882344974E+01  0.21596393810E+02  0.51100000000E-03 0.  1.
         12    1    3    3    0    0 -0.43498721323E+02 -0.39363593756E+01  0.34763185781E+01  0.43814592007E+02  0.00000000000E+00 0. -1.
</event>
<event>
 7    1  0.2684545E-013  0.7246158E+02  0.7816164E-02  0.1226708E+00
        -11   -1    0    0    0    0  0.00000000000E+00  0.00000000000E+00  0.45593999997E+02  0.45594000000E+02  0.51100000000E-03 0.  1.
         11   -1    0    0    0    0 -0.00000000000E+00 -0.00000000000E+00 -0.45593999997E+02  0.45594000000E+02  0.51100000000E-03 0. -1.
    9900012    2    1    2    0    0  0.88478917138E+01  0.72116630250E+01  0.14845384624E+02  0.72461582404E+02  0.70000015775E+02 0.  0.
         12    1    1    2    0    0 -0.88478917138E+01 -0.72116630250E+01 -0.14845384624E+02  0.18726417596E+02  0.00000000000E+00 0. -1.
         11    1    3    3    0    0 -0.61395233693E+01  0.58696227964E+01 -0.21270123396E+01  0.87561635851E+01  0.51100000000E-03 0. -1.
        -11    1    3    3    0    0  0.35847924561E+02  0.11962139216E+02  0.12986745463E+02  0.39960255604E+02  0.51100000000E-03 0.  1.
         12    1    3    3    0    0 -0.20860509478E+02 -0.10620098988E+02  0.39856515004E+01  0.23745163214E+02  0.00000000000E+00 0. -1.
</event>
<event>
 7    1  0.2684545E-013  0.7246213E+02  0.7816164E-02  0.1226707E+00
        -11   -1    0    0    0    0  0.00000000000E+00  0.00000000000E+00  0.45593999997E+02  0.45594000000E+02  0.51100000000E-03 0.  1.
         11   -1    0    0    0    0 -0.00000000000E+00 -0.00000000000E+00 -0.45593999997E+02  0.45594000000E+02  0.51100000000E-03 0. -1.
    9900012    2    1    2    0    0 -0.12745924910E+02  0.31096138037E+01  0.13361508504E+02  0.72462129945E+02  0.70000729045E+02 0.  0.
         12    1    1    2    0    0  0.12745924910E+02 -0.31096138037E+01 -0.13361508504E+02  0.18725870055E+02  0.00000000000E+00 0. -1.
         11    1    3    3    0    0 -0.10688646961E+02 -0.25384583538E+02  0.12368046780E+01  0.27570889383E+02  0.51100000000E-03 0. -1.
        -11    1    3    3    0    0  0.40010326293E+00 -0.31129945795E+01  0.12802309407E+02  0.13181424213E+02  0.51100000000E-03 0.  1.
        -12    1    3    3    0    0 -0.24573812113E+01  0.31607191922E+02 -0.67760558110E+00  0.31709816349E+02  0.00000000000E+00 0.  1.
</event>
<event>
 7    1  0.2684545E-013  0.7246158E+02  0.7816164E-02  0.1226708E+00
        -11   -1    0    0    0    0  0.00000000000E+00  0.00000000000E+00  0.45593999997E+02  0.45594000000E+02  0.51100000000E-03 0. -1.
         11   -1    0    0    0    0 -0.00000000000E+00 -0.00000000000E+00 -0.45593999997E+02  0.45594000000E+02  0.51100000000E-03 0.  1.
    9900012    2    1    2    0    0  0.14218498368E+02  0.46868955308E+01 -0.11249273480E+02  0.72461579109E+02  0.70000011483E+02 0.  0.
         12    1    1    2    0    0 -0.14218498368E+02 -0.46868955308E+01  0.11249273480E+02  0.18726420891E+02  0.00000000000E+00 0. -1.
         11    1    3    3    0    0 -0.13366856348E+02  0.89456156080E+01  0.18345564105E+02  0.24397881257E+02  0.51100000000E-03 0. -1.
        -11    1    3    3    0    0  0.34383679472E+01  0.55781610898E+01  0.22299469781E+01  0.69217713825E+01  0.51100000000E-03 0.  1.
        -12    1    3    3    0    0  0.24146986769E+02 -0.98368811670E+01 -0.31824784563E+02  0.41141926469E+02  0.00000000000E+00 0.  1.
</event>
<event>
 7    1  0.2684545E-013  0.7246153E+02  0.7816164E-02  0.1226708E+00
        -11   -1    0    0    0    0  0.00000000000E+00  0.00000000000E+00  0.45593999997E+02  0.45594000000E+02  0.51100000000E-03 0.  1.
         11   -1    0    0    0    0 -0.00000000000E+00 -0.00000000000E+00 -0.45593999997E+02  0.45594000000E+02  0.51100000000E-03 0. -1.
    9900012    2    1    2    0    0 -0.14676889136E+02 -0.97962691027E+01  0.62691929527E+01  0.72461528274E+02  0.69999945260E+02 0.  0.
         12    1    1    2    0    0  0.14676889136E+02  0.97962691027E+01 -0.62691929527E+01  0.18726471726E+02  0.00000000000E+00 0. -1.
         11    1    3    3    0    0  0.45948241169E+01 -0.84705009228E+01 -0.17744390776E+02  0.20192206388E+02  0.51100000000E-03 0. -1.
        -11    1    3    3    0    0  0.11854378024E+02 -0.83183017153E+01  0.64632388851E+01  0.15858558538E+02  0.51100000000E-03 0.  1.
        -12    1    3    3    0    0 -0.31126091276E+02  0.69925335355E+01  0.17550344844E+02  0.36410763347E+02  0.00000000000E+00 0.  1.
</event>
<event>
 7    1  0.2684545E-013  0.7246157E+02  0.7816164E-02  0.1226708E+00
        -11   -1    0    0    0    0  0.00000000000E+00  0.00000000000E+00  0.45593999997E+02  0.45594000000E+02  0.51100000000E-03 0.  1.
         11   -1    0    0    0    0 -0.00000000000E+00 -0.00000000000E+00 -0.45593999997E+02  0.45594000000E+02  0.51100000000E-03 0. -1.
    9900012    2    1    2    0    0 -0.12027869778E+01 -0.89872719709E+01  0.16384787931E+02  0.72461574032E+02  0.70000004869E+02 0.  0.
         12    1    1    2    0    0  0.12027869778E+01  0.89872719709E+01 -0.16384787931E+02  0.18726425968E+02  0.00000000000E+00 0. -1.
         11    1    3    3    0    0 -0.83520135796E+00 -0.14505790796E+02  0.11367532514E+02  0.18448206515E+02  0.51100000000E-03 0. -1.
        -11    1    3    3    0    0 -0.22650606702E+01 -0.13579522901E+01  0.28934608599E+02  0.29054880989E+02  0.51100000000E-03 0.  1.
         12    1    3    3    0    0  0.18974750504E+01  0.68764711150E+01 -0.23917353181E+02  0.24958486528E+02  0.00000000000E+00 0. -1.
</event>
<event>
 7    1  0.2684545E-013  0.7246164E+02  0.7816164E-02  0.1226708E+00
        -11   -1    0    0    0    0  0.00000000000E+00  0.00000000000E+00  0.45593999997E+02  0.45594000000E+02  0.51100000000E-03 0.  1.
         11   -1    0    0    0    0 -0.00000000000E+00 -0.00000000000E+00 -0.45593999997E+02  0.45594000000E+02  0.51100000000E-03 0. -1.
    9900012    2    1    2    0    0  0.29978860394E+01 -0.16204148403E+02  0.88946563938E+01  0.72461637338E+02  0.70000087337E+02 0.  0.
         12    1    1    2    0    0 -0.29978860394E+01  0.16204148403E+02 -0.88946563938E+01  0.18726362662E+02  0.00000000000E+00 0. -1.
         11    1    3    3    0    0 -0.79962303150E+01 -0.68242695396E+01  0.34415276817E+02  0.35985019558E+02  0.51100000000E-03 0.  1.
        -11    1    3    3    0    0 -0.63750773206E+01 -0.38044459041E+01 -0.10426365048E+02  0.12799394824E+02  0.51100000000E-03 0. -1.
        -12    1    3    3    0    0  0.17369193675E+02 -0.55754329592E+01 -0.15094255375E+02  0.23677222956E+02  0.00000000000E+00 0.  1.
</event>
<event>
 7    1  0.2684545E-013  0.7246151E+02  0.7816164E-02  0.1226708E+00
        -11   -1    0    0    0    0  0.00000000000E+00  0.00000000000E+00  0.45593999997E+02  0.45594000000E+02  0.51100000000E-03 0. -1.
         11   -1    0    0    0    0 -0.00000000000E+00 -0.00000000000E+00 -0.45593999997E+02  0.45594000000E+02  0.51100000000E-03 0.  1.
    9900012    2    1    2    0    0 -0.17518066501E+02 -0.63919719075E+01 -0.17150240681E+01  0.72461514308E+02  0.69999927068E+02 0.  0.
         12    1    1    2    0    0  0.17518066501E+02  0.63919719075E+01  0.17150240681E+01  0.18726485692E+02  0.00000000000E+00 0. -1.
         11    1    3    3    0    0 -0.53689599796E+01 -0.30365876551E+02 -0.38052176918E+01  0.31070755896E+02  0.51100000000E-03 0. -1.
        -11    1    3    3    0    0 -0.16397740365E+02  0.28139704495E+01  0.87582518032E+01  0.18801896013E+02  0.51100000000E-03 0.  1.
        -12    1    3    3    0    0  0.42486338436E+01  0.21159934194E+02 -0.66680581795E+01  0.22588862400E+02  0.00000000000E+00 0.  1.
</event>
<event>
 7    1  0.2684545E-013  0.7246168E+02  0.7816164E-02  0.1226708E+00
        -11   -1    0    0    0    0  0.00000000000E+00  0.00000000000E+00  0.45593999997E+02  0.45594000000E+02  0.51100000000E-03 0.  1.
         11   -1    0    0    0    0 -0.00000000000E+00 -0.00000000000E+00 -0.45593999997E+02  0.45594000000E+02  0.51100000000E-03 0. -1.
    9900012    2    1    2    0    0  0.10810130693E+01  0.83558971508E+01  0.16723803552E+02  0.72461675969E+02  0.70000137661E+02 0.  0.
         12    1    1    2    0    0 -0.10810130693E+01 -0.83558971508E+01 -0.16723803552E+02  0.18726324031E+02  0.00000000000E+00 0. -1.
         11    1    3    3    0    0 -0.43025040027E+01  0.55735617757E+00 -0.16050457197E+02  0.16626465742E+02  0.51100000000E-03 0. -1.
        -11    1    3    3    0    0 -0.38879729996E+01 -0.12480607805E+02  0.30788753986E+02  0.33448905475E+02  0.51100000000E-03 0.  1.
         12    1    3    3    0    0  0.92714900716E+01  0.20279148778E+02  0.19855067633E+01  0.22386304751E+02  0.00000000000E+00 0. -1.
</event>
<event>
 7    1  0.2684545E-013  0.7246155E+02  0.7816164E-02  0.1226708E+00
        -11   -1    0    0    0    0  0.00000000000E+00  0.00000000000E+00  0.45593999997E+02  0.45594000000E+02  0.51100000000E-03 0. -1.
         11   -1    0    0    0    0 -0.00000000000E+00 -0.00000000000E+00 -0.45593999997E+02  0.45594000000E+02  0.51100000000E-03 0.  1.
    9900012    2    1    2    0    0  0.43176921534E+01 -0.39197197210E+01 -0.17795314148E+02  0.72461551488E+02  0.69999975501E+02 0.  0.
         12    1    1    2    0    0 -0.43176921534E+01  0.39197197210E+01  0.17795314148E+02  0.18726448512E+02  0.00000000000E+00 0. -1.
         11    1    3    3    0    0 -0.18088549011E+02 -0.63736264465E-01 -0.12694705676E+02  0.22098760601E+02  0.51100000000E-03 0. -1.
        -11    1    3    3    0    0 -0.10862039861E+02  0.91548878538E+01  0.44736775892E+00  0.14212530378E+02  0.51100000000E-03 0.  1.
        -12    1    3    3    0    0  0.33268281026E+02 -0.13010871310E+02 -0.55479762312E+01  0.36150260510E+02  0.00000000000E+00 0.  1.
</event>
<event>
 7    1  0.2684545E-013  0.7246147E+02  0.7816164E-02  0.1226708E+00
        -11   -1    0    0    0    0  0.00000000000E+00  0.00000000000E+00  0.45593999997E+02  0.45594000000E+02  0.51100000000E-03 0.  1.
         11   -1    0    0    0    0 -0.00000000000E+00 -0.00000000000E+00 -0.45593999997E+02  0.45594000000E+02  0.51100000000E-03 0. -1.
    9900012    2    1    2    0    0 -0.35501790732E+01 -0.70913988837E+01  0.16964414569E+02  0.72461466117E+02  0.69999864290E+02 0.  0.
         12    1    1    2    0    0  0.35501790732E+01  0.70913988837E+01 -0.16964414569E+02  0.18726533883E+02  0.00000000000E+00 0. -1.
         11    1    3    3    0    0  0.10713000230E+02  0.20218661254E+02 -0.10087030386E+01  0.22903714086E+02  0.51100000000E-03 0. -1.
        -11    1    3    3    0    0  0.95953102964E+00 -0.48370954990E+01 -0.96459301555E+01  0.10833381812E+02  0.51100000000E-03 0.  1.
        -12    1    3    3    0    0 -0.15222710333E+02 -0.22472964639E+02  0.27619047764E+02  0.38724370220E+02  0.00000000000E+00 0.  1.
</event>
<event>
 7    1  0.2684545E-013  0.7246156E+02  0.7816164E-02  0.1226708E+00
        -11   -1    0    0    0    0  0.00000000000E+00  0.00000000000E+00  0.45593999997E+02  0.45594000000E+02  0.51100000000E-03 0.  1.
         11   -1    0    0    0    0 -0.00000000000E+00 -0.00000000000E+00 -0.45593999997E+02  0.45594000000E+02  0.51100000000E-03 0. -1.
    9900012    2    1    2    0    0  0.91122604778E+01 -0.10782015120E+02  0.12304242270E+02  0.72461560966E+02  0.69999987848E+02 0.  0.
         12    1    1    2    0    0 -0.91122604778E+01  0.10782015120E+02 -0.12304242270E+02  0.18726439034E+02  0.00000000000E+00 0. -1.
         11    1    3    3    0    0  0.12059908233E+02  0.43461262252E+01 -0.71533477174E+01  0.14679938133E+02  0.51100000000E-03 0. -1.
        -11    1    3    3    0    0  0.18335926729E+02  0.10267601660E+02  0.48380693014E+01  0.21564711166E+02  0.51100000000E-03 0.  1.
         12    1    3    3    0    0 -0.21283574484E+02 -0.25395743005E+02  0.14619520686E+02  0.36216911667E+02  0.00000000000E+00 0. -1.
</event>
<event>
 7    1  0.2684545E-013  0.7246149E+02  0.7816164E-02  0.1226708E+00
        -11   -1    0    0    0    0  0.00000000000E+00  0.00000000000E+00  0.45593999997E+02  0.45594000000E+02  0.51100000000E-03 0. -1.
         11   -1    0    0    0    0 -0.00000000000E+00 -0.00000000000E+00 -0.45593999997E+02  0.45594000000E+02  0.51100000000E-03 0.  1.
    9900012    2    1    2    0    0 -0.10471958361E+02  0.11238517425E+02 -0.10710558563E+02  0.72461488030E+02  0.69999892835E+02 0.  0.
         12    1    1    2    0    0  0.10471958361E+02 -0.11238517425E+02  0.10710558563E+02  0.18726511970E+02  0.00000000000E+00 0. -1.
         11    1    3    3    0    0 -0.32265520359E+01 -0.31434837618E+01  0.51236302387E+01  0.68222954557E+01  0.51100000000E-03 0. -1.
        -11    1    3    3    0    0 -0.25843609028E+02 -0.14151886983E+02 -0.97801901131E+01  0.31045452996E+02  0.51100000000E-03 0.  1.
        -12    1    3    3    0    0  0.18598202703E+02  0.28533888170E+02 -0.60539986885E+01  0.34593739578E+02  0.00000000000E+00 0.  1.
</event>
<event>
 7    1  0.2684545E-013  0.7246156E+02  0.7816164E-02  0.1226708E+00
        -11   -1    0    0    0    0  0.00000000000E+00  0.00000000000E+00  0.45593999997E+02  0.45594000000E+02  0.51100000000E-03 0. -1.
         11   -1    0    0    0    0 -0.00000000000E+00 -0.00000000000E+00 -0.45593999997E+02  0.45594000000E+02  0.51100000000E-03 0.  1.
    9900012    2    1    2    0    0  0.33732259175E+01  0.15524839130E+02 -0.99136356190E+01  0.72461562691E+02  0.69999990096E+02 0.  0.
         12    1    1    2    0    0 -0.33732259175E+01 -0.15524839130E+02  0.99136356190E+01  0.18726437309E+02  0.00000000000E+00 0. -1.
         11    1    3    3    0    0  0.37033969775E+01  0.10882646131E+02 -0.11707873185E+02  0.16407968514E+02  0.51100000000E-03 0. -1.
        -11    1    3    3    0    0  0.17118958876E+02  0.88698847169E+01 -0.20024388751E+02  0.27797657330E+02  0.51100000000E-03 0.  1.
         12    1    3    3    0    0 -0.17449129937E+02 -0.42276917183E+01  0.21818626317E+02  0.28255936848E+02  0.00000000000E+00 0. -1.
</event>
<event>
 7    1  0.2684545E-013  0.7246157E+02  0.7816164E-02  0.1226708E+00
        -11   -1    0    0    0    0  0.00000000000E+00  0.00000000000E+00  0.45593999997E+02  0.45594000000E+02  0.51100000000E-03 0. -1.
         11   -1    0    0    0    0 -0.00000000000E+00 -0.00000000000E+00 -0.45593999997E+02  0.45594000000E+02  0.51100000000E-03 0.  1.
    9900012    2    1    2    0    0  0.13429916782E+02  0.71743106441E+01  0.10901635585E+02  0.72461573314E+02  0.70000003934E+02 0.  0.
         12    1    1    2    0    0 -0.13429916782E+02 -0.71743106441E+01 -0.10901635585E+02  0.18726426686E+02  0.00000000000E+00 0. -1.
         11    1    3    3    0    0 -0.11411481670E+02 -0.84935207527E+01  0.72913340360E+00  0.14244066991E+02  0.51100000000E-03 0. -1.
        -11    1    3    3    0    0  0.18244505878E+02  0.15302204029E+02 -0.17637928960E+02  0.29633021802E+02  0.51100000000E-03 0.  1.
         12    1    3    3    0    0  0.65968925734E+01  0.36562736757E+00  0.27810431142E+02  0.28584484520E+02  0.00000000000E+00 0. -1.
</event>
<event>
 7    1  0.2684545E-013  0.7246160E+02  0.7816164E-02  0.1226708E+00
        -11   -1    0    0    0    0  0.00000000000E+00  0.00000000000E+00  0.45593999997E+02  0.45594000000E+02  0.51100000000E-03 0.  1.
         11   -1    0    0    0    0 -0.00000000000E+00 -0.00000000000E+00 -0.45593999997E+02  0.45594000000E+02  0.51100000000E-03 0. -1.
    9900012    2    1    2    0    0 -0.17696009818E+01 -0.36103815929E+01  0.18289663677E+02  0.72461597774E+02  0.70000035798E+02 0.  0.
         12    1    1    2    0    0  0.17696009818E+01  0.36103815929E+01 -0.18289663677E+02  0.18726402226E+02  0.00000000000E+00 0. -1.
         11    1    3    3    0    0 -0.82116869578E+01 -0.11534222292E+02 -0.19530586116E+02  0.24122891221E+02  0.51100000000E-03 0. -1.
        -11    1    3    3    0    0 -0.10238335400E+02  0.31516735878E+01  0.64890592895E+01  0.12524553840E+02  0.51100000000E-03 0.  1.
        -12    1    3    3    0    0  0.16680421376E+02  0.47721671110E+01  0.31331190504E+02  0.35814152714E+02  0.00000000000E+00 0.  1.
</event>
<event>
 7    1  0.2684545E-013  0.7246160E+02  0.7816164E-02  0.1226708E+00
        -11   -1    0    0    0    0  0.00000000000E+00  0.00000000000E+00  0.45593999997E+02  0.45594000000E+02  0.51100000000E-03 0.  1.
         11   -1    0    0    0    0 -0.00000000000E+00 -0.00000000000E+00 -0.45593999997E+02  0.45594000000E+02  0.51100000000E-03 0. -1.
    9900012    2    1    2    0    0 -0.12090545048E+02 -0.42394740354E+01  0.13657365194E+02  0.72461600354E+02  0.70000039159E+02 0.  0.
         12    1    1    2    0    0  0.12090545048E+02  0.42394740354E+01 -0.13657365194E+02  0.18726399646E+02  0.00000000000E+00 0. -1.
         11    1    3    3    0    0  0.99939364377E+01  0.18112439388E+01 -0.34891389623E+01  0.10739341744E+02  0.51100000000E-03 0. -1.
        -11    1    3    3    0    0 -0.14029811386E+02  0.18061004280E+02 -0.96169700789E+01  0.24809707715E+02  0.51100000000E-03 0.  1.
        -12    1    3    3    0    0 -0.80546700992E+01 -0.24111722255E+02  0.26763474235E+02  0.36912550896E+02  0.00000000000E+00 0.  1.
</event>
<event>
 7    1  0.2684545E-013  0.7246157E+02  0.7816164E-02  0.1226708E+00
        -11   -1    0    0    0    0  0.00000000000E+00  0.00000000000E+00  0.45593999997E+02  0.45594000000E+02  0.51100000000E-03 0. -1.
         11   -1    0    0    0    0 -0.00000000000E+00 -0.00000000000E+00 -0.45593999997E+02  0.45594000000E+02  0.51100000000E-03 0.  1.
    9900012    2    1    2    0    0  0.14965619289E+02 -0.51076934494E+01 -0.10031002460E+02  0.72461566719E+02  0.69999995342E+02 0.  0.
         12    1    1    2    0    0 -0.14965619289E+02  0.51076934494E+01  0.10031002460E+02  0.18726433281E+02  0.00000000000E+00 0. -1.
         11    1    3    3    0    0  0.11297040827E+02  0.15055687124E+02 -0.51791558886E+01  0.19522307809E+02  0.51100000000E-03 0. -1.
        -11    1    3    3    0    0  0.10969020821E+02 -0.10322083463E+01 -0.23047948465E+02  0.25545895963E+02  0.51100000000E-03 0.  1.
         12    1    3    3    0    0 -0.73004423583E+01 -0.19131172227E+02  0.18196101894E+02  0.27393362947E+02  0.00000000000E+00 0. -1.
</event>
<event>
 7    1  0.2684545E-013  0.7246156E+02  0.7816164E-02  0.1226708E+00
        -11   -1    0    0    0    0  0.00000000000E+00  0.00000000000E+00  0.45593999997E+02  0.45594000000E+02  0.51100000000E-03 0. -1.
         11   -1    0    0    0    0 -0.00000000000E+00 -0.00000000000E+00 -0.45593999997E+02  0.45594000000E+02  0.51100000000E-03 0.  1.
    9900012    2    1    2    0    0 -0.14769195023E+02 -0.97316083382E+01  0.61519189360E+01  0.72461563364E+02  0.69999990972E+02 0.  0.
         12    1    1    2    0    0  0.14769195023E+02  0.97316083382E+01 -0.61519189360E+01  0.18726436636E+02  0.00000000000E+00 0. -1.
         11    1    3    3    0    0  0.33964190704E+01 -0.65531280523E+01  0.92646780454E+00  0.74389174364E+01  0.51100000000E-03 0. -1.
        -11    1    3    3    0    0 -0.44223342365E+01 -0.15337249103E+02 -0.25001156210E+02  0.29662199215E+02  0.51100000000E-03 0.  1.
         12    1    3    3    0    0 -0.13743279857E+02  0.12158768817E+02  0.30226607341E+02  0.35360446713E+02  0.00000000000E+00 0. -1.
</event>
<event>
 7    1  0.2684545E-013  0.7246152E+02  0.7816164E-02  0.1226708E+00
        -11   -1    0    0    0    0  0.00000000000E+00  0.00000000000E+00  0.45593999997E+02  0.45594000000E+02  0.51100000000E-03 0. -1.
         11   -1    0    0    0    0 -0.00000000000E+00 -0.00000000000E+00 -0.45593999997E+02  0.45594000000E+02  0.51100000000E-03 0.  1.
    9900012    2    1    2    0    0 -0.12833288627E+02  0.13637737049E+02 -0.79222701018E-02  0.72461515238E+02  0.69999928278E+02 0.  0.
         12    1    1    2    0    0  0.12833288627E+02 -0.13637737049E+02  0.79222701018E-02  0.18726484762E+02  0.00000000000E+00 0. -1.
         11    1    3    3    0    0  0.59532713951E+01 -0.93763590727E+01  0.63862779054E+01  0.12811795171E+02  0.51100000000E-03 0. -1.
        -11    1    3    3    0    0  0.61892255888E+01  0.31219793486E+02 -0.94069121170E+01  0.33188431939E+02  0.51100000000E-03 0.  1.
         12    1    3    3    0    0 -0.24975785611E+02 -0.82056973650E+01  0.30127119415E+01  0.26461288127E+02  0.00000000000E+00 0. -1.
</event>
<event>
 7    1  0.2684545E-013  0.7246157E+02  0.7816164E-02  0.1226708E+00
        -11   -1    0    0    0    0  0.00000000000E+00  0.00000000000E+00  0.45593999997E+02  0.45594000000E+02  0.51100000000E-03 0. -1.
         11   -1    0    0    0    0 -0.00000000000E+00 -0.00000000000E+00 -0.45593999997E+02  0.45594000000E+02  0.51100000000E-03 0.  1.
    9900012    2    1    2    0    0 -0.36506340525E+01 -0.53651977151E+01 -0.17566063221E+02  0.72461573417E+02  0.70000004067E+02 0.  0.
         12    1    1    2    0    0  0.36506340525E+01  0.53651977151E+01  0.17566063221E+02  0.18726426583E+02  0.00000000000E+00 0. -1.
         11    1    3    3    0    0  0.12809826283E+02 -0.14634930339E+01 -0.45365969169E+01  0.13667998138E+02  0.51100000000E-03 0. -1.
        -11    1    3    3    0    0 -0.32382832713E+01  0.20537502637E+02  0.96545299575E+01  0.22923469242E+02  0.51100000000E-03 0.  1.
         12    1    3    3    0    0 -0.13222177064E+02 -0.24439207319E+02 -0.22683996261E+02  0.35870106036E+02  0.00000000000E+00 0. -1.
</event>
<event>
 7    1  0.2684545E-013  0.7246161E+02  0.7816164E-02  0.1226708E+00
        -11   -1    0    0    0    0  0.00000000000E+00  0.00000000000E+00  0.45593999997E+02  0.45594000000E+02  0.51100000000E-03 0.  1.
         11   -1    0    0    0    0 -0.00000000000E+00 -0.00000000000E+00 -0.45593999997E+02  0.45594000000E+02  0.51100000000E-03 0. -1.
    9900012    2    1    2    0    0  0.20456060945E+01 -0.12249013609E+02  0.14016240720E+02  0.72461605723E+02  0.70000046152E+02 0.  0.
         12    1    1    2    0    0 -0.20456060945E+01  0.12249013609E+02 -0.14016240720E+02  0.18726394277E+02  0.00000000000E+00 0. -1.
         11    1    3    3    0    0  0.16302761664E+02 -0.21242652620E+02 -0.15112134943E+02  0.30747470644E+02  0.51100000000E-03 0. -1.
        -11    1    3    3    0    0 -0.19715263413E+01 -0.75958720783E+01  0.29687049366E+01  0.83903157274E+01  0.51100000000E-03 0.  1.
        -12    1    3    3    0    0 -0.12285629228E+02  0.16589511089E+02  0.26159670726E+02  0.33323819352E+02  0.00000000000E+00 0.  1.
</event>
<event>
 7    1  0.2684545E-013  0.7246160E+02  0.7816164E-02  0.1226708E+00
        -11   -1    0    0    0    0  0.00000000000E+00  0.00000000000E+00  0.45593999997E+02  0.45594000000E+02  0.51100000000E-03 0. -1.
         11   -1    0    0    0    0 -0.00000000000E+00 -0.00000000000E+00 -0.45593999997E+02  0.45594000000E+02  0.51100000000E-03 0.  1.
    9900012    2    1    2    0    0 -0.10075737296E+02  0.15511052412E+02  0.29265679115E+01  0.72461600754E+02  0.70000039679E+02 0.  0.
         12    1    1    2    0    0  0.10075737296E+02 -0.15511052412E+02 -0.29265679115E+01  0.18726399246E+02  0.00000000000E+00 0. -1.
         11    1    3    3    0    0 -0.20609526337E+02  0.31206249404E+02 -0.38826367592E+01  0.37598636228E+02  0.51100000000E-03 0. -1.
        -11    1    3    3    0    0 -0.55363431366E+01  0.43427529198E+01  0.58641371953E+01  0.91596235488E+01  0.51100000000E-03 0.  1.
        -12    1    3    3    0    0  0.16070132177E+02 -0.20037949912E+02  0.94506747541E+00  0.25703340978E+02  0.00000000000E+00 0.  1.
</event>
<event>
 7    1  0.2684545E-013  0.7246179E+02  0.7816164E-02  0.1226707E+00
        -11   -1    0    0    0    0  0.00000000000E+00  0.00000000000E+00  0.45593999997E+02  0.45594000000E+02  0.51100000000E-03 0. -1.
         11   -1    0    0    0    0 -0.00000000000E+00 -0.00000000000E+00 -0.45593999997E+02  0.45594000000E+02  0.51100000000E-03 0.  1.
    9900012    2    1    2    0    0 -0.19671920936E+01  0.26196423957E+01 -0.18437419186E+02  0.72461793837E+02  0.70000291205E+02 0.  0.
         12    1    1    2    0    0  0.19671920936E+01 -0.26196423957E+01  0.18437419186E+02  0.18726206163E+02  0.00000000000E+00 0. -1.
         11    1    3    3    0    0 -0.17683931997E+02 -0.20119191838E+02 -0.18874305524E+01  0.26852667008E+02  0.51100000000E-03 0. -1.
        -11    1    3    3    0    0  0.19263111459E+02 -0.13543798077E+00 -0.89920147529E+01  0.21258930738E+02  0.51100000000E-03 0.  1.
         12    1    3    3    0    0 -0.35463715555E+01  0.22874272214E+02 -0.75579738808E+01  0.24350196092E+02  0.00000000000E+00 0. -1.
</event>
<event>
 7    1  0.2684545E-013  0.7246158E+02  0.7816164E-02  0.1226708E+00
        -11   -1    0    0    0    0  0.00000000000E+00  0.00000000000E+00  0.45593999997E+02  0.45594000000E+02  0.51100000000E-03 0. -1.
         11   -1    0    0    0    0 -0.00000000000E+00 -0.00000000000E+00 -0.45593999997E+02  0.45594000000E+02  0.51100000000E-03 0.  1.
    9900012    2    1    2    0    0  0.17402735329E+02  0.58948805413E+01 -0.36157977487E+01  0.72461579977E+02  0.70000012614E+02 0.  0.
         12    1    1    2    0    0 -0.17402735329E+02 -0.58948805413E+01  0.36157977487E+01  0.18726420023E+02  0.00000000000E+00 0. -1.
         11    1    3    3    0    0 -0.20579038955E+02 -0.20958884872E+01 -0.94818175054E+00  0.20707212313E+02  0.51100000000E-03 0.  1.
        -11    1    3    3    0    0  0.96972562440E+01 -0.34324369222E+01  0.13703403360E+02  0.17134808601E+02  0.51100000000E-03 0. -1.
        -12    1    3    3    0    0  0.28284518040E+02  0.11423205951E+02 -0.16371019358E+02  0.34619559063E+02  0.00000000000E+00 0.  1.
</event>
<event>
 7    1  0.2684545E-013  0.7246160E+02  0.7816164E-02  0.1226708E+00
        -11   -1    0    0    0    0  0.00000000000E+00  0.00000000000E+00  0.45593999997E+02  0.45594000000E+02  0.51100000000E-03 0.  1.
         11   -1    0    0    0    0 -0.00000000000E+00 -0.00000000000E+00 -0.45593999997E+02  0.45594000000E+02  0.51100000000E-03 0. -1.
    9900012    2    1    2    0    0  0.13556285141E+02 -0.30650103285E+01  0.12550339808E+02  0.72461596597E+02  0.70000034263E+02 0.  0.
         12    1    1    2    0    0 -0.13556285141E+02  0.30650103285E+01 -0.12550339808E+02  0.18726403403E+02  0.00000000000E+00 0. -1.
         11    1    3    3    0    0  0.15748189016E+02 -0.94292084241E+01  0.29094371904E+01  0.18584408891E+02  0.51100000000E-03 0. -1.
        -11    1    3    3    0    0  0.25016052878E+02  0.39094214842E+01  0.14673105006E+01  0.25362166278E+02  0.51100000000E-03 0.  1.
         12    1    3    3    0    0 -0.27207956754E+02  0.24547766115E+01  0.81735921172E+01  0.28515021428E+02  0.00000000000E+00 0. -1.
</event>
<event>
 7    1  0.2684545E-013  0.7246154E+02  0.7816164E-02  0.1226708E+00
        -11   -1    0    0    0    0  0.00000000000E+00  0.00000000000E+00  0.45593999997E+02  0.45594000000E+02  0.51100000000E-03 0.  1.
         11   -1    0    0    0    0 -0.00000000000E+00 -0.00000000000E+00 -0.45593999997E+02  0.45594000000E+02  0.51100000000E-03 0. -1.
    9900012    2    1    2    0    0 -0.18202749874E+02  0.36410111155E+01 -0.24663998578E+01  0.72461542963E+02  0.69999964395E+02 0.  0.
         12    1    1    2    0    0  0.18202749874E+02 -0.36410111155E+01  0.24663998578E+01  0.18726457037E+02  0.00000000000E+00 0. -1.
         11    1    3    3    0    0 -0.14111845315E+02  0.22916900108E+01  0.20957941121E+02  0.25369889980E+02  0.51100000000E-03 0. -1.
        -11    1    3    3    0    0 -0.29013964963E+01  0.24772414342E+01  0.11506446513E+02  0.12122422958E+02  0.51100000000E-03 0.  1.
         12    1    3    3    0    0 -0.11895080631E+01 -0.11279203296E+01 -0.34930787492E+02  0.34969230025E+02  0.00000000000E+00 0. -1.
</event>
<event>
 7    1  0.2684545E-013  0.7246154E+02  0.7816164E-02  0.1226708E+00
        -11   -1    0    0    0    0  0.00000000000E+00  0.00000000000E+00  0.45593999997E+02  0.45594000000E+02  0.51100000000E-03 0. -1.
         11   -1    0    0    0    0 -0.00000000000E+00 -0.00000000000E+00 -0.45593999997E+02  0.45594000000E+02  0.51100000000E-03 0.  1.
    9900012    2    1    2    0    0 -0.45426142867E+01 -0.17545754119E+02 -0.47107759277E+01  0.72461541658E+02  0.69999962696E+02 0.  0.
         12    1    1    2    0    0  0.45426142867E+01  0.17545754119E+02  0.47107759277E+01  0.18726458342E+02  0.00000000000E+00 0. -1.
         11    1    3    3    0    0  0.33606324078E-01  0.75344682415E+01 -0.15551298304E+02  0.17280399888E+02  0.51100000000E-03 0.  1.
        -11    1    3    3    0    0 -0.56474066728E+01  0.13792289850E+02  0.36733916259E+00  0.14908232616E+02  0.51100000000E-03 0. -1.
        -12    1    3    3    0    0  0.10711860621E+01 -0.38872512210E+02  0.10473183214E+02  0.40272909154E+02  0.00000000000E+00 0.  1.
</event>
<event>
 7    1  0.2684545E-013  0.7246155E+02  0.7816164E-02  0.1226708E+00
        -11   -1    0    0    0    0  0.00000000000E+00  0.00000000000E+00  0.45593999997E+02  0.45594000000E+02  0.51100000000E-03 0.  1.
         11   -1    0    0    0    0 -0.00000000000E+00 -0.00000000000E+00 -0.45593999997E+02  0.45594000000E+02  0.51100000000E-03 0. -1.
    9900012    2    1    2    0    0 -0.66451445613E+01 -0.16582544259E+02  0.56161432332E+01  0.72461553856E+02  0.69999978586E+02 0.  0.
         12    1    1    2    0    0  0.66451445613E+01  0.16582544259E+02 -0.56161432332E+01  0.18726446144E+02  0.00000000000E+00 0. -1.
         11    1    3    3    0    0 -0.13891958289E+02 -0.40368318253E+01  0.15043293192E+02  0.20870629760E+02  0.51100000000E-03 0. -1.
        -11    1    3    3    0    0 -0.20100633759E+02 -0.10112517725E+02  0.18389224966E+00  0.22501829011E+02  0.51100000000E-03 0.  1.
         12    1    3    3    0    0  0.27347447486E+02 -0.24331947096E+01 -0.96110422081E+01  0.29089095085E+02  0.00000000000E+00 0. -1.
</event>
<event>
 7    1  0.2684545E-013  0.7246158E+02  0.7816164E-02  0.1226708E+00
        -11   -1    0    0    0    0  0.00000000000E+00  0.00000000000E+00  0.45593999997E+02  0.45594000000E+02  0.51100000000E-03 0.  1.
         11   -1    0    0    0    0 -0.00000000000E+00 -0.00000000000E+00 -0.45593999997E+02  0.45594000000E+02  0.51100000000E-03 0. -1.
    9900012    2    1    2    0    0  0.79117939449E+01 -0.16829593542E+02 -0.22016131783E+01  0.72461580086E+02  0.70000012755E+02 0.  0.
         12    1    1    2    0    0 -0.79117939449E+01  0.16829593542E+02  0.22016131783E+01  0.18726419914E+02  0.00000000000E+00 0. -1.
         11    1    3    3    0    0 -0.14510996269E+02  0.72613931004E+00 -0.71516286536E+00  0.14546743595E+02  0.51100000000E-03 0. -1.
        -11    1    3    3    0    0  0.98301815631E+01 -0.31639891980E+02  0.11408426305E+02  0.35040939273E+02  0.51100000000E-03 0.  1.
         12    1    3    3    0    0  0.12592608651E+02  0.14084159128E+02 -0.12894876618E+02  0.22873897219E+02  0.00000000000E+00 0. -1.
</event>
<event>
 7    1  0.2684545E-013  0.7246112E+02  0.7816164E-02  0.1226709E+00
        -11   -1    0    0    0    0  0.00000000000E+00  0.00000000000E+00  0.45593999997E+02  0.45594000000E+02  0.51100000000E-03 0.  1.
         11   -1    0    0    0    0 -0.00000000000E+00 -0.00000000000E+00 -0.45593999997E+02  0.45594000000E+02  0.51100000000E-03 0. -1.
    9900012    2    1    2    0    0  0.12341515107E+02 -0.89672642903E+01 -0.10861452349E+02  0.72461121693E+02  0.69999415611E+02 0.  0.
         12    1    1    2    0    0 -0.12341515107E+02  0.89672642903E+01  0.10861452349E+02  0.18726878307E+02  0.00000000000E+00 0. -1.
         11    1    3    3    0    0 -0.82630320842E+01 -0.52294662040E+01 -0.32126037734E+02  0.33581353707E+02  0.51100000000E-03 0. -1.
        -11    1    3    3    0    0  0.54060982910E+01  0.10367029513E+02  0.93071411138E+01  0.14944031438E+02  0.51100000000E-03 0.  1.
        -12    1    3    3    0    0  0.15198448900E+02 -0.14104827599E+02  0.11957444271E+02  0.23935736548E+02  0.00000000000E+00 0.  1.
</event>
<event>
 7    1  0.2684545E-013  0.7246157E+02  0.7816164E-02  0.1226708E+00
        -11   -1    0    0    0    0  0.00000000000E+00  0.00000000000E+00  0.45593999997E+02  0.45594000000E+02  0.51100000000E-03 0. -1.
         11   -1    0    0    0    0 -0.00000000000E+00 -0.00000000000E+00 -0.45593999997E+02  0.45594000000E+02  0.51100000000E-03 0.  1.
    9900012    2    1    2    0    0 -0.68561419646E+01 -0.13093297469E+02 -0.11499479686E+02  0.72461570700E+02  0.70000000529E+02 0.  0.
         12    1    1    2    0    0  0.68561419646E+01  0.13093297469E+02  0.11499479686E+02  0.18726429300E+02  0.00000000000E+00 0. -1.
         11    1    3    3    0    0 -0.18032113626E+01  0.47042916659E+01 -0.14275978598E+02  0.15138873686E+02  0.51100000000E-03 0. -1.
        -11    1    3    3    0    0 -0.24889994364E+02 -0.15487592769E+02 -0.12807505640E+02  0.31990772891E+02  0.51100000000E-03 0.  1.
         12    1    3    3    0    0  0.19837063762E+02 -0.23099963659E+01  0.15584004552E+02  0.25331924123E+02  0.00000000000E+00 0. -1.
</event>
<event>
 7    1  0.2684545E-013  0.7246145E+02  0.7816164E-02  0.1226708E+00
        -11   -1    0    0    0    0  0.00000000000E+00  0.00000000000E+00  0.45593999997E+02  0.45594000000E+02  0.51100000000E-03 0.  1.
         11   -1    0    0    0    0 -0.00000000000E+00 -0.00000000000E+00 -0.45593999997E+02  0.45594000000E+02  0.51100000000E-03 0. -1.
    9900012    2    1    2    0    0 -0.17229580416E+02 -0.64778190073E+01 -0.34442825034E+01  0.72461450335E+02  0.69999843730E+02 0.  0.
         12    1    1    2    0    0  0.17229580416E+02  0.64778190073E+01  0.34442825034E+01  0.18726549665E+02  0.00000000000E+00 0. -1.
         11    1    3    3    0    0 -0.31612321897E+01  0.21543014302E+02 -0.12990472445E+02  0.25354432132E+02  0.51100000000E-03 0. -1.
        -11    1    3    3    0    0 -0.14362411399E+02  0.27047767429E+01  0.71956026209E+01  0.16290223318E+02  0.51100000000E-03 0.  1.
        -12    1    3    3    0    0  0.29406317231E+00 -0.30725610052E+02  0.23505873203E+01  0.30816794884E+02  0.00000000000E+00 0.  1.
</event>
<event>
 7    1  0.2684545E-013  0.7246151E+02  0.7816164E-02  0.1226708E+00
        -11   -1    0    0    0    0  0.00000000000E+00  0.00000000000E+00  0.45593999997E+02  0.45594000000E+02  0.51100000000E-03 0.  1.
         11   -1    0    0    0    0 -0.00000000000E+00 -0.00000000000E+00 -0.45593999997E+02  0.45594000000E+02  0.51100000000E-03 0. -1.
    9900012    2    1    2    0    0  0.88092054396E+01  0.14496825999E+02  0.79322896980E+01  0.72461513827E+02  0.69999926441E+02 0.  0.
         12    1    1    2    0    0 -0.88092054396E+01 -0.14496825999E+02 -0.79322896980E+01  0.18726486173E+02  0.00000000000E+00 0. -1.
         11    1    3    3    0    0  0.62067802708E-01  0.48304846149E+01 -0.14738827192E+02  0.15510334016E+02  0.51100000000E-03 0. -1.
        -11    1    3    3    0    0 -0.16921590897E+01  0.28478376169E+02  0.46889202951E+01  0.28911369483E+02  0.51100000000E-03 0.  1.
         12    1    3    3    0    0  0.10439296727E+02 -0.18812034785E+02  0.17982196595E+02  0.28039810329E+02  0.00000000000E+00 0. -1.
</event>
<event>
 7    1  0.2684545E-013  0.7246160E+02  0.7816164E-02  0.1226708E+00
        -11   -1    0    0    0    0  0.00000000000E+00  0.00000000000E+00  0.45593999997E+02  0.45594000000E+02  0.51100000000E-03 0.  1.
         11   -1    0    0    0    0 -0.00000000000E+00 -0.00000000000E+00 -0.45593999997E+02  0.45594000000E+02  0.51100000000E-03 0. -1.
    9900012    2    1    2    0    0 -0.15672821109E+01 -0.18626205175E+02 -0.11340610061E+01  0.72461601873E+02  0.70000041138E+02 0.  0.
         12    1    1    2    0    0  0.15672821109E+01  0.18626205175E+02  0.11340610061E+01  0.18726398127E+02  0.00000000000E+00 0. -1.
         11    1    3    3    0    0 -0.39207464833E+01 -0.41203239416E+01  0.78943837192E+00  0.57421716775E+01  0.51100000000E-03 0. -1.
        -11    1    3    3    0    0 -0.10648411597E+02 -0.30943571513E+01 -0.30979007454E+02  0.32903838967E+02  0.51100000000E-03 0.  1.
        -12    1    3    3    0    0  0.13001875969E+02 -0.11411524082E+02  0.29055508076E+02  0.33815591229E+02  0.00000000000E+00 0.  1.
</event>
<event>
 7    1  0.2684545E-013  0.7246155E+02  0.7816164E-02  0.1226708E+00
        -11   -1    0    0    0    0  0.00000000000E+00  0.00000000000E+00  0.45593999997E+02  0.45594000000E+02  0.51100000000E-03 0.  1.
         11   -1    0    0    0    0 -0.00000000000E+00 -0.00000000000E+00 -0.45593999997E+02  0.45594000000E+02  0.51100000000E-03 0. -1.
    9900012    2    1    2    0    0 -0.14672377532E+02 -0.11594970444E+02 -0.97883049496E+00  0.72461545152E+02  0.69999967248E+02 0.  0.
         12    1    1    2    0    0  0.14672377532E+02  0.11594970444E+02  0.97883049496E+00  0.18726454848E+02  0.00000000000E+00 0. -1.
         11    1    3    3    0    0  0.21927756825E+02  0.67881016928E+01 -0.11383132133E+02  0.25621876227E+02  0.51100000000E-03 0. -1.
        -11    1    3    3    0    0  0.75815370104E-01 -0.43389711667E+01  0.58785654147E+01  0.73068427075E+01  0.51100000000E-03 0.  1.
        -12    1    3    3    0    0 -0.36675949726E+02 -0.14044100970E+02  0.45257362235E+01  0.39532826218E+02  0.00000000000E+00 0.  1.
</event>
<event>
 7    1  0.2684545E-013  0.7246160E+02  0.7816164E-02  0.1226708E+00
        -11   -1    0    0    0    0  0.00000000000E+00  0.00000000000E+00  0.45593999997E+02  0.45594000000E+02  0.51100000000E-03 0. -1.
         11   -1    0    0    0    0 -0.00000000000E+00 -0.00000000000E+00 -0.45593999997E+02  0.45594000000E+02  0.51100000000E-03 0.  1.
    9900012    2    1    2    0    0  0.86447328197E+01  0.98802209144E+01 -0.13353952289E+02  0.72461595845E+02  0.70000033284E+02 0.  0.
         12    1    1    2    0    0 -0.86447328197E+01 -0.98802209144E+01  0.13353952289E+02  0.18726404155E+02  0.00000000000E+00 0. -1.
         11    1    3    3    0    0  0.89110388726E+01  0.18667256468E+01 -0.17427109242E+02  0.19662029784E+02  0.51100000000E-03 0. -1.
        -11    1    3    3    0    0  0.17961381168E+01  0.20727367049E+02 -0.17823424187E+02  0.27395698694E+02  0.51100000000E-03 0.  1.
         12    1    3    3    0    0 -0.20624441697E+01 -0.12713871782E+02  0.21896581139E+02  0.25403867367E+02  0.00000000000E+00 0. -1.
</event>
<event>
 7    1  0.2684545E-013  0.7246154E+02  0.7816164E-02  0.1226708E+00
        -11   -1    0    0    0    0  0.00000000000E+00  0.00000000000E+00  0.45593999997E+02  0.45594000000E+02  0.51100000000E-03 0.  1.
         11   -1    0    0    0    0 -0.00000000000E+00 -0.00000000000E+00 -0.45593999997E+02  0.45594000000E+02  0.51100000000E-03 0. -1.
    9900012    2    1    2    0    0  0.73786671068E+01 -0.16504092425E+02  0.48836805828E+01  0.72461544621E+02  0.69999966555E+02 0.  0.
         12    1    1    2    0    0 -0.73786671068E+01  0.16504092425E+02 -0.48836805828E+01  0.18726455379E+02  0.00000000000E+00 0. -1.
         11    1    3    3    0    0 -0.11155054529E+02  0.24438743901E+01 -0.18821132262E+02  0.22014603868E+02  0.51100000000E-03 0. -1.
        -11    1    3    3    0    0 -0.60840914226E+01 -0.71382768206E+01 -0.51677016941E+01  0.10708702324E+02  0.51100000000E-03 0.  1.
        -12    1    3    3    0    0  0.24617813058E+02 -0.11809689994E+02  0.28872514539E+02  0.39738238428E+02  0.00000000000E+00 0.  1.
</event>
<event>
 7    1  0.2684545E-013  0.7246157E+02  0.7816164E-02  0.1226708E+00
        -11   -1    0    0    0    0  0.00000000000E+00  0.00000000000E+00  0.45593999997E+02  0.45594000000E+02  0.51100000000E-03 0.  1.
         11   -1    0    0    0    0 -0.00000000000E+00 -0.00000000000E+00 -0.45593999997E+02  0.45594000000E+02  0.51100000000E-03 0. -1.
    9900012    2    1    2    0    0  0.12825548667E+02  0.11305488532E+02  0.76400604964E+01  0.72461566972E+02  0.69999995673E+02 0.  0.
         12    1    1    2    0    0 -0.12825548667E+02 -0.11305488532E+02 -0.76400604964E+01  0.18726433028E+02  0.00000000000E+00 0. -1.
         11    1    3    3    0    0  0.69039501664E+01  0.84587959938E+01  0.72588981462E+01  0.13111344711E+02  0.51100000000E-03 0.  1.
        -11    1    3    3    0    0 -0.15161091557E+01 -0.27066804298E+02 -0.62508197683E+01  0.27820554091E+02  0.51100000000E-03 0. -1.
         12    1    3    3    0    0  0.74377076558E+01  0.29913496836E+02  0.66319821184E+01  0.31529668171E+02  0.00000000000E+00 0. -1.
</event>
<event>
 7    1  0.2684545E-013  0.7246158E+02  0.7816164E-02  0.1226708E+00
        -11   -1    0    0    0    0  0.00000000000E+00  0.00000000000E+00  0.45593999997E+02  0.45594000000E+02  0.51100000000E-03 0. -1.
         11   -1    0    0    0    0 -0.00000000000E+00 -0.00000000000E+00 -0.45593999997E+02  0.45594000000E+02  0.51100000000E-03 0.  1.
    9900012    2    1    2    0    0 -0.17162979824E+01  0.32384143708E+01 -0.18364256009E+02  0.72461577353E+02  0.70000009195E+02 0.  0.
         12    1    1    2    0    0  0.17162979824E+01 -0.32384143708E+01  0.18364256009E+02  0.18726422647E+02  0.00000000000E+00 0. -1.
         11    1    3    3    0    0  0.37337511041E+01 -0.99946144642E+01  0.13323420840E+02  0.17068882762E+02  0.51100000000E-03 0. -1.
        -11    1    3    3    0    0  0.18177041684E+02 -0.20048155830E+00 -0.11132857752E+02  0.21316321428E+02  0.51100000000E-03 0.  1.
         12    1    3    3    0    0 -0.23627090771E+02  0.13433510393E+02 -0.20554819097E+02  0.34076373162E+02  0.00000000000E+00 0. -1.
</event>
<event>
 7    1  0.2684545E-013  0.7246157E+02  0.7816164E-02  0.1226708E+00
        -11   -1    0    0    0    0  0.00000000000E+00  0.00000000000E+00  0.45593999997E+02  0.45594000000E+02  0.51100000000E-03 0. -1.
         11   -1    0    0    0    0 -0.00000000000E+00 -0.00000000000E+00 -0.45593999997E+02  0.45594000000E+02  0.51100000000E-03 0.  1.
    9900012    2    1    2    0    0  0.35677393039E+01 -0.18379481361E+02  0.38093685062E+00  0.72461569168E+02  0.69999998532E+02 0.  0.
         12    1    1    2    0    0 -0.35677393039E+01  0.18379481361E+02 -0.38093685062E+00  0.18726430832E+02  0.00000000000E+00 0. -1.
         11    1    3    3    0    0  0.17256600182E+02 -0.34488595572E+02  0.10294022417E+01  0.38578661766E+02  0.51100000000E-03 0. -1.
        -11    1    3    3    0    0  0.21304976877E+01  0.38201095194E+01  0.10202790267E+02  0.11100864229E+02  0.51100000000E-03 0.  1.
        -12    1    3    3    0    0 -0.15819358566E+02  0.12289004692E+02 -0.10851255658E+02  0.22782043173E+02  0.00000000000E+00 0.  1.
</event>
<event>
 7    1  0.2684545E-013  0.7246158E+02  0.7816164E-02  0.1226708E+00
        -11   -1    0    0    0    0  0.00000000000E+00  0.00000000000E+00  0.45593999997E+02  0.45594000000E+02  0.51100000000E-03 0.  1.
         11   -1    0    0    0    0 -0.00000000000E+00 -0.00000000000E+00 -0.45593999997E+02  0.45594000000E+02  0.51100000000E-03 0. -1.
    9900012    2    1    2    0    0 -0.67188133607E+01 -0.95672434834E+01  0.14628879337E+02  0.72461582523E+02  0.70000015931E+02 0.  0.
         12    1    1    2    0    0  0.67188133607E+01  0.95672434834E+01 -0.14628879337E+02  0.18726417477E+02  0.00000000000E+00 0. -1.
         11    1    3    3    0    0  0.38427721819E+01  0.59584619888E+01  0.91047998977E+01  0.11539824468E+02  0.51100000000E-03 0. -1.
        -11    1    3    3    0    0 -0.25913514684E+02 -0.10930287926E+02 -0.17310831419E+02  0.33024934854E+02  0.51100000000E-03 0.  1.
         12    1    3    3    0    0  0.15351929142E+02 -0.45954175467E+01  0.22834910858E+02  0.27896823201E+02  0.00000000000E+00 0. -1.
</event>
<event>
 7    1  0.2684545E-013  0.7246159E+02  0.7816164E-02  0.1226708E+00
        -11   -1    0    0    0    0  0.00000000000E+00  0.00000000000E+00  0.45593999997E+02  0.45594000000E+02  0.51100000000E-03 0. -1.
         11   -1    0    0    0    0 -0.00000000000E+00 -0.00000000000E+00 -0.45593999997E+02  0.45594000000E+02  0.51100000000E-03 0.  1.
    9900012    2    1    2    0    0  0.81665535287E+01 -0.15013959690E+02 -0.76528930496E+01  0.72461592065E+02  0.70000028361E+02 0.  0.
         12    1    1    2    0    0 -0.81665535287E+01  0.15013959690E+02  0.76528930496E+01  0.18726407935E+02  0.00000000000E+00 0. -1.
         11    1    3    3    0    0 -0.16169840819E+02 -0.29211021070E+02 -0.13399315990E+02  0.35976230671E+02  0.51100000000E-03 0. -1.
        -11    1    3    3    0    0  0.76747068868E+01 -0.26714659167E+01  0.94767022934E+01  0.12483819230E+02  0.51100000000E-03 0.  1.
        -12    1    3    3    0    0  0.16661687461E+02  0.16868527297E+02 -0.37302793529E+01  0.24001542164E+02  0.00000000000E+00 0.  1.
</event>
<event>
 7    1  0.2684545E-013  0.7246174E+02  0.7816164E-02  0.1226708E+00
        -11   -1    0    0    0    0  0.00000000000E+00  0.00000000000E+00  0.45593999997E+02  0.45594000000E+02  0.51100000000E-03 0. -1.
         11   -1    0    0    0    0 -0.00000000000E+00 -0.00000000000E+00 -0.45593999997E+02  0.45594000000E+02  0.51100000000E-03 0.  1.
    9900012    2    1    2    0    0  0.14279392015E+02 -0.11837435974E+02  0.25781418113E+01  0.72461741913E+02  0.70000223565E+02 0.  0.
         12    1    1    2    0    0 -0.14279392015E+02  0.11837435974E+02 -0.25781418113E+01  0.18726258087E+02  0.00000000000E+00 0. -1.
         11    1    3    3    0    0 -0.14632283072E+02 -0.45659564622E+01  0.15118219129E+02  0.21529333854E+02  0.51100000000E-03 0. -1.
        -11    1    3    3    0    0  0.79427568790E+01  0.14371156356E+02  0.35085262795E+01  0.16790690241E+02  0.51100000000E-03 0.  1.
         12    1    3    3    0    0  0.20968918208E+02 -0.21642635868E+02 -0.16048603597E+02  0.34141717818E+02  0.00000000000E+00 0. -1.
</event>
<event>
 7    1  0.2684545E-013  0.7246185E+02  0.7816164E-02  0.1226707E+00
        -11   -1    0    0    0    0  0.00000000000E+00  0.00000000000E+00  0.45593999997E+02  0.45594000000E+02  0.51100000000E-03 0.  1.
         11   -1    0    0    0    0 -0.00000000000E+00 -0.00000000000E+00 -0.45593999997E+02  0.45594000000E+02  0.51100000000E-03 0. -1.
    9900012    2    1    2    0    0 -0.69523594719E+01  0.96769156696E+01  0.14446136568E+02  0.72461845541E+02  0.70000358559E+02 0.  0.
         12    1    1    2    0    0  0.69523594719E+01 -0.96769156696E+01 -0.14446136568E+02  0.18726154459E+02  0.00000000000E+00 0. -1.
         11    1    3    3    0    0 -0.10000211399E+02  0.12455958471E+01 -0.20093810456E+02  0.22479256125E+02  0.51100000000E-03 0. -1.
        -11    1    3    3    0    0  0.94678068084E+01  0.38303783693E+01 -0.37549308785E+01  0.10881666709E+02  0.51100000000E-03 0.  1.
        -12    1    3    3    0    0 -0.64199548810E+01  0.46009414532E+01  0.38294877902E+02  0.39100922706E+02  0.00000000000E+00 0.  1.
</event>
<event>
 7    1  0.2684545E-013  0.7246158E+02  0.7816164E-02  0.1226708E+00
        -11   -1    0    0    0    0  0.00000000000E+00  0.00000000000E+00  0.45593999997E+02  0.45594000000E+02  0.51100000000E-03 0. -1.
         11   -1    0    0    0    0 -0.00000000000E+00 -0.00000000000E+00 -0.45593999997E+02  0.45594000000E+02  0.51100000000E-03 0.  1.
    9900012    2    1    2    0    0  0.11761972591E+02  0.69539831458E+01 -0.12805345505E+02  0.72461581380E+02  0.70000014441E+02 0.  0.
         12    1    1    2    0    0 -0.11761972591E+02 -0.69539831458E+01  0.12805345505E+02  0.18726418620E+02  0.00000000000E+00 0. -1.
         11    1    3    3    0    0 -0.40063955392E+01  0.18011403960E+01  0.17260801800E+02  0.17810968278E+02  0.51100000000E-03 0. -1.
        -11    1    3    3    0    0  0.81645282115E+00 -0.76965238310E+01  0.84028377309E+01  0.11424130448E+02  0.51100000000E-03 0.  1.
        -12    1    3    3    0    0  0.14951915309E+02  0.12849366581E+02 -0.38468985037E+02  0.43226482655E+02  0.00000000000E+00 0.  1.
</event>
<event>
 7    1  0.2684545E-013  0.7246154E+02  0.7816164E-02  0.1226708E+00
        -11   -1    0    0    0    0  0.00000000000E+00  0.00000000000E+00  0.45593999997E+02  0.45594000000E+02  0.51100000000E-03 0.  1.
         11   -1    0    0    0    0 -0.00000000000E+00 -0.00000000000E+00 -0.45593999997E+02  0.45594000000E+02  0.51100000000E-03 0. -1.
    9900012    2    1    2    0    0  0.82736398831E+01  0.16394146284E+02  0.36686685418E+01  0.72461540693E+02  0.69999961439E+02 0.  0.
         12    1    1    2    0    0 -0.82736398831E+01 -0.16394146284E+02 -0.36686685418E+01  0.18726459307E+02  0.00000000000E+00 0. -1.
         11    1    3    3    0    0  0.18592379324E+02 -0.80993172308E+00 -0.13708318912E+02  0.23113860906E+02  0.51100000000E-03 0. -1.
        -11    1    3    3    0    0 -0.58042954666E+01  0.22967779377E+02 -0.63423499255E+01  0.24524154179E+02  0.51100000000E-03 0.  1.
        -12    1    3    3    0    0 -0.45144439741E+01 -0.57637013694E+01  0.23719337380E+02  0.24823525608E+02  0.00000000000E+00 0.  1.
</event>
<event>
 7    1  0.2684545E-013  0.7246161E+02  0.7816164E-02  0.1226708E+00
        -11   -1    0    0    0    0  0.00000000000E+00  0.00000000000E+00  0.45593999997E+02  0.45594000000E+02  0.51100000000E-03 0.  1.
         11   -1    0    0    0    0 -0.00000000000E+00 -0.00000000000E+00 -0.45593999997E+02  0.45594000000E+02  0.51100000000E-03 0. -1.
    9900012    2    1    2    0    0 -0.17253853338E+02 -0.37043880967E+00 -0.72694581319E+01  0.72461609492E+02  0.70000051062E+02 0.  0.
         12    1    1    2    0    0  0.17253853338E+02  0.37043880967E+00  0.72694581319E+01  0.18726390508E+02  0.00000000000E+00 0. -1.
         11    1    3    3    0    0  0.79977940462E+01 -0.22255674947E+02 -0.72113812325E+01  0.24724154111E+02  0.51100000000E-03 0. -1.
        -11    1    3    3    0    0 -0.68408092929E+01 -0.83570997341E+01  0.51254311532E+01  0.11954406406E+02  0.51100000000E-03 0.  1.
        -12    1    3    3    0    0 -0.18410838092E+02  0.30242335872E+02 -0.51835080526E+01  0.35783048975E+02  0.00000000000E+00 0.  1.
</event>
<event>
 7    1  0.2684545E-013  0.7246159E+02  0.7816164E-02  0.1226708E+00
        -11   -1    0    0    0    0  0.00000000000E+00  0.00000000000E+00  0.45593999997E+02  0.45594000000E+02  0.51100000000E-03 0.  1.
         11   -1    0    0    0    0 -0.00000000000E+00 -0.00000000000E+00 -0.45593999997E+02  0.45594000000E+02  0.51100000000E-03 0. -1.
    9900012    2    1    2    0    0  0.37201738156E+01  0.17789555843E+02  0.45133594548E+01  0.72461590737E+02  0.70000026630E+02 0.  0.
         12    1    1    2    0    0 -0.37201738156E+01 -0.17789555843E+02 -0.45133594548E+01  0.18726409263E+02  0.00000000000E+00 0. -1.
         11    1    3    3    0    0 -0.82513085393E+00 -0.88799746233E+01 -0.56205684559E+01  0.10541611844E+02  0.51100000000E-03 0. -1.
        -11    1    3    3    0    0  0.12004959931E+02 -0.82054811522E+01 -0.12921399541E+02  0.19452803146E+02  0.51100000000E-03 0.  1.
        -12    1    3    3    0    0 -0.74596552618E+01  0.34875011619E+02  0.23055327451E+02  0.42467175747E+02  0.00000000000E+00 0.  1.
</event>
<event>
 7    1  0.2684545E-013  0.7246143E+02  0.7816164E-02  0.1226708E+00
        -11   -1    0    0    0    0  0.00000000000E+00  0.00000000000E+00  0.45593999997E+02  0.45594000000E+02  0.51100000000E-03 0.  1.
         11   -1    0    0    0    0 -0.00000000000E+00 -0.00000000000E+00 -0.45593999997E+02  0.45594000000E+02  0.51100000000E-03 0. -1.
    9900012    2    1    2    0    0 -0.16949793435E+02  0.21098238577E+01  0.76770706917E+01  0.72461434148E+02  0.69999822643E+02 0.  0.
         12    1    1    2    0    0  0.16949793435E+02 -0.21098238577E+01 -0.76770706917E+01  0.18726565852E+02  0.00000000000E+00 0. -1.
         11    1    3    3    0    0 -0.85064920653E+01 -0.14189056975E+02 -0.14844049100E+02  0.22226910245E+02  0.51100000000E-03 0. -1.
        -11    1    3    3    0    0 -0.22001645356E+02 -0.20039971180E+01  0.12049680311E+02  0.25165118690E+02  0.51100000000E-03 0.  1.
        -12    1    3    3    0    0  0.13558343986E+02  0.18302877951E+02  0.10471439481E+02  0.25069405213E+02  0.00000000000E+00 0.  1.
</event>
<event>
 7    1  0.2684545E-013  0.7246156E+02  0.7816164E-02  0.1226708E+00
        -11   -1    0    0    0    0  0.00000000000E+00  0.00000000000E+00  0.45593999997E+02  0.45594000000E+02  0.51100000000E-03 0. -1.
         11   -1    0    0    0    0 -0.00000000000E+00 -0.00000000000E+00 -0.45593999997E+02  0.45594000000E+02  0.51100000000E-03 0.  1.
    9900012    2    1    2    0    0 -0.16143341038E+02  0.35208292463E+01 -0.88133825212E+01  0.72461563876E+02  0.69999991639E+02 0.  0.
         12    1    1    2    0    0  0.16143341038E+02 -0.35208292463E+01  0.88133825212E+01  0.18726436124E+02  0.00000000000E+00 0. -1.
         11    1    3    3    0    0 -0.26242303598E+02 -0.25589804164E+02 -0.40022107045E-01  0.36653760753E+02  0.51100000000E-03 0. -1.
        -11    1    3    3    0    0  0.84896706204E+00  0.15872295533E+01 -0.64300150088E+01  0.66772101960E+01  0.51100000000E-03 0.  1.
        -12    1    3    3    0    0  0.92499954987E+01  0.27523403857E+02 -0.23433454054E+01  0.29130592927E+02  0.00000000000E+00 0.  1.
</event>
<event>
 7    1  0.2684545E-013  0.7246157E+02  0.7816164E-02  0.1226708E+00
        -11   -1    0    0    0    0  0.00000000000E+00  0.00000000000E+00  0.45593999997E+02  0.45594000000E+02  0.51100000000E-03 0. -1.
         11   -1    0    0    0    0 -0.00000000000E+00 -0.00000000000E+00 -0.45593999997E+02  0.45594000000E+02  0.51100000000E-03 0.  1.
    9900012    2    1    2    0    0  0.15621698412E+02 -0.90736522111E+01 -0.49305720586E+01  0.72461570374E+02  0.70000000104E+02 0.  0.
         12    1    1    2    0    0 -0.15621698412E+02  0.90736522111E+01  0.49305720586E+01  0.18726429626E+02  0.00000000000E+00 0. -1.
         11    1    3    3    0    0  0.74450630525E+01  0.12245369738E+02 -0.37777378345E+01  0.14820571760E+02  0.51100000000E-03 0. -1.
        -11    1    3    3    0    0  0.17842190002E+02  0.12416628863E+02  0.42077768728E+01  0.22140953070E+02  0.51100000000E-03 0.  1.
        -12    1    3    3    0    0 -0.96655546424E+01 -0.33735650813E+02 -0.53606110969E+01  0.35500045544E+02  0.00000000000E+00 0.  1.
</event>
<event>
 7    1  0.2684545E-013  0.7246157E+02  0.7816164E-02  0.1226708E+00
        -11   -1    0    0    0    0  0.00000000000E+00  0.00000000000E+00  0.45593999997E+02  0.45594000000E+02  0.51100000000E-03 0.  1.
         11   -1    0    0    0    0 -0.00000000000E+00 -0.00000000000E+00 -0.45593999997E+02  0.45594000000E+02  0.51100000000E-03 0. -1.
    9900012    2    1    2    0    0  0.18645808287E+02 -0.15814735348E+00  0.17285995914E+01  0.72461568578E+02  0.69999997764E+02 0.  0.
         12    1    1    2    0    0 -0.18645808287E+02  0.15814735348E+00 -0.17285995914E+01  0.18726431422E+02  0.00000000000E+00 0. -1.
         11    1    3    3    0    0 -0.16270449800E+02  0.18163799081E+02  0.37288431224E+01  0.24668915766E+02  0.51100000000E-03 0. -1.
        -11    1    3    3    0    0  0.16131118595E+02  0.57804012786E+01  0.40125617821E+00  0.17140216826E+02  0.51100000000E-03 0.  1.
        -12    1    3    3    0    0  0.18785139492E+02 -0.24102347713E+02 -0.24014997091E+01  0.30652435986E+02  0.00000000000E+00 0.  1.
</event>
<event>
 7    1  0.2684545E-013  0.7246100E+02  0.7816164E-02  0.1226710E+00
        -11   -1    0    0    0    0  0.00000000000E+00  0.00000000000E+00  0.45593999997E+02  0.45594000000E+02  0.51100000000E-03 0.  1.
         11   -1    0    0    0    0 -0.00000000000E+00 -0.00000000000E+00 -0.45593999997E+02  0.45594000000E+02  0.51100000000E-03 0. -1.
    9900012    2    1    2    0    0  0.84334591541E+00  0.18554861305E+02  0.23888449382E+01  0.72460995687E+02  0.69999251464E+02 0.  0.
         12    1    1    2    0    0 -0.84334591541E+00 -0.18554861305E+02 -0.23888449382E+01  0.18727004313E+02  0.00000000000E+00 0. -1.
         11    1    3    3    0    0 -0.10789373605E+02  0.13147754325E+02 -0.96067069374E+01  0.19533633687E+02  0.51100000000E-03 0. -1.
        -11    1    3    3    0    0 -0.11581032312E+01  0.25603088109E+02 -0.11322442762E+01  0.25654264776E+02  0.51100000000E-03 0.  1.
        -12    1    3    3    0    0  0.12790822752E+02 -0.20195981129E+02  0.13127796152E+02  0.27273097225E+02  0.00000000000E+00 0.  1.
</event>
<event>
 7    1  0.2684545E-013  0.7246161E+02  0.7816164E-02  0.1226708E+00
        -11   -1    0    0    0    0  0.00000000000E+00  0.00000000000E+00  0.45593999997E+02  0.45594000000E+02  0.51100000000E-03 0.  1.
         11   -1    0    0    0    0 -0.00000000000E+00 -0.00000000000E+00 -0.45593999997E+02  0.45594000000E+02  0.51100000000E-03 0. -1.
    9900012    2    1    2    0    0 -0.69974836329E+01  0.96501334109E+01  0.14442564280E+02  0.72461614470E+02  0.70000057547E+02 0.  0.
         12    1    1    2    0    0  0.69974836329E+01 -0.96501334109E+01 -0.14442564280E+02  0.18726385530E+02  0.00000000000E+00 0. -1.
         11    1    3    3    0    0 -0.11892019922E+02  0.36187363969E+00 -0.16999208106E+02  0.20749076289E+02  0.51100000000E-03 0. -1.
        -11    1    3    3    0    0 -0.54267002471E+01  0.22348771140E+02  0.11429013432E+02  0.25681491299E+02  0.51100000000E-03 0.  1.
        -12    1    3    3    0    0  0.10321236536E+02 -0.13060511369E+02  0.20012758954E+02  0.26031046882E+02  0.00000000000E+00 0.  1.
</event>
<event>
 7    1  0.2684545E-013  0.7246158E+02  0.7816164E-02  0.1226708E+00
        -11   -1    0    0    0    0  0.00000000000E+00  0.00000000000E+00  0.45593999997E+02  0.45594000000E+02  0.51100000000E-03 0. -1.
         11   -1    0    0    0    0 -0.00000000000E+00 -0.00000000000E+00 -0.45593999997E+02  0.45594000000E+02  0.51100000000E-03 0.  1.
    9900012    2    1    2    0    0  0.16109477571E+02 -0.95426284999E+01 -0.31884116813E+00  0.72461583205E+02  0.70000016819E+02 0.  0.
         12    1    1    2    0    0 -0.16109477571E+02  0.95426284999E+01  0.31884116813E+00  0.18726416795E+02  0.00000000000E+00 0. -1.
         11    1    3    3    0    0 -0.55598882006E+01 -0.11851311446E+02  0.79507122009E+01  0.15315997015E+02  0.51100000000E-03 0. -1.
        -11    1    3    3    0    0 -0.40417220456E+01 -0.15982595764E+02 -0.17724213609E+02  0.24205921440E+02  0.51100000000E-03 0.  1.
         12    1    3    3    0    0  0.25711087817E+02  0.18291278710E+02  0.94546602403E+01  0.32939664750E+02  0.00000000000E+00 0. -1.
</event>
<event>
 7    1  0.2684545E-013  0.7246157E+02  0.7816164E-02  0.1226708E+00
        -11   -1    0    0    0    0  0.00000000000E+00  0.00000000000E+00  0.45593999997E+02  0.45594000000E+02  0.51100000000E-03 0.  1.
         11   -1    0    0    0    0 -0.00000000000E+00 -0.00000000000E+00 -0.45593999997E+02  0.45594000000E+02  0.51100000000E-03 0. -1.
    9900012    2    1    2    0    0  0.18485563010E+02 -0.25868620918E+01 -0.15071273276E+01  0.72461566061E+02  0.69999994485E+02 0.  0.
         12    1    1    2    0    0 -0.18485563010E+02  0.25868620918E+01  0.15071273276E+01  0.18726433939E+02  0.00000000000E+00 0. -1.
         11    1    3    3    0    0  0.68889079740E+01 -0.21794716528E+02  0.13679316599E+02  0.26638138533E+02  0.51100000000E-03 0. -1.
        -11    1    3    3    0    0  0.41394933193E+01 -0.99376059944E+01 -0.11099864606E+02  0.15462807390E+02  0.51100000000E-03 0.  1.
        -12    1    3    3    0    0  0.74571617172E+01  0.29145460431E+02 -0.40865793207E+01  0.30360620138E+02  0.00000000000E+00 0.  1.
</event>
<event>
 7    1  0.2684545E-013  0.7246157E+02  0.7816164E-02  0.1226708E+00
        -11   -1    0    0    0    0  0.00000000000E+00  0.00000000000E+00  0.45593999997E+02  0.45594000000E+02  0.51100000000E-03 0. -1.
         11   -1    0    0    0    0 -0.00000000000E+00 -0.00000000000E+00 -0.45593999997E+02  0.45594000000E+02  0.51100000000E-03 0.  1.
    9900012    2    1    2    0    0 -0.43036978564E+01 -0.21737467439E+01  0.18095090422E+02  0.72461567144E+02  0.69999995896E+02 0.  0.
         12    1    1    2    0    0  0.43036978564E+01  0.21737467439E+01 -0.18095090422E+02  0.18726432856E+02  0.00000000000E+00 0. -1.
         11    1    3    3    0    0  0.38304491541E+01 -0.18332778209E+02  0.10222521965E+02  0.21336894178E+02  0.51100000000E-03 0. -1.
        -11    1    3    3    0    0  0.68628702495E+00 -0.94309194380E+01  0.19495199362E+02  0.21667395547E+02  0.51100000000E-03 0.  1.
        -12    1    3    3    0    0 -0.88204340355E+01  0.25589950903E+02 -0.11622630906E+02  0.29457277419E+02  0.00000000000E+00 0.  1.
</event>
<event>
 7    1  0.2684545E-013  0.7246162E+02  0.7816164E-02  0.1226708E+00
        -11   -1    0    0    0    0  0.00000000000E+00  0.00000000000E+00  0.45593999997E+02  0.45594000000E+02  0.51100000000E-03 0.  1.
         11   -1    0    0    0    0 -0.00000000000E+00 -0.00000000000E+00 -0.45593999997E+02  0.45594000000E+02  0.51100000000E-03 0. -1.
    9900012    2    1    2    0    0  0.11738425932E+02 -0.67861573609E+01  0.12916448047E+02  0.72461622741E+02  0.70000068322E+02 0.  0.
         12    1    1    2    0    0 -0.11738425932E+02  0.67861573609E+01 -0.12916448047E+02  0.18726377259E+02  0.00000000000E+00 0. -1.
         11    1    3    3    0    0 -0.44248254947E+00 -0.22723933461E+02  0.19903012611E+02  0.30210972411E+02  0.51100000000E-03 0. -1.
        -11    1    3    3    0    0 -0.33000672210E+01 -0.10429759834E+02 -0.25606769080E+00  0.10942390268E+02  0.51100000000E-03 0.  1.
         12    1    3    3    0    0  0.15480975703E+02  0.26367535934E+02 -0.67304968730E+01  0.31308260062E+02  0.00000000000E+00 0. -1.
</event>
<event>
 7    1  0.2684545E-013  0.7246157E+02  0.7816164E-02  0.1226708E+00
        -11   -1    0    0    0    0  0.00000000000E+00  0.00000000000E+00  0.45593999997E+02  0.45594000000E+02  0.51100000000E-03 0.  1.
         11   -1    0    0    0    0 -0.00000000000E+00 -0.00000000000E+00 -0.45593999997E+02  0.45594000000E+02  0.51100000000E-03 0. -1.
    9900012    2    1    2    0    0  0.69731340975E+01  0.66621205216E+01  0.16052122220E+02  0.72461572772E+02  0.70000003227E+02 0.  0.
         12    1    1    2    0    0 -0.69731340975E+01 -0.66621205216E+01 -0.16052122220E+02  0.18726427228E+02  0.00000000000E+00 0. -1.
         11    1    3    3    0    0  0.31575064424E+01  0.23178218046E+02  0.16002869512E+02  0.28342397069E+02  0.51100000000E-03 0. -1.
        -11    1    3    3    0    0 -0.13752978749E+01  0.74540685439E+01  0.13987625313E+02  0.15909375985E+02  0.51100000000E-03 0.  1.
        -12    1    3    3    0    0  0.51909255299E+01 -0.23970166068E+02 -0.13938372605E+02  0.28209799717E+02  0.00000000000E+00 0.  1.
</event>
<event>
 7    1  0.2684545E-013  0.7246158E+02  0.7816164E-02  0.1226708E+00
        -11   -1    0    0    0    0  0.00000000000E+00  0.00000000000E+00  0.45593999997E+02  0.45594000000E+02  0.51100000000E-03 0. -1.
         11   -1    0    0    0    0 -0.00000000000E+00 -0.00000000000E+00 -0.45593999997E+02  0.45594000000E+02  0.51100000000E-03 0.  1.
    9900012    2    1    2    0    0 -0.11102698426E+01 -0.16862443430E+02 -0.80687219377E+01  0.72461575588E+02  0.70000006896E+02 0.  0.
         12    1    1    2    0    0  0.11102698426E+01  0.16862443430E+02  0.80687219377E+01  0.18726424412E+02  0.00000000000E+00 0. -1.
         11    1    3    3    0    0 -0.65531709516E+01  0.97942436768E+01  0.71092329573E+01  0.13762719652E+02  0.51100000000E-03 0. -1.
        -11    1    3    3    0    0 -0.75947203735E+00  0.79601382874E+01 -0.21525300736E+02  0.22962560209E+02  0.51100000000E-03 0.  1.
        -12    1    3    3    0    0  0.62023731464E+01 -0.34616825395E+02  0.63473458405E+01  0.35736295727E+02  0.00000000000E+00 0.  1.
</event>
<event>
 7    1  0.2684545E-013  0.7246158E+02  0.7816164E-02  0.1226708E+00
        -11   -1    0    0    0    0  0.00000000000E+00  0.00000000000E+00  0.45593999997E+02  0.45594000000E+02  0.51100000000E-03 0. -1.
         11   -1    0    0    0    0 -0.00000000000E+00 -0.00000000000E+00 -0.45593999997E+02  0.45594000000E+02  0.51100000000E-03 0.  1.
    9900012    2    1    2    0    0 -0.13226327203E+02  0.33388678226E+00 -0.13252612496E+02  0.72461576166E+02  0.70000007648E+02 0.  0.
         12    1    1    2    0    0  0.13226327203E+02 -0.33388678226E+00  0.13252612496E+02  0.18726423834E+02  0.00000000000E+00 0. -1.
         11    1    3    3    0    0  0.13474249788E+01 -0.19644576385E+01 -0.86419912770E+01  0.89642992687E+01  0.51100000000E-03 0. -1.
        -11    1    3    3    0    0  0.16724295469E+02 -0.63327171556E+01 -0.20623203215E+02  0.27296920644E+02  0.51100000000E-03 0.  1.
         12    1    3    3    0    0 -0.31298047650E+02  0.86310615764E+01  0.16012581996E+02  0.36200356253E+02  0.00000000000E+00 0. -1.
</event>
<event>
 7    1  0.2684545E-013  0.7246161E+02  0.7816164E-02  0.1226708E+00
        -11   -1    0    0    0    0  0.00000000000E+00  0.00000000000E+00  0.45593999997E+02  0.45594000000E+02  0.51100000000E-03 0.  1.
         11   -1    0    0    0    0 -0.00000000000E+00 -0.00000000000E+00 -0.45593999997E+02  0.45594000000E+02  0.51100000000E-03 0. -1.
    9900012    2    1    2    0    0  0.34981093654E+01 -0.10330322261E+01  0.18367740508E+02  0.72461606432E+02  0.70000047076E+02 0.  0.
         12    1    1    2    0    0 -0.34981093654E+01  0.10330322261E+01 -0.18367740508E+02  0.18726393568E+02  0.00000000000E+00 0. -1.
         11    1    3    3    0    0  0.12176752596E+02  0.28721582774E+01 -0.79147292910E+01  0.14804240506E+02  0.51100000000E-03 0. -1.
        -11    1    3    3    0    0 -0.19800647738E+02  0.38008277651E+01  0.35818944274E+02  0.41103633802E+02  0.51100000000E-03 0.  1.
         12    1    3    3    0    0  0.11122004508E+02 -0.77060182685E+01 -0.95364744749E+01  0.16553732124E+02  0.00000000000E+00 0. -1.
</event>
<event>
 7    1  0.2684545E-013  0.7246136E+02  0.7816164E-02  0.1226709E+00
        -11   -1    0    0    0    0  0.00000000000E+00  0.00000000000E+00  0.45593999997E+02  0.45594000000E+02  0.51100000000E-03 0. -1.
         11   -1    0    0    0    0 -0.00000000000E+00 -0.00000000000E+00 -0.45593999997E+02  0.45594000000E+02  0.51100000000E-03 0.  1.
    9900012    2    1    2    0    0 -0.16681797847E+02 -0.82384235815E+01 -0.21291103385E+01  0.72461358194E+02  0.69999723699E+02 0.  0.
         12    1    1    2    0    0  0.16681797847E+02  0.82384235815E+01  0.21291103385E+01  0.18726641806E+02  0.00000000000E+00 0. -1.
         11    1    3    3    0    0 -0.22119403090E+02 -0.20593599047E+02  0.15637946733E+02  0.34028072133E+02  0.51100000000E-03 0. -1.
        -11    1    3    3    0    0 -0.70808987640E+01 -0.74892070121E+01 -0.30983506872E+01  0.10762301158E+02  0.51100000000E-03 0.  1.
         12    1    3    3    0    0  0.12518504007E+02  0.19844382478E+02 -0.14668706385E+02  0.27670984903E+02  0.00000000000E+00 0. -1.
</event>
<event>
 7    1  0.2684545E-013  0.7246160E+02  0.7816164E-02  0.1226708E+00
        -11   -1    0    0    0    0  0.00000000000E+00  0.00000000000E+00  0.45593999997E+02  0.45594000000E+02  0.51100000000E-03 0. -1.
         11   -1    0    0    0    0 -0.00000000000E+00 -0.00000000000E+00 -0.45593999997E+02  0.45594000000E+02  0.51100000000E-03 0.  1.
    9900012    2    1    2    0    0 -0.64895361567E+01  0.27755440272E+01 -0.17345321846E+02  0.72461603814E+02  0.70000043666E+02 0.  0.
         12    1    1    2    0    0  0.64895361567E+01 -0.27755440272E+01  0.17345321846E+02  0.18726396186E+02  0.00000000000E+00 0. -1.
         11    1    3    3    0    0 -0.21680758160E+02  0.78458253689E+01  0.41927514118E+01  0.23434833363E+02  0.51100000000E-03 0. -1.
        -11    1    3    3    0    0 -0.13003084201E+02 -0.86000584655E+01 -0.86130928177E+01  0.17810855468E+02  0.51100000000E-03 0.  1.
        -12    1    3    3    0    0  0.28194306204E+02  0.35297771238E+01 -0.12924980440E+02  0.31215914983E+02  0.00000000000E+00 0.  1.
</event>
<event>
 7    1  0.2684545E-013  0.7246210E+02  0.7816164E-02  0.1226707E+00
        -11   -1    0    0    0    0  0.00000000000E+00  0.00000000000E+00  0.45593999997E+02  0.45594000000E+02  0.51100000000E-03 0. -1.
         11   -1    0    0    0    0 -0.00000000000E+00 -0.00000000000E+00 -0.45593999997E+02  0.45594000000E+02  0.51100000000E-03 0.  1.
    9900012    2    1    2    0    0  0.69014687674E+01  0.15628304866E+02 -0.76671370310E+01  0.72462104176E+02  0.70000695477E+02 0.  0.
         12    1    1    2    0    0 -0.69014687674E+01 -0.15628304866E+02  0.76671370310E+01  0.18725895824E+02  0.00000000000E+00 0. -1.
         11    1    3    3    0    0  0.18457876975E+02  0.13073282086E+02  0.82878801391E+01  0.24089269071E+02  0.51100000000E-03 0. -1.
        -11    1    3    3    0    0  0.43945438341E+01  0.16267897178E+02  0.60754167588E+01  0.17912765927E+02  0.51100000000E-03 0.  1.
        -12    1    3    3    0    0 -0.15950952042E+02 -0.13712874397E+02 -0.22030433929E+02  0.30460069179E+02  0.00000000000E+00 0.  1.
</event>
<event>
 7    1  0.2684545E-013  0.7246158E+02  0.7816164E-02  0.1226708E+00
        -11   -1    0    0    0    0  0.00000000000E+00  0.00000000000E+00  0.45593999997E+02  0.45594000000E+02  0.51100000000E-03 0.  1.
         11   -1    0    0    0    0 -0.00000000000E+00 -0.00000000000E+00 -0.45593999997E+02  0.45594000000E+02  0.51100000000E-03 0. -1.
    9900012    2    1    2    0    0  0.30340123884E+01 -0.57860681216E+00  0.18469942016E+02  0.72461580826E+02  0.70000013719E+02 0.  0.
         12    1    1    2    0    0 -0.30340123884E+01  0.57860681216E+00 -0.18469942016E+02  0.18726419174E+02  0.00000000000E+00 0. -1.
         11    1    3    3    0    0 -0.66134481072E+01  0.18040912274E+02  0.86216091104E+01  0.21060492764E+02  0.51100000000E-03 0. -1.
        -11    1    3    3    0    0 -0.82185875576E+01 -0.82870974438E+01  0.23787249517E+02  0.26496309277E+02  0.51100000000E-03 0.  1.
         12    1    3    3    0    0  0.17866048053E+02 -0.10332421642E+02 -0.13938916611E+02  0.24904778785E+02  0.00000000000E+00 0. -1.
</event>
<event>
 7    1  0.2684545E-013  0.7246158E+02  0.7816164E-02  0.1226708E+00
        -11   -1    0    0    0    0  0.00000000000E+00  0.00000000000E+00  0.45593999997E+02  0.45594000000E+02  0.51100000000E-03 0.  1.
         11   -1    0    0    0    0 -0.00000000000E+00 -0.00000000000E+00 -0.45593999997E+02  0.45594000000E+02  0.51100000000E-03 0. -1.
    9900012    2    1    2    0    0 -0.86314502926E+01 -0.12160757709E+02  0.11326635794E+02  0.72461584416E+02  0.70000018396E+02 0.  0.
         12    1    1    2    0    0  0.86314502926E+01  0.12160757709E+02 -0.11326635794E+02  0.18726415584E+02  0.00000000000E+00 0. -1.
         11    1    3    3    0    0  0.23563239029E+01  0.17649352716E+02 -0.55953899672E+01  0.18664412736E+02  0.51100000000E-03 0. -1.
        -11    1    3    3    0    0 -0.29432133107E+00  0.16421291068E+01 -0.10554930645E+02  0.10685961549E+02  0.51100000000E-03 0.  1.
        -12    1    3    3    0    0 -0.10693452864E+02 -0.31452239531E+02  0.27476956406E+02  0.43111210132E+02  0.00000000000E+00 0.  1.
</event>
<event>
 7    1  0.2684545E-013  0.7246160E+02  0.7816164E-02  0.1226708E+00
        -11   -1    0    0    0    0  0.00000000000E+00  0.00000000000E+00  0.45593999997E+02  0.45594000000E+02  0.51100000000E-03 0. -1.
         11   -1    0    0    0    0 -0.00000000000E+00 -0.00000000000E+00 -0.45593999997E+02  0.45594000000E+02  0.51100000000E-03 0.  1.
    9900012    2    1    2    0    0  0.11064567080E+02 -0.12595746407E+02 -0.83426942146E+01  0.72461601014E+02  0.70000040018E+02 0.  0.
         12    1    1    2    0    0 -0.11064567080E+02  0.12595746407E+02  0.83426942146E+01  0.18726398986E+02  0.00000000000E+00 0. -1.
         11    1    3    3    0    0  0.68604338596E+00  0.12366429222E+02 -0.93418461086E+01  0.15513520432E+02  0.51100000000E-03 0. -1.
        -11    1    3    3    0    0 -0.16695041395E+02 -0.16661530635E+02 -0.11204783909E+02  0.26112797494E+02  0.51100000000E-03 0.  1.
         12    1    3    3    0    0  0.27073565090E+02 -0.83006449941E+01  0.12203935803E+02  0.30835283087E+02  0.00000000000E+00 0. -1.
</event>
<event>
 7    1  0.2684545E-013  0.7246158E+02  0.7816164E-02  0.1226708E+00
        -11   -1    0    0    0    0  0.00000000000E+00  0.00000000000E+00  0.45593999997E+02  0.45594000000E+02  0.51100000000E-03 0. -1.
         11   -1    0    0    0    0 -0.00000000000E+00 -0.00000000000E+00 -0.45593999997E+02  0.45594000000E+02  0.51100000000E-03 0.  1.
    9900012    2    1    2    0    0  0.14888539583E+02  0.17488286323E+01 -0.11222829536E+02  0.72461577083E+02  0.70000008843E+02 0.  0.
         12    1    1    2    0    0 -0.14888539583E+02 -0.17488286323E+01  0.11222829536E+02  0.18726422917E+02  0.00000000000E+00 0. -1.
         11    1    3    3    0    0  0.50875016700E+01 -0.82223920421E+01  0.34243406450E+01  0.10257510090E+02  0.51100000000E-03 0. -1.
        -11    1    3    3    0    0  0.34641861660E+00  0.33972273743E+02 -0.12928273576E+02  0.36350731038E+02  0.51100000000E-03 0.  1.
         12    1    3    3    0    0  0.94546192961E+01 -0.24001053068E+02 -0.17188966042E+01  0.25853335954E+02  0.00000000000E+00 0. -1.
</event>
<event>
 7    1  0.2684545E-013  0.7246157E+02  0.7816164E-02  0.1226708E+00
        -11   -1    0    0    0    0  0.00000000000E+00  0.00000000000E+00  0.45593999997E+02  0.45594000000E+02  0.51100000000E-03 0. -1.
         11   -1    0    0    0    0 -0.00000000000E+00 -0.00000000000E+00 -0.45593999997E+02  0.45594000000E+02  0.51100000000E-03 0.  1.
    9900012    2    1    2    0    0  0.86005523928E+01  0.10950716211E+02 -0.12521637106E+02  0.72461572609E+02  0.70000003016E+02 0.  0.
         12    1    1    2    0    0 -0.86005523928E+01 -0.10950716211E+02  0.12521637106E+02  0.18726427391E+02  0.00000000000E+00 0. -1.
         11    1    3    3    0    0  0.52730720049E+01 -0.54866093538E+00 -0.48056999305E+00  0.53232757744E+01  0.51100000000E-03 0. -1.
        -11    1    3    3    0    0  0.21202658839E+02  0.23018107215E+02 -0.26841848547E+02  0.41229489874E+02  0.51100000000E-03 0.  1.
         12    1    3    3    0    0 -0.17875178451E+02 -0.11518730069E+02  0.14800781433E+02  0.25908806960E+02  0.00000000000E+00 0. -1.
</event>
<event>
 7    1  0.2684545E-013  0.7246156E+02  0.7816164E-02  0.1226708E+00
        -11   -1    0    0    0    0  0.00000000000E+00  0.00000000000E+00  0.45593999997E+02  0.45594000000E+02  0.51100000000E-03 0.  1.
         11   -1    0    0    0    0 -0.00000000000E+00 -0.00000000000E+00 -0.45593999997E+02  0.45594000000E+02  0.51100000000E-03 0. -1.
    9900012    2    1    2    0    0 -0.12443436753E+02  0.12301817093E+01 -0.13940119913E+02  0.72461563915E+02  0.69999991690E+02 0.  0.
         12    1    1    2    0    0  0.12443436753E+02 -0.12301817093E+01  0.13940119913E+02  0.18726436085E+02  0.00000000000E+00 0. -1.
         11    1    3    3    0    0 -0.71502807429E+01 -0.70922652686E+01  0.18260646672E+01  0.10235294513E+02  0.51100000000E-03 0. -1.
        -11    1    3    3    0    0  0.20160361775E+02 -0.90012209037E+01 -0.21601977361E+02  0.30888632065E+02  0.51100000000E-03 0.  1.
         12    1    3    3    0    0 -0.25453517785E+02  0.17323667882E+02  0.58357927812E+01  0.31337637337E+02  0.00000000000E+00 0. -1.
</event>
<event>
 7    1  0.2684545E-013  0.7246164E+02  0.7816164E-02  0.1226708E+00
        -11   -1    0    0    0    0  0.00000000000E+00  0.00000000000E+00  0.45593999997E+02  0.45594000000E+02  0.51100000000E-03 0. -1.
         11   -1    0    0    0    0 -0.00000000000E+00 -0.00000000000E+00 -0.45593999997E+02  0.45594000000E+02  0.51100000000E-03 0.  1.
    9900012    2    1    2    0    0  0.88916009569E+01 -0.35113366294E+01  0.16102371088E+02  0.72461644050E+02  0.70000096080E+02 0.  0.
         12    1    1    2    0    0 -0.88916009569E+01  0.35113366294E+01 -0.16102371088E+02  0.18726355950E+02  0.00000000000E+00 0. -1.
         11    1    3    3    0    0 -0.18608858152E+02 -0.20004221284E+02 -0.30192633478E+00  0.27323060419E+02  0.51100000000E-03 0. -1.
        -11    1    3    3    0    0 -0.55398864364E+01  0.28561715049E+01  0.14931319644E+01  0.64091731696E+01  0.51100000000E-03 0.  1.
        -12    1    3    3    0    0  0.33040345546E+02  0.13636713150E+02  0.14911165459E+02  0.38729410461E+02  0.00000000000E+00 0.  1.
</event>
<event>
 7    1  0.2684545E-013  0.7246156E+02  0.7816164E-02  0.1226708E+00
        -11   -1    0    0    0    0  0.00000000000E+00  0.00000000000E+00  0.45593999997E+02  0.45594000000E+02  0.51100000000E-03 0.  1.
         11   -1    0    0    0    0 -0.00000000000E+00 -0.00000000000E+00 -0.45593999997E+02  0.45594000000E+02  0.51100000000E-03 0. -1.
    9900012    2    1    2    0    0  0.11667337751E+02 -0.14265233894E+02  0.33250216097E+01  0.72461563154E+02  0.69999990698E+02 0.  0.
         12    1    1    2    0    0 -0.11667337751E+02  0.14265233894E+02 -0.33250216097E+01  0.18726436846E+02  0.00000000000E+00 0. -1.
         11    1    3    3    0    0  0.15643222011E+02  0.23479005929E+01 -0.23982072747E+01  0.15999200932E+02  0.51100000000E-03 0. -1.
        -11    1    3    3    0    0  0.23302504115E+02 -0.17053282923E+02  0.35648651601E+01  0.29095178645E+02  0.51100000000E-03 0.  1.
         12    1    3    3    0    0 -0.27278388375E+02  0.44014843586E+00  0.21583637243E+01  0.27367183577E+02  0.00000000000E+00 0. -1.
</event>
<event>
 7    1  0.2684545E-013  0.7246152E+02  0.7816164E-02  0.1226708E+00
        -11   -1    0    0    0    0  0.00000000000E+00  0.00000000000E+00  0.45593999997E+02  0.45594000000E+02  0.51100000000E-03 0.  1.
         11   -1    0    0    0    0 -0.00000000000E+00 -0.00000000000E+00 -0.45593999997E+02  0.45594000000E+02  0.51100000000E-03 0. -1.
    9900012    2    1    2    0    0 -0.52856452009E+01 -0.17846560034E+02  0.20599545333E+01  0.72461517070E+02  0.69999930666E+02 0.  0.
         12    1    1    2    0    0  0.52856452009E+01  0.17846560034E+02 -0.20599545333E+01  0.18726482930E+02  0.00000000000E+00 0. -1.
         11    1    3    3    0    0  0.21916042365E+02 -0.24247279090E+02 -0.12639604734E+02  0.35042874658E+02  0.51100000000E-03 0. -1.
        -11    1    3    3    0    0 -0.27298548693E+01 -0.56457559176E+01 -0.32258851578E+00  0.62793893891E+01  0.51100000000E-03 0.  1.
         12    1    3    3    0    0 -0.24471832697E+02  0.12046474973E+02  0.15022147783E+02  0.31139253023E+02  0.00000000000E+00 0. -1.
</event>
<event>
 7    1  0.2684545E-013  0.7246168E+02  0.7816164E-02  0.1226708E+00
        -11   -1    0    0    0    0  0.00000000000E+00  0.00000000000E+00  0.45593999997E+02  0.45594000000E+02  0.51100000000E-03 0. -1.
         11   -1    0    0    0    0 -0.00000000000E+00 -0.00000000000E+00 -0.45593999997E+02  0.45594000000E+02  0.51100000000E-03 0.  1.
    9900012    2    1    2    0    0 -0.79013807098E+01 -0.61643377119E+01 -0.15819110452E+02  0.72461678097E+02  0.70000140432E+02 0.  0.
         12    1    1    2    0    0  0.79013807098E+01  0.61643377119E+01  0.15819110452E+02  0.18726321903E+02  0.00000000000E+00 0. -1.
         11    1    3    3    0    0 -0.13591638852E+02  0.96147510282E+01 -0.15533011977E+02  0.22769509116E+02  0.51100000000E-03 0. -1.
        -11    1    3    3    0    0 -0.25179555825E+01 -0.23567437245E+02 -0.17240526384E+02  0.29308700907E+02  0.51100000000E-03 0.  1.
         12    1    3    3    0    0  0.82082137244E+01  0.77883485046E+01  0.16954427910E+02  0.20383468074E+02  0.00000000000E+00 0. -1.
</event>
<event>
 7    1  0.2684545E-013  0.7246156E+02  0.7816164E-02  0.1226708E+00
        -11   -1    0    0    0    0  0.00000000000E+00  0.00000000000E+00  0.45593999997E+02  0.45594000000E+02  0.51100000000E-03 0. -1.
         11   -1    0    0    0    0 -0.00000000000E+00 -0.00000000000E+00 -0.45593999997E+02  0.45594000000E+02  0.51100000000E-03 0.  1.
    9900012    2    1    2    0    0  0.16088447337E+02 -0.75143761711E+01 -0.59477262875E+01  0.72461563207E+02  0.69999990768E+02 0.  0.
         12    1    1    2    0    0 -0.16088447337E+02  0.75143761711E+01  0.59477262875E+01  0.18726436793E+02  0.00000000000E+00 0. -1.
         11    1    3    3    0    0  0.36586628066E+01  0.20008541404E+01  0.98286153080E+01  0.10676652563E+02  0.51100000000E-03 0. -1.
        -11    1    3    3    0    0  0.15120513320E+02  0.19435547046E+02 -0.20854932068E+02  0.32269158710E+02  0.51100000000E-03 0.  1.
         12    1    3    3    0    0 -0.26907287895E+01 -0.28950777358E+02  0.50785904723E+01  0.29515751934E+02  0.00000000000E+00 0. -1.
</event>
<event>
 7    1  0.2684545E-013  0.7246160E+02  0.7816164E-02  0.1226708E+00
        -11   -1    0    0    0    0  0.00000000000E+00  0.00000000000E+00  0.45593999997E+02  0.45594000000E+02  0.51100000000E-03 0.  1.
         11   -1    0    0    0    0 -0.00000000000E+00 -0.00000000000E+00 -0.45593999997E+02  0.45594000000E+02  0.51100000000E-03 0. -1.
    9900012    2    1    2    0    0  0.84048856981E+00 -0.57407171136E+00  0.18698721359E+02  0.72461597254E+02  0.70000035119E+02 0.  0.
         12    1    1    2    0    0 -0.84048856981E+00  0.57407171136E+00 -0.18698721359E+02  0.18726402746E+02  0.00000000000E+00 0. -1.
         11    1    3    3    0    0 -0.15752282089E+02  0.70393303792E+01  0.65458761205E+01  0.18453591998E+02  0.51100000000E-03 0. -1.
        -11    1    3    3    0    0 -0.27425882376E+01 -0.24823443967E+02 -0.95599212834E+00  0.24992780594E+02  0.51100000000E-03 0.  1.
         12    1    3    3    0    0  0.19335358896E+02  0.17210041876E+02  0.13108837367E+02  0.29015224661E+02  0.00000000000E+00 0. -1.
</event>
<event>
 7    1  0.2684545E-013  0.7246158E+02  0.7816164E-02  0.1226708E+00
        -11   -1    0    0    0    0  0.00000000000E+00  0.00000000000E+00  0.45593999997E+02  0.45594000000E+02  0.51100000000E-03 0. -1.
         11   -1    0    0    0    0 -0.00000000000E+00 -0.00000000000E+00 -0.45593999997E+02  0.45594000000E+02  0.51100000000E-03 0.  1.
    9900012    2    1    2    0    0 -0.72985761265E+01 -0.17079003476E+02  0.23910701661E+01  0.72461580434E+02  0.70000013209E+02 0.  0.
         12    1    1    2    0    0  0.72985761265E+01  0.17079003476E+02 -0.23910701661E+01  0.18726419566E+02  0.00000000000E+00 0. -1.
         11    1    3    3    0    0  0.66398024086E+01  0.49694493900E+01  0.60600860903E+01  0.10271662326E+02  0.51100000000E-03 0. -1.
        -11    1    3    3    0    0 -0.12791175747E+02  0.58482364454E+01 -0.23885588242E+02  0.27718899192E+02  0.51100000000E-03 0.  1.
        -12    1    3    3    0    0 -0.11472027882E+01 -0.27896689312E+02  0.20216572318E+02  0.34471018915E+02  0.00000000000E+00 0.  1.
</event>
<event>
 7    1  0.2684545E-013  0.7246142E+02  0.7816164E-02  0.1226708E+00
        -11   -1    0    0    0    0  0.00000000000E+00  0.00000000000E+00  0.45593999997E+02  0.45594000000E+02  0.51100000000E-03 0.  1.
         11   -1    0    0    0    0 -0.00000000000E+00 -0.00000000000E+00 -0.45593999997E+02  0.45594000000E+02  0.51100000000E-03 0. -1.
    9900012    2    1    2    0    0  0.93882291099E+01  0.10194934565E+02 -0.12594016544E+02  0.72461420245E+02  0.69999804533E+02 0.  0.
         12    1    1    2    0    0 -0.93882291099E+01 -0.10194934565E+02  0.12594016544E+02  0.18726579755E+02  0.00000000000E+00 0. -1.
         11    1    3    3    0    0  0.52312413302E+01 -0.50159200172E+01  0.26404689117E+01  0.77134568002E+01  0.51100000000E-03 0. -1.
        -11    1    3    3    0    0  0.65252108300E+01  0.10120289405E+02  0.23075690525E+02  0.26028563684E+02  0.51100000000E-03 0.  1.
         12    1    3    3    0    0 -0.23682230504E+01  0.50905651773E+01 -0.38310175980E+02  0.38719399761E+02  0.00000000000E+00 0. -1.
</event>
<event>
 7    1  0.2684545E-013  0.7246160E+02  0.7816164E-02  0.1226708E+00
        -11   -1    0    0    0    0  0.00000000000E+00  0.00000000000E+00  0.45593999997E+02  0.45594000000E+02  0.51100000000E-03 0.  1.
         11   -1    0    0    0    0 -0.00000000000E+00 -0.00000000000E+00 -0.45593999997E+02  0.45594000000E+02  0.51100000000E-03 0. -1.
    9900012    2    1    2    0    0 -0.14478390715E+01  0.14579122381E+02  0.11663238709E+02  0.72461596593E+02  0.70000034259E+02 0.  0.
         12    1    1    2    0    0  0.14478390715E+01 -0.14579122381E+02 -0.11663238709E+02  0.18726403407E+02  0.00000000000E+00 0. -1.
         11    1    3    3    0    0  0.15554775004E+02  0.12143941616E+02  0.38706353927E+01  0.20109902088E+02  0.51100000000E-03 0. -1.
        -11    1    3    3    0    0 -0.74927926446E+01  0.16490755378E+02  0.23197953094E+02  0.29431819219E+02  0.51100000000E-03 0.  1.
        -12    1    3    3    0    0 -0.95098214311E+01 -0.14055574613E+02 -0.15405349778E+02  0.22919875286E+02  0.00000000000E+00 0.  1.
</event>
<event>
 7    1  0.2684545E-013  0.7246157E+02  0.7816164E-02  0.1226708E+00
        -11   -1    0    0    0    0  0.00000000000E+00  0.00000000000E+00  0.45593999997E+02  0.45594000000E+02  0.51100000000E-03 0. -1.
         11   -1    0    0    0    0 -0.00000000000E+00 -0.00000000000E+00 -0.45593999997E+02  0.45594000000E+02  0.51100000000E-03 0.  1.
    9900012    2    1    2    0    0 -0.20666017288E+01  0.18612043946E+02 -0.12176662744E-01  0.72461570260E+02  0.69999999955E+02 0.  0.
         12    1    1    2    0    0  0.20666017288E+01 -0.18612043946E+02  0.12176662744E-01  0.18726429740E+02  0.00000000000E+00 0. -1.
         11    1    3    3    0    0  0.25259295529E+02 -0.46013405772E+01 -0.86529131530E+01  0.27093860043E+02  0.51100000000E-03 0. -1.
        -11    1    3    3    0    0 -0.61853700676E+01  0.16049272261E+02 -0.65093437309E+01  0.18390473052E+02  0.51100000000E-03 0.  1.
         12    1    3    3    0    0 -0.21140527190E+02  0.71641122617E+01  0.15150080221E+02  0.26977237165E+02  0.00000000000E+00 0. -1.
</event>
<event>
 7    1  0.2684545E-013  0.7246155E+02  0.7816164E-02  0.1226708E+00
        -11   -1    0    0    0    0  0.00000000000E+00  0.00000000000E+00  0.45593999997E+02  0.45594000000E+02  0.51100000000E-03 0. -1.
         11   -1    0    0    0    0 -0.00000000000E+00 -0.00000000000E+00 -0.45593999997E+02  0.45594000000E+02  0.51100000000E-03 0.  1.
    9900012    2    1    2    0    0 -0.45225419681E+01  0.16510052068E+02 -0.75924148781E+01  0.72461548953E+02  0.69999972199E+02 0.  0.
         12    1    1    2    0    0  0.45225419681E+01 -0.16510052068E+02  0.75924148781E+01  0.18726451047E+02  0.00000000000E+00 0. -1.
         11    1    3    3    0    0 -0.15180610119E+02 -0.11613805279E+02 -0.39556311470E+01  0.19518668363E+02  0.51100000000E-03 0. -1.
        -11    1    3    3    0    0 -0.14330407967E+02  0.12829436272E+01  0.50633686672E+01  0.15252679744E+02  0.51100000000E-03 0.  1.
        -12    1    3    3    0    0  0.24988476118E+02  0.26840913720E+02 -0.87001523983E+01  0.37690200845E+02  0.00000000000E+00 0.  1.
</event>
<event>
 7    1  0.2684545E-013  0.7246149E+02  0.7816164E-02  0.1226708E+00
        -11   -1    0    0    0    0  0.00000000000E+00  0.00000000000E+00  0.45593999997E+02  0.45594000000E+02  0.51100000000E-03 0. -1.
         11   -1    0    0    0    0 -0.00000000000E+00 -0.00000000000E+00 -0.45593999997E+02  0.45594000000E+02  0.51100000000E-03 0.  1.
    9900012    2    1    2    0    0 -0.20012460012E+01 -0.18557982717E+02 -0.15094885211E+01  0.72461487680E+02  0.69999892380E+02 0.  0.
         12    1    1    2    0    0  0.20012460012E+01  0.18557982717E+02  0.15094885211E+01  0.18726512320E+02  0.00000000000E+00 0. -1.
         11    1    3    3    0    0  0.99513771115E+01  0.26754639024E+00 -0.12839400640E+02  0.16246590305E+02  0.51100000000E-03 0. -1.
        -11    1    3    3    0    0 -0.12168639239E+01 -0.34375061982E+02  0.42677659215E+00  0.34399241018E+02  0.51100000000E-03 0.  1.
         12    1    3    3    0    0 -0.10735759189E+02  0.15549532875E+02  0.10903135526E+02  0.21815656357E+02  0.00000000000E+00 0. -1.
</event>
<event>
 7    1  0.2684545E-013  0.7246196E+02  0.7816164E-02  0.1226707E+00
        -11   -1    0    0    0    0  0.00000000000E+00  0.00000000000E+00  0.45593999997E+02  0.45594000000E+02  0.51100000000E-03 0.  1.
         11   -1    0    0    0    0 -0.00000000000E+00 -0.00000000000E+00 -0.45593999997E+02  0.45594000000E+02  0.51100000000E-03 0. -1.
    9900012    2    1    2    0    0  0.16742210759E+02  0.13597515698E+01 -0.82773219745E+01  0.72461959187E+02  0.70000506604E+02 0.  0.
         12    1    1    2    0    0 -0.16742210759E+02 -0.13597515698E+01  0.82773219745E+01  0.18726040813E+02  0.00000000000E+00 0. -1.
         11    1    3    3    0    0  0.48309820124E+01  0.87617518584E+01  0.93353255046E+01  0.13684114344E+02  0.51100000000E-03 0.  1.
        -11    1    3    3    0    0  0.99639395437E+01 -0.27947254648E+02  0.27352961860E+01  0.29796157120E+02  0.51100000000E-03 0. -1.
         12    1    3    3    0    0  0.19472892033E+01  0.20545254360E+02 -0.20347943665E+02  0.28981687724E+02  0.00000000000E+00 0. -1.
</event>
<event>
 7    1  0.2684545E-013  0.7246159E+02  0.7816164E-02  0.1226708E+00
        -11   -1    0    0    0    0  0.00000000000E+00  0.00000000000E+00  0.45593999997E+02  0.45594000000E+02  0.51100000000E-03 0. -1.
         11   -1    0    0    0    0 -0.00000000000E+00 -0.00000000000E+00 -0.45593999997E+02  0.45594000000E+02  0.51100000000E-03 0.  1.
    9900012    2    1    2    0    0 -0.13838633800E+02  0.11597141995E+02 -0.49675935939E+01  0.72461588865E+02  0.70000024191E+02 0.  0.
         12    1    1    2    0    0  0.13838633800E+02 -0.11597141995E+02  0.49675935939E+01  0.18726411135E+02  0.00000000000E+00 0. -1.
         11    1    3    3    0    0 -0.18299383182E+02  0.29331527477E+02  0.12613863052E+02  0.36801025398E+02  0.51100000000E-03 0. -1.
        -11    1    3    3    0    0 -0.60424915696E+01 -0.82631734301E+01  0.30188838457E+01  0.10672647255E+02  0.51100000000E-03 0.  1.
        -12    1    3    3    0    0  0.10503240952E+02 -0.94712120516E+01 -0.20600340492E+02  0.24987916212E+02  0.00000000000E+00 0.  1.
</event>
<event>
 7    1  0.2684545E-013  0.7246158E+02  0.7816164E-02  0.1226708E+00
        -11   -1    0    0    0    0  0.00000000000E+00  0.00000000000E+00  0.45593999997E+02  0.45594000000E+02  0.51100000000E-03 0.  1.
         11   -1    0    0    0    0 -0.00000000000E+00 -0.00000000000E+00 -0.45593999997E+02  0.45594000000E+02  0.51100000000E-03 0. -1.
    9900012    2    1    2    0    0 -0.11169897685E+02 -0.14728720626E+02 -0.29961714438E+01  0.72461578321E+02  0.70000010457E+02 0.  0.
         12    1    1    2    0    0  0.11169897685E+02  0.14728720626E+02  0.29961714438E+01  0.18726421679E+02  0.00000000000E+00 0. -1.
         11    1    3    3    0    0  0.15077377767E+02 -0.19862518441E+02 -0.25109492663E+02  0.35388325493E+02  0.51100000000E-03 0. -1.
        -11    1    3    3    0    0 -0.31670071400E+01  0.35508788789E+01 -0.42245105440E+00  0.47767290264E+01  0.51100000000E-03 0.  1.
        -12    1    3    3    0    0 -0.23080268312E+02  0.15829189369E+01  0.22535772274E+02  0.32296523802E+02  0.00000000000E+00 0.  1.
</event>
<event>
 7    1  0.2684545E-013  0.7246168E+02  0.7816164E-02  0.1226708E+00
        -11   -1    0    0    0    0  0.00000000000E+00  0.00000000000E+00  0.45593999997E+02  0.45594000000E+02  0.51100000000E-03 0.  1.
         11   -1    0    0    0    0 -0.00000000000E+00 -0.00000000000E+00 -0.45593999997E+02  0.45594000000E+02  0.51100000000E-03 0. -1.
    9900012    2    1    2    0    0  0.45540893580E+01 -0.97813450557E+01  0.15305569522E+02  0.72461684308E+02  0.70000148524E+02 0.  0.
         12    1    1    2    0    0 -0.45540893580E+01  0.97813450557E+01 -0.15305569522E+02  0.18726315692E+02  0.00000000000E+00 0. -1.
         11    1    3    3    0    0 -0.61805622994E+01 -0.24590585515E+01  0.21719487139E+02  0.22715246887E+02  0.51100000000E-03 0. -1.
        -11    1    3    3    0    0  0.25150855153E+02 -0.12769227391E+02  0.72793481597E+01  0.29130870103E+02  0.51100000000E-03 0.  1.
         12    1    3    3    0    0 -0.14416203495E+02  0.54469408868E+01 -0.13693265776E+02  0.20615567318E+02  0.00000000000E+00 0. -1.
</event>
<event>
 7    1  0.2684545E-013  0.7246158E+02  0.7816164E-02  0.1226708E+00
        -11   -1    0    0    0    0  0.00000000000E+00  0.00000000000E+00  0.45593999997E+02  0.45594000000E+02  0.51100000000E-03 0.  1.
         11   -1    0    0    0    0 -0.00000000000E+00 -0.00000000000E+00 -0.45593999997E+02  0.45594000000E+02  0.51100000000E-03 0. -1.
    9900012    2    1    2    0    0  0.36489670256E+01  0.88666726252E+01  0.16085583469E+02  0.72461579110E+02  0.70000011485E+02 0.  0.
         12    1    1    2    0    0 -0.36489670256E+01 -0.88666726252E+01 -0.16085583469E+02  0.18726420890E+02  0.00000000000E+00 0. -1.
         11    1    3    3    0    0  0.59048503766E+01  0.75460395885E+01 -0.75927264876E+00  0.96117879012E+01  0.51100000000E-03 0. -1.
        -11    1    3    3    0    0  0.17084030039E+02 -0.67385873372E+01 -0.15688363094E+02  0.24153620401E+02  0.51100000000E-03 0.  1.
        -12    1    3    3    0    0 -0.19339913390E+02  0.80592203739E+01  0.32533219211E+02  0.38696170808E+02  0.00000000000E+00 0.  1.
</event>
<event>
 7    1  0.2684545E-013  0.7246153E+02  0.7816164E-02  0.1226708E+00
        -11   -1    0    0    0    0  0.00000000000E+00  0.00000000000E+00  0.45593999997E+02  0.45594000000E+02  0.51100000000E-03 0.  1.
         11   -1    0    0    0    0 -0.00000000000E+00 -0.00000000000E+00 -0.45593999997E+02  0.45594000000E+02  0.51100000000E-03 0. -1.
    9900012    2    1    2    0    0 -0.98829611775E+01 -0.12032659468E+02  0.10403022391E+02  0.72461529687E+02  0.69999947102E+02 0.  0.
         12    1    1    2    0    0  0.98829611775E+01  0.12032659468E+02 -0.10403022391E+02  0.18726470313E+02  0.00000000000E+00 0. -1.
         11    1    3    3    0    0 -0.10622895736E+02 -0.58248011575E+01  0.92544377028E+01  0.15245289102E+02  0.51100000000E-03 0. -1.
        -11    1    3    3    0    0  0.14119628888E+02 -0.27787210878E+02  0.48945910093E+01  0.31550753235E+02  0.51100000000E-03 0.  1.
         12    1    3    3    0    0 -0.13379694329E+02  0.21579352568E+02 -0.37460063210E+01  0.25665487350E+02  0.00000000000E+00 0. -1.
</event>
<event>
 7    1  0.2684545E-013  0.7246160E+02  0.7816164E-02  0.1226708E+00
        -11   -1    0    0    0    0  0.00000000000E+00  0.00000000000E+00  0.45593999997E+02  0.45594000000E+02  0.51100000000E-03 0.  1.
         11   -1    0    0    0    0 -0.00000000000E+00 -0.00000000000E+00 -0.45593999997E+02  0.45594000000E+02  0.51100000000E-03 0. -1.
    9900012    2    1    2    0    0 -0.32234017466E+01  0.73372484591E+01  0.16924905255E+02  0.72461602811E+02  0.70000042360E+02 0.  0.
         12    1    1    2    0    0  0.32234017466E+01 -0.73372484591E+01 -0.16924905255E+02  0.18726397189E+02  0.00000000000E+00 0. -1.
         11    1    3    3    0    0  0.10075350429E+01 -0.31265568755E+01 -0.12187922518E+02  0.12622834084E+02  0.51100000000E-03 0. -1.
        -11    1    3    3    0    0  0.12563426711E+02 -0.14083577014E+02  0.97926706791E+00  0.18898301418E+02  0.51100000000E-03 0.  1.
         12    1    3    3    0    0 -0.16794363501E+02  0.24547382348E+02  0.28133560705E+02  0.40940467309E+02  0.00000000000E+00 0. -1.
</event>
<event>
 7    1  0.2684545E-013  0.7246157E+02  0.7816164E-02  0.1226708E+00
        -11   -1    0    0    0    0  0.00000000000E+00  0.00000000000E+00  0.45593999997E+02  0.45594000000E+02  0.51100000000E-03 0.  1.
         11   -1    0    0    0    0 -0.00000000000E+00 -0.00000000000E+00 -0.45593999997E+02  0.45594000000E+02  0.51100000000E-03 0. -1.
    9900012    2    1    2    0    0 -0.14970146579E+02  0.34634671606E+01  0.10704121639E+02  0.72461571792E+02  0.70000001951E+02 0.  0.
         12    1    1    2    0    0  0.14970146579E+02 -0.34634671606E+01 -0.10704121639E+02  0.18726428208E+02  0.00000000000E+00 0. -1.
         11    1    3    3    0    0  0.79219328501E+01  0.32021858877E+01 -0.23936877706E+02  0.25416237509E+02  0.51100000000E-03 0. -1.
        -11    1    3    3    0    0 -0.67713003365E+01  0.96424180012E+00 -0.19012959886E+01  0.70989574723E+01  0.51100000000E-03 0.  1.
        -12    1    3    3    0    0 -0.16120779093E+02 -0.70296052717E+00  0.36542295333E+02  0.39946376811E+02  0.00000000000E+00 0.  1.
</event>
<event>
 7    1  0.2684545E-013  0.7246148E+02  0.7816164E-02  0.1226708E+00
        -11   -1    0    0    0    0  0.00000000000E+00  0.00000000000E+00  0.45593999997E+02  0.45594000000E+02  0.51100000000E-03 0.  1.
         11   -1    0    0    0    0 -0.00000000000E+00 -0.00000000000E+00 -0.45593999997E+02  0.45594000000E+02  0.51100000000E-03 0. -1.
    9900012    2    1    2    0    0 -0.11179568917E+02 -0.10530091153E+02  0.10715259754E+02  0.72461484775E+02  0.69999888595E+02 0.  0.
         12    1    1    2    0    0  0.11179568917E+02  0.10530091153E+02 -0.10715259754E+02  0.18726515225E+02  0.00000000000E+00 0. -1.
         11    1    3    3    0    0  0.12445176576E+02  0.45233252729E+01  0.10301904257E+02  0.16777130956E+02  0.51100000000E-03 0. -1.
        -11    1    3    3    0    0  0.41354705742E+01 -0.69607498568E+01  0.19447880056E+02  0.21065948693E+02  0.51100000000E-03 0.  1.
         12    1    3    3    0    0 -0.27760216067E+02 -0.80926665695E+01 -0.19034524558E+02  0.34618405126E+02  0.00000000000E+00 0. -1.
</event>
<event>
 7    1  0.2684545E-013  0.7246157E+02  0.7816164E-02  0.1226708E+00
        -11   -1    0    0    0    0  0.00000000000E+00  0.00000000000E+00  0.45593999997E+02  0.45594000000E+02  0.51100000000E-03 0.  1.
         11   -1    0    0    0    0 -0.00000000000E+00 -0.00000000000E+00 -0.45593999997E+02  0.45594000000E+02  0.51100000000E-03 0. -1.
    9900012    2    1    2    0    0 -0.34353487539E+01 -0.18402234873E+02  0.48493419487E+00  0.72461574004E+02  0.70000004833E+02 0.  0.
         12    1    1    2    0    0  0.34353487539E+01  0.18402234873E+02 -0.48493419487E+00  0.18726425996E+02  0.00000000000E+00 0. -1.
         11    1    3    3    0    0  0.56811336824E+01 -0.95361530868E+01 -0.31470117939E+02  0.33370373372E+02  0.51100000000E-03 0. -1.
        -11    1    3    3    0    0 -0.49017536426E+01 -0.89117692468E+01  0.41770074556E+01  0.10995190377E+02  0.51100000000E-03 0.  1.
        -12    1    3    3    0    0 -0.42147287937E+01  0.45687460255E-01  0.27778044678E+02  0.28096010256E+02  0.00000000000E+00 0.  1.
</event>
<event>
 7    1  0.2684545E-013  0.7246170E+02  0.7816164E-02  0.1226708E+00
        -11   -1    0    0    0    0  0.00000000000E+00  0.00000000000E+00  0.45593999997E+02  0.45594000000E+02  0.51100000000E-03 0.  1.
         11   -1    0    0    0    0 -0.00000000000E+00 -0.00000000000E+00 -0.45593999997E+02  0.45594000000E+02  0.51100000000E-03 0. -1.
    9900012    2    1    2    0    0  0.61900922020E+01  0.16972414862E+02 -0.49289109083E+01  0.72461701101E+02  0.70000170400E+02 0.  0.
         12    1    1    2    0    0 -0.61900922020E+01 -0.16972414862E+02  0.49289109083E+01  0.18726298899E+02  0.00000000000E+00 0. -1.
         11    1    3    3    0    0  0.15545731335E+02  0.99363298961E+01  0.46798444272E+01  0.19034215472E+02  0.51100000000E-03 0. -1.
        -11    1    3    3    0    0 -0.14883055992E+02  0.20272138550E+02  0.11702796102E+02  0.27738428108E+02  0.51100000000E-03 0.  1.
         12    1    3    3    0    0  0.55274168594E+01 -0.13236053584E+02 -0.21311551437E+02  0.25689057520E+02  0.00000000000E+00 0. -1.
</event>
<event>
 7    1  0.2684545E-013  0.7246159E+02  0.7816164E-02  0.1226708E+00
        -11   -1    0    0    0    0  0.00000000000E+00  0.00000000000E+00  0.45593999997E+02  0.45594000000E+02  0.51100000000E-03 0.  1.
         11   -1    0    0    0    0 -0.00000000000E+00 -0.00000000000E+00 -0.45593999997E+02  0.45594000000E+02  0.51100000000E-03 0. -1.
    9900012    2    1    2    0    0 -0.12680452112E+02 -0.12475403848E+02 -0.58522499263E+01  0.72461590944E+02  0.70000026900E+02 0.  0.
         12    1    1    2    0    0  0.12680452112E+02  0.12475403848E+02  0.58522499263E+01  0.18726409056E+02  0.00000000000E+00 0. -1.
         11    1    3    3    0    0  0.93143596329E+00 -0.92102254869E+01 -0.11770460511E+02  0.14974630793E+02  0.51100000000E-03 0. -1.
        -11    1    3    3    0    0 -0.17618126887E+02 -0.27472840544E+02  0.38501476595E+01  0.32863033941E+02  0.51100000000E-03 0.  1.
         12    1    3    3    0    0  0.40062388117E+01  0.24207662182E+02  0.20680629255E+01  0.24623926210E+02  0.00000000000E+00 0. -1.
</event>
<event>
 7    1  0.2684545E-013  0.7246156E+02  0.7816164E-02  0.1226708E+00
        -11   -1    0    0    0    0  0.00000000000E+00  0.00000000000E+00  0.45593999997E+02  0.45594000000E+02  0.51100000000E-03 0. -1.
         11   -1    0    0    0    0 -0.00000000000E+00 -0.00000000000E+00 -0.45593999997E+02  0.45594000000E+02  0.51100000000E-03 0.  1.
    9900012    2    1    2    0    0  0.43657777008E+01 -0.18145892544E+02  0.15317043700E+01  0.72461560151E+02  0.69999986786E+02 0.  0.
         12    1    1    2    0    0 -0.43657777008E+01  0.18145892544E+02 -0.15317043700E+01  0.18726439849E+02  0.00000000000E+00 0. -1.
         11    1    3    3    0    0  0.16995801134E+02 -0.32479398869E+02 -0.19367841972E+02  0.41459400743E+02  0.51100000000E-03 0.  1.
        -11    1    3    3    0    0 -0.34937006757E+01  0.78426547187E+01  0.17159044528E+02  0.19187130761E+02  0.51100000000E-03 0. -1.
        -12    1    3    3    0    0 -0.91363227577E+01  0.64908516062E+01  0.37405018142E+01  0.11815028647E+02  0.00000000000E+00 0.  1.
</event>
<event>
 7    1  0.2684545E-013  0.7246157E+02  0.7816164E-02  0.1226708E+00
        -11   -1    0    0    0    0  0.00000000000E+00  0.00000000000E+00  0.45593999997E+02  0.45594000000E+02  0.51100000000E-03 0.  1.
         11   -1    0    0    0    0 -0.00000000000E+00 -0.00000000000E+00 -0.45593999997E+02  0.45594000000E+02  0.51100000000E-03 0. -1.
    9900012    2    1    2    0    0  0.24055873164E+01 -0.41682348358E+01  0.18097466972E+02  0.72461565668E+02  0.69999993974E+02 0.  0.
         12    1    1    2    0    0 -0.24055873164E+01  0.41682348358E+01 -0.18097466972E+02  0.18726434332E+02  0.00000000000E+00 0. -1.
         11    1    3    3    0    0 -0.99797652278E+01 -0.88950820396E+01  0.11115908650E+02  0.17386248125E+02  0.51100000000E-03 0. -1.
        -11    1    3    3    0    0 -0.19064410961E+01 -0.13399483868E+02  0.23203546682E+02  0.26862339147E+02  0.51100000000E-03 0.  1.
         12    1    3    3    0    0  0.14291793640E+02  0.18126331072E+02 -0.16221988361E+02  0.28212978396E+02  0.00000000000E+00 0. -1.
</event>
<event>
 7    1  0.2684545E-013  0.7246159E+02  0.7816164E-02  0.1226708E+00
        -11   -1    0    0    0    0  0.00000000000E+00  0.00000000000E+00  0.45593999997E+02  0.45594000000E+02  0.51100000000E-03 0.  1.
         11   -1    0    0    0    0 -0.00000000000E+00 -0.00000000000E+00 -0.45593999997E+02  0.45594000000E+02  0.51100000000E-03 0. -1.
    9900012    2    1    2    0    0  0.45133260901E+01  0.68653806417E+01  0.16827795395E+02  0.72461594536E+02  0.70000031579E+02 0.  0.
         12    1    1    2    0    0 -0.45133260901E+01 -0.68653806417E+01 -0.16827795395E+02  0.18726405464E+02  0.00000000000E+00 0. -1.
         11    1    3    3    0    0  0.66935731020E+00  0.10388620178E+02  0.74748107209E+01  0.12815781833E+02  0.51100000000E-03 0. -1.
        -11    1    3    3    0    0  0.19512518375E+02  0.18854480723E+02  0.16041867724E+02  0.31520966625E+02  0.51100000000E-03 0.  1.
         12    1    3    3    0    0 -0.15668549595E+02 -0.22377720260E+02 -0.66888830497E+01  0.28124846078E+02  0.00000000000E+00 0. -1.
</event>
<event>
 7    1  0.2684545E-013  0.7246156E+02  0.7816164E-02  0.1226708E+00
        -11   -1    0    0    0    0  0.00000000000E+00  0.00000000000E+00  0.45593999997E+02  0.45594000000E+02  0.51100000000E-03 0.  1.
         11   -1    0    0    0    0 -0.00000000000E+00 -0.00000000000E+00 -0.45593999997E+02  0.45594000000E+02  0.51100000000E-03 0. -1.
    9900012    2    1    2    0    0 -0.13609008239E+02  0.69334048885E+01  0.10835238810E+02  0.72461558569E+02  0.69999984726E+02 0.  0.
         12    1    1    2    0    0  0.13609008239E+02 -0.69334048885E+01 -0.10835238810E+02  0.18726441431E+02  0.00000000000E+00 0. -1.
         11    1    3    3    0    0  0.27166114251E+01 -0.12593783989E+00 -0.89604821238E+01  0.93640844788E+01  0.51100000000E-03 0. -1.
        -11    1    3    3    0    0 -0.87028754085E+01  0.31111254394E+02  0.22865922796E+01  0.32386396756E+02  0.51100000000E-03 0.  1.
         12    1    3    3    0    0 -0.76227442554E+01 -0.24051911666E+02  0.17509128655E+02  0.30711077334E+02  0.00000000000E+00 0. -1.
</event>
<event>
 7    1  0.2684545E-013  0.7246148E+02  0.7816164E-02  0.1226708E+00
        -11   -1    0    0    0    0  0.00000000000E+00  0.00000000000E+00  0.45593999997E+02  0.45594000000E+02  0.51100000000E-03 0. -1.
         11   -1    0    0    0    0 -0.00000000000E+00 -0.00000000000E+00 -0.45593999997E+02  0.45594000000E+02  0.51100000000E-03 0.  1.
    9900012    2    1    2    0    0  0.90886533348E+01  0.11232166988E+02 -0.11912909182E+02  0.72461478703E+02  0.69999880686E+02 0.  0.
         12    1    1    2    0    0 -0.90886533348E+01 -0.11232166988E+02  0.11912909182E+02  0.18726521297E+02  0.00000000000E+00 0. -1.
         11    1    3    3    0    0 -0.39662486718E+01  0.13441168054E+02 -0.20190688364E+02  0.24577632597E+02  0.51100000000E-03 0.  1.
        -11    1    3    3    0    0  0.59194409095E+01 -0.66466086417E+01  0.26426066600E+02  0.27884658566E+02  0.51100000000E-03 0. -1.
         12    1    3    3    0    0  0.71354610971E+01  0.44376075757E+01 -0.18148287418E+02  0.19999187540E+02  0.00000000000E+00 0. -1.
</event>
<event>
 7    1  0.2684545E-013  0.7246152E+02  0.7816164E-02  0.1226708E+00
        -11   -1    0    0    0    0  0.00000000000E+00  0.00000000000E+00  0.45593999997E+02  0.45594000000E+02  0.51100000000E-03 0.  1.
         11   -1    0    0    0    0 -0.00000000000E+00 -0.00000000000E+00 -0.45593999997E+02  0.45594000000E+02  0.51100000000E-03 0. -1.
    9900012    2    1    2    0    0 -0.15261429478E+02  0.10849906403E+02  0.22248835757E+00  0.72461516087E+02  0.69999929385E+02 0.  0.
         12    1    1    2    0    0  0.15261429478E+02 -0.10849906403E+02 -0.22248835757E+00  0.18726483913E+02  0.00000000000E+00 0. -1.
         11    1    3    3    0    0 -0.55238983208E+00  0.17448957527E+01  0.81964836383E+01  0.83983415035E+01  0.51100000000E-03 0. -1.
        -11    1    3    3    0    0 -0.25019342445E+02 -0.27623720976E+01  0.19882665496E+02  0.32076760800E+02  0.51100000000E-03 0.  1.
         12    1    3    3    0    0  0.10310302799E+02  0.11867382748E+02 -0.27856660777E+02  0.31986413783E+02  0.00000000000E+00 0. -1.
</event>
<event>
 7    1  0.2684545E-013  0.7246154E+02  0.7816164E-02  0.1226708E+00
        -11   -1    0    0    0    0  0.00000000000E+00  0.00000000000E+00  0.45593999997E+02  0.45594000000E+02  0.51100000000E-03 0. -1.
         11   -1    0    0    0    0 -0.00000000000E+00 -0.00000000000E+00 -0.45593999997E+02  0.45594000000E+02  0.51100000000E-03 0.  1.
    9900012    2    1    2    0    0  0.45423325932E+01  0.13498773101E+02 -0.12158555266E+02  0.72461544735E+02  0.69999966705E+02 0.  0.
         12    1    1    2    0    0 -0.45423325932E+01 -0.13498773101E+02  0.12158555266E+02  0.18726455265E+02  0.00000000000E+00 0. -1.
         11    1    3    3    0    0  0.22750211246E+01 -0.20841001277E+01  0.87723771273E+01  0.92991287326E+01  0.51100000000E-03 0. -1.
        -11    1    3    3    0    0  0.26750581391E+01  0.31886038901E+02  0.51426721964E+01  0.32408679245E+02  0.51100000000E-03 0.  1.
        -12    1    3    3    0    0 -0.40774667054E+00 -0.16303165672E+02 -0.26073604590E+02  0.30753736758E+02  0.00000000000E+00 0.  1.
</event>
<event>
 7    1  0.2684545E-013  0.7246157E+02  0.7816164E-02  0.1226708E+00
        -11   -1    0    0    0    0  0.00000000000E+00  0.00000000000E+00  0.45593999997E+02  0.45594000000E+02  0.51100000000E-03 0. -1.
         11   -1    0    0    0    0 -0.00000000000E+00 -0.00000000000E+00 -0.45593999997E+02  0.45594000000E+02  0.51100000000E-03 0.  1.
    9900012    2    1    2    0    0  0.14015071087E+02 -0.55267063098E+01 -0.11122617930E+02  0.72461566014E+02  0.69999994424E+02 0.  0.
         12    1    1    2    0    0 -0.14015071087E+02  0.55267063098E+01  0.11122617930E+02  0.18726433986E+02  0.00000000000E+00 0. -1.
         11    1    3    3    0    0 -0.25918789624E+02 -0.46620688974E+01 -0.16441522676E+02  0.31045808254E+02  0.51100000000E-03 0. -1.
        -11    1    3    3    0    0  0.10663060087E+02  0.26621780204E+01 -0.16691778355E+01  0.11116393171E+02  0.51100000000E-03 0.  1.
        -12    1    3    3    0    0  0.29270800625E+02 -0.35268154328E+01  0.69880825817E+01  0.30299364589E+02  0.00000000000E+00 0.  1.
</event>
<event>
 7    1  0.2684545E-013  0.7246158E+02  0.7816164E-02  0.1226708E+00
        -11   -1    0    0    0    0  0.00000000000E+00  0.00000000000E+00  0.45593999997E+02  0.45594000000E+02  0.51100000000E-03 0.  1.
         11   -1    0    0    0    0 -0.00000000000E+00 -0.00000000000E+00 -0.45593999997E+02  0.45594000000E+02  0.51100000000E-03 0. -1.
    9900012    2    1    2    0    0  0.16772505784E+02  0.64145133810E+01  0.53118750180E+01  0.72461576198E+02  0.70000007691E+02 0.  0.
         12    1    1    2    0    0 -0.16772505784E+02 -0.64145133810E+01 -0.53118750180E+01  0.18726423802E+02  0.00000000000E+00 0. -1.
         11    1    3    3    0    0 -0.11596744019E+01  0.38379927133E+01 -0.11230024650E+02  0.11924281391E+02  0.51100000000E-03 0. -1.
        -11    1    3    3    0    0 -0.44344994621E+01  0.25523570207E+02  0.44384352808E+01  0.26283400267E+02  0.51100000000E-03 0.  1.
         12    1    3    3    0    0  0.22366679648E+02 -0.22947049539E+02  0.12103464387E+02  0.34253894541E+02  0.00000000000E+00 0. -1.
</event>
<event>
 7    1  0.2684545E-013  0.7246158E+02  0.7816164E-02  0.1226708E+00
        -11   -1    0    0    0    0  0.00000000000E+00  0.00000000000E+00  0.45593999997E+02  0.45594000000E+02  0.51100000000E-03 0.  1.
         11   -1    0    0    0    0 -0.00000000000E+00 -0.00000000000E+00 -0.45593999997E+02  0.45594000000E+02  0.51100000000E-03 0. -1.
    9900012    2    1    2    0    0  0.48972178063E+01  0.12271833821E+02 -0.13270200476E+02  0.72461578338E+02  0.70000010479E+02 0.  0.
         12    1    1    2    0    0 -0.48972178063E+01 -0.12271833821E+02  0.13270200476E+02  0.18726421662E+02  0.00000000000E+00 0. -1.
         11    1    3    3    0    0 -0.30615175721E+01 -0.10440253050E+02 -0.23695500270E+02  0.26073904712E+02  0.51100000000E-03 0. -1.
        -11    1    3    3    0    0  0.81300075223E+01 -0.95942085956E+01  0.47990098431E+00  0.12584759279E+02  0.51100000000E-03 0.  1.
        -12    1    3    3    0    0 -0.17127214382E+00  0.32306295467E+02  0.99453988102E+01  0.33802914348E+02  0.00000000000E+00 0.  1.
</event>
<event>
 7    1  0.2684545E-013  0.7246151E+02  0.7816164E-02  0.1226708E+00
        -11   -1    0    0    0    0  0.00000000000E+00  0.00000000000E+00  0.45593999997E+02  0.45594000000E+02  0.51100000000E-03 0.  1.
         11   -1    0    0    0    0 -0.00000000000E+00 -0.00000000000E+00 -0.45593999997E+02  0.45594000000E+02  0.51100000000E-03 0. -1.
    9900012    2    1    2    0    0 -0.12393044083E+02 -0.86566522983E+01  0.11052429283E+02  0.72461511709E+02  0.69999923682E+02 0.  0.
         12    1    1    2    0    0  0.12393044083E+02  0.86566522983E+01 -0.11052429283E+02  0.18726488291E+02  0.00000000000E+00 0. -1.
         11    1    3    3    0    0 -0.15730736621E+02  0.24749325779E+02 -0.46530210895E+01  0.29692352663E+02  0.51100000000E-03 0. -1.
        -11    1    3    3    0    0 -0.76022010952E+01 -0.14254628570E+02  0.85080674262E+00  0.16177508137E+02  0.51100000000E-03 0.  1.
        -12    1    3    3    0    0  0.10939893633E+02 -0.19151349508E+02  0.14854643630E+02  0.26591650909E+02  0.00000000000E+00 0.  1.
</event>
<event>
 7    1  0.2684545E-013  0.7246152E+02  0.7816164E-02  0.1226708E+00
        -11   -1    0    0    0    0  0.00000000000E+00  0.00000000000E+00  0.45593999997E+02  0.45594000000E+02  0.51100000000E-03 0.  1.
         11   -1    0    0    0    0 -0.00000000000E+00 -0.00000000000E+00 -0.45593999997E+02  0.45594000000E+02  0.51100000000E-03 0. -1.
    9900012    2    1    2    0    0 -0.88981802283E+00  0.66479639043E+01  0.17484107699E+02  0.72461515487E+02  0.69999928603E+02 0.  0.
         12    1    1    2    0    0  0.88981802283E+00 -0.66479639043E+01 -0.17484107699E+02  0.18726484513E+02  0.00000000000E+00 0. -1.
         11    1    3    3    0    0 -0.27139510370E+02 -0.53686000297E+01 -0.91871912823E+01  0.29150975512E+02  0.51100000000E-03 0. -1.
        -11    1    3    3    0    0 -0.20463217824E+01 -0.11052709963E+01  0.44263607443E+01  0.50001726483E+01  0.51100000000E-03 0.  1.
        -12    1    3    3    0    0  0.28296014129E+02  0.13121834930E+02  0.22244938237E+02  0.38310367327E+02  0.00000000000E+00 0.  1.
</event>
<event>
 7    1  0.2684545E-013  0.7246154E+02  0.7816164E-02  0.1226708E+00
        -11   -1    0    0    0    0  0.00000000000E+00  0.00000000000E+00  0.45593999997E+02  0.45594000000E+02  0.51100000000E-03 0.  1.
         11   -1    0    0    0    0 -0.00000000000E+00 -0.00000000000E+00 -0.45593999997E+02  0.45594000000E+02  0.51100000000E-03 0. -1.
    9900012    2    1    2    0    0 -0.16146146323E+02 -0.83924339052E+01 -0.44214758831E+01  0.72461536455E+02  0.69999955918E+02 0.  0.
         12    1    1    2    0    0  0.16146146323E+02  0.83924339052E+01  0.44214758831E+01  0.18726463545E+02  0.00000000000E+00 0. -1.
         11    1    3    3    0    0 -0.91307574397E+01  0.13647432064E+00 -0.10870107533E+02  0.14196781139E+02  0.51100000000E-03 0. -1.
        -11    1    3    3    0    0  0.11929845165E+02 -0.15526792545E+02 -0.17969652376E+02  0.26576510290E+02  0.51100000000E-03 0.  1.
        -12    1    3    3    0    0 -0.18945234048E+02  0.69978843191E+01  0.24418284026E+02  0.31688245026E+02  0.00000000000E+00 0.  1.
</event>
<event>
 7    1  0.2684545E-013  0.7246158E+02  0.7816164E-02  0.1226708E+00
        -11   -1    0    0    0    0  0.00000000000E+00  0.00000000000E+00  0.45593999997E+02  0.45594000000E+02  0.51100000000E-03 0.  1.
         11   -1    0    0    0    0 -0.00000000000E+00 -0.00000000000E+00 -0.45593999997E+02  0.45594000000E+02  0.51100000000E-03 0. -1.
    9900012    2    1    2    0    0 -0.17810202379E+01 -0.14248563059E+02  0.12020205196E+02  0.72461577082E+02  0.70000008842E+02 0.  0.
         12    1    1    2    0    0  0.17810202379E+01  0.14248563059E+02 -0.12020205196E+02  0.18726422918E+02  0.00000000000E+00 0. -1.
         11    1    3    3    0    0  0.13984285763E+01 -0.30298908358E+02  0.92505448966E+01  0.31710440415E+02  0.51100000000E-03 0. -1.
        -11    1    3    3    0    0 -0.90387241444E+01  0.20439256552E+01  0.17370013293E+02  0.19687395163E+02  0.51100000000E-03 0.  1.
        -12    1    3    3    0    0  0.58592753302E+01  0.14006419643E+02 -0.14600352994E+02  0.21063741504E+02  0.00000000000E+00 0.  1.
</event>
<event>
 7    1  0.2684545E-013  0.7246160E+02  0.7816164E-02  0.1226708E+00
        -11   -1    0    0    0    0  0.00000000000E+00  0.00000000000E+00  0.45593999997E+02  0.45594000000E+02  0.51100000000E-03 0. -1.
         11   -1    0    0    0    0 -0.00000000000E+00 -0.00000000000E+00 -0.45593999997E+02  0.45594000000E+02  0.51100000000E-03 0.  1.
    9900012    2    1    2    0    0 -0.94460670981E+01  0.18525439600E+01 -0.16062935044E+02  0.72461601922E+02  0.70000041201E+02 0.  0.
         12    1    1    2    0    0  0.94460670981E+01 -0.18525439600E+01  0.16062935044E+02  0.18726398078E+02  0.00000000000E+00 0. -1.
         11    1    3    3    0    0 -0.14568214977E+02  0.11921575031E+02  0.18115986051E+02  0.26125577308E+02  0.51100000000E-03 0. -1.
        -11    1    3    3    0    0 -0.79999243050E+01 -0.71610649691E+01 -0.12990055524E+01  0.10815130885E+02  0.51100000000E-03 0.  1.
        -12    1    3    3    0    0  0.13122072183E+02 -0.29079661015E+01 -0.32879915542E+02  0.35520893729E+02  0.00000000000E+00 0.  1.
</event>
<event>
 7    1  0.2684545E-013  0.7246164E+02  0.7816164E-02  0.1226708E+00
        -11   -1    0    0    0    0  0.00000000000E+00  0.00000000000E+00  0.45593999997E+02  0.45594000000E+02  0.51100000000E-03 0.  1.
         11   -1    0    0    0    0 -0.00000000000E+00 -0.00000000000E+00 -0.45593999997E+02  0.45594000000E+02  0.51100000000E-03 0. -1.
    9900012    2    1    2    0    0 -0.11150743661E+02 -0.90532453533E+01  0.12015662917E+02  0.72461641813E+02  0.70000093166E+02 0.  0.
         12    1    1    2    0    0  0.11150743661E+02  0.90532453533E+01 -0.12015662917E+02  0.18726358187E+02  0.00000000000E+00 0. -1.
         11    1    3    3    0    0  0.12590165298E+02 -0.11859706200E+02 -0.12539535717E+01  0.17341778836E+02  0.51100000000E-03 0. -1.
        -11    1    3    3    0    0  0.63328172446E+01  0.11482118942E+02  0.19212304533E+02  0.23260616401E+02  0.51100000000E-03 0.  1.
        -12    1    3    3    0    0 -0.30073726204E+02 -0.86756580957E+01 -0.59426880438E+01  0.31859246575E+02  0.00000000000E+00 0.  1.
</event>
<event>
 7    1  0.2684545E-013  0.7246158E+02  0.7816164E-02  0.1226708E+00
        -11   -1    0    0    0    0  0.00000000000E+00  0.00000000000E+00  0.45593999997E+02  0.45594000000E+02  0.51100000000E-03 0.  1.
         11   -1    0    0    0    0 -0.00000000000E+00 -0.00000000000E+00 -0.45593999997E+02  0.45594000000E+02  0.51100000000E-03 0. -1.
    9900012    2    1    2    0    0  0.13297305702E+02  0.77918304104E+01  0.10637095364E+02  0.72461581286E+02  0.70000014319E+02 0.  0.
         12    1    1    2    0    0 -0.13297305702E+02 -0.77918304104E+01 -0.10637095364E+02  0.18726418714E+02  0.00000000000E+00 0. -1.
         11    1    3    3    0    0  0.27461726655E+00 -0.95728639772E+01  0.73465489124E+01  0.12070083701E+02  0.51100000000E-03 0. -1.
        -11    1    3    3    0    0  0.19859499113E+02  0.47261141492E+01  0.26282169433E+02  0.33278946653E+02  0.51100000000E-03 0.  1.
         12    1    3    3    0    0 -0.68368106773E+01  0.12638580238E+02 -0.22991622982E+02  0.27112550932E+02  0.00000000000E+00 0. -1.
</event>
<event>
 7    1  0.2684545E-013  0.7246162E+02  0.7816164E-02  0.1226708E+00
        -11   -1    0    0    0    0  0.00000000000E+00  0.00000000000E+00  0.45593999997E+02  0.45594000000E+02  0.51100000000E-03 0. -1.
         11   -1    0    0    0    0 -0.00000000000E+00 -0.00000000000E+00 -0.45593999997E+02  0.45594000000E+02  0.51100000000E-03 0.  1.
    9900012    2    1    2    0    0 -0.10402237419E+02 -0.15204386893E+02  0.33611618873E+01  0.72461619321E+02  0.70000063866E+02 0.  0.
         12    1    1    2    0    0  0.10402237419E+02  0.15204386893E+02 -0.33611618873E+01  0.18726380679E+02  0.00000000000E+00 0. -1.
         11    1    3    3    0    0  0.51935122989E+01  0.13946178528E+02  0.12935593686E+02  0.19717962618E+02  0.51100000000E-03 0. -1.
        -11    1    3    3    0    0  0.93925251488E+01  0.40561879016E+00  0.58575640233E+01  0.11076782557E+02  0.51100000000E-03 0.  1.
        -12    1    3    3    0    0 -0.24988274867E+02 -0.29556184211E+02 -0.15431995822E+02  0.41666874145E+02  0.00000000000E+00 0.  1.
</event>
<event>
 7    1  0.2684545E-013  0.7246156E+02  0.7816164E-02  0.1226708E+00
        -11   -1    0    0    0    0  0.00000000000E+00  0.00000000000E+00  0.45593999997E+02  0.45594000000E+02  0.51100000000E-03 0. -1.
         11   -1    0    0    0    0 -0.00000000000E+00 -0.00000000000E+00 -0.45593999997E+02  0.45594000000E+02  0.51100000000E-03 0.  1.
    9900012    2    1    2    0    0 -0.10494264744E+02 -0.10356258200E+02 -0.11545467594E+02  0.72461561513E+02  0.69999988561E+02 0.  0.
         12    1    1    2    0    0  0.10494264744E+02  0.10356258200E+02  0.11545467594E+02  0.18726438487E+02  0.00000000000E+00 0. -1.
         11    1    3    3    0    0 -0.21922911144E+02 -0.29903194993E+00  0.73165500811E+01  0.23113531934E+02  0.51100000000E-03 0. -1.
        -11    1    3    3    0    0 -0.14898841212E+02  0.43038098764E+01 -0.48680156358E+01  0.16254101802E+02  0.51100000000E-03 0.  1.
        -12    1    3    3    0    0  0.26327487612E+02 -0.14361036127E+02 -0.13994002040E+02  0.33093927776E+02  0.00000000000E+00 0.  1.
</event>
<event>
 7    1  0.2684545E-013  0.7246159E+02  0.7816164E-02  0.1226708E+00
        -11   -1    0    0    0    0  0.00000000000E+00  0.00000000000E+00  0.45593999997E+02  0.45594000000E+02  0.51100000000E-03 0.  1.
         11   -1    0    0    0    0 -0.00000000000E+00 -0.00000000000E+00 -0.45593999997E+02  0.45594000000E+02  0.51100000000E-03 0. -1.
    9900012    2    1    2    0    0  0.99445146426E+01  0.13717823395E+02  0.79753662494E+01  0.72461587717E+02  0.70000022696E+02 0.  0.
         12    1    1    2    0    0 -0.99445146426E+01 -0.13717823395E+02 -0.79753662494E+01  0.18726412283E+02  0.00000000000E+00 0. -1.
         11    1    3    3    0    0 -0.98020634778E+01  0.11006683114E+02  0.11458054341E+02  0.18668543895E+02  0.51100000000E-03 0.  1.
        -11    1    3    3    0    0  0.10218704535E+02 -0.10839315070E+00  0.23183430982E+02  0.25335847012E+02  0.51100000000E-03 0. -1.
         12    1    3    3    0    0  0.95278735859E+01  0.28195334316E+01 -0.26666119074E+02  0.28457196810E+02  0.00000000000E+00 0. -1.
</event>
<event>
 7    1  0.2684545E-013  0.7246156E+02  0.7816164E-02  0.1226708E+00
        -11   -1    0    0    0    0  0.00000000000E+00  0.00000000000E+00  0.45593999997E+02  0.45594000000E+02  0.51100000000E-03 0.  1.
         11   -1    0    0    0    0 -0.00000000000E+00 -0.00000000000E+00 -0.45593999997E+02  0.45594000000E+02  0.51100000000E-03 0. -1.
    9900012    2    1    2    0    0 -0.10467670019E+02  0.13460967676E+02 -0.77401314090E+01  0.72461564124E+02  0.69999991962E+02 0.  0.
         12    1    1    2    0    0  0.10467670019E+02 -0.13460967676E+02  0.77401314090E+01  0.18726435876E+02  0.00000000000E+00 0. -1.
         11    1    3    3    0    0  0.15981504238E+01  0.25179222204E+01  0.10314966510E+02  0.10737436913E+02  0.51100000000E-03 0. -1.
        -11    1    3    3    0    0 -0.23738877546E+02 -0.33490792685E+01  0.11727005379E+02  0.26688448709E+02  0.51100000000E-03 0.  1.
         12    1    3    3    0    0  0.11673057103E+02  0.14292124724E+02 -0.29782103298E+02  0.35035678502E+02  0.00000000000E+00 0. -1.
</event>
<event>
 7    1  0.2684545E-013  0.7246159E+02  0.7816164E-02  0.1226708E+00
        -11   -1    0    0    0    0  0.00000000000E+00  0.00000000000E+00  0.45593999997E+02  0.45594000000E+02  0.51100000000E-03 0.  1.
         11   -1    0    0    0    0 -0.00000000000E+00 -0.00000000000E+00 -0.45593999997E+02  0.45594000000E+02  0.51100000000E-03 0. -1.
    9900012    2    1    2    0    0  0.12156868319E+02 -0.87657997401E+01 -0.11227180957E+02  0.72461593921E+02  0.70000030778E+02 0.  0.
         12    1    1    2    0    0 -0.12156868319E+02  0.87657997401E+01  0.11227180957E+02  0.18726406079E+02  0.00000000000E+00 0. -1.
         11    1    3    3    0    0  0.13186998388E+02  0.13889454455E+02 -0.79684638140E+01  0.20743921696E+02  0.51100000000E-03 0. -1.
        -11    1    3    3    0    0 -0.14191488991E+02 -0.13307614756E+02 -0.20387545172E+02  0.28180542378E+02  0.51100000000E-03 0.  1.
         12    1    3    3    0    0  0.13161358922E+02 -0.93476394388E+01  0.17128828030E+02  0.23537129847E+02  0.00000000000E+00 0. -1.
</event>
<event>
 7    1  0.2684545E-013  0.7246159E+02  0.7816164E-02  0.1226708E+00
        -11   -1    0    0    0    0  0.00000000000E+00  0.00000000000E+00  0.45593999997E+02  0.45594000000E+02  0.51100000000E-03 0.  1.
         11   -1    0    0    0    0 -0.00000000000E+00 -0.00000000000E+00 -0.45593999997E+02  0.45594000000E+02  0.51100000000E-03 0. -1.
    9900012    2    1    2    0    0  0.18976469017E+01  0.18471741435E+02 -0.24232696104E+01  0.72461587343E+02  0.70000022209E+02 0.  0.
         12    1    1    2    0    0 -0.18976469017E+01 -0.18471741435E+02  0.24232696104E+01  0.18726412657E+02  0.00000000000E+00 0. -1.
         11    1    3    3    0    0 -0.18550679424E+00  0.19515727090E+02  0.83889737066E+01  0.21243184713E+02  0.51100000000E-03 0. -1.
        -11    1    3    3    0    0  0.11595458920E+02  0.13048954977E+02  0.13136906585E+02  0.21847384476E+02  0.51100000000E-03 0.  1.
         12    1    3    3    0    0 -0.95123052236E+01 -0.14092940633E+02 -0.23949149902E+02  0.29371018154E+02  0.00000000000E+00 0. -1.
</event>
<event>
 7    1  0.2684545E-013  0.7246157E+02  0.7816164E-02  0.1226708E+00
        -11   -1    0    0    0    0  0.00000000000E+00  0.00000000000E+00  0.45593999997E+02  0.45594000000E+02  0.51100000000E-03 0. -1.
         11   -1    0    0    0    0 -0.00000000000E+00 -0.00000000000E+00 -0.45593999997E+02  0.45594000000E+02  0.51100000000E-03 0.  1.
    9900012    2    1    2    0    0  0.99756695913E+01  0.12476778780E+02 -0.97721725778E+01  0.72461565492E+02  0.69999993743E+02 0.  0.
         12    1    1    2    0    0 -0.99756695913E+01 -0.12476778780E+02  0.97721725778E+01  0.18726434508E+02  0.00000000000E+00 0. -1.
         11    1    3    3    0    0 -0.10823939375E+02  0.19841228695E+02  0.22746294240E+02  0.32065962042E+02  0.51100000000E-03 0. -1.
        -11    1    3    3    0    0  0.17060572277E+01  0.16168707163E+01 -0.12185712781E+01  0.26476061637E+01  0.51100000000E-03 0.  1.
        -12    1    3    3    0    0  0.19093551739E+02 -0.89813206317E+01 -0.31299895540E+02  0.37747997286E+02  0.00000000000E+00 0.  1.
</event>
<event>
 7    1  0.2684545E-013  0.7246171E+02  0.7816164E-02  0.1226708E+00
        -11   -1    0    0    0    0  0.00000000000E+00  0.00000000000E+00  0.45593999997E+02  0.45594000000E+02  0.51100000000E-03 0. -1.
         11   -1    0    0    0    0 -0.00000000000E+00 -0.00000000000E+00 -0.45593999997E+02  0.45594000000E+02  0.51100000000E-03 0.  1.
    9900012    2    1    2    0    0  0.82489634495E+01  0.85453239225E+01  0.14477773340E+02  0.72461711531E+02  0.70000183987E+02 0.  0.
         12    1    1    2    0    0 -0.82489634495E+01 -0.85453239225E+01 -0.14477773340E+02  0.18726288469E+02  0.00000000000E+00 0. -1.
         11    1    3    3    0    0 -0.34353673684E+01 -0.92456629943E+00 -0.22851570850E+01  0.42282992990E+01  0.51100000000E-03 0. -1.
        -11    1    3    3    0    0  0.15088141372E+02 -0.26236044742E+02  0.82412505047E+01  0.31367184508E+02  0.51100000000E-03 0.  1.
         12    1    3    3    0    0 -0.34038105545E+01  0.35705934964E+02  0.85216799203E+01  0.36866227725E+02  0.00000000000E+00 0. -1.
</event>
<event>
 7    1  0.2684545E-013  0.7246166E+02  0.7816164E-02  0.1226708E+00
        -11   -1    0    0    0    0  0.00000000000E+00  0.00000000000E+00  0.45593999997E+02  0.45594000000E+02  0.51100000000E-03 0. -1.
         11   -1    0    0    0    0 -0.00000000000E+00 -0.00000000000E+00 -0.45593999997E+02  0.45594000000E+02  0.51100000000E-03 0.  1.
    9900012    2    1    2    0    0  0.71657000845E+01 -0.16270115675E+02 -0.58831982736E+01  0.72461656425E+02  0.70000112201E+02 0.  0.
         12    1    1    2    0    0 -0.71657000845E+01  0.16270115675E+02  0.58831982736E+01  0.18726343575E+02  0.00000000000E+00 0. -1.
         11    1    3    3    0    0 -0.35290824636E+00  0.11245153727E+02  0.18237605870E+01  0.11397549277E+02  0.51100000000E-03 0. -1.
        -11    1    3    3    0    0 -0.32877048801E+01  0.17104615384E+01  0.19407986466E+02  0.19758659393E+02  0.51100000000E-03 0.  1.
        -12    1    3    3    0    0  0.10806313211E+02 -0.29225730940E+02 -0.27114945327E+02  0.41305447755E+02  0.00000000000E+00 0.  1.
</event>
<event>
 7    1  0.2684545E-013  0.7246112E+02  0.7816164E-02  0.1226709E+00
        -11   -1    0    0    0    0  0.00000000000E+00  0.00000000000E+00  0.45593999997E+02  0.45594000000E+02  0.51100000000E-03 0. -1.
         11   -1    0    0    0    0 -0.00000000000E+00 -0.00000000000E+00 -0.45593999997E+02  0.45594000000E+02  0.51100000000E-03 0.  1.
    9900012    2    1    2    0    0  0.11347261678E+02  0.14171406166E+02 -0.45942141333E+01  0.72461123490E+02  0.69999417952E+02 0.  0.
         12    1    1    2    0    0 -0.11347261678E+02 -0.14171406166E+02  0.45942141333E+01  0.18726876510E+02  0.00000000000E+00 0. -1.
         11    1    3    3    0    0  0.20593615128E+01 -0.16720819700E+02 -0.21184895319E+00  0.16848491372E+02  0.51100000000E-03 0. -1.
        -11    1    3    3    0    0 -0.14068212868E+02  0.11358924996E+02 -0.14868737013E+02  0.23409808436E+02  0.51100000000E-03 0.  1.
        -12    1    3    3    0    0  0.23356113033E+02  0.19533300870E+02  0.10486371833E+02  0.32202823683E+02  0.00000000000E+00 0.  1.
</event>
<event>
 7    1  0.2684545E-013  0.7246158E+02  0.7816164E-02  0.1226708E+00
        -11   -1    0    0    0    0  0.00000000000E+00  0.00000000000E+00  0.45593999997E+02  0.45594000000E+02  0.51100000000E-03 0.  1.
         11   -1    0    0    0    0 -0.00000000000E+00 -0.00000000000E+00 -0.45593999997E+02  0.45594000000E+02  0.51100000000E-03 0. -1.
    9900012    2    1    2    0    0 -0.17249929739E+02  0.71913103754E+01  0.11847574685E+01  0.72461583600E+02  0.70000017333E+02 0.  0.
         12    1    1    2    0    0  0.17249929739E+02 -0.71913103754E+01 -0.11847574685E+01  0.18726416400E+02  0.00000000000E+00 0. -1.
         11    1    3    3    0    0  0.80107051173E+01 -0.28829763265E+01  0.12731213644E+02  0.15315572144E+02  0.51100000000E-03 0. -1.
        -11    1    3    3    0    0 -0.20794673656E+02 -0.17164000104E+02 -0.12064076702E+02  0.29539182436E+02  0.51100000000E-03 0.  1.
         12    1    3    3    0    0 -0.44659612005E+01  0.27238286806E+02  0.51762052634E+00  0.27606829021E+02  0.00000000000E+00 0. -1.
</event>
<event>
 7    1  0.2684545E-013  0.7246152E+02  0.7816164E-02  0.1226708E+00
        -11   -1    0    0    0    0  0.00000000000E+00  0.00000000000E+00  0.45593999997E+02  0.45594000000E+02  0.51100000000E-03 0. -1.
         11   -1    0    0    0    0 -0.00000000000E+00 -0.00000000000E+00 -0.45593999997E+02  0.45594000000E+02  0.51100000000E-03 0.  1.
    9900012    2    1    2    0    0  0.49030898750E+01  0.12718457012E+02  0.12840629986E+02  0.72461515612E+02  0.69999928767E+02 0.  0.
         12    1    1    2    0    0 -0.49030898750E+01 -0.12718457012E+02 -0.12840629986E+02  0.18726484388E+02  0.00000000000E+00 0. -1.
         11    1    3    3    0    0  0.17896679984E+01 -0.60214592046E+01 -0.12541901468E+02  0.14027122841E+02  0.51100000000E-03 0. -1.
        -11    1    3    3    0    0 -0.88821333850E+01 -0.13014845692E+02 -0.47299314218E+00  0.15763953331E+02  0.51100000000E-03 0.  1.
        -12    1    3    3    0    0  0.11995555262E+02  0.31754761908E+02  0.25855524596E+02  0.42670439440E+02  0.00000000000E+00 0.  1.
</event>
<event>
 7    1  0.2684545E-013  0.7246165E+02  0.7816164E-02  0.1226708E+00
        -11   -1    0    0    0    0  0.00000000000E+00  0.00000000000E+00  0.45593999997E+02  0.45594000000E+02  0.51100000000E-03 0.  1.
         11   -1    0    0    0    0 -0.00000000000E+00 -0.00000000000E+00 -0.45593999997E+02  0.45594000000E+02  0.51100000000E-03 0. -1.
    9900012    2    1    2    0    0 -0.26858561406E+01 -0.79746398803E+01  0.16729242332E+02  0.72461648155E+02  0.70000101428E+02 0.  0.
         12    1    1    2    0    0  0.26858561406E+01  0.79746398803E+01 -0.16729242332E+02  0.18726351845E+02  0.00000000000E+00 0. -1.
         11    1    3    3    0    0 -0.19246819061E+02 -0.28224621106E+01  0.27666382984E+01  0.19648425486E+02  0.51100000000E-03 0. -1.
        -11    1    3    3    0    0 -0.15463464781E+02 -0.45846860551E+01  0.13089398333E+02  0.20771866508E+02  0.51100000000E-03 0.  1.
         12    1    3    3    0    0  0.32024427702E+02 -0.56749171456E+00  0.87320570064E+00  0.32041356161E+02  0.00000000000E+00 0. -1.
</event>
<event>
 7    1  0.2684545E-013  0.7246156E+02  0.7816164E-02  0.1226708E+00
        -11   -1    0    0    0    0  0.00000000000E+00  0.00000000000E+00  0.45593999997E+02  0.45594000000E+02  0.51100000000E-03 0. -1.
         11   -1    0    0    0    0 -0.00000000000E+00 -0.00000000000E+00 -0.45593999997E+02  0.45594000000E+02  0.51100000000E-03 0.  1.
    9900012    2    1    2    0    0 -0.84163888156E+01 -0.11855012913E+02 -0.11802659644E+02  0.72461555956E+02  0.69999981322E+02 0.  0.
         12    1    1    2    0    0  0.84163888156E+01  0.11855012913E+02  0.11802659644E+02  0.18726444044E+02  0.00000000000E+00 0. -1.
         11    1    3    3    0    0 -0.17982955908E+02  0.11426403041E+02  0.77364748316E+01  0.22667210520E+02  0.51100000000E-03 0. -1.
        -11    1    3    3    0    0 -0.88230606271E+00  0.74966804684E+01  0.50118945461E+01  0.90607819330E+01  0.51100000000E-03 0.  1.
        -12    1    3    3    0    0  0.10448873155E+02 -0.30778096423E+02 -0.24551029022E+02  0.40733563503E+02  0.00000000000E+00 0.  1.
</event>
<event>
 7    1  0.2684545E-013  0.7246158E+02  0.7816164E-02  0.1226708E+00
        -11   -1    0    0    0    0  0.00000000000E+00  0.00000000000E+00  0.45593999997E+02  0.45594000000E+02  0.51100000000E-03 0. -1.
         11   -1    0    0    0    0 -0.00000000000E+00 -0.00000000000E+00 -0.45593999997E+02  0.45594000000E+02  0.51100000000E-03 0.  1.
    9900012    2    1    2    0    0  0.10479300384E+02 -0.14979737309E+02  0.40583717048E+01  0.72461584239E+02  0.70000018165E+02 0.  0.
         12    1    1    2    0    0 -0.10479300384E+02  0.14979737309E+02 -0.40583717048E+01  0.18726415761E+02  0.00000000000E+00 0. -1.
         11    1    3    3    0    0 -0.11280140848E+02  0.65567387930E+01  0.61368686754E+01  0.14418514436E+02  0.51100000000E-03 0. -1.
        -11    1    3    3    0    0 -0.15829043993E+01  0.37353604728E+01  0.17836545468E+02  0.18292098258E+02  0.51100000000E-03 0.  1.
        -12    1    3    3    0    0  0.23342345631E+02 -0.25271836574E+02 -0.19915042438E+02  0.39750971544E+02  0.00000000000E+00 0.  1.
</event>
<event>
 7    1  0.2684545E-013  0.7246152E+02  0.7816164E-02  0.1226708E+00
        -11   -1    0    0    0    0  0.00000000000E+00  0.00000000000E+00  0.45593999997E+02  0.45594000000E+02  0.51100000000E-03 0.  1.
         11   -1    0    0    0    0 -0.00000000000E+00 -0.00000000000E+00 -0.45593999997E+02  0.45594000000E+02  0.51100000000E-03 0. -1.
    9900012    2    1    2    0    0  0.61349231099E+01 -0.73061480823E+01  0.16114090295E+02  0.72461521757E+02  0.69999936771E+02 0.  0.
         12    1    1    2    0    0 -0.61349231099E+01  0.73061480823E+01 -0.16114090295E+02  0.18726478243E+02  0.00000000000E+00 0. -1.
         11    1    3    3    0    0 -0.47538051579E+01  0.43137903964E+01  0.72741156667E+01  0.97015570944E+01  0.51100000000E-03 0. -1.
        -11    1    3    3    0    0 -0.17510227200E+02 -0.79127162489E+01  0.23686766900E+02  0.30500525593E+02  0.51100000000E-03 0.  1.
         12    1    3    3    0    0  0.28398955467E+02 -0.37072222298E+01 -0.14846792272E+02  0.32259439069E+02  0.00000000000E+00 0. -1.
</event>
<event>
 7    1  0.2684545E-013  0.7246199E+02  0.7816164E-02  0.1226707E+00
        -11   -1    0    0    0    0  0.00000000000E+00  0.00000000000E+00  0.45593999997E+02  0.45594000000E+02  0.51100000000E-03 0.  1.
         11   -1    0    0    0    0 -0.00000000000E+00 -0.00000000000E+00 -0.45593999997E+02  0.45594000000E+02  0.51100000000E-03 0. -1.
    9900012    2    1    2    0    0  0.10778683204E+02  0.13000111402E+02 -0.80920006427E+01  0.72461991817E+02  0.70000549109E+02 0.  0.
         12    1    1    2    0    0 -0.10778683204E+02 -0.13000111402E+02  0.80920006427E+01  0.18726008183E+02  0.00000000000E+00 0. -1.
         11    1    3    3    0    0 -0.51436871589E+01  0.95132255049E+01 -0.19299108696E+02  0.22122716239E+02  0.51100000000E-03 0. -1.
        -11    1    3    3    0    0  0.11075394990E+02  0.70664978161E+01 -0.17006159897E+02  0.21489747329E+02  0.51100000000E-03 0.  1.
        -12    1    3    3    0    0  0.48469753730E+01 -0.35796119190E+01  0.28213267950E+02  0.28849528249E+02  0.00000000000E+00 0.  1.
</event>
<event>
 7    1  0.2684545E-013  0.7246166E+02  0.7816164E-02  0.1226708E+00
        -11   -1    0    0    0    0  0.00000000000E+00  0.00000000000E+00  0.45593999997E+02  0.45594000000E+02  0.51100000000E-03 0. -1.
         11   -1    0    0    0    0 -0.00000000000E+00 -0.00000000000E+00 -0.45593999997E+02  0.45594000000E+02  0.51100000000E-03 0.  1.
    9900012    2    1    2    0    0  0.16971438222E+02  0.30862882071E+01 -0.72884190892E+01  0.72461656443E+02  0.70000112224E+02 0.  0.
         12    1    1    2    0    0 -0.16971438222E+02 -0.30862882071E+01  0.72884190892E+01  0.18726343557E+02  0.00000000000E+00 0. -1.
         11    1    3    3    0    0  0.89940658240E+00  0.64536780727E+01 -0.14806678055E+02  0.16177039536E+02  0.51100000000E-03 0.  1.
        -11    1    3    3    0    0  0.20265303706E+02  0.12259038014E+02 -0.15385084979E+02  0.28243005991E+02  0.51100000000E-03 0. -1.
         12    1    3    3    0    0 -0.41932720665E+01 -0.15626427880E+02  0.22903343945E+02  0.28041610916E+02  0.00000000000E+00 0. -1.
</event>
<event>
 7    1  0.2684545E-013  0.7246174E+02  0.7816164E-02  0.1226708E+00
        -11   -1    0    0    0    0  0.00000000000E+00  0.00000000000E+00  0.45593999997E+02  0.45594000000E+02  0.51100000000E-03 0. -1.
         11   -1    0    0    0    0 -0.00000000000E+00 -0.00000000000E+00 -0.45593999997E+02  0.45594000000E+02  0.51100000000E-03 0.  1.
    9900012    2    1    2    0    0  0.13052421538E+02  0.12883743534E+02  0.37836807645E+01  0.72461740480E+02  0.70000221699E+02 0.  0.
         12    1    1    2    0    0 -0.13052421538E+02 -0.12883743534E+02 -0.37836807645E+01  0.18726259520E+02  0.00000000000E+00 0. -1.
         11    1    3    3    0    0  0.54016510362E+01 -0.68893052525E+01  0.80573712134E+01  0.11897965873E+02  0.51100000000E-03 0. -1.
        -11    1    3    3    0    0 -0.10526673368E+02 -0.11320780229E+02 -0.16421576746E+02  0.22553028627E+02  0.51100000000E-03 0.  1.
        -12    1    3    3    0    0  0.18177443870E+02  0.31093829016E+02  0.12147886297E+02  0.38010745980E+02  0.00000000000E+00 0.  1.
</event>
<event>
 7    1  0.2684545E-013  0.7246156E+02  0.7816164E-02  0.1226708E+00
        -11   -1    0    0    0    0  0.00000000000E+00  0.00000000000E+00  0.45593999997E+02  0.45594000000E+02  0.51100000000E-03 0.  1.
         11   -1    0    0    0    0 -0.00000000000E+00 -0.00000000000E+00 -0.45593999997E+02  0.45594000000E+02  0.51100000000E-03 0. -1.
    9900012    2    1    2    0    0 -0.16101013534E+02  0.33931548890E+01 -0.89399925323E+01  0.72461558710E+02  0.69999984909E+02 0.  0.
         12    1    1    2    0    0  0.16101013534E+02 -0.33931548890E+01  0.89399925323E+01  0.18726441290E+02  0.00000000000E+00 0. -1.
         11    1    3    3    0    0 -0.25578452038E+02 -0.84137189582E+01 -0.84093643587E+01  0.28209312019E+02  0.51100000000E-03 0. -1.
        -11    1    3    3    0    0  0.53842439763E+01 -0.15597284384E+02 -0.11130777203E+01  0.16537965583E+02  0.51100000000E-03 0.  1.
        -12    1    3    3    0    0  0.40931945279E+01  0.27404158232E+02  0.58244954669E+00  0.27714281108E+02  0.00000000000E+00 0.  1.
</event>
<event>
 7    1  0.2684545E-013  0.7246148E+02  0.7816164E-02  0.1226708E+00
        -11   -1    0    0    0    0  0.00000000000E+00  0.00000000000E+00  0.45593999997E+02  0.45594000000E+02  0.51100000000E-03 0.  1.
         11   -1    0    0    0    0 -0.00000000000E+00 -0.00000000000E+00 -0.45593999997E+02  0.45594000000E+02  0.51100000000E-03 0. -1.
    9900012    2    1    2    0    0 -0.79203514090E+01  0.15196338036E+02  0.75512885960E+01  0.72461478283E+02  0.69999880138E+02 0.  0.
         12    1    1    2    0    0  0.79203514090E+01 -0.15196338036E+02 -0.75512885960E+01  0.18726521717E+02  0.00000000000E+00 0. -1.
         11    1    3    3    0    0  0.20177219491E+02  0.23193904554E+02 -0.87675463008E+01  0.31967909898E+02  0.51100000000E-03 0. -1.
        -11    1    3    3    0    0  0.22901855408E+01 -0.61041568829E+01  0.40018271672E+01  0.76498563385E+01  0.51100000000E-03 0.  1.
        -12    1    3    3    0    0 -0.30387756441E+02 -0.18934096352E+01  0.12317007729E+02  0.32843712046E+02  0.00000000000E+00 0.  1.
</event>
<event>
 7    1  0.2684545E-013  0.7246135E+02  0.7816164E-02  0.1226709E+00
        -11   -1    0    0    0    0  0.00000000000E+00  0.00000000000E+00  0.45593999997E+02  0.45594000000E+02  0.51100000000E-03 0.  1.
         11   -1    0    0    0    0 -0.00000000000E+00 -0.00000000000E+00 -0.45593999997E+02  0.45594000000E+02  0.51100000000E-03 0. -1.
    9900012    2    1    2    0    0  0.10346883388E+02  0.15524494017E+02  0.16184760122E+01  0.72461351210E+02  0.69999714601E+02 0.  0.
         12    1    1    2    0    0 -0.10346883388E+02 -0.15524494017E+02 -0.16184760122E+01  0.18726648790E+02  0.00000000000E+00 0. -1.
         11    1    3    3    0    0 -0.17508955480E+02  0.30902255149E+02 -0.35335662102E-01  0.35517800385E+02  0.51100000000E-03 0. -1.
        -11    1    3    3    0    0  0.34492234286E+01  0.29298164720E+01  0.43979645992E+01  0.63105514575E+01  0.51100000000E-03 0.  1.
         12    1    3    3    0    0  0.24406615439E+02 -0.18307577605E+02 -0.27441529250E+01  0.30632999367E+02  0.00000000000E+00 0. -1.
</event>
<event>
 7    1  0.2684545E-013  0.7246159E+02  0.7816164E-02  0.1226708E+00
        -11   -1    0    0    0    0  0.00000000000E+00  0.00000000000E+00  0.45593999997E+02  0.45594000000E+02  0.51100000000E-03 0.  1.
         11   -1    0    0    0    0 -0.00000000000E+00 -0.00000000000E+00 -0.45593999997E+02  0.45594000000E+02  0.51100000000E-03 0. -1.
    9900012    2    1    2    0    0  0.16931735011E+01  0.16546014910E+02 -0.86047046285E+01  0.72461591171E+02  0.70000027195E+02 0.  0.
         12    1    1    2    0    0 -0.16931735011E+01 -0.16546014910E+02  0.86047046285E+01  0.18726408829E+02  0.00000000000E+00 0. -1.
         11    1    3    3    0    0 -0.68832192859E+01  0.91865268692E+01  0.86648947824E+01  0.14382328932E+02  0.51100000000E-03 0. -1.
        -11    1    3    3    0    0 -0.41708371959E+01 -0.26797896677E+01  0.18312758216E+02  0.18971933726E+02  0.51100000000E-03 0.  1.
         12    1    3    3    0    0  0.12747229983E+02  0.10039277708E+02 -0.35582357626E+02  0.39107328513E+02  0.00000000000E+00 0. -1.
</event>
<event>
 7    1  0.2684545E-013  0.7246155E+02  0.7816164E-02  0.1226708E+00
        -11   -1    0    0    0    0  0.00000000000E+00  0.00000000000E+00  0.45593999997E+02  0.45594000000E+02  0.51100000000E-03 0.  1.
         11   -1    0    0    0    0 -0.00000000000E+00 -0.00000000000E+00 -0.45593999997E+02  0.45594000000E+02  0.51100000000E-03 0. -1.
    9900012    2    1    2    0    0  0.27860922598E+01 -0.93135567017E+01  0.16005476656E+02  0.72461549949E+02  0.69999973497E+02 0.  0.
         12    1    1    2    0    0 -0.27860922598E+01  0.93135567017E+01 -0.16005476656E+02  0.18726450051E+02  0.00000000000E+00 0. -1.
         11    1    3    3    0    0 -0.21133665350E+01  0.14909336822E+01 -0.90377234819E+01  0.94005131431E+01  0.51100000000E-03 0. -1.
        -11    1    3    3    0    0 -0.16218046191E+02  0.16485207408E+02  0.72367992346E+01  0.24231350540E+02  0.51100000000E-03 0.  1.
         12    1    3    3    0    0  0.21117504986E+02 -0.27289697792E+02  0.17806400903E+02  0.38829686266E+02  0.00000000000E+00 0. -1.
</event>
<event>
 7    1  0.2684545E-013  0.7246163E+02  0.7816164E-02  0.1226708E+00
        -11   -1    0    0    0    0  0.00000000000E+00  0.00000000000E+00  0.45593999997E+02  0.45594000000E+02  0.51100000000E-03 0.  1.
         11   -1    0    0    0    0 -0.00000000000E+00 -0.00000000000E+00 -0.45593999997E+02  0.45594000000E+02  0.51100000000E-03 0. -1.
    9900012    2    1    2    0    0 -0.51064563353E-01  0.85553380680E+01  0.16657750894E+02  0.72461626035E+02  0.70000072612E+02 0.  0.
         12    1    1    2    0    0  0.51064563353E-01 -0.85553380680E+01 -0.16657750894E+02  0.18726373965E+02  0.00000000000E+00 0. -1.
         11    1    3    3    0    0  0.12949917696E+02 -0.20895095330E+01  0.60516784383E+00  0.13131361194E+02  0.51100000000E-03 0. -1.
        -11    1    3    3    0    0 -0.34285762658E-01  0.30496106429E+01 -0.20020919329E+02  0.20251876743E+02  0.51100000000E-03 0.  1.
        -12    1    3    3    0    0 -0.12966696496E+02  0.75952369581E+01  0.36073502379E+02  0.39078388098E+02  0.00000000000E+00 0.  1.
</event>
<event>
 7    1  0.2684545E-013  0.7246156E+02  0.7816164E-02  0.1226708E+00
        -11   -1    0    0    0    0  0.00000000000E+00  0.00000000000E+00  0.45593999997E+02  0.45594000000E+02  0.51100000000E-03 0.  1.
         11   -1    0    0    0    0 -0.00000000000E+00 -0.00000000000E+00 -0.45593999997E+02  0.45594000000E+02  0.51100000000E-03 0. -1.
    9900012    2    1    2    0    0  0.25307150960E+01  0.15897005727E+02  0.95687038618E+01  0.72461564045E+02  0.69999991859E+02 0.  0.
         12    1    1    2    0    0 -0.25307150960E+01 -0.15897005727E+02 -0.95687038618E+01  0.18726435955E+02  0.00000000000E+00 0. -1.
         11    1    3    3    0    0  0.13909574729E+02  0.11096830746E+02 -0.25169729695E+02  0.30824198529E+02  0.51100000000E-03 0. -1.
        -11    1    3    3    0    0  0.48620478121E+00  0.81681513995E+01  0.53785719543E+01  0.97920441637E+01  0.51100000000E-03 0.  1.
        -12    1    3    3    0    0 -0.11865064414E+02 -0.33679764193E+01  0.29359861603E+02  0.31845321353E+02  0.00000000000E+00 0.  1.
</event>
<event>
 7    1  0.2684545E-013  0.7246182E+02  0.7816164E-02  0.1226707E+00
        -11   -1    0    0    0    0  0.00000000000E+00  0.00000000000E+00  0.45593999997E+02  0.45594000000E+02  0.51100000000E-03 0.  1.
         11   -1    0    0    0    0 -0.00000000000E+00 -0.00000000000E+00 -0.45593999997E+02  0.45594000000E+02  0.51100000000E-03 0. -1.
    9900012    2    1    2    0    0 -0.11578411658E+02 -0.14709766515E+02 -0.48256372824E+00  0.72461822729E+02  0.70000328842E+02 0.  0.
         12    1    1    2    0    0  0.11578411658E+02  0.14709766515E+02  0.48256372824E+00  0.18726177271E+02  0.00000000000E+00 0. -1.
         11    1    3    3    0    0 -0.20690884819E+01 -0.13251174541E+02 -0.26408859680E+02  0.29619294787E+02  0.51100000000E-03 0. -1.
        -11    1    3    3    0    0 -0.82343277065E+01 -0.14621627338E+02  0.40227358862E+01  0.17256260981E+02  0.51100000000E-03 0.  1.
        -12    1    3    3    0    0 -0.12749954693E+01  0.13163035363E+02  0.21903560065E+02  0.25586266960E+02  0.00000000000E+00 0.  1.
</event>
<event>
 7    1  0.2684545E-013  0.7246157E+02  0.7816164E-02  0.1226708E+00
        -11   -1    0    0    0    0  0.00000000000E+00  0.00000000000E+00  0.45593999997E+02  0.45594000000E+02  0.51100000000E-03 0.  1.
         11   -1    0    0    0    0 -0.00000000000E+00 -0.00000000000E+00 -0.45593999997E+02  0.45594000000E+02  0.51100000000E-03 0. -1.
    9900012    2    1    2    0    0  0.11633799775E+02  0.14673986516E+02 -0.88994504657E-01  0.72461572217E+02  0.70000002505E+02 0.  0.
         12    1    1    2    0    0 -0.11633799775E+02 -0.14673986516E+02  0.88994504657E-01  0.18726427783E+02  0.00000000000E+00 0. -1.
         11    1    3    3    0    0  0.29350386547E+02  0.70653929671E+01 -0.17547273032E+02  0.34918072103E+02  0.51100000000E-03 0. -1.
        -11    1    3    3    0    0 -0.24966442547E+00 -0.55930013126E+01  0.14382660758E+02  0.15433888906E+02  0.51100000000E-03 0.  1.
        -12    1    3    3    0    0 -0.17466922346E+02  0.13201594862E+02  0.30756177695E+01  0.22109611209E+02  0.00000000000E+00 0.  1.
</event>
<event>
 7    1  0.2684545E-013  0.7246171E+02  0.7816164E-02  0.1226708E+00
        -11   -1    0    0    0    0  0.00000000000E+00  0.00000000000E+00  0.45593999997E+02  0.45594000000E+02  0.51100000000E-03 0. -1.
         11   -1    0    0    0    0 -0.00000000000E+00 -0.00000000000E+00 -0.45593999997E+02  0.45594000000E+02  0.51100000000E-03 0.  1.
    9900012    2    1    2    0    0  0.84462998731E+01  0.55619823630E+01  0.15760655786E+02  0.72461710988E+02  0.70000183279E+02 0.  0.
         12    1    1    2    0    0 -0.84462998731E+01 -0.55619823630E+01 -0.15760655786E+02  0.18726289012E+02  0.00000000000E+00 0. -1.
         11    1    3    3    0    0 -0.39882613443E+01  0.10345422975E+02 -0.45694132546E+01  0.11992228435E+02  0.51100000000E-03 0. -1.
        -11    1    3    3    0    0  0.23895047129E+02 -0.24206542205E+02  0.87650103085E+01  0.35124854004E+02  0.51100000000E-03 0.  1.
         12    1    3    3    0    0 -0.11460485912E+02  0.19423101593E+02  0.11565058732E+02  0.25344628549E+02  0.00000000000E+00 0. -1.
</event>
<event>
 7    1  0.2684545E-013  0.7246165E+02  0.7816164E-02  0.1226708E+00
        -11   -1    0    0    0    0  0.00000000000E+00  0.00000000000E+00  0.45593999997E+02  0.45594000000E+02  0.51100000000E-03 0.  1.
         11   -1    0    0    0    0 -0.00000000000E+00 -0.00000000000E+00 -0.45593999997E+02  0.45594000000E+02  0.51100000000E-03 0. -1.
    9900012    2    1    2    0    0 -0.76323976657E+01  0.11261840532E+02 -0.12868312356E+02  0.72461654676E+02  0.70000109923E+02 0.  0.
         12    1    1    2    0    0  0.76323976657E+01 -0.11261840532E+02  0.12868312356E+02  0.18726345324E+02  0.00000000000E+00 0. -1.
         11    1    3    3    0    0 -0.11816163628E+01 -0.10207387377E+02 -0.31007249237E+02  0.32665524331E+02  0.51100000000E-03 0. -1.
        -11    1    3    3    0    0 -0.99104756391E+01  0.50424616302E+01 -0.41708131698E+01  0.11876010670E+02  0.51100000000E-03 0.  1.
        -12    1    3    3    0    0  0.34596943361E+01  0.16426766279E+02  0.22309750051E+02  0.27920119675E+02  0.00000000000E+00 0.  1.
</event>
<event>
 7    1  0.2684545E-013  0.7246157E+02  0.7816164E-02  0.1226708E+00
        -11   -1    0    0    0    0  0.00000000000E+00  0.00000000000E+00  0.45593999997E+02  0.45594000000E+02  0.51100000000E-03 0.  1.
         11   -1    0    0    0    0 -0.00000000000E+00 -0.00000000000E+00 -0.45593999997E+02  0.45594000000E+02  0.51100000000E-03 0. -1.
    9900012    2    1    2    0    0  0.19608540644E+01 -0.15377877217E+02  0.10505001270E+02  0.72461571935E+02  0.70000002138E+02 0.  0.
         12    1    1    2    0    0 -0.19608540644E+01  0.15377877217E+02 -0.10505001270E+02  0.18726428065E+02  0.00000000000E+00 0. -1.
         11    1    3    3    0    0  0.11938814345E+02 -0.13717474177E+01 -0.44689601034E+01  0.12821411139E+02  0.51100000000E-03 0. -1.
        -11    1    3    3    0    0 -0.13560674163E+02 -0.25688870193E+02 -0.10899712795E+02  0.31026016097E+02  0.51100000000E-03 0.  1.
         12    1    3    3    0    0  0.35827138829E+01  0.11682740394E+02  0.25873674169E+02  0.28614144699E+02  0.00000000000E+00 0. -1.
</event>
<event>
 7    1  0.2684545E-013  0.7246157E+02  0.7816164E-02  0.1226708E+00
        -11   -1    0    0    0    0  0.00000000000E+00  0.00000000000E+00  0.45593999997E+02  0.45594000000E+02  0.51100000000E-03 0. -1.
         11   -1    0    0    0    0 -0.00000000000E+00 -0.00000000000E+00 -0.45593999997E+02  0.45594000000E+02  0.51100000000E-03 0.  1.
    9900012    2    1    2    0    0  0.36247223346E+01  0.69328859158E+01 -0.17013979676E+02  0.72461574192E+02  0.70000005077E+02 0.  0.
         12    1    1    2    0    0 -0.36247223346E+01 -0.69328859158E+01  0.17013979676E+02  0.18726425808E+02  0.00000000000E+00 0. -1.
         11    1    3    3    0    0 -0.18347449013E+02  0.74748081679E+01 -0.41246110937E+01  0.20236453725E+02  0.51100000000E-03 0. -1.
        -11    1    3    3    0    0  0.21254320168E+02  0.14029212907E+02  0.80462456578E+01  0.26707808035E+02  0.51100000000E-03 0.  1.
        -12    1    3    3    0    0  0.71785117927E+00 -0.14571135159E+02 -0.20935614240E+02  0.25517312432E+02  0.00000000000E+00 0.  1.
</event>
<event>
 7    1  0.2684545E-013  0.7246154E+02  0.7816164E-02  0.1226708E+00
        -11   -1    0    0    0    0  0.00000000000E+00  0.00000000000E+00  0.45593999997E+02  0.45594000000E+02  0.51100000000E-03 0.  1.
         11   -1    0    0    0    0 -0.00000000000E+00 -0.00000000000E+00 -0.45593999997E+02  0.45594000000E+02  0.51100000000E-03 0. -1.
    9900012    2    1    2    0    0  0.43369566064E+00 -0.96051505054E+01  0.16069642236E+02  0.72461537180E+02  0.69999956862E+02 0.  0.
         12    1    1    2    0    0 -0.43369566064E+00  0.96051505054E+01 -0.16069642236E+02  0.18726462820E+02  0.00000000000E+00 0. -1.
         11    1    3    3    0    0 -0.10885527760E+02  0.14722748381E+02  0.39837872703E+01  0.18738318916E+02  0.51100000000E-03 0. -1.
        -11    1    3    3    0    0 -0.32481586366E+01 -0.27324283855E+02 -0.80688255255E+01  0.28675302411E+02  0.51100000000E-03 0.  1.
         12    1    3    3    0    0  0.14567382058E+02  0.29963849690E+01  0.20154680491E+02  0.25047915854E+02  0.00000000000E+00 0. -1.
</event>
<event>
 7    1  0.2684545E-013  0.7246169E+02  0.7816164E-02  0.1226708E+00
        -11   -1    0    0    0    0  0.00000000000E+00  0.00000000000E+00  0.45593999997E+02  0.45594000000E+02  0.51100000000E-03 0.  1.
         11   -1    0    0    0    0 -0.00000000000E+00 -0.00000000000E+00 -0.45593999997E+02  0.45594000000E+02  0.51100000000E-03 0. -1.
    9900012    2    1    2    0    0  0.58771060587E+01  0.17609436168E+02  0.24580443345E+01  0.72461692309E+02  0.70000158947E+02 0.  0.
         12    1    1    2    0    0 -0.58771060587E+01 -0.17609436168E+02 -0.24580443345E+01  0.18726307691E+02  0.00000000000E+00 0. -1.
         11    1    3    3    0    0 -0.92431775894E+01 -0.18151192927E+02  0.51259003849E+01  0.21004213664E+02  0.51100000000E-03 0.  1.
        -11    1    3    3    0    0 -0.10299365590E+02  0.15086328391E+02 -0.38602260089E+01  0.18670178922E+02  0.51100000000E-03 0. -1.
        -12    1    3    3    0    0  0.25419649238E+02  0.20674300704E+02  0.11923699585E+01  0.32787299723E+02  0.00000000000E+00 0.  1.
</event>
<event>
 7    1  0.2684545E-013  0.7246167E+02  0.7816164E-02  0.1226708E+00
        -11   -1    0    0    0    0  0.00000000000E+00  0.00000000000E+00  0.45593999997E+02  0.45594000000E+02  0.51100000000E-03 0.  1.
         11   -1    0    0    0    0 -0.00000000000E+00 -0.00000000000E+00 -0.45593999997E+02  0.45594000000E+02  0.51100000000E-03 0. -1.
    9900012    2    1    2    0    0 -0.99187302015E+01  0.13260074519E+02 -0.87444080857E+01  0.72461669398E+02  0.70000129100E+02 0.  0.
         12    1    1    2    0    0  0.99187302015E+01 -0.13260074519E+02  0.87444080857E+01  0.18726330602E+02  0.00000000000E+00 0. -1.
         11    1    3    3    0    0  0.12497188048E+02  0.14537237341E+02  0.79205782477E+01  0.20742385076E+02  0.51100000000E-03 0. -1.
        -11    1    3    3    0    0  0.39389229430E+00 -0.13030378222E+02  0.86729035279E+01  0.15657750911E+02  0.51100000000E-03 0.  1.
        -12    1    3    3    0    0 -0.22809810544E+02  0.11753215400E+02 -0.25337889861E+02  0.36061533410E+02  0.00000000000E+00 0.  1.
</event>
<event>
 7    1  0.2684545E-013  0.7246163E+02  0.7816164E-02  0.1226708E+00
        -11   -1    0    0    0    0  0.00000000000E+00  0.00000000000E+00  0.45593999997E+02  0.45594000000E+02  0.51100000000E-03 0. -1.
         11   -1    0    0    0    0 -0.00000000000E+00 -0.00000000000E+00 -0.45593999997E+02  0.45594000000E+02  0.51100000000E-03 0.  1.
    9900012    2    1    2    0    0 -0.14888332742E+01 -0.12408106580E+02 -0.13946302087E+02  0.72461626210E+02  0.70000072841E+02 0.  0.
         12    1    1    2    0    0  0.14888332742E+01  0.12408106580E+02  0.13946302087E+02  0.18726373790E+02  0.00000000000E+00 0. -1.
         11    1    3    3    0    0  0.35323568821E+00 -0.17439711235E+02 -0.10221469910E+02  0.20217486263E+02  0.51100000000E-03 0. -1.
        -11    1    3    3    0    0 -0.10993424338E+02 -0.21428242048E+02 -0.84200671021E+00  0.24098421349E+02  0.51100000000E-03 0.  1.
         12    1    3    3    0    0  0.91513553760E+01  0.26459846703E+02 -0.28828254668E+01  0.28145718599E+02  0.00000000000E+00 0. -1.
</event>
<event>
 7    1  0.2684545E-013  0.7246158E+02  0.7816164E-02  0.1226708E+00
        -11   -1    0    0    0    0  0.00000000000E+00  0.00000000000E+00  0.45593999997E+02  0.45594000000E+02  0.51100000000E-03 0.  1.
         11   -1    0    0    0    0 -0.00000000000E+00 -0.00000000000E+00 -0.45593999997E+02  0.45594000000E+02  0.51100000000E-03 0. -1.
    9900012    2    1    2    0    0  0.61245168819E+00 -0.14252531752E+02  0.12131323929E+02  0.72461580729E+02  0.70000013594E+02 0.  0.
         12    1    1    2    0    0 -0.61245168819E+00  0.14252531752E+02 -0.12131323929E+02  0.18726419271E+02  0.00000000000E+00 0. -1.
         11    1    3    3    0    0  0.62771351066E+00 -0.24554910594E+02 -0.59541619515E+01  0.25274289374E+02  0.51100000000E-03 0. -1.
        -11    1    3    3    0    0  0.57590744029E+01  0.22861529541E+01 -0.13090761454E+02  0.14483144307E+02  0.51100000000E-03 0.  1.
        -12    1    3    3    0    0 -0.57743362254E+01  0.80162258877E+01  0.31176247335E+02  0.32704147049E+02  0.00000000000E+00 0.  1.
</event>
<event>
 7    1  0.2684545E-013  0.7246145E+02  0.7816164E-02  0.1226708E+00
        -11   -1    0    0    0    0  0.00000000000E+00  0.00000000000E+00  0.45593999997E+02  0.45594000000E+02  0.51100000000E-03 0. -1.
         11   -1    0    0    0    0 -0.00000000000E+00 -0.00000000000E+00 -0.45593999997E+02  0.45594000000E+02  0.51100000000E-03 0.  1.
    9900012    2    1    2    0    0  0.11764774646E+02 -0.83190447554E+01 -0.11961068709E+02  0.72461452193E+02  0.69999846151E+02 0.  0.
         12    1    1    2    0    0 -0.11764774646E+02  0.83190447554E+01  0.11961068709E+02  0.18726547807E+02  0.00000000000E+00 0. -1.
         11    1    3    3    0    0 -0.72957307861E+00  0.16711780568E+02  0.17334797441E+02  0.24089646930E+02  0.51100000000E-03 0. -1.
        -11    1    3    3    0    0  0.14327172969E+02 -0.25302835345E+01 -0.54532589264E+01  0.15537318083E+02  0.51100000000E-03 0.  1.
        -12    1    3    3    0    0 -0.18328252439E+01 -0.22500541789E+02 -0.23842607223E+02  0.32834487180E+02  0.00000000000E+00 0.  1.
</event>
<event>
 7    1  0.2684545E-013  0.7246148E+02  0.7816164E-02  0.1226708E+00
        -11   -1    0    0    0    0  0.00000000000E+00  0.00000000000E+00  0.45593999997E+02  0.45594000000E+02  0.51100000000E-03 0.  1.
         11   -1    0    0    0    0 -0.00000000000E+00 -0.00000000000E+00 -0.45593999997E+02  0.45594000000E+02  0.51100000000E-03 0. -1.
    9900012    2    1    2    0    0  0.10849112675E+01 -0.10311637764E+02  0.15594092830E+02  0.72461477711E+02  0.69999879393E+02 0.  0.
         12    1    1    2    0    0 -0.10849112675E+01  0.10311637764E+02 -0.15594092830E+02  0.18726522289E+02  0.00000000000E+00 0. -1.
         11    1    3    3    0    0 -0.23259553684E+02  0.88944589132E+01  0.50569087802E+01  0.25410442019E+02  0.51100000000E-03 0. -1.
        -11    1    3    3    0    0  0.14455945703E+01 -0.13768400275E+02  0.17680057507E+02  0.22455356232E+02  0.51100000000E-03 0.  1.
         12    1    3    3    0    0  0.22898870381E+02 -0.54376964021E+01 -0.71428734572E+01  0.24595679460E+02  0.00000000000E+00 0. -1.
</event>
<event>
 7    1  0.2684545E-013  0.7246157E+02  0.7816164E-02  0.1226708E+00
        -11   -1    0    0    0    0  0.00000000000E+00  0.00000000000E+00  0.45593999997E+02  0.45594000000E+02  0.51100000000E-03 0. -1.
         11   -1    0    0    0    0 -0.00000000000E+00 -0.00000000000E+00 -0.45593999997E+02  0.45594000000E+02  0.51100000000E-03 0.  1.
    9900012    2    1    2    0    0  0.87342579499E+01 -0.44614757305E+01 -0.15952652009E+02  0.72461571249E+02  0.70000001244E+02 0.  0.
         12    1    1    2    0    0 -0.87342579499E+01  0.44614757305E+01  0.15952652009E+02  0.18726428751E+02  0.00000000000E+00 0. -1.
         11    1    3    3    0    0  0.88654075250E+01 -0.45810468068E+01 -0.18961759765E+01  0.10157604246E+02  0.51100000000E-03 0. -1.
        -11    1    3    3    0    0  0.16421716160E+02  0.17899987636E+02  0.11645030583E+02  0.26938616455E+02  0.51100000000E-03 0.  1.
         12    1    3    3    0    0 -0.16552865735E+02 -0.17780416559E+02 -0.25701506616E+02  0.35365350548E+02  0.00000000000E+00 0. -1.
</event>
<event>
 7    1  0.2684545E-013  0.7246160E+02  0.7816164E-02  0.1226708E+00
        -11   -1    0    0    0    0  0.00000000000E+00  0.00000000000E+00  0.45593999997E+02  0.45594000000E+02  0.51100000000E-03 0. -1.
         11   -1    0    0    0    0 -0.00000000000E+00 -0.00000000000E+00 -0.45593999997E+02  0.45594000000E+02  0.51100000000E-03 0.  1.
    9900012    2    1    2    0    0 -0.14832564574E+01 -0.15108449054E+02 -0.10964162871E+02  0.72461597515E+02  0.70000035461E+02 0.  0.
         12    1    1    2    0    0  0.14832564574E+01  0.15108449054E+02  0.10964162871E+02  0.18726402485E+02  0.00000000000E+00 0. -1.
         11    1    3    3    0    0  0.20415700006E+02 -0.13867925842E+01 -0.17401271255E+02  0.26861277742E+02  0.51100000000E-03 0. -1.
        -11    1    3    3    0    0  0.38642725432E+01 -0.12127613221E+02 -0.89403815835E+01  0.15554485779E+02  0.51100000000E-03 0.  1.
        -12    1    3    3    0    0 -0.25763229007E+02 -0.15940432497E+01  0.15377489967E+02  0.30045833995E+02  0.00000000000E+00 0.  1.
</event>
<event>
 7    1  0.2684545E-013  0.7246158E+02  0.7816164E-02  0.1226708E+00
        -11   -1    0    0    0    0  0.00000000000E+00  0.00000000000E+00  0.45593999997E+02  0.45594000000E+02  0.51100000000E-03 0. -1.
         11   -1    0    0    0    0 -0.00000000000E+00 -0.00000000000E+00 -0.45593999997E+02  0.45594000000E+02  0.51100000000E-03 0.  1.
    9900012    2    1    2    0    0  0.16805398895E+02 -0.81698565412E+01 -0.12291448628E+01  0.72461580561E+02  0.70000013374E+02 0.  0.
         12    1    1    2    0    0 -0.16805398895E+02  0.81698565412E+01  0.12291448628E+01  0.18726419439E+02  0.00000000000E+00 0. -1.
         11    1    3    3    0    0 -0.51686986396E+01 -0.73879812644E+01  0.85480937642E+01  0.12424476651E+02  0.51100000000E-03 0. -1.
        -11    1    3    3    0    0  0.35134350509E+02 -0.15543381036E+02 -0.11717250648E+02  0.40166070790E+02  0.51100000000E-03 0.  1.
         12    1    3    3    0    0 -0.13160252974E+02  0.14761505759E+02  0.19400120211E+01  0.19871033120E+02  0.00000000000E+00 0. -1.
</event>
<event>
 7    1  0.2684545E-013  0.7246158E+02  0.7816164E-02  0.1226708E+00
        -11   -1    0    0    0    0  0.00000000000E+00  0.00000000000E+00  0.45593999997E+02  0.45594000000E+02  0.51100000000E-03 0.  1.
         11   -1    0    0    0    0 -0.00000000000E+00 -0.00000000000E+00 -0.45593999997E+02  0.45594000000E+02  0.51100000000E-03 0. -1.
    9900012    2    1    2    0    0 -0.16143721403E+01 -0.16151323437E+02  0.93384891747E+01  0.72461579460E+02  0.70000011940E+02 0.  0.
         12    1    1    2    0    0  0.16143721403E+01  0.16151323437E+02 -0.93384891747E+01  0.18726420540E+02  0.00000000000E+00 0. -1.
         11    1    3    3    0    0  0.22394789933E+02  0.26301703666E+01  0.38105103834E+01  0.22868414942E+02  0.51100000000E-03 0.  1.
        -11    1    3    3    0    0 -0.21915959076E+01 -0.79900647843E+01 -0.15403533713E+02  0.17490371036E+02  0.51100000000E-03 0. -1.
        -12    1    3    3    0    0 -0.21817566166E+02 -0.10791429019E+02  0.20931512504E+02  0.32102793482E+02  0.00000000000E+00 0.  1.
</event>
<event>
 7    1  0.2684545E-013  0.7246157E+02  0.7816164E-02  0.1226708E+00
        -11   -1    0    0    0    0  0.00000000000E+00  0.00000000000E+00  0.45593999997E+02  0.45594000000E+02  0.51100000000E-03 0. -1.
         11   -1    0    0    0    0 -0.00000000000E+00 -0.00000000000E+00 -0.45593999997E+02  0.45594000000E+02  0.51100000000E-03 0.  1.
    9900012    2    1    2    0    0 -0.40017959318E+01 -0.32131287089E+01 -0.18009461903E+02  0.72461567216E+02  0.69999995990E+02 0.  0.
         12    1    1    2    0    0  0.40017959318E+01  0.32131287089E+01  0.18009461903E+02  0.18726432784E+02  0.00000000000E+00 0. -1.
         11    1    3    3    0    0 -0.28581023257E+02  0.88847367416E+01  0.44767966102E-01  0.29930176108E+02  0.51100000000E-03 0. -1.
        -11    1    3    3    0    0  0.35686694967E+01 -0.13620268954E+02  0.10151342921E+01  0.14116572752E+02  0.51100000000E-03 0.  1.
        -12    1    3    3    0    0  0.21010557829E+02  0.15224035039E+01 -0.19069364161E+02  0.28414818356E+02  0.00000000000E+00 0.  1.
</event>
<event>
 7    1  0.2684545E-013  0.7246156E+02  0.7816164E-02  0.1226708E+00
        -11   -1    0    0    0    0  0.00000000000E+00  0.00000000000E+00  0.45593999997E+02  0.45594000000E+02  0.51100000000E-03 0.  1.
         11   -1    0    0    0    0 -0.00000000000E+00 -0.00000000000E+00 -0.45593999997E+02  0.45594000000E+02  0.51100000000E-03 0. -1.
    9900012    2    1    2    0    0 -0.15173793385E+01  0.11902392402E+01  0.18626873116E+02  0.72461561161E+02  0.69999988102E+02 0.  0.
         12    1    1    2    0    0  0.15173793385E+01 -0.11902392402E+01 -0.18626873116E+02  0.18726438839E+02  0.00000000000E+00 0. -1.
         11    1    3    3    0    0  0.15353536559E+02 -0.50375282671E+01 -0.16077621305E+02  0.22794685411E+02  0.51100000000E-03 0. -1.
        -11    1    3    3    0    0  0.77684291969E+01 -0.39670025665E+01  0.10541436567E+02  0.13682378693E+02  0.51100000000E-03 0.  1.
        -12    1    3    3    0    0 -0.24639345094E+02  0.10194770074E+02  0.24163057854E+02  0.35984497056E+02  0.00000000000E+00 0.  1.
</event>
<event>
 7    1  0.2684545E-013  0.7246156E+02  0.7816164E-02  0.1226708E+00
        -11   -1    0    0    0    0  0.00000000000E+00  0.00000000000E+00  0.45593999997E+02  0.45594000000E+02  0.51100000000E-03 0.  1.
         11   -1    0    0    0    0 -0.00000000000E+00 -0.00000000000E+00 -0.45593999997E+02  0.45594000000E+02  0.51100000000E-03 0. -1.
    9900012    2    1    2    0    0  0.73265701957E+01  0.12418707337E+02 -0.11948924555E+02  0.72461555576E+02  0.69999980826E+02 0.  0.
         12    1    1    2    0    0 -0.73265701957E+01 -0.12418707337E+02  0.11948924555E+02  0.18726444424E+02  0.00000000000E+00 0. -1.
         11    1    3    3    0    0  0.16465857493E+02  0.14898825071E+02  0.12088481186E+02  0.25283014636E+02  0.51100000000E-03 0.  1.
        -11    1    3    3    0    0  0.12531948699E+02 -0.10954865593E+02 -0.14336411350E+02  0.21967965518E+02  0.51100000000E-03 0. -1.
         12    1    3    3    0    0 -0.21671235996E+02  0.84747478589E+01 -0.97009943907E+01  0.25210575421E+02  0.00000000000E+00 0. -1.
</event>
<event>
 7    1  0.2684545E-013  0.7246158E+02  0.7816164E-02  0.1226708E+00
        -11   -1    0    0    0    0  0.00000000000E+00  0.00000000000E+00  0.45593999997E+02  0.45594000000E+02  0.51100000000E-03 0.  1.
         11   -1    0    0    0    0 -0.00000000000E+00 -0.00000000000E+00 -0.45593999997E+02  0.45594000000E+02  0.51100000000E-03 0. -1.
    9900012    2    1    2    0    0 -0.38033800534E+01 -0.16258568231E+02  0.84777374411E+01  0.72461580885E+02  0.70000013797E+02 0.  0.
         12    1    1    2    0    0  0.38033800534E+01  0.16258568231E+02 -0.84777374411E+01  0.18726419115E+02  0.00000000000E+00 0. -1.
         11    1    3    3    0    0 -0.14355232458E+02  0.45807027530E+01  0.10948419955E+02  0.18625880822E+02  0.51100000000E-03 0. -1.
        -11    1    3    3    0    0 -0.16349392016E+02 -0.17902775547E+02  0.68842864224E+01  0.25203281362E+02  0.51100000000E-03 0.  1.
         12    1    3    3    0    0  0.26901244421E+02 -0.29364954364E+01 -0.93549689359E+01  0.28632418701E+02  0.00000000000E+00 0. -1.
</event>
<event>
 7    1  0.2684545E-013  0.7246165E+02  0.7816164E-02  0.1226708E+00
        -11   -1    0    0    0    0  0.00000000000E+00  0.00000000000E+00  0.45593999997E+02  0.45594000000E+02  0.51100000000E-03 0.  1.
         11   -1    0    0    0    0 -0.00000000000E+00 -0.00000000000E+00 -0.45593999997E+02  0.45594000000E+02  0.51100000000E-03 0. -1.
    9900012    2    1    2    0    0  0.22977044238E+00  0.11789651063E+02  0.14547419707E+02  0.72461652604E+02  0.70000107224E+02 0.  0.
         12    1    1    2    0    0 -0.22977044238E+00 -0.11789651063E+02 -0.14547419707E+02  0.18726347396E+02  0.00000000000E+00 0. -1.
         11    1    3    3    0    0 -0.26430536356E+01 -0.16190070872E+02  0.51007887911E+01  0.17179120289E+02  0.51100000000E-03 0. -1.
        -11    1    3    3    0    0  0.16526938330E+02  0.67551151384E+01 -0.12534512677E+02  0.21814794966E+02  0.51100000000E-03 0.  1.
         12    1    3    3    0    0 -0.13654114252E+02  0.21224606797E+02  0.21981143593E+02  0.33467737350E+02  0.00000000000E+00 0. -1.
</event>
<event>
 7    1  0.2684545E-013  0.7246174E+02  0.7816164E-02  0.1226708E+00
        -11   -1    0    0    0    0  0.00000000000E+00  0.00000000000E+00  0.45593999997E+02  0.45594000000E+02  0.51100000000E-03 0. -1.
         11   -1    0    0    0    0 -0.00000000000E+00 -0.00000000000E+00 -0.45593999997E+02  0.45594000000E+02  0.51100000000E-03 0.  1.
    9900012    2    1    2    0    0  0.18249149920E+02 -0.18189831988E+01  0.37858284817E+01  0.72461743835E+02  0.70000226069E+02 0.  0.
         12    1    1    2    0    0 -0.18249149920E+02  0.18189831988E+01 -0.37858284817E+01  0.18726256165E+02  0.00000000000E+00 0. -1.
         11    1    3    3    0    0  0.77786249480E+01  0.16091169045E+02 -0.90763365188E+00  0.17895712515E+02  0.51100000000E-03 0. -1.
        -11    1    3    3    0    0 -0.44366464290E+01  0.50001097765E+01  0.21475650633E+02  0.22491965225E+02  0.51100000000E-03 0.  1.
        -12    1    3    3    0    0  0.14907171400E+02 -0.22910262021E+02 -0.16782188499E+02  0.32074066095E+02  0.00000000000E+00 0.  1.
</event>
<event>
 7    1  0.2684545E-013  0.7246155E+02  0.7816164E-02  0.1226708E+00
        -11   -1    0    0    0    0  0.00000000000E+00  0.00000000000E+00  0.45593999997E+02  0.45594000000E+02  0.51100000000E-03 0.  1.
         11   -1    0    0    0    0 -0.00000000000E+00 -0.00000000000E+00 -0.45593999997E+02  0.45594000000E+02  0.51100000000E-03 0. -1.
    9900012    2    1    2    0    0  0.89164094457E+01  0.11517580630E+02  0.11769582737E+02  0.72461545483E+02  0.69999967679E+02 0.  0.
         12    1    1    2    0    0 -0.89164094457E+01 -0.11517580630E+02 -0.11769582737E+02  0.18726454517E+02  0.00000000000E+00 0. -1.
         11    1    3    3    0    0  0.18706231760E+02 -0.67116309141E+01 -0.19251430315E+02  0.27669236809E+02  0.51100000000E-03 0. -1.
        -11    1    3    3    0    0 -0.47665852324E+01 -0.49754973126E+01  0.17613890293E+01  0.71118492573E+01  0.51100000000E-03 0.  1.
        -12    1    3    3    0    0 -0.50232370820E+01  0.23204708857E+02  0.29259624022E+02  0.37680459416E+02  0.00000000000E+00 0.  1.
</event>
<event>
 7    1  0.2684545E-013  0.7246158E+02  0.7816164E-02  0.1226708E+00
        -11   -1    0    0    0    0  0.00000000000E+00  0.00000000000E+00  0.45593999997E+02  0.45594000000E+02  0.51100000000E-03 0. -1.
         11   -1    0    0    0    0 -0.00000000000E+00 -0.00000000000E+00 -0.45593999997E+02  0.45594000000E+02  0.51100000000E-03 0.  1.
    9900012    2    1    2    0    0  0.18036598649E+02  0.43581109456E+01  0.25232617052E+01  0.72461578252E+02  0.70000010366E+02 0.  0.
         12    1    1    2    0    0 -0.18036598649E+02 -0.43581109456E+01 -0.25232617052E+01  0.18726421748E+02  0.00000000000E+00 0. -1.
         11    1    3    3    0    0  0.27686327139E+02  0.25520404428E+02  0.14692779125E+02  0.40419073608E+02  0.51100000000E-03 0. -1.
        -11    1    3    3    0    0  0.47841040060E+01 -0.62742507544E+01  0.20851369125E+00  0.78928671527E+01  0.51100000000E-03 0.  1.
        -12    1    3    3    0    0 -0.14433832496E+02 -0.14888042728E+02 -0.12378031111E+02  0.24149637492E+02  0.00000000000E+00 0.  1.
</event>
<event>
 7    1  0.2684545E-013  0.7246160E+02  0.7816164E-02  0.1226708E+00
        -11   -1    0    0    0    0  0.00000000000E+00  0.00000000000E+00  0.45593999997E+02  0.45594000000E+02  0.51100000000E-03 0. -1.
         11   -1    0    0    0    0 -0.00000000000E+00 -0.00000000000E+00 -0.45593999997E+02  0.45594000000E+02  0.51100000000E-03 0.  1.
    9900012    2    1    2    0    0 -0.13665763568E+02  0.47857509398E+01 -0.11875252245E+02  0.72461598268E+02  0.70000036441E+02 0.  0.
         12    1    1    2    0    0  0.13665763568E+02 -0.47857509398E+01  0.11875252245E+02  0.18726401732E+02  0.00000000000E+00 0. -1.
         11    1    3    3    0    0 -0.12894710841E+02  0.88643651313E+01  0.21456058247E+02  0.26555846298E+02  0.51100000000E-03 0. -1.
        -11    1    3    3    0    0 -0.13591811167E+02  0.31776534491E+01 -0.67264660708E+01  0.15494520267E+02  0.51100000000E-03 0.  1.
        -12    1    3    3    0    0  0.12820758439E+02 -0.72562676406E+01 -0.26604844421E+02  0.30411231703E+02  0.00000000000E+00 0.  1.
</event>
<event>
 7    1  0.2684545E-013  0.7246151E+02  0.7816164E-02  0.1226708E+00
        -11   -1    0    0    0    0  0.00000000000E+00  0.00000000000E+00  0.45593999997E+02  0.45594000000E+02  0.51100000000E-03 0. -1.
         11   -1    0    0    0    0 -0.00000000000E+00 -0.00000000000E+00 -0.45593999997E+02  0.45594000000E+02  0.51100000000E-03 0.  1.
    9900012    2    1    2    0    0  0.16356868941E+02 -0.90436942654E+01 -0.11601244444E+01  0.72461509239E+02  0.69999920464E+02 0.  0.
         12    1    1    2    0    0 -0.16356868941E+02  0.90436942654E+01  0.11601244444E+01  0.18726490761E+02  0.00000000000E+00 0. -1.
         11    1    3    3    0    0  0.23178154270E+02 -0.18437936898E+02  0.18714624228E+02  0.35034575960E+02  0.51100000000E-03 0. -1.
        -11    1    3    3    0    0 -0.16695444599E+02  0.34831209582E+01 -0.34963107359E+01  0.17409600540E+02  0.51100000000E-03 0.  1.
         12    1    3    3    0    0  0.98741592689E+01  0.59111216743E+01 -0.16378437937E+02  0.20017332738E+02  0.00000000000E+00 0. -1.
</event>
<event>
 7    1  0.2684545E-013  0.7246160E+02  0.7816164E-02  0.1226708E+00
        -11   -1    0    0    0    0  0.00000000000E+00  0.00000000000E+00  0.45593999997E+02  0.45594000000E+02  0.51100000000E-03 0. -1.
         11   -1    0    0    0    0 -0.00000000000E+00 -0.00000000000E+00 -0.45593999997E+02  0.45594000000E+02  0.51100000000E-03 0.  1.
    9900012    2    1    2    0    0 -0.15765198811E+02  0.98484565180E+01 -0.22681070362E+01  0.72461604221E+02  0.70000044196E+02 0.  0.
         12    1    1    2    0    0  0.15765198811E+02 -0.98484565180E+01  0.22681070362E+01  0.18726395779E+02  0.00000000000E+00 0. -1.
         11    1    3    3    0    0  0.26388115265E+02  0.12691840087E+02 -0.39064369005E+01  0.29541084638E+02  0.51100000000E-03 0. -1.
        -11    1    3    3    0    0 -0.74186856681E+00  0.30421495890E-01 -0.10911804150E+01  0.13198368828E+01  0.51100000000E-03 0.  1.
         12    1    3    3    0    0 -0.41411445510E+02 -0.28738050651E+01  0.27295102793E+01  0.41600682700E+02  0.00000000000E+00 0. -1.
</event>
<event>
 7    1  0.2684545E-013  0.7246152E+02  0.7816164E-02  0.1226708E+00
        -11   -1    0    0    0    0  0.00000000000E+00  0.00000000000E+00  0.45593999997E+02  0.45594000000E+02  0.51100000000E-03 0. -1.
         11   -1    0    0    0    0 -0.00000000000E+00 -0.00000000000E+00 -0.45593999997E+02  0.45594000000E+02  0.51100000000E-03 0.  1.
    9900012    2    1    2    0    0  0.16761992127E+02 -0.77954066298E+01  0.29913620823E+01  0.72461521642E+02  0.69999936621E+02 0.  0.
         12    1    1    2    0    0 -0.16761992127E+02  0.77954066298E+01 -0.29913620823E+01  0.18726478358E+02  0.00000000000E+00 0. -1.
         11    1    3    3    0    0 -0.12155599352E+02  0.10191177985E+02  0.12201996374E+01  0.15909355478E+02  0.51100000000E-03 0. -1.
        -11    1    3    3    0    0  0.25930749067E+02  0.10025557556E+02 -0.30626013748E+01  0.27969538411E+02  0.51100000000E-03 0.  1.
         12    1    3    3    0    0  0.29868424123E+01 -0.28012142171E+02  0.48337638197E+01  0.28582627753E+02  0.00000000000E+00 0. -1.
</event>
<event>
 7    1  0.2684545E-013  0.7246205E+02  0.7816164E-02  0.1226707E+00
        -11   -1    0    0    0    0  0.00000000000E+00  0.00000000000E+00  0.45593999997E+02  0.45594000000E+02  0.51100000000E-03 0.  1.
         11   -1    0    0    0    0 -0.00000000000E+00 -0.00000000000E+00 -0.45593999997E+02  0.45594000000E+02  0.51100000000E-03 0. -1.
    9900012    2    1    2    0    0  0.50813714540E+01  0.17173276058E+02  0.54698797629E+01  0.72462046592E+02  0.70000620463E+02 0.  0.
         12    1    1    2    0    0 -0.50813714540E+01 -0.17173276058E+02 -0.54698797629E+01  0.18725953408E+02  0.00000000000E+00 0. -1.
         11    1    3    3    0    0  0.87311559198E+01  0.30567882505E+01 -0.28637809329E+01  0.96839186075E+01  0.51100000000E-03 0. -1.
        -11    1    3    3    0    0 -0.96125020074E+01  0.24406903600E+02  0.28894405601E+02  0.39025425218E+02  0.51100000000E-03 0.  1.
         12    1    3    3    0    0  0.59627175416E+01 -0.10290415792E+02 -0.20560744905E+02  0.23752702766E+02  0.00000000000E+00 0. -1.
</event>
<event>
 7    1  0.2684545E-013  0.7246158E+02  0.7816164E-02  0.1226708E+00
        -11   -1    0    0    0    0  0.00000000000E+00  0.00000000000E+00  0.45593999997E+02  0.45594000000E+02  0.51100000000E-03 0.  1.
         11   -1    0    0    0    0 -0.00000000000E+00 -0.00000000000E+00 -0.45593999997E+02  0.45594000000E+02  0.51100000000E-03 0. -1.
    9900012    2    1    2    0    0  0.16666016914E+02 -0.83558033832E+01  0.17616153634E+01  0.72461578595E+02  0.70000010813E+02 0.  0.
         12    1    1    2    0    0 -0.16666016914E+02  0.83558033832E+01 -0.17616153634E+01  0.18726421405E+02  0.00000000000E+00 0. -1.
         11    1    3    3    0    0  0.13108352778E+02  0.43878860451E+00 -0.12004586188E+02  0.17780088239E+02  0.51100000000E-03 0. -1.
        -11    1    3    3    0    0  0.46279965204E+01 -0.19491056968E+02 -0.14309116727E+02  0.24618498640E+02  0.51100000000E-03 0.  1.
         12    1    3    3    0    0 -0.10703323846E+01  0.10696464981E+02  0.28075318278E+02  0.30062991716E+02  0.00000000000E+00 0. -1.
</event>
<event>
 7    1  0.2684545E-013  0.7246151E+02  0.7816164E-02  0.1226708E+00
        -11   -1    0    0    0    0  0.00000000000E+00  0.00000000000E+00  0.45593999997E+02  0.45594000000E+02  0.51100000000E-03 0. -1.
         11   -1    0    0    0    0 -0.00000000000E+00 -0.00000000000E+00 -0.45593999997E+02  0.45594000000E+02  0.51100000000E-03 0.  1.
    9900012    2    1    2    0    0  0.26370636169E+01  0.40594798142E+01 -0.18089999886E+02  0.72461506020E+02  0.69999916271E+02 0.  0.
         12    1    1    2    0    0 -0.26370636169E+01 -0.40594798142E+01  0.18089999886E+02  0.18726493980E+02  0.00000000000E+00 0. -1.
         11    1    3    3    0    0  0.59933240052E+01 -0.98127222580E+01 -0.14514185496E+01  0.11589480869E+02  0.51100000000E-03 0. -1.
        -11    1    3    3    0    0 -0.53636664506E+01  0.20289500316E+02 -0.35282727519E+02  0.41052449407E+02  0.51100000000E-03 0.  1.
         12    1    3    3    0    0  0.20074060624E+01 -0.64172982442E+01  0.18644146182E+02  0.19819575745E+02  0.00000000000E+00 0. -1.
</event>
<event>
 7    1  0.2684545E-013  0.7246158E+02  0.7816164E-02  0.1226708E+00
        -11   -1    0    0    0    0  0.00000000000E+00  0.00000000000E+00  0.45593999997E+02  0.45594000000E+02  0.51100000000E-03 0. -1.
         11   -1    0    0    0    0 -0.00000000000E+00 -0.00000000000E+00 -0.45593999997E+02  0.45594000000E+02  0.51100000000E-03 0.  1.
    9900012    2    1    2    0    0 -0.15076556744E+02 -0.94984874423E+01 -0.57580248943E+01  0.72461583428E+02  0.70000017109E+02 0.  0.
         12    1    1    2    0    0  0.15076556744E+02  0.94984874423E+01  0.57580248943E+01  0.18726416572E+02  0.00000000000E+00 0. -1.
         11    1    3    3    0    0 -0.28330804557E+02 -0.53631528852E+01 -0.18344527197E+02  0.34174838318E+02  0.51100000000E-03 0. -1.
        -11    1    3    3    0    0 -0.39258531397E+01 -0.13008481233E+02 -0.24311183143E+01  0.13803740195E+02  0.51100000000E-03 0.  1.
        -12    1    3    3    0    0  0.17180100953E+02  0.88731466758E+01  0.15017620617E+02  0.24483004915E+02  0.00000000000E+00 0.  1.
</event>
<event>
 7    1  0.2684545E-013  0.7246155E+02  0.7816164E-02  0.1226708E+00
        -11   -1    0    0    0    0  0.00000000000E+00  0.00000000000E+00  0.45593999997E+02  0.45594000000E+02  0.51100000000E-03 0. -1.
         11   -1    0    0    0    0 -0.00000000000E+00 -0.00000000000E+00 -0.45593999997E+02  0.45594000000E+02  0.51100000000E-03 0.  1.
    9900012    2    1    2    0    0  0.35234532360E-01  0.23129808624E+01 -0.18583023594E+02  0.72461551115E+02  0.69999975016E+02 0.  0.
         12    1    1    2    0    0 -0.35234532360E-01 -0.23129808624E+01  0.18583023594E+02  0.18726448885E+02  0.00000000000E+00 0. -1.
         11    1    3    3    0    0 -0.18784696213E+02  0.95469256737E+01 -0.10062757353E+02  0.23350967591E+02  0.51100000000E-03 0. -1.
        -11    1    3    3    0    0  0.25081511047E+01 -0.98154141233E+01 -0.24263902352E+02  0.26293918194E+02  0.51100000000E-03 0.  1.
         12    1    3    3    0    0  0.16311779640E+02  0.25814693120E+01  0.15743636111E+02  0.22816665331E+02  0.00000000000E+00 0. -1.
</event>
<event>
 7    1  0.2684545E-013  0.7246158E+02  0.7816164E-02  0.1226708E+00
        -11   -1    0    0    0    0  0.00000000000E+00  0.00000000000E+00  0.45593999997E+02  0.45594000000E+02  0.51100000000E-03 0.  1.
         11   -1    0    0    0    0 -0.00000000000E+00 -0.00000000000E+00 -0.45593999997E+02  0.45594000000E+02  0.51100000000E-03 0. -1.
    9900012    2    1    2    0    0  0.14205671212E+02 -0.16806190446E+01  0.12085255881E+02  0.72461575230E+02  0.70000006429E+02 0.  0.
         12    1    1    2    0    0 -0.14205671212E+02  0.16806190446E+01 -0.12085255881E+02  0.18726424770E+02  0.00000000000E+00 0. -1.
         11    1    3    3    0    0  0.48863881128E+01  0.19382155960E+02  0.77650198637E+01  0.21443887059E+02  0.51100000000E-03 0. -1.
        -11    1    3    3    0    0 -0.10464436739E+02  0.85265077733E+01  0.72162910056E+01  0.15306228380E+02  0.51100000000E-03 0.  1.
        -12    1    3    3    0    0  0.19783719838E+02 -0.29589282778E+02 -0.28960549879E+01  0.35711459791E+02  0.00000000000E+00 0.  1.
</event>
<event>
 7    1  0.2684545E-013  0.7246155E+02  0.7816164E-02  0.1226708E+00
        -11   -1    0    0    0    0  0.00000000000E+00  0.00000000000E+00  0.45593999997E+02  0.45594000000E+02  0.51100000000E-03 0.  1.
         11   -1    0    0    0    0 -0.00000000000E+00 -0.00000000000E+00 -0.45593999997E+02  0.45594000000E+02  0.51100000000E-03 0. -1.
    9900012    2    1    2    0    0  0.15257473436E+02  0.78409857573E+01 -0.75105529500E+01  0.72461549218E+02  0.69999972544E+02 0.  0.
         12    1    1    2    0    0 -0.15257473436E+02 -0.78409857573E+01  0.75105529500E+01  0.18726450782E+02  0.00000000000E+00 0. -1.
         11    1    3    3    0    0  0.11265327621E+02 -0.20929195374E+02 -0.28516807098E+01  0.23938899485E+02  0.51100000000E-03 0. -1.
        -11    1    3    3    0    0  0.13838029779E+02 -0.12777009872E+01 -0.90725331753E+01  0.16596217836E+02  0.51100000000E-03 0.  1.
        -12    1    3    3    0    0 -0.98458839641E+01  0.30047882118E+02  0.44136609351E+01  0.31926431897E+02  0.00000000000E+00 0.  1.
</event>
<event>
 7    1  0.2684545E-013  0.7246157E+02  0.7816164E-02  0.1226708E+00
        -11   -1    0    0    0    0  0.00000000000E+00  0.00000000000E+00  0.45593999997E+02  0.45594000000E+02  0.51100000000E-03 0.  1.
         11   -1    0    0    0    0 -0.00000000000E+00 -0.00000000000E+00 -0.45593999997E+02  0.45594000000E+02  0.51100000000E-03 0. -1.
    9900012    2    1    2    0    0 -0.14234552175E+02  0.77587227787E+01  0.93733067117E+01  0.72461571257E+02  0.70000001254E+02 0.  0.
         12    1    1    2    0    0  0.14234552175E+02 -0.77587227787E+01 -0.93733067117E+01  0.18726428743E+02  0.00000000000E+00 0. -1.
         11    1    3    3    0    0  0.33065867616E+01  0.51407483951E+01 -0.10173665589E+01  0.61964380937E+01  0.51100000000E-03 0. -1.
        -11    1    3    3    0    0 -0.16086060786E+02  0.28880042570E+02 -0.81955960638E+01  0.34058567286E+02  0.51100000000E-03 0.  1.
         12    1    3    3    0    0 -0.14550781503E+01 -0.26262068186E+02  0.18586269334E+02  0.32206565877E+02  0.00000000000E+00 0. -1.
</event>
<event>
 7    1  0.2684545E-013  0.7246159E+02  0.7816164E-02  0.1226708E+00
        -11   -1    0    0    0    0  0.00000000000E+00  0.00000000000E+00  0.45593999997E+02  0.45594000000E+02  0.51100000000E-03 0. -1.
         11   -1    0    0    0    0 -0.00000000000E+00 -0.00000000000E+00 -0.45593999997E+02  0.45594000000E+02  0.51100000000E-03 0.  1.
    9900012    2    1    2    0    0 -0.12216291170E+02  0.11675107133E+02 -0.80704764593E+01  0.72461588523E+02  0.70000023747E+02 0.  0.
         12    1    1    2    0    0  0.12216291170E+02 -0.11675107133E+02  0.80704764593E+01  0.18726411477E+02  0.00000000000E+00 0. -1.
         11    1    3    3    0    0  0.15404785863E+02 -0.32800570832E+00 -0.54515736298E+01  0.16344254970E+02  0.51100000000E-03 0. -1.
        -11    1    3    3    0    0  0.30886997478E+01  0.22725827263E+02  0.29243403313E+01  0.23120446742E+02  0.51100000000E-03 0.  1.
        -12    1    3    3    0    0 -0.30709776781E+02 -0.10722714422E+02 -0.55432431608E+01  0.32996886811E+02  0.00000000000E+00 0.  1.
</event>
<event>
 7    1  0.2684545E-013  0.7246155E+02  0.7816164E-02  0.1226708E+00
        -11   -1    0    0    0    0  0.00000000000E+00  0.00000000000E+00  0.45593999997E+02  0.45594000000E+02  0.51100000000E-03 0. -1.
         11   -1    0    0    0    0 -0.00000000000E+00 -0.00000000000E+00 -0.45593999997E+02  0.45594000000E+02  0.51100000000E-03 0.  1.
    9900012    2    1    2    0    0 -0.57839016080E+01  0.15296399455E+02 -0.91239496026E+01  0.72461553181E+02  0.69999977707E+02 0.  0.
         12    1    1    2    0    0  0.57839016080E+01 -0.15296399455E+02  0.91239496026E+01  0.18726446819E+02  0.00000000000E+00 0. -1.
         11    1    3    3    0    0 -0.20865184925E+02  0.24732792178E+02  0.32605935103E+01  0.32522275768E+02  0.51100000000E-03 0. -1.
        -11    1    3    3    0    0 -0.17411959888E+01  0.50812683593E+01 -0.16489799821E+02  0.17342564690E+02  0.51100000000E-03 0.  1.
        -12    1    3    3    0    0  0.16822479306E+02 -0.14517661081E+02  0.41052567082E+01  0.22596712723E+02  0.00000000000E+00 0.  1.
</event>
<event>
 7    1  0.2684545E-013  0.7246154E+02  0.7816164E-02  0.1226708E+00
        -11   -1    0    0    0    0  0.00000000000E+00  0.00000000000E+00  0.45593999997E+02  0.45594000000E+02  0.51100000000E-03 0. -1.
         11   -1    0    0    0    0 -0.00000000000E+00 -0.00000000000E+00 -0.45593999997E+02  0.45594000000E+02  0.51100000000E-03 0.  1.
    9900012    2    1    2    0    0 -0.15688078793E+02  0.47282538533E+01 -0.90668658542E+01  0.72461541255E+02  0.69999962170E+02 0.  0.
         12    1    1    2    0    0  0.15688078793E+02 -0.47282538533E+01  0.90668658542E+01  0.18726458745E+02  0.00000000000E+00 0. -1.
         11    1    3    3    0    0 -0.31427885429E+01 -0.14363257616E+02  0.85260728897E+01  0.16996299843E+02  0.51100000000E-03 0. -1.
        -11    1    3    3    0    0 -0.26994012368E+02  0.86489734972E+01 -0.23357122372E+02  0.36729233752E+02  0.51100000000E-03 0.  1.
        -12    1    3    3    0    0  0.14448722118E+02  0.10442537972E+02  0.57641836278E+01  0.18736007660E+02  0.00000000000E+00 0.  1.
</event>
<event>
 7    1  0.2684545E-013  0.7246156E+02  0.7816164E-02  0.1226708E+00
        -11   -1    0    0    0    0  0.00000000000E+00  0.00000000000E+00  0.45593999997E+02  0.45594000000E+02  0.51100000000E-03 0. -1.
         11   -1    0    0    0    0 -0.00000000000E+00 -0.00000000000E+00 -0.45593999997E+02  0.45594000000E+02  0.51100000000E-03 0.  1.
    9900012    2    1    2    0    0 -0.41442698292E+01  0.82946734809E+01 -0.16269690274E+02  0.72461564082E+02  0.69999991907E+02 0.  0.
         12    1    1    2    0    0  0.41442698292E+01 -0.82946734809E+01  0.16269690274E+02  0.18726435918E+02  0.00000000000E+00 0. -1.
         11    1    3    3    0    0 -0.22846321055E+01 -0.80300530012E+01  0.44383117693E+01  0.94551523881E+01  0.51100000000E-03 0. -1.
        -11    1    3    3    0    0 -0.13581170404E+01  0.22665217694E+01 -0.39468988490E+02  0.39557333776E+02  0.51100000000E-03 0.  1.
         12    1    3    3    0    0 -0.50152068334E+00  0.14058204713E+02  0.18760986446E+02  0.23449077917E+02  0.00000000000E+00 0. -1.
</event>
<event>
 7    1  0.2684545E-013  0.7246157E+02  0.7816164E-02  0.1226708E+00
        -11   -1    0    0    0    0  0.00000000000E+00  0.00000000000E+00  0.45593999997E+02  0.45594000000E+02  0.51100000000E-03 0.  1.
         11   -1    0    0    0    0 -0.00000000000E+00 -0.00000000000E+00 -0.45593999997E+02  0.45594000000E+02  0.51100000000E-03 0. -1.
    9900012    2    1    2    0    0  0.11138709504E+02  0.90374332234E+01  0.12038810788E+02  0.72461574450E+02  0.70000005414E+02 0.  0.
         12    1    1    2    0    0 -0.11138709504E+02 -0.90374332234E+01 -0.12038810788E+02  0.18726425550E+02  0.00000000000E+00 0. -1.
         11    1    3    3    0    0  0.18113684331E+01  0.26099328198E+02  0.11462214815E+02  0.28562884251E+02  0.51100000000E-03 0. -1.
        -11    1    3    3    0    0  0.63330870247E+01  0.12586686917E+02 -0.13471655737E+00  0.14090806493E+02  0.51100000000E-03 0.  1.
         12    1    3    3    0    0  0.29942540464E+01 -0.29648581892E+02  0.71131253031E+00  0.29807883706E+02  0.00000000000E+00 0. -1.
</event>
<event>
 7    1  0.2684545E-013  0.7246159E+02  0.7816164E-02  0.1226708E+00
        -11   -1    0    0    0    0  0.00000000000E+00  0.00000000000E+00  0.45593999997E+02  0.45594000000E+02  0.51100000000E-03 0. -1.
         11   -1    0    0    0    0 -0.00000000000E+00 -0.00000000000E+00 -0.45593999997E+02  0.45594000000E+02  0.51100000000E-03 0.  1.
    9900012    2    1    2    0    0 -0.16888209512E+01  0.83812982768E+01 -0.16660736974E+02  0.72461589945E+02  0.70000025599E+02 0.  0.
         12    1    1    2    0    0  0.16888209512E+01 -0.83812982768E+01  0.16660736974E+02  0.18726410055E+02  0.00000000000E+00 0. -1.
         11    1    3    3    0    0  0.69653926811E+00 -0.30689088323E+01  0.24490279519E+01  0.39876191572E+01  0.51100000000E-03 0. -1.
        -11    1    3    3    0    0 -0.10842722703E+02  0.35799009886E+02 -0.20512125707E+02  0.42660063827E+02  0.51100000000E-03 0.  1.
         12    1    3    3    0    0  0.84573624833E+01 -0.24348802777E+02  0.14023607813E+01  0.25813906961E+02  0.00000000000E+00 0. -1.
</event>
<event>
 7    1  0.2684545E-013  0.7246205E+02  0.7816164E-02  0.1226707E+00
        -11   -1    0    0    0    0  0.00000000000E+00  0.00000000000E+00  0.45593999997E+02  0.45594000000E+02  0.51100000000E-03 0. -1.
         11   -1    0    0    0    0 -0.00000000000E+00 -0.00000000000E+00 -0.45593999997E+02  0.45594000000E+02  0.51100000000E-03 0.  1.
    9900012    2    1    2    0    0 -0.18735920042E+01  0.12753879526E+02 -0.13582682848E+02  0.72462053740E+02  0.70000629776E+02 0.  0.
         12    1    1    2    0    0  0.18735920042E+01 -0.12753879526E+02  0.13582682848E+02  0.18725946260E+02  0.00000000000E+00 0. -1.
         11    1    3    3    0    0 -0.17793998965E+02 -0.16929920640E+02 -0.35003036711E+01  0.24809287336E+02  0.51100000000E-03 0. -1.
        -11    1    3    3    0    0  0.10255737651E+02 -0.50112701515E+01 -0.27685463644E+01  0.11745545221E+02  0.51100000000E-03 0.  1.
        -12    1    3    3    0    0  0.56646693097E+01  0.34695070318E+02 -0.73138328124E+01  0.35907221184E+02  0.00000000000E+00 0.  1.
</event>
<event>
 7    1  0.2684545E-013  0.7246159E+02  0.7816164E-02  0.1226708E+00
        -11   -1    0    0    0    0  0.00000000000E+00  0.00000000000E+00  0.45593999997E+02  0.45594000000E+02  0.51100000000E-03 0. -1.
         11   -1    0    0    0    0 -0.00000000000E+00 -0.00000000000E+00 -0.45593999997E+02  0.45594000000E+02  0.51100000000E-03 0.  1.
    9900012    2    1    2    0    0  0.20519604494E+00  0.10450402007E+01 -0.18696106378E+02  0.72461585283E+02  0.70000019526E+02 0.  0.
         12    1    1    2    0    0 -0.20519604494E+00 -0.10450402007E+01  0.18696106378E+02  0.18726414717E+02  0.00000000000E+00 0. -1.
         11    1    3    3    0    0  0.26450871412E+02  0.80466938147E+01 -0.21486859502E+01  0.27731114860E+02  0.51100000000E-03 0. -1.
        -11    1    3    3    0    0 -0.29562696215E+01  0.71256778900E+01 -0.15682710023E+02  0.17477477203E+02  0.51100000000E-03 0.  1.
        -12    1    3    3    0    0 -0.23289405745E+02 -0.14127331504E+02 -0.86471040541E+00  0.27252993221E+02  0.00000000000E+00 0.  1.
</event>
<event>
 7    1  0.2684545E-013  0.7246154E+02  0.7816164E-02  0.1226708E+00
        -11   -1    0    0    0    0  0.00000000000E+00  0.00000000000E+00  0.45593999997E+02  0.45594000000E+02  0.51100000000E-03 0.  1.
         11   -1    0    0    0    0 -0.00000000000E+00 -0.00000000000E+00 -0.45593999997E+02  0.45594000000E+02  0.51100000000E-03 0. -1.
    9900012    2    1    2    0    0  0.15823322738E+02 -0.71536662443E+01  0.70091337330E+01  0.72461536402E+02  0.69999955849E+02 0.  0.
         12    1    1    2    0    0 -0.15823322738E+02  0.71536662443E+01 -0.70091337330E+01  0.18726463598E+02  0.00000000000E+00 0. -1.
         11    1    3    3    0    0 -0.15533469192E+01  0.49068894432E+01 -0.90613205872E+01  0.10421035539E+02  0.51100000000E-03 0. -1.
        -11    1    3    3    0    0 -0.20604425414E+02 -0.24891039827E+01  0.54905975730E+01  0.21468224129E+02  0.51100000000E-03 0.  1.
        -12    1    3    3    0    0  0.37981095071E+02 -0.95714517048E+01  0.10579856747E+02  0.40572276734E+02  0.00000000000E+00 0.  1.
</event>
<event>
 7    1  0.2684545E-013  0.7246157E+02  0.7816164E-02  0.1226708E+00
        -11   -1    0    0    0    0  0.00000000000E+00  0.00000000000E+00  0.45593999997E+02  0.45594000000E+02  0.51100000000E-03 0. -1.
         11   -1    0    0    0    0 -0.00000000000E+00 -0.00000000000E+00 -0.45593999997E+02  0.45594000000E+02  0.51100000000E-03 0.  1.
    9900012    2    1    2    0    0  0.10185792171E+02  0.46538579141E+01 -0.15009011937E+02  0.72461569615E+02  0.69999999115E+02 0.  0.
         12    1    1    2    0    0 -0.10185792171E+02 -0.46538579141E+01  0.15009011937E+02  0.18726430385E+02  0.00000000000E+00 0. -1.
         11    1    3    3    0    0  0.13251979273E+02 -0.23056442643E+02 -0.16733040756E+01  0.26646096315E+02  0.51100000000E-03 0. -1.
        -11    1    3    3    0    0  0.10231527739E+02 -0.23379605728E+01 -0.40343624241E+00  0.10502998647E+02  0.51100000000E-03 0.  1.
         12    1    3    3    0    0 -0.13297714841E+02  0.30048261130E+02 -0.12932271619E+02  0.35312474654E+02  0.00000000000E+00 0. -1.
</event>
<event>
 7    1  0.2684545E-013  0.7246118E+02  0.7816164E-02  0.1226709E+00
        -11   -1    0    0    0    0  0.00000000000E+00  0.00000000000E+00  0.45593999997E+02  0.45594000000E+02  0.51100000000E-03 0. -1.
         11   -1    0    0    0    0 -0.00000000000E+00 -0.00000000000E+00 -0.45593999997E+02  0.45594000000E+02  0.51100000000E-03 0.  1.
    9900012    2    1    2    0    0  0.94077218026E+01  0.14856448519E+02 -0.64400724528E+01  0.72461178985E+02  0.69999490245E+02 0.  0.
         12    1    1    2    0    0 -0.94077218026E+01 -0.14856448519E+02  0.64400724528E+01  0.18726821015E+02  0.00000000000E+00 0. -1.
         11    1    3    3    0    0  0.20410613845E+02  0.28428004127E+02 -0.10543801476E+01  0.35012230634E+02  0.51100000000E-03 0. -1.
        -11    1    3    3    0    0 -0.91641774084E+00  0.85199218578E+01 -0.95263632518E+01  0.12813293371E+02  0.51100000000E-03 0.  1.
        -12    1    3    3    0    0 -0.10086474302E+02 -0.22091477466E+02  0.41406709466E+01  0.24635654981E+02  0.00000000000E+00 0.  1.
</event>
<event>
 7    1  0.2684545E-013  0.7246142E+02  0.7816164E-02  0.1226708E+00
        -11   -1    0    0    0    0  0.00000000000E+00  0.00000000000E+00  0.45593999997E+02  0.45594000000E+02  0.51100000000E-03 0. -1.
         11   -1    0    0    0    0 -0.00000000000E+00 -0.00000000000E+00 -0.45593999997E+02  0.45594000000E+02  0.51100000000E-03 0.  1.
    9900012    2    1    2    0    0  0.10678376955E+02  0.13200547436E+02 -0.78995424076E+01  0.72461415761E+02  0.69999798692E+02 0.  0.
         12    1    1    2    0    0 -0.10678376955E+02 -0.13200547436E+02  0.78995424076E+01  0.18726584239E+02  0.00000000000E+00 0. -1.
         11    1    3    3    0    0 -0.10413446077E+02  0.87437491318E+01  0.43088586525E+01  0.14263915003E+02  0.51100000000E-03 0. -1.
        -11    1    3    3    0    0  0.13100051163E+01  0.24338967102E+02  0.55543738990E+01  0.24999050035E+02  0.51100000000E-03 0.  1.
         12    1    3    3    0    0  0.19781817915E+02 -0.19882168798E+02 -0.17762774959E+02  0.33198450723E+02  0.00000000000E+00 0. -1.
</event>
<event>
 7    1  0.2684545E-013  0.7246159E+02  0.7816164E-02  0.1226708E+00
        -11   -1    0    0    0    0  0.00000000000E+00  0.00000000000E+00  0.45593999997E+02  0.45594000000E+02  0.51100000000E-03 0. -1.
         11   -1    0    0    0    0 -0.00000000000E+00 -0.00000000000E+00 -0.45593999997E+02  0.45594000000E+02  0.51100000000E-03 0.  1.
    9900012    2    1    2    0    0 -0.46132266039E+01  0.44770560158E+01 -0.17588423619E+02  0.72461587218E+02  0.70000022046E+02 0.  0.
         12    1    1    2    0    0  0.46132266039E+01 -0.44770560158E+01  0.17588423619E+02  0.18726412782E+02  0.00000000000E+00 0. -1.
         11    1    3    3    0    0 -0.21625096564E+02  0.10739473506E+02  0.17953015944E+02  0.30088068637E+02  0.51100000000E-03 0. -1.
        -11    1    3    3    0    0  0.59011091258E+00 -0.65306039959E+01 -0.11899662025E+02  0.13586720576E+02  0.51100000000E-03 0.  1.
        -12    1    3    3    0    0  0.16421759047E+02  0.26818650515E+00 -0.23641777538E+02  0.28786798005E+02  0.00000000000E+00 0.  1.
</event>
<event>
 7    1  0.2684545E-013  0.7246155E+02  0.7816164E-02  0.1226708E+00
        -11   -1    0    0    0    0  0.00000000000E+00  0.00000000000E+00  0.45593999997E+02  0.45594000000E+02  0.51100000000E-03 0. -1.
         11   -1    0    0    0    0 -0.00000000000E+00 -0.00000000000E+00 -0.45593999997E+02  0.45594000000E+02  0.51100000000E-03 0.  1.
    9900012    2    1    2    0    0  0.76041350363E+01 -0.56988535381E+01 -0.16136300802E+02  0.72461547990E+02  0.69999970945E+02 0.  0.
         12    1    1    2    0    0 -0.76041350363E+01  0.56988535381E+01  0.16136300802E+02  0.18726452010E+02  0.00000000000E+00 0. -1.
         11    1    3    3    0    0  0.78141880803E+01  0.11703320843E+01  0.10324125384E+02  0.13000722201E+02  0.51100000000E-03 0. -1.
        -11    1    3    3    0    0  0.72402272274E+01 -0.27460626977E+02 -0.50676384955E+01  0.28847666880E+02  0.51100000000E-03 0.  1.
         12    1    3    3    0    0 -0.74502802715E+01  0.20591441354E+02 -0.21392787691E+02  0.30613158909E+02  0.00000000000E+00 0. -1.
</event>
<event>
 7    1  0.2684545E-013  0.7246159E+02  0.7816164E-02  0.1226708E+00
        -11   -1    0    0    0    0  0.00000000000E+00  0.00000000000E+00  0.45593999997E+02  0.45594000000E+02  0.51100000000E-03 0. -1.
         11   -1    0    0    0    0 -0.00000000000E+00 -0.00000000000E+00 -0.45593999997E+02  0.45594000000E+02  0.51100000000E-03 0.  1.
    9900012    2    1    2    0    0  0.81109828789E+01  0.50835379114E+01  0.16094963968E+02  0.72461594416E+02  0.70000031423E+02 0.  0.
         12    1    1    2    0    0 -0.81109828789E+01 -0.50835379114E+01 -0.16094963968E+02  0.18726405584E+02  0.00000000000E+00 0. -1.
         11    1    3    3    0    0  0.16540202809E+02 -0.12624618201E+02  0.82568125950E+01  0.22386027968E+02  0.51100000000E-03 0. -1.
        -11    1    3    3    0    0  0.17400993232E+02  0.11280043671E+02 -0.36993277393E+01  0.21064638062E+02  0.51100000000E-03 0.  1.
         12    1    3    3    0    0 -0.25830213163E+02  0.64281124418E+01  0.11537479112E+02  0.29010928387E+02  0.00000000000E+00 0. -1.
</event>
<event>
 7    1  0.2684545E-013  0.7246154E+02  0.7816164E-02  0.1226708E+00
        -11   -1    0    0    0    0  0.00000000000E+00  0.00000000000E+00  0.45593999997E+02  0.45594000000E+02  0.51100000000E-03 0.  1.
         11   -1    0    0    0    0 -0.00000000000E+00 -0.00000000000E+00 -0.45593999997E+02  0.45594000000E+02  0.51100000000E-03 0. -1.
    9900012    2    1    2    0    0  0.15892790719E+02  0.98869276453E+01  0.59007385933E+00  0.72461539516E+02  0.69999959906E+02 0.  0.
         12    1    1    2    0    0 -0.15892790719E+02 -0.98869276453E+01 -0.59007385933E+00  0.18726460484E+02  0.00000000000E+00 0. -1.
         11    1    3    3    0    0  0.26578802814E+01  0.24805010357E+02 -0.17644172618E+02  0.30556009132E+02  0.51100000000E-03 0. -1.
        -11    1    3    3    0    0  0.90324077563E+01  0.94009833209E+01  0.68467610374E+01  0.14725522546E+02  0.51100000000E-03 0.  1.
        -12    1    3    3    0    0  0.42025026810E+01 -0.24319066033E+02  0.11387485440E+02  0.27180007839E+02  0.00000000000E+00 0.  1.
</event>
<event>
 7    1  0.2684545E-013  0.7246155E+02  0.7816164E-02  0.1226708E+00
        -11   -1    0    0    0    0  0.00000000000E+00  0.00000000000E+00  0.45593999997E+02  0.45594000000E+02  0.51100000000E-03 0. -1.
         11   -1    0    0    0    0 -0.00000000000E+00 -0.00000000000E+00 -0.45593999997E+02  0.45594000000E+02  0.51100000000E-03 0.  1.
    9900012    2    1    2    0    0 -0.10873920188E+02 -0.85863117768E+01 -0.12598133871E+02  0.72461551666E+02  0.69999975733E+02 0.  0.
         12    1    1    2    0    0  0.10873920188E+02  0.85863117768E+01  0.12598133871E+02  0.18726448334E+02  0.00000000000E+00 0. -1.
         11    1    3    3    0    0 -0.41240485973E+01 -0.81462346952E+01 -0.56917864653E+01  0.10759430746E+02  0.51100000000E-03 0. -1.
        -11    1    3    3    0    0 -0.13183495225E+02 -0.27320896999E+02  0.64355052212E+01  0.31010509297E+02  0.51100000000E-03 0.  1.
         12    1    3    3    0    0  0.64336236341E+01  0.26880819917E+02 -0.13341852627E+02  0.30691611623E+02  0.00000000000E+00 0. -1.
</event>
<event>
 7    1  0.2684545E-013  0.7246159E+02  0.7816164E-02  0.1226708E+00
        -11   -1    0    0    0    0  0.00000000000E+00  0.00000000000E+00  0.45593999997E+02  0.45594000000E+02  0.51100000000E-03 0. -1.
         11   -1    0    0    0    0 -0.00000000000E+00 -0.00000000000E+00 -0.45593999997E+02  0.45594000000E+02  0.51100000000E-03 0.  1.
    9900012    2    1    2    0    0  0.10548936165E+02 -0.11244432029E+02 -0.10628316838E+02  0.72461590181E+02  0.70000025906E+02 0.  0.
         12    1    1    2    0    0 -0.10548936165E+02  0.11244432029E+02  0.10628316838E+02  0.18726409819E+02  0.00000000000E+00 0. -1.
         11    1    3    3    0    0  0.71526157328E+01 -0.36532613198E+02 -0.11092636507E+02  0.38843768146E+02  0.51100000000E-03 0. -1.
        -11    1    3    3    0    0  0.98980187885E+01  0.36740486179E+01 -0.25091323945E+01  0.10851965482E+02  0.51100000000E-03 0.  1.
        -12    1    3    3    0    0 -0.65016983559E+01  0.21614132550E+02  0.29734520634E+01  0.22765856553E+02  0.00000000000E+00 0.  1.
</event>
<event>
 7    1  0.2684545E-013  0.7246155E+02  0.7816164E-02  0.1226708E+00
        -11   -1    0    0    0    0  0.00000000000E+00  0.00000000000E+00  0.45593999997E+02  0.45594000000E+02  0.51100000000E-03 0.  1.
         11   -1    0    0    0    0 -0.00000000000E+00 -0.00000000000E+00 -0.45593999997E+02  0.45594000000E+02  0.51100000000E-03 0. -1.
    9900012    2    1    2    0    0 -0.10802466606E+02  0.37462803743E+00  0.15292032914E+02  0.72461550748E+02  0.69999974538E+02 0.  0.
         12    1    1    2    0    0  0.10802466606E+02 -0.37462803743E+00 -0.15292032914E+02  0.18726449252E+02  0.00000000000E+00 0. -1.
         11    1    3    3    0    0 -0.16146828487E+02 -0.68596073734E+01 -0.11914927027E+02  0.21207068864E+02  0.51100000000E-03 0. -1.
        -11    1    3    3    0    0  0.15077037101E+01 -0.13393188142E+02 -0.36286939048E+01  0.13957724700E+02  0.51100000000E-03 0.  1.
         12    1    3    3    0    0  0.38366581704E+01  0.20627423553E+02  0.30835653846E+02  0.37296757184E+02  0.00000000000E+00 0. -1.
</event>
<event>
 7    1  0.2684545E-013  0.7246157E+02  0.7816164E-02  0.1226708E+00
        -11   -1    0    0    0    0  0.00000000000E+00  0.00000000000E+00  0.45593999997E+02  0.45594000000E+02  0.51100000000E-03 0.  1.
         11   -1    0    0    0    0 -0.00000000000E+00 -0.00000000000E+00 -0.45593999997E+02  0.45594000000E+02  0.51100000000E-03 0. -1.
    9900012    2    1    2    0    0 -0.75944365009E+01 -0.52606823244E-02  0.17117347734E+02  0.72461572501E+02  0.70000002875E+02 0.  0.
         12    1    1    2    0    0  0.75944365009E+01  0.52606823244E-02 -0.17117347734E+02  0.18726427499E+02  0.00000000000E+00 0. -1.
         11    1    3    3    0    0 -0.23369550849E+01 -0.10597624714E+02 -0.80160713261E+01  0.13491790408E+02  0.51100000000E-03 0. -1.
        -11    1    3    3    0    0 -0.48133196526E+00 -0.10284905322E+02  0.34197631815E+02  0.35713988576E+02  0.51100000000E-03 0.  1.
         12    1    3    3    0    0 -0.47761494507E+01  0.20877269354E+02 -0.90642127558E+01  0.23255793517E+02  0.00000000000E+00 0. -1.
</event>
<event>
 7    1  0.2684545E-013  0.7246163E+02  0.7816164E-02  0.1226708E+00
        -11   -1    0    0    0    0  0.00000000000E+00  0.00000000000E+00  0.45593999997E+02  0.45594000000E+02  0.51100000000E-03 0. -1.
         11   -1    0    0    0    0 -0.00000000000E+00 -0.00000000000E+00 -0.45593999997E+02  0.45594000000E+02  0.51100000000E-03 0.  1.
    9900012    2    1    2    0    0 -0.10598853136E+01  0.18625784837E+02 -0.16229015248E+01  0.72461627499E+02  0.70000074520E+02 0.  0.
         12    1    1    2    0    0  0.10598853136E+01 -0.18625784837E+02  0.16229015248E+01  0.18726372501E+02  0.00000000000E+00 0. -1.
         11    1    3    3    0    0 -0.21573757345E+01 -0.62640654579E+01 -0.17939080931E+01  0.68637375115E+01  0.51100000000E-03 0. -1.
        -11    1    3    3    0    0 -0.28187909568E+02  0.21049727942E+02  0.54312957775E+01  0.35597026088E+02  0.51100000000E-03 0.  1.
         12    1    3    3    0    0  0.29285399988E+02  0.38401223532E+01 -0.52602892092E+01  0.30000863900E+02  0.00000000000E+00 0. -1.
</event>
<event>
 7    1  0.2684545E-013  0.7246166E+02  0.7816164E-02  0.1226708E+00
        -11   -1    0    0    0    0  0.00000000000E+00  0.00000000000E+00  0.45593999997E+02  0.45594000000E+02  0.51100000000E-03 0. -1.
         11   -1    0    0    0    0 -0.00000000000E+00 -0.00000000000E+00 -0.45593999997E+02  0.45594000000E+02  0.51100000000E-03 0.  1.
    9900012    2    1    2    0    0 -0.96156990352E+00  0.73937018279E+01 -0.17178023324E+02  0.72461656825E+02  0.70000112722E+02 0.  0.
         12    1    1    2    0    0  0.96156990352E+00 -0.73937018279E+01  0.17178023324E+02  0.18726343175E+02  0.00000000000E+00 0. -1.
         11    1    3    3    0    0  0.38696182662E+01  0.29322040526E+02  0.92416222497E+00  0.29590709390E+02  0.51100000000E-03 0. -1.
        -11    1    3    3    0    0 -0.39515853539E+01  0.79987623205E+01 -0.41761515426E+01  0.98506582235E+01  0.51100000000E-03 0.  1.
        -12    1    3    3    0    0 -0.87960281574E+00 -0.29927101018E+02 -0.13926034006E+02  0.33020289211E+02  0.00000000000E+00 0.  1.
</event>
<event>
 7    1  0.2684545E-013  0.7246157E+02  0.7816164E-02  0.1226708E+00
        -11   -1    0    0    0    0  0.00000000000E+00  0.00000000000E+00  0.45593999997E+02  0.45594000000E+02  0.51100000000E-03 0.  1.
         11   -1    0    0    0    0 -0.00000000000E+00 -0.00000000000E+00 -0.45593999997E+02  0.45594000000E+02  0.51100000000E-03 0. -1.
    9900012    2    1    2    0    0 -0.46619647421E+01 -0.13693587583E+02  0.11892467882E+02  0.72461573526E+02  0.70000004210E+02 0.  0.
         12    1    1    2    0    0  0.46619647421E+01  0.13693587583E+02 -0.11892467882E+02  0.18726426474E+02  0.00000000000E+00 0. -1.
         11    1    3    3    0    0  0.10031885708E+02  0.36290935605E+01 -0.14422173058E+01  0.10765177284E+02  0.51100000000E-03 0. -1.
        -11    1    3    3    0    0 -0.17763886568E+02 -0.30014635344E+02  0.26002354463E+02  0.43503522141E+02  0.51100000000E-03 0.  1.
         12    1    3    3    0    0  0.30700361173E+01  0.12691954200E+02 -0.12667669275E+02  0.18192874101E+02  0.00000000000E+00 0. -1.
</event>
<event>
 7    1  0.2684545E-013  0.7246158E+02  0.7816164E-02  0.1226708E+00
        -11   -1    0    0    0    0  0.00000000000E+00  0.00000000000E+00  0.45593999997E+02  0.45594000000E+02  0.51100000000E-03 0. -1.
         11   -1    0    0    0    0 -0.00000000000E+00 -0.00000000000E+00 -0.45593999997E+02  0.45594000000E+02  0.51100000000E-03 0.  1.
    9900012    2    1    2    0    0 -0.93911262818E+01  0.16124123507E+02 -0.15806222888E+01  0.72461575394E+02  0.70000006643E+02 0.  0.
         12    1    1    2    0    0  0.93911262818E+01 -0.16124123507E+02  0.15806222888E+01  0.18726424606E+02  0.00000000000E+00 0. -1.
         11    1    3    3    0    0 -0.21791569382E+02 -0.58145677515E+01  0.70855785558E+01  0.23640793515E+02  0.51100000000E-03 0. -1.
        -11    1    3    3    0    0  0.33078031277E+01 -0.10081612088E+02 -0.11212837366E+02  0.15437233751E+02  0.51100000000E-03 0.  1.
        -12    1    3    3    0    0  0.90926399726E+01  0.32020303346E+02  0.25466365212E+01  0.33383548128E+02  0.00000000000E+00 0.  1.
</event>
<event>
 7    1  0.2684545E-013  0.7246162E+02  0.7816164E-02  0.1226708E+00
        -11   -1    0    0    0    0  0.00000000000E+00  0.00000000000E+00  0.45593999997E+02  0.45594000000E+02  0.51100000000E-03 0. -1.
         11   -1    0    0    0    0 -0.00000000000E+00 -0.00000000000E+00 -0.45593999997E+02  0.45594000000E+02  0.51100000000E-03 0.  1.
    9900012    2    1    2    0    0 -0.79038496753E+01 -0.11778481511E+02 -0.12225946581E+02  0.72461621915E+02  0.70000067245E+02 0.  0.
         12    1    1    2    0    0  0.79038496753E+01  0.11778481511E+02  0.12225946581E+02  0.18726378085E+02  0.00000000000E+00 0. -1.
         11    1    3    3    0    0 -0.12700532184E+02 -0.31799938607E+02 -0.33570451873E+01  0.34406530860E+02  0.51100000000E-03 0. -1.
        -11    1    3    3    0    0  0.67849161507E+01  0.40446150414E+01  0.10326789362E+02  0.13001406723E+02  0.51100000000E-03 0.  1.
        -12    1    3    3    0    0 -0.19882336416E+01  0.15976842054E+02 -0.19195690755E+02  0.25053684332E+02  0.00000000000E+00 0.  1.
</event>
<event>
 7    1  0.2684545E-013  0.7246158E+02  0.7816164E-02  0.1226708E+00
        -11   -1    0    0    0    0  0.00000000000E+00  0.00000000000E+00  0.45593999997E+02  0.45594000000E+02  0.51100000000E-03 0.  1.
         11   -1    0    0    0    0 -0.00000000000E+00 -0.00000000000E+00 -0.45593999997E+02  0.45594000000E+02  0.51100000000E-03 0. -1.
    9900012    2    1    2    0    0  0.52346539094E+01 -0.15553318777E+02  0.90206235824E+01  0.72461575452E+02  0.70000006719E+02 0.  0.
         12    1    1    2    0    0 -0.52346539094E+01  0.15553318777E+02 -0.90206235824E+01  0.18726424548E+02  0.00000000000E+00 0. -1.
         11    1    3    3    0    0 -0.14396245446E+02  0.34345625655E+01  0.29677429260E+01  0.15094886594E+02  0.51100000000E-03 0. -1.
        -11    1    3    3    0    0  0.10697322683E+02 -0.31164727568E+02  0.18507148934E+02  0.37791368312E+02  0.51100000000E-03 0.  1.
         12    1    3    3    0    0  0.89335766724E+01  0.12176846225E+02 -0.12454268278E+02  0.19575320546E+02  0.00000000000E+00 0. -1.
</event>
<event>
 7    1  0.2684545E-013  0.7246155E+02  0.7816164E-02  0.1226708E+00
        -11   -1    0    0    0    0  0.00000000000E+00  0.00000000000E+00  0.45593999997E+02  0.45594000000E+02  0.51100000000E-03 0.  1.
         11   -1    0    0    0    0 -0.00000000000E+00 -0.00000000000E+00 -0.45593999997E+02  0.45594000000E+02  0.51100000000E-03 0. -1.
    9900012    2    1    2    0    0  0.92435818390E+01  0.35715157785E+01  0.15889635777E+02  0.72461546644E+02  0.69999969191E+02 0.  0.
         12    1    1    2    0    0 -0.92435818390E+01 -0.35715157785E+01 -0.15889635777E+02  0.18726453356E+02  0.00000000000E+00 0. -1.
         11    1    3    3    0    0  0.16355692313E+02 -0.11986790356E+02 -0.11142821982E+02  0.23137724522E+02  0.51100000000E-03 0. -1.
        -11    1    3    3    0    0 -0.29336223274E+01 -0.12044308343E+02  0.36905074488E+01  0.12934115699E+02  0.51100000000E-03 0.  1.
        -12    1    3    3    0    0 -0.41784881469E+01  0.27602614478E+02  0.23341950310E+02  0.36389706422E+02  0.00000000000E+00 0.  1.
</event>
<event>
 7    1  0.2684545E-013  0.7246155E+02  0.7816164E-02  0.1226708E+00
        -11   -1    0    0    0    0  0.00000000000E+00  0.00000000000E+00  0.45593999997E+02  0.45594000000E+02  0.51100000000E-03 0. -1.
         11   -1    0    0    0    0 -0.00000000000E+00 -0.00000000000E+00 -0.45593999997E+02  0.45594000000E+02  0.51100000000E-03 0.  1.
    9900012    2    1    2    0    0  0.17592491887E+02  0.18411310028E+01 -0.61477133873E+01  0.72461550415E+02  0.69999974103E+02 0.  0.
         12    1    1    2    0    0 -0.17592491887E+02 -0.18411310028E+01  0.61477133873E+01  0.18726449585E+02  0.00000000000E+00 0. -1.
         11    1    3    3    0    0  0.24602685259E+01 -0.29976016766E+01  0.21254136055E+02  0.21605018786E+02  0.51100000000E-03 0. -1.
        -11    1    3    3    0    0 -0.12971891529E+02 -0.34746044036E+01 -0.10295543658E+02  0.16921615321E+02  0.51100000000E-03 0.  1.
        -12    1    3    3    0    0  0.28104114890E+02  0.83133370830E+01 -0.17106305785E+02  0.33934916308E+02  0.00000000000E+00 0.  1.
</event>
<event>
 7    1  0.2684545E-013  0.7246159E+02  0.7816164E-02  0.1226708E+00
        -11   -1    0    0    0    0  0.00000000000E+00  0.00000000000E+00  0.45593999997E+02  0.45594000000E+02  0.51100000000E-03 0. -1.
         11   -1    0    0    0    0 -0.00000000000E+00 -0.00000000000E+00 -0.45593999997E+02  0.45594000000E+02  0.51100000000E-03 0.  1.
    9900012    2    1    2    0    0  0.16949420178E+02 -0.22788234396E+01 -0.76290664579E+01  0.72461587218E+02  0.70000022047E+02 0.  0.
         12    1    1    2    0    0 -0.16949420178E+02  0.22788234396E+01  0.76290664579E+01  0.18726412782E+02  0.00000000000E+00 0. -1.
         11    1    3    3    0    0 -0.16467158943E+02 -0.41223151222E+01 -0.21010021559E+02  0.27010772144E+02  0.51100000000E-03 0. -1.
        -11    1    3    3    0    0  0.93841694501E+01  0.13724829661E+02  0.49601673824E+01  0.17350413430E+02  0.51100000000E-03 0.  1.
        -12    1    3    3    0    0  0.24032409671E+02 -0.11881337978E+02  0.84207877189E+01  0.28100401644E+02  0.00000000000E+00 0.  1.
</event>
<event>
 7    1  0.2684545E-013  0.7246171E+02  0.7816164E-02  0.1226708E+00
        -11   -1    0    0    0    0  0.00000000000E+00  0.00000000000E+00  0.45593999997E+02  0.45594000000E+02  0.51100000000E-03 0.  1.
         11   -1    0    0    0    0 -0.00000000000E+00 -0.00000000000E+00 -0.45593999997E+02  0.45594000000E+02  0.51100000000E-03 0. -1.
    9900012    2    1    2    0    0  0.92819782343E+01 -0.12853485763E+01  0.16213169681E+02  0.72461705331E+02  0.70000175910E+02 0.  0.
         12    1    1    2    0    0 -0.92819782343E+01  0.12853485763E+01 -0.16213169681E+02  0.18726294669E+02  0.00000000000E+00 0. -1.
         11    1    3    3    0    0 -0.70673510704E+01 -0.29706615297E+01 -0.15068346037E+02  0.16906428766E+02  0.51100000000E-03 0. -1.
        -11    1    3    3    0    0  0.70818359071E+01  0.65498568398E+00 -0.10535448802E+02  0.12711297643E+02  0.51100000000E-03 0.  1.
        -12    1    3    3    0    0  0.92674933977E+01  0.10303272695E+01  0.41816964520E+02  0.42843978922E+02  0.00000000000E+00 0.  1.
</event>
<event>
 7    1  0.2684545E-013  0.7246159E+02  0.7816164E-02  0.1226708E+00
        -11   -1    0    0    0    0  0.00000000000E+00  0.00000000000E+00  0.45593999997E+02  0.45594000000E+02  0.51100000000E-03 0. -1.
         11   -1    0    0    0    0 -0.00000000000E+00 -0.00000000000E+00 -0.45593999997E+02  0.45594000000E+02  0.51100000000E-03 0.  1.
    9900012    2    1    2    0    0  0.40079361253E+01  0.63858461968E+01 -0.17141643584E+02  0.72461587413E+02  0.70000022300E+02 0.  0.
         12    1    1    2    0    0 -0.40079361253E+01 -0.63858461968E+01  0.17141643584E+02  0.18726412587E+02  0.00000000000E+00 0. -1.
         11    1    3    3    0    0 -0.94636912372E+01  0.55151301467E+01 -0.47832449300E+01  0.11952302903E+02  0.51100000000E-03 0. -1.
        -11    1    3    3    0    0  0.29591924722E+02  0.18338971909E+02 -0.29265831095E+01  0.34936582380E+02  0.51100000000E-03 0.  1.
         12    1    3    3    0    0 -0.16120297360E+02 -0.17468255859E+02 -0.94318155440E+01  0.25572702129E+02  0.00000000000E+00 0. -1.
</event>
<event>
 7    1  0.2684545E-013  0.7246159E+02  0.7816164E-02  0.1226708E+00
        -11   -1    0    0    0    0  0.00000000000E+00  0.00000000000E+00  0.45593999997E+02  0.45594000000E+02  0.51100000000E-03 0.  1.
         11   -1    0    0    0    0 -0.00000000000E+00 -0.00000000000E+00 -0.45593999997E+02  0.45594000000E+02  0.51100000000E-03 0. -1.
    9900012    2    1    2    0    0  0.90526614587E+01 -0.15758408039E+02  0.45166673326E+01  0.72461591182E+02  0.70000027210E+02 0.  0.
         12    1    1    2    0    0 -0.90526614587E+01  0.15758408039E+02 -0.45166673326E+01  0.18726408818E+02  0.00000000000E+00 0. -1.
         11    1    3    3    0    0 -0.51245885498E+01 -0.28530433818E+01 -0.47155942444E+01  0.75258284383E+01  0.51100000000E-03 0. -1.
        -11    1    3    3    0    0 -0.19686283346E+02 -0.26803054517E+01  0.19767603381E+02  0.28026628997E+02  0.51100000000E-03 0.  1.
        -12    1    3    3    0    0  0.33863533354E+02 -0.10225059206E+02 -0.10535341804E+02  0.36909133746E+02  0.00000000000E+00 0.  1.
</event>
<event>
 7    1  0.2684545E-013  0.7246158E+02  0.7816164E-02  0.1226708E+00
        -11   -1    0    0    0    0  0.00000000000E+00  0.00000000000E+00  0.45593999997E+02  0.45594000000E+02  0.51100000000E-03 0.  1.
         11   -1    0    0    0    0 -0.00000000000E+00 -0.00000000000E+00 -0.45593999997E+02  0.45594000000E+02  0.51100000000E-03 0. -1.
    9900012    2    1    2    0    0 -0.17263719008E+02 -0.72171880963E+01  0.74504421506E+00  0.72461577787E+02  0.70000009760E+02 0.  0.
         12    1    1    2    0    0  0.17263719008E+02  0.72171880963E+01 -0.74504421506E+00  0.18726422213E+02  0.00000000000E+00 0. -1.
         11    1    3    3    0    0  0.16754612096E+02 -0.35557858077E+01 -0.15886101772E+02  0.23360840502E+02  0.51100000000E-03 0. -1.
        -11    1    3    3    0    0 -0.97987947263E+01 -0.10641830963E+02 -0.55804985838E+01  0.15505060756E+02  0.51100000000E-03 0.  1.
        -12    1    3    3    0    0 -0.24219536379E+02  0.69804286747E+01  0.22211644571E+02  0.33595676529E+02  0.00000000000E+00 0.  1.
</event>
<event>
 7    1  0.2684545E-013  0.7246174E+02  0.7816164E-02  0.1226708E+00
        -11   -1    0    0    0    0  0.00000000000E+00  0.00000000000E+00  0.45593999997E+02  0.45594000000E+02  0.51100000000E-03 0. -1.
         11   -1    0    0    0    0 -0.00000000000E+00 -0.00000000000E+00 -0.45593999997E+02  0.45594000000E+02  0.51100000000E-03 0.  1.
    9900012    2    1    2    0    0  0.41098350322E+01 -0.91350601764E+01 -0.15821904761E+02  0.72461742000E+02  0.70000223678E+02 0.  0.
         12    1    1    2    0    0 -0.41098350322E+01  0.91350601764E+01  0.15821904761E+02  0.18726258000E+02  0.00000000000E+00 0. -1.
         11    1    3    3    0    0 -0.32589057265E+01 -0.13424111528E+02 -0.90187201957E+01  0.16497410436E+02  0.51100000000E-03 0.  1.
        -11    1    3    3    0    0  0.25989201574E+02 -0.13198046559E+02 -0.85032779941E+01  0.30363345803E+02  0.51100000000E-03 0. -1.
        -12    1    3    3    0    0 -0.18620460815E+02  0.17487097911E+02  0.17000934285E+01  0.25600985762E+02  0.00000000000E+00 0.  1.
</event>
<event>
 7    1  0.2684545E-013  0.7246153E+02  0.7816164E-02  0.1226708E+00
        -11   -1    0    0    0    0  0.00000000000E+00  0.00000000000E+00  0.45593999997E+02  0.45594000000E+02  0.51100000000E-03 0. -1.
         11   -1    0    0    0    0 -0.00000000000E+00 -0.00000000000E+00 -0.45593999997E+02  0.45594000000E+02  0.51100000000E-03 0.  1.
    9900012    2    1    2    0    0 -0.74437579977E+01 -0.13967659328E+02 -0.10008776237E+02  0.72461530979E+02  0.69999948784E+02 0.  0.
         12    1    1    2    0    0  0.74437579977E+01  0.13967659328E+02  0.10008776237E+02  0.18726469021E+02  0.00000000000E+00 0. -1.
         11    1    3    3    0    0  0.12255378336E+02 -0.36319020715E+01  0.81733662438E+00  0.12808319571E+02  0.51100000000E-03 0. -1.
        -11    1    3    3    0    0  0.98127487177E+01  0.15126450251E+02  0.30348075494E+01  0.18284134973E+02  0.51100000000E-03 0.  1.
        -12    1    3    3    0    0 -0.29511885051E+02 -0.25462207508E+02 -0.13860920411E+02  0.41369076435E+02  0.00000000000E+00 0.  1.
</event>
<event>
 7    1  0.2684545E-013  0.7246160E+02  0.7816164E-02  0.1226708E+00
        -11   -1    0    0    0    0  0.00000000000E+00  0.00000000000E+00  0.45593999997E+02  0.45594000000E+02  0.51100000000E-03 0.  1.
         11   -1    0    0    0    0 -0.00000000000E+00 -0.00000000000E+00 -0.45593999997E+02  0.45594000000E+02  0.51100000000E-03 0. -1.
    9900012    2    1    2    0    0  0.95716054179E+01  0.14024473603E+02  0.78978725247E+01  0.72461604710E+02  0.70000044833E+02 0.  0.
         12    1    1    2    0    0 -0.95716054179E+01 -0.14024473603E+02 -0.78978725247E+01  0.18726395290E+02  0.00000000000E+00 0. -1.
         11    1    3    3    0    0 -0.27766652441E+01 -0.14420924539E+00 -0.13773516173E+02  0.14051349196E+02  0.51100000000E-03 0. -1.
        -11    1    3    3    0    0  0.14516708554E+02 -0.11514872084E+02  0.26351575211E+02  0.32213857619E+02  0.51100000000E-03 0.  1.
         12    1    3    3    0    0 -0.21684378919E+01  0.25683554933E+02 -0.46801865132E+01  0.26196397895E+02  0.00000000000E+00 0. -1.
</event>
<event>
 7    1  0.2684545E-013  0.7246160E+02  0.7816164E-02  0.1226708E+00
        -11   -1    0    0    0    0  0.00000000000E+00  0.00000000000E+00  0.45593999997E+02  0.45594000000E+02  0.51100000000E-03 0. -1.
         11   -1    0    0    0    0 -0.00000000000E+00 -0.00000000000E+00 -0.45593999997E+02  0.45594000000E+02  0.51100000000E-03 0.  1.
    9900012    2    1    2    0    0  0.95875085448E+01 -0.13416683671E+02 -0.88741414505E+01  0.72461598656E+02  0.70000036946E+02 0.  0.
         12    1    1    2    0    0 -0.95875085448E+01  0.13416683671E+02  0.88741414505E+01  0.18726401344E+02  0.00000000000E+00 0. -1.
         11    1    3    3    0    0 -0.15868347530E+02  0.37920105941E+01 -0.26662207254E+01  0.16531561659E+02  0.51100000000E-03 0. -1.
        -11    1    3    3    0    0  0.11657531619E+02 -0.24984802288E+02  0.13457340600E+02  0.30679608946E+02  0.51100000000E-03 0.  1.
        -12    1    3    3    0    0  0.13798324456E+02  0.77761080224E+01 -0.19665261325E+02  0.25250428051E+02  0.00000000000E+00 0.  1.
</event>
<event>
 7    1  0.2684545E-013  0.7246157E+02  0.7816164E-02  0.1226708E+00
        -11   -1    0    0    0    0  0.00000000000E+00  0.00000000000E+00  0.45593999997E+02  0.45594000000E+02  0.51100000000E-03 0.  1.
         11   -1    0    0    0    0 -0.00000000000E+00 -0.00000000000E+00 -0.45593999997E+02  0.45594000000E+02  0.51100000000E-03 0. -1.
    9900012    2    1    2    0    0  0.66611854804E+01 -0.15434412684E+02  0.82514612108E+01  0.72461572177E+02  0.70000002453E+02 0.  0.
         12    1    1    2    0    0 -0.66611854804E+01  0.15434412684E+02 -0.82514612108E+01  0.18726427823E+02  0.00000000000E+00 0. -1.
         11    1    3    3    0    0  0.11031066111E+02 -0.11062107271E+02 -0.13745416841E+02  0.20808438702E+02  0.51100000000E-03 0. -1.
        -11    1    3    3    0    0  0.17751965524E+02  0.25192348549E+01 -0.23029041752E+01  0.18077117915E+02  0.51100000000E-03 0.  1.
         12    1    3    3    0    0 -0.22121846155E+02 -0.68915402677E+01  0.24299782228E+02  0.33576015560E+02  0.00000000000E+00 0. -1.
</event>
<event>
 7    1  0.2684545E-013  0.7246159E+02  0.7816164E-02  0.1226708E+00
        -11   -1    0    0    0    0  0.00000000000E+00  0.00000000000E+00  0.45593999997E+02  0.45594000000E+02  0.51100000000E-03 0. -1.
         11   -1    0    0    0    0 -0.00000000000E+00 -0.00000000000E+00 -0.45593999997E+02  0.45594000000E+02  0.51100000000E-03 0.  1.
    9900012    2    1    2    0    0 -0.10822074706E+02 -0.54311753066E+01 -0.14285083196E+02  0.72461586353E+02  0.70000020919E+02 0.  0.
         12    1    1    2    0    0  0.10822074706E+02  0.54311753066E+01  0.14285083196E+02  0.18726413647E+02  0.00000000000E+00 0. -1.
         11    1    3    3    0    0 -0.12482420423E+02  0.24498393432E+00 -0.33635908756E+01  0.12929987649E+02  0.51100000000E-03 0. -1.
        -11    1    3    3    0    0  0.11929189152E+02  0.20400603398E+02 -0.19045964736E+02  0.30351918322E+02  0.51100000000E-03 0.  1.
         12    1    3    3    0    0 -0.10268843434E+02 -0.26076762639E+02  0.81244724155E+01  0.29179680383E+02  0.00000000000E+00 0. -1.
</event>
<event>
 7    1  0.2684545E-013  0.7246157E+02  0.7816164E-02  0.1226708E+00
        -11   -1    0    0    0    0  0.00000000000E+00  0.00000000000E+00  0.45593999997E+02  0.45594000000E+02  0.51100000000E-03 0.  1.
         11   -1    0    0    0    0 -0.00000000000E+00 -0.00000000000E+00 -0.45593999997E+02  0.45594000000E+02  0.51100000000E-03 0. -1.
    9900012    2    1    2    0    0 -0.17071798461E+02 -0.58411251916E+01 -0.50114016349E+01  0.72461569680E+02  0.69999999199E+02 0.  0.
         12    1    1    2    0    0  0.17071798461E+02  0.58411251916E+01  0.50114016349E+01  0.18726430320E+02  0.00000000000E+00 0. -1.
         11    1    3    3    0    0  0.84538203747E+01  0.33099796990E+01  0.94288059651E+01  0.13089133918E+02  0.51100000000E-03 0. -1.
        -11    1    3    3    0    0 -0.35504177721E+02 -0.10919005957E+02  0.49697306217E+01  0.37476253141E+02  0.51100000000E-03 0.  1.
         12    1    3    3    0    0  0.99785588855E+01  0.17679010666E+01 -0.19409938222E+02  0.21896182621E+02  0.00000000000E+00 0. -1.
</event>
<event>
 7    1  0.2684545E-013  0.7246155E+02  0.7816164E-02  0.1226708E+00
        -11   -1    0    0    0    0  0.00000000000E+00  0.00000000000E+00  0.45593999997E+02  0.45594000000E+02  0.51100000000E-03 0. -1.
         11   -1    0    0    0    0 -0.00000000000E+00 -0.00000000000E+00 -0.45593999997E+02  0.45594000000E+02  0.51100000000E-03 0.  1.
    9900012    2    1    2    0    0 -0.48819733508E+01  0.13065887519E+02 -0.12495152724E+02  0.72461550201E+02  0.69999973825E+02 0.  0.
         12    1    1    2    0    0  0.48819733508E+01 -0.13065887519E+02  0.12495152724E+02  0.18726449799E+02  0.00000000000E+00 0. -1.
         11    1    3    3    0    0 -0.15433350462E+02  0.17223697993E+02 -0.42979221114E+00  0.23130689585E+02  0.51100000000E-03 0. -1.
        -11    1    3    3    0    0 -0.11793391070E+02 -0.13978709916E+02  0.56838049075E+01  0.19151867855E+02  0.51100000000E-03 0.  1.
        -12    1    3    3    0    0  0.22344768182E+02  0.98208994423E+01 -0.17749165421E+02  0.30178992761E+02  0.00000000000E+00 0.  1.
</event>
<event>
 7    1  0.2684545E-013  0.7246116E+02  0.7816164E-02  0.1226709E+00
        -11   -1    0    0    0    0  0.00000000000E+00  0.00000000000E+00  0.45593999997E+02  0.45594000000E+02  0.51100000000E-03 0. -1.
         11   -1    0    0    0    0 -0.00000000000E+00 -0.00000000000E+00 -0.45593999997E+02  0.45594000000E+02  0.51100000000E-03 0.  1.
    9900012    2    1    2    0    0 -0.43387985614E+01 -0.34676905643E+01 -0.17884201444E+02  0.72461155308E+02  0.69999459402E+02 0.  0.
         12    1    1    2    0    0  0.43387985614E+01  0.34676905643E+01  0.17884201444E+02  0.18726844692E+02  0.00000000000E+00 0. -1.
         11    1    3    3    0    0  0.36375175003E+01 -0.22181983363E+02 -0.90983800393E+00  0.22496660306E+02  0.51100000000E-03 0. -1.
        -11    1    3    3    0    0 -0.10485512632E+02  0.54475288075E+01 -0.29356025864E+02  0.31644870044E+02  0.51100000000E-03 0.  1.
        -12    1    3    3    0    0  0.25091965707E+01  0.13266763991E+02  0.12381662424E+02  0.18319624958E+02  0.00000000000E+00 0.  1.
</event>
<event>
 7    1  0.2684545E-013  0.7246153E+02  0.7816164E-02  0.1226708E+00
        -11   -1    0    0    0    0  0.00000000000E+00  0.00000000000E+00  0.45593999997E+02  0.45594000000E+02  0.51100000000E-03 0. -1.
         11   -1    0    0    0    0 -0.00000000000E+00 -0.00000000000E+00 -0.45593999997E+02  0.45594000000E+02  0.51100000000E-03 0.  1.
    9900012    2    1    2    0    0 -0.15095673151E+02  0.66213861497E+01 -0.88858576453E+01  0.72461532941E+02  0.69999951340E+02 0.  0.
         12    1    1    2    0    0  0.15095673151E+02 -0.66213861497E+01  0.88858576453E+01  0.18726467059E+02  0.00000000000E+00 0. -1.
         11    1    3    3    0    0 -0.70010340146E+01  0.16790473713E+02  0.23702784557E+02  0.29879030788E+02  0.51100000000E-03 0. -1.
        -11    1    3    3    0    0 -0.49179057662E+01 -0.84803194668E+01 -0.73189509371E-02  0.98031458835E+01  0.51100000000E-03 0.  1.
        -12    1    3    3    0    0 -0.31767333705E+01 -0.16887680964E+01 -0.32581323252E+02  0.32779356269E+02  0.00000000000E+00 0.  1.
</event>
<event>
 7    1  0.2684545E-013  0.7246160E+02  0.7816164E-02  0.1226708E+00
        -11   -1    0    0    0    0  0.00000000000E+00  0.00000000000E+00  0.45593999997E+02  0.45594000000E+02  0.51100000000E-03 0. -1.
         11   -1    0    0    0    0 -0.00000000000E+00 -0.00000000000E+00 -0.45593999997E+02  0.45594000000E+02  0.51100000000E-03 0.  1.
    9900012    2    1    2    0    0  0.10566629231E+02  0.60505575624E+01 -0.14227271869E+02  0.72461597116E+02  0.70000034940E+02 0.  0.
         12    1    1    2    0    0 -0.10566629231E+02 -0.60505575624E+01  0.14227271869E+02  0.18726402884E+02  0.00000000000E+00 0. -1.
         11    1    3    3    0    0  0.18098890772E+02 -0.48470946441E+01  0.66080807011E+01  0.19867835928E+02  0.51100000000E-03 0. -1.
        -11    1    3    3    0    0  0.85100745069E+01 -0.12268436651E+02  0.35292547338E+01  0.15342475198E+02  0.51100000000E-03 0.  1.
        -12    1    3    3    0    0 -0.16042336048E+02  0.23166088857E+02 -0.24364607304E+02  0.37251285990E+02  0.00000000000E+00 0.  1.
</event>
<event>
 7    1  0.2684545E-013  0.7246156E+02  0.7816164E-02  0.1226708E+00
        -11   -1    0    0    0    0  0.00000000000E+00  0.00000000000E+00  0.45593999997E+02  0.45594000000E+02  0.51100000000E-03 0. -1.
         11   -1    0    0    0    0 -0.00000000000E+00 -0.00000000000E+00 -0.45593999997E+02  0.45594000000E+02  0.51100000000E-03 0.  1.
    9900012    2    1    2    0    0 -0.56648050166E+01  0.15345903438E+02 -0.91155187425E+01  0.72461562802E+02  0.69999990239E+02 0.  0.
         12    1    1    2    0    0  0.56648050166E+01 -0.15345903438E+02  0.91155187425E+01  0.18726437198E+02  0.00000000000E+00 0. -1.
         11    1    3    3    0    0  0.11375080420E+02  0.20590316325E+01  0.13773728283E+02  0.17981870228E+02  0.51100000000E-03 0. -1.
        -11    1    3    3    0    0 -0.13837981773E+01  0.19252782499E+02  0.67368096333E+01  0.20444293474E+02  0.51100000000E-03 0.  1.
        -12    1    3    3    0    0 -0.15656087259E+02 -0.59659106940E+01 -0.29626056659E+02  0.34035399099E+02  0.00000000000E+00 0.  1.
</event>
<event>
 7    1  0.2684545E-013  0.7246158E+02  0.7816164E-02  0.1226708E+00
        -11   -1    0    0    0    0  0.00000000000E+00  0.00000000000E+00  0.45593999997E+02  0.45594000000E+02  0.51100000000E-03 0.  1.
         11   -1    0    0    0    0 -0.00000000000E+00 -0.00000000000E+00 -0.45593999997E+02  0.45594000000E+02  0.51100000000E-03 0. -1.
    9900012    2    1    2    0    0 -0.16517279552E+02  0.33502167367E+01  0.81629963345E+01  0.72461575218E+02  0.70000006414E+02 0.  0.
         12    1    1    2    0    0  0.16517279552E+02 -0.33502167367E+01 -0.81629963345E+01  0.18726424782E+02  0.00000000000E+00 0. -1.
         11    1    3    3    0    0  0.19980358105E+01 -0.25206858213E+02  0.30399632922E+01  0.25468003949E+02  0.51100000000E-03 0. -1.
        -11    1    3    3    0    0 -0.84634855602E+01 -0.60262713716E+01 -0.10910504015E+01  0.10446862003E+02  0.51100000000E-03 0.  1.
        -12    1    3    3    0    0 -0.10051829802E+02  0.34583346321E+02  0.62140834439E+01  0.36546709266E+02  0.00000000000E+00 0.  1.
</event>
<event>
 7    1  0.2684545E-013  0.7246158E+02  0.7816164E-02  0.1226708E+00
        -11   -1    0    0    0    0  0.00000000000E+00  0.00000000000E+00  0.45593999997E+02  0.45594000000E+02  0.51100000000E-03 0.  1.
         11   -1    0    0    0    0 -0.00000000000E+00 -0.00000000000E+00 -0.45593999997E+02  0.45594000000E+02  0.51100000000E-03 0. -1.
    9900012    2    1    2    0    0  0.13727063674E+02 -0.64012387819E+01  0.11012298430E+02  0.72461578778E+02  0.70000011052E+02 0.  0.
         12    1    1    2    0    0 -0.13727063674E+02  0.64012387819E+01 -0.11012298430E+02  0.18726421222E+02  0.00000000000E+00 0. -1.
         11    1    3    3    0    0  0.23174137637E+02 -0.13870716064E+02  0.14847554672E+00  0.27008507263E+02  0.51100000000E-03 0. -1.
        -11    1    3    3    0    0 -0.84469403261E+01 -0.16789504117E+02  0.96889573592E+01  0.21145073761E+02  0.51100000000E-03 0.  1.
         12    1    3    3    0    0 -0.10001336365E+01  0.24258981399E+02  0.11748655239E+01  0.24307997754E+02  0.00000000000E+00 0. -1.
</event>
<event>
 7    1  0.2684545E-013  0.7246155E+02  0.7816164E-02  0.1226708E+00
        -11   -1    0    0    0    0  0.00000000000E+00  0.00000000000E+00  0.45593999997E+02  0.45594000000E+02  0.51100000000E-03 0. -1.
         11   -1    0    0    0    0 -0.00000000000E+00 -0.00000000000E+00 -0.45593999997E+02  0.45594000000E+02  0.51100000000E-03 0.  1.
    9900012    2    1    2    0    0  0.49571746397E+01  0.14022934470E+02 -0.11378204796E+02  0.72461553035E+02  0.69999977517E+02 0.  0.
         12    1    1    2    0    0 -0.49571746397E+01 -0.14022934470E+02  0.11378204796E+02  0.18726446965E+02  0.00000000000E+00 0. -1.
         11    1    3    3    0    0  0.14270745669E+01 -0.22411789100E+02 -0.68188326250E+01  0.23469582679E+02  0.51100000000E-03 0. -1.
        -11    1    3    3    0    0 -0.21136371312E+01  0.43282262834E+00 -0.11666072751E+02  0.11863896959E+02  0.51100000000E-03 0.  1.
        -12    1    3    3    0    0  0.56437372040E+01  0.36001900942E+02  0.71067005808E+01  0.37128073397E+02  0.00000000000E+00 0.  1.
</event>
<event>
 7    1  0.2684545E-013  0.7246156E+02  0.7816164E-02  0.1226708E+00
        -11   -1    0    0    0    0  0.00000000000E+00  0.00000000000E+00  0.45593999997E+02  0.45594000000E+02  0.51100000000E-03 0. -1.
         11   -1    0    0    0    0 -0.00000000000E+00 -0.00000000000E+00 -0.45593999997E+02  0.45594000000E+02  0.51100000000E-03 0.  1.
    9900012    2    1    2    0    0 -0.13014756992E+02  0.10640983785E+02 -0.82501559089E+01  0.72461561257E+02  0.69999988227E+02 0.  0.
         12    1    1    2    0    0  0.13014756992E+02 -0.10640983785E+02  0.82501559089E+01  0.18726438743E+02  0.00000000000E+00 0. -1.
         11    1    3    3    0    0 -0.11236342040E+02  0.33375262842E+02  0.39756959100E+01  0.35439662956E+02  0.51100000000E-03 0. -1.
        -11    1    3    3    0    0  0.10626391142E+02 -0.40512438009E+01 -0.87035230185E+01  0.14320756902E+02  0.51100000000E-03 0.  1.
        -12    1    3    3    0    0 -0.12404806095E+02 -0.18683035256E+02 -0.35223288003E+01  0.22701141399E+02  0.00000000000E+00 0.  1.
</event>
<event>
 7    1  0.2684545E-013  0.7246158E+02  0.7816164E-02  0.1226708E+00
        -11   -1    0    0    0    0  0.00000000000E+00  0.00000000000E+00  0.45593999997E+02  0.45594000000E+02  0.51100000000E-03 0.  1.
         11   -1    0    0    0    0 -0.00000000000E+00 -0.00000000000E+00 -0.45593999997E+02  0.45594000000E+02  0.51100000000E-03 0. -1.
    9900012    2    1    2    0    0  0.27246335824E+01 -0.30869282350E+01  0.18268173832E+02  0.72461576709E+02  0.70000008357E+02 0.  0.
         12    1    1    2    0    0 -0.27246335824E+01  0.30869282350E+01 -0.18268173832E+02  0.18726423291E+02  0.00000000000E+00 0. -1.
         11    1    3    3    0    0 -0.57018268485E-01 -0.88825947486E+01 -0.49608285709E+01  0.10174161436E+02  0.51100000000E-03 0. -1.
        -11    1    3    3    0    0  0.29814970021E+02  0.40008681071E+01  0.16748178243E+02  0.34430231740E+02  0.51100000000E-03 0.  1.
         12    1    3    3    0    0 -0.27033318170E+02  0.17947984064E+01  0.64808241601E+01  0.27857183533E+02  0.00000000000E+00 0. -1.
</event>
<event>
 7    1  0.2684545E-013  0.7246164E+02  0.7816164E-02  0.1226708E+00
        -11   -1    0    0    0    0  0.00000000000E+00  0.00000000000E+00  0.45593999997E+02  0.45594000000E+02  0.51100000000E-03 0.  1.
         11   -1    0    0    0    0 -0.00000000000E+00 -0.00000000000E+00 -0.45593999997E+02  0.45594000000E+02  0.51100000000E-03 0. -1.
    9900012    2    1    2    0    0 -0.13389268279E+02 -0.12907268925E+02 -0.21923248670E+01  0.72461644656E+02  0.70000096870E+02 0.  0.
         12    1    1    2    0    0  0.13389268279E+02  0.12907268925E+02  0.21923248670E+01  0.18726355344E+02  0.00000000000E+00 0. -1.
         11    1    3    3    0    0  0.15115123994E+02 -0.14855194400E+02 -0.78480543874E+01  0.22599463090E+02  0.51100000000E-03 0. -1.
        -11    1    3    3    0    0 -0.31232482278E+01  0.12583949220E+02 -0.11585505858E+02  0.17387765921E+02  0.51100000000E-03 0.  1.
        -12    1    3    3    0    0 -0.25381144045E+02 -0.10636023745E+02  0.17241235379E+02  0.32474415645E+02  0.00000000000E+00 0.  1.
</event>
<event>
 7    1  0.2684545E-013  0.7246155E+02  0.7816164E-02  0.1226708E+00
        -11   -1    0    0    0    0  0.00000000000E+00  0.00000000000E+00  0.45593999997E+02  0.45594000000E+02  0.51100000000E-03 0. -1.
         11   -1    0    0    0    0 -0.00000000000E+00 -0.00000000000E+00 -0.45593999997E+02  0.45594000000E+02  0.51100000000E-03 0.  1.
    9900012    2    1    2    0    0 -0.13652554125E+02  0.16555664576E+01  0.12710107360E+02  0.72461549094E+02  0.69999972382E+02 0.  0.
         12    1    1    2    0    0  0.13652554125E+02 -0.16555664576E+01 -0.12710107360E+02  0.18726450906E+02  0.00000000000E+00 0. -1.
         11    1    3    3    0    0 -0.20808983032E+02 -0.41451322704E+01  0.67767965949E+01  0.22273770869E+02  0.51100000000E-03 0. -1.
        -11    1    3    3    0    0 -0.14397789839E+02 -0.27014246390E+01  0.18682881806E+02  0.23741190369E+02  0.51100000000E-03 0.  1.
        -12    1    3    3    0    0  0.21554218746E+02  0.85021233669E+01 -0.12749571040E+02  0.26446587856E+02  0.00000000000E+00 0.  1.
</event>
<event>
 7    1  0.2684545E-013  0.7246158E+02  0.7816164E-02  0.1226708E+00
        -11   -1    0    0    0    0  0.00000000000E+00  0.00000000000E+00  0.45593999997E+02  0.45594000000E+02  0.51100000000E-03 0. -1.
         11   -1    0    0    0    0 -0.00000000000E+00 -0.00000000000E+00 -0.45593999997E+02  0.45594000000E+02  0.51100000000E-03 0.  1.
    9900012    2    1    2    0    0 -0.35978286099E+01  0.88909346571E+01 -0.16083712905E+02  0.72461577208E+02  0.70000009006E+02 0.  0.
         12    1    1    2    0    0  0.35978286099E+01 -0.88909346571E+01  0.16083712905E+02  0.18726422792E+02  0.00000000000E+00 0. -1.
         11    1    3    3    0    0 -0.87958040907E+01  0.19434484779E+02 -0.32599192790E+01  0.21579908299E+02  0.51100000000E-03 0. -1.
        -11    1    3    3    0    0  0.24429101624E+02 -0.34032156646E+01  0.31724556135E+01  0.24868199731E+02  0.51100000000E-03 0.  1.
         12    1    3    3    0    0 -0.19231126143E+02 -0.71403344572E+01 -0.15996249240E+02  0.26013469177E+02  0.00000000000E+00 0. -1.
</event>
<event>
 7    1  0.2684545E-013  0.7246147E+02  0.7816164E-02  0.1226708E+00
        -11   -1    0    0    0    0  0.00000000000E+00  0.00000000000E+00  0.45593999997E+02  0.45594000000E+02  0.51100000000E-03 0. -1.
         11   -1    0    0    0    0 -0.00000000000E+00 -0.00000000000E+00 -0.45593999997E+02  0.45594000000E+02  0.51100000000E-03 0.  1.
    9900012    2    1    2    0    0  0.37281913411E+01 -0.77529877370E+01 -0.16633541814E+02  0.72461469547E+02  0.69999868757E+02 0.  0.
         12    1    1    2    0    0 -0.37281913411E+01  0.77529877370E+01  0.16633541814E+02  0.18726530453E+02  0.00000000000E+00 0. -1.
         11    1    3    3    0    0  0.64758136183E+00 -0.27486812720E+01 -0.18499473814E+02  0.18713768781E+02  0.51100000000E-03 0. -1.
        -11    1    3    3    0    0  0.24499977087E+02 -0.15983068761E+02 -0.22102748890E+01  0.29335859961E+02  0.51100000000E-03 0.  1.
         12    1    3    3    0    0 -0.21419367108E+02  0.10978762296E+02  0.40762068882E+01  0.24411840804E+02  0.00000000000E+00 0. -1.
</event>
<event>
 7    1  0.2684545E-013  0.7246173E+02  0.7816164E-02  0.1226708E+00
        -11   -1    0    0    0    0  0.00000000000E+00  0.00000000000E+00  0.45593999997E+02  0.45594000000E+02  0.51100000000E-03 0. -1.
         11   -1    0    0    0    0 -0.00000000000E+00 -0.00000000000E+00 -0.45593999997E+02  0.45594000000E+02  0.51100000000E-03 0.  1.
    9900012    2    1    2    0    0  0.18625790686E+02  0.17169598057E+01  0.89723007463E+00  0.72461733649E+02  0.70000212799E+02 0.  0.
         12    1    1    2    0    0 -0.18625790686E+02 -0.17169598057E+01 -0.89723007463E+00  0.18726266351E+02  0.00000000000E+00 0. -1.
         11    1    3    3    0    0  0.30003064530E+02 -0.17716754335E+02 -0.27909751243E+01  0.34955068413E+02  0.51100000000E-03 0. -1.
        -11    1    3    3    0    0  0.91172556349E+01  0.81255834984E+01  0.66614968979E+01  0.13911326273E+02  0.51100000000E-03 0.  1.
        -12    1    3    3    0    0 -0.20494529479E+02  0.11308130642E+02 -0.29732916990E+01  0.23595338962E+02  0.00000000000E+00 0.  1.
</event>
<event>
 7    1  0.2684545E-013  0.7246152E+02  0.7816164E-02  0.1226708E+00
        -11   -1    0    0    0    0  0.00000000000E+00  0.00000000000E+00  0.45593999997E+02  0.45594000000E+02  0.51100000000E-03 0. -1.
         11   -1    0    0    0    0 -0.00000000000E+00 -0.00000000000E+00 -0.45593999997E+02  0.45594000000E+02  0.51100000000E-03 0.  1.
    9900012    2    1    2    0    0  0.11684339297E+02 -0.42890280312E+01 -0.13991475858E+02  0.72461522944E+02  0.69999938317E+02 0.  0.
         12    1    1    2    0    0 -0.11684339297E+02  0.42890280312E+01  0.13991475858E+02  0.18726477056E+02  0.00000000000E+00 0. -1.
         11    1    3    3    0    0 -0.11701054199E+02  0.51979483312E+01 -0.21223602597E+02  0.24786581928E+02  0.51100000000E-03 0. -1.
        -11    1    3    3    0    0 -0.58111460367E+01 -0.12827044071E+02 -0.61721930329E+01  0.15375254306E+02  0.51100000000E-03 0.  1.
         12    1    3    3    0    0  0.29196539533E+02  0.33400677089E+01  0.13404319772E+02  0.32299686710E+02  0.00000000000E+00 0. -1.
</event>
<event>
 7    1  0.2684545E-013  0.7246163E+02  0.7816164E-02  0.1226708E+00
        -11   -1    0    0    0    0  0.00000000000E+00  0.00000000000E+00  0.45593999997E+02  0.45594000000E+02  0.51100000000E-03 0.  1.
         11   -1    0    0    0    0 -0.00000000000E+00 -0.00000000000E+00 -0.45593999997E+02  0.45594000000E+02  0.51100000000E-03 0. -1.
    9900012    2    1    2    0    0 -0.86906772768E+01 -0.17646374472E+01  0.16493491681E+02  0.72461625960E+02  0.70000072515E+02 0.  0.
         12    1    1    2    0    0  0.86906772768E+01  0.17646374472E+01 -0.16493491681E+02  0.18726374040E+02  0.00000000000E+00 0. -1.
         11    1    3    3    0    0  0.48017959531E+01 -0.16448274401E+02  0.12900151358E+02  0.21448004114E+02  0.51100000000E-03 0. -1.
        -11    1    3    3    0    0  0.29231566171E+01 -0.26504196823E+01  0.21064012519E+02  0.21430403467E+02  0.51100000000E-03 0.  1.
         12    1    3    3    0    0 -0.16415629847E+02  0.17334056636E+02 -0.17470672195E+02  0.29583218380E+02  0.00000000000E+00 0. -1.
</event>
<event>
 7    1  0.2684545E-013  0.7246158E+02  0.7816164E-02  0.1226708E+00
        -11   -1    0    0    0    0  0.00000000000E+00  0.00000000000E+00  0.45593999997E+02  0.45594000000E+02  0.51100000000E-03 0.  1.
         11   -1    0    0    0    0 -0.00000000000E+00 -0.00000000000E+00 -0.45593999997E+02  0.45594000000E+02  0.51100000000E-03 0. -1.
    9900012    2    1    2    0    0 -0.13051844777E+01  0.15857916000E+02  0.98742999499E+01  0.72461580004E+02  0.70000012649E+02 0.  0.
         12    1    1    2    0    0  0.13051844777E+01 -0.15857916000E+02 -0.98742999499E+01  0.18726419996E+02  0.00000000000E+00 0. -1.
         11    1    3    3    0    0  0.35217798572E+01  0.49330873936E+01  0.18402739992E+02  0.19375219330E+02  0.51100000000E-03 0. -1.
        -11    1    3    3    0    0 -0.14584522105E+02  0.24318305141E+02  0.82218740880E+01  0.29524353739E+02  0.51100000000E-03 0.  1.
         12    1    3    3    0    0  0.97575577701E+01 -0.13393476535E+02 -0.16750314130E+02  0.23562006935E+02  0.00000000000E+00 0. -1.
</event>
<event>
 7    1  0.2684545E-013  0.7246165E+02  0.7816164E-02  0.1226708E+00
        -11   -1    0    0    0    0  0.00000000000E+00  0.00000000000E+00  0.45593999997E+02  0.45594000000E+02  0.51100000000E-03 0. -1.
         11   -1    0    0    0    0 -0.00000000000E+00 -0.00000000000E+00 -0.45593999997E+02  0.45594000000E+02  0.51100000000E-03 0.  1.
    9900012    2    1    2    0    0  0.18011019360E+01 -0.55069862824E+01 -0.17807453865E+02  0.72461647465E+02  0.70000100529E+02 0.  0.
         12    1    1    2    0    0 -0.18011019360E+01  0.55069862824E+01  0.17807453865E+02  0.18726352535E+02  0.00000000000E+00 0. -1.
         11    1    3    3    0    0 -0.78744493819E+01  0.81190520768E+01  0.75394545955E+01  0.13592988470E+02  0.51100000000E-03 0. -1.
        -11    1    3    3    0    0 -0.70109051835E+01 -0.25354098903E+02  0.37489390985E-01  0.26305598804E+02  0.51100000000E-03 0.  1.
         12    1    3    3    0    0  0.16686456501E+02  0.11728060544E+02 -0.25384397852E+02  0.32563060191E+02  0.00000000000E+00 0. -1.
</event>
<event>
 7    1  0.2684545E-013  0.7246159E+02  0.7816164E-02  0.1226708E+00
        -11   -1    0    0    0    0  0.00000000000E+00  0.00000000000E+00  0.45593999997E+02  0.45594000000E+02  0.51100000000E-03 0.  1.
         11   -1    0    0    0    0 -0.00000000000E+00 -0.00000000000E+00 -0.45593999997E+02  0.45594000000E+02  0.51100000000E-03 0. -1.
    9900012    2    1    2    0    0  0.11262240355E+02  0.32328514014E+01  0.14607845075E+02  0.72461587537E+02  0.70000022462E+02 0.  0.
         12    1    1    2    0    0 -0.11262240355E+02 -0.32328514014E+01 -0.14607845075E+02  0.18726412463E+02  0.00000000000E+00 0. -1.
         11    1    3    3    0    0  0.22537285872E+02  0.80461457081E+01  0.89623329873E+01  0.25553730218E+02  0.51100000000E-03 0. -1.
        -11    1    3    3    0    0  0.17431291887E+02 -0.37425613233E+01  0.16435204680E+01  0.17904129744E+02  0.51100000000E-03 0.  1.
         12    1    3    3    0    0 -0.28706337404E+02 -0.10707329834E+01  0.40019916197E+01  0.29003727575E+02  0.00000000000E+00 0. -1.
</event>
<event>
 7    1  0.2684545E-013  0.7246158E+02  0.7816164E-02  0.1226708E+00
        -11   -1    0    0    0    0  0.00000000000E+00  0.00000000000E+00  0.45593999997E+02  0.45594000000E+02  0.51100000000E-03 0. -1.
         11   -1    0    0    0    0 -0.00000000000E+00 -0.00000000000E+00 -0.45593999997E+02  0.45594000000E+02  0.51100000000E-03 0.  1.
    9900012    2    1    2    0    0 -0.28512924570E+01 -0.18502480880E+02 -0.45512289433E+00  0.72461580047E+02  0.70000012705E+02 0.  0.
         12    1    1    2    0    0  0.28512924570E+01  0.18502480880E+02  0.45512289433E+00  0.18726419953E+02  0.00000000000E+00 0. -1.
         11    1    3    3    0    0  0.13878232424E+02 -0.11458676447E+02  0.20751197997E+02  0.27468505961E+02  0.51100000000E-03 0. -1.
        -11    1    3    3    0    0  0.55200068684E+01  0.52193076399E+01  0.45176262614E+01  0.88385855976E+01  0.51100000000E-03 0.  1.
        -12    1    3    3    0    0 -0.22249531749E+02 -0.12263112073E+02 -0.25723947153E+02  0.36154488489E+02  0.00000000000E+00 0.  1.
</event>
<event>
 7    1  0.2684545E-013  0.7246158E+02  0.7816164E-02  0.1226708E+00
        -11   -1    0    0    0    0  0.00000000000E+00  0.00000000000E+00  0.45593999997E+02  0.45594000000E+02  0.51100000000E-03 0. -1.
         11   -1    0    0    0    0 -0.00000000000E+00 -0.00000000000E+00 -0.45593999997E+02  0.45594000000E+02  0.51100000000E-03 0.  1.
    9900012    2    1    2    0    0  0.11448166036E+02  0.92469475966E+01  0.11580687484E+02  0.72461578344E+02  0.70000010486E+02 0.  0.
         12    1    1    2    0    0 -0.11448166036E+02 -0.92469475966E+01 -0.11580687484E+02  0.18726421656E+02  0.00000000000E+00 0. -1.
         11    1    3    3    0    0  0.93265034724E+01 -0.29600615189E+01  0.49136139288E+01  0.10949394199E+02  0.51100000000E-03 0.  1.
        -11    1    3    3    0    0 -0.35926188655E+01 -0.22908846960E+02 -0.56418914424E+01  0.23865312038E+02  0.51100000000E-03 0. -1.
        -12    1    3    3    0    0  0.57142814290E+01  0.35115856076E+02  0.12308964997E+02  0.37646872107E+02  0.00000000000E+00 0.  1.
</event>
<event>
 7    1  0.2684545E-013  0.7246148E+02  0.7816164E-02  0.1226708E+00
        -11   -1    0    0    0    0  0.00000000000E+00  0.00000000000E+00  0.45593999997E+02  0.45594000000E+02  0.51100000000E-03 0.  1.
         11   -1    0    0    0    0 -0.00000000000E+00 -0.00000000000E+00 -0.45593999997E+02  0.45594000000E+02  0.51100000000E-03 0. -1.
    9900012    2    1    2    0    0  0.90020818789E+01  0.14656656870E+02  0.74045620752E+01  0.72461478479E+02  0.69999880394E+02 0.  0.
         12    1    1    2    0    0 -0.90020818789E+01 -0.14656656870E+02 -0.74045620752E+01  0.18726521521E+02  0.00000000000E+00 0. -1.
         11    1    3    3    0    0 -0.39080694541E+01  0.26164569253E+02 -0.11569726039E+02  0.28874145042E+02  0.51100000000E-03 0. -1.
        -11    1    3    3    0    0 -0.64036402184E+01  0.78344697178E+01  0.11359100498E+02  0.15212320276E+02  0.51100000000E-03 0.  1.
         12    1    3    3    0    0  0.19313791551E+02 -0.19342382101E+02  0.76151876163E+01  0.28375013161E+02  0.00000000000E+00 0. -1.
</event>
<event>
 7    1  0.2684545E-013  0.7246157E+02  0.7816164E-02  0.1226708E+00
        -11   -1    0    0    0    0  0.00000000000E+00  0.00000000000E+00  0.45593999997E+02  0.45594000000E+02  0.51100000000E-03 0. -1.
         11   -1    0    0    0    0 -0.00000000000E+00 -0.00000000000E+00 -0.45593999997E+02  0.45594000000E+02  0.51100000000E-03 0.  1.
    9900012    2    1    2    0    0 -0.88592378879E+01 -0.25814397720E+01 -0.16295068807E+02  0.72461569623E+02  0.69999999125E+02 0.  0.
         12    1    1    2    0    0  0.88592378879E+01  0.25814397720E+01  0.16295068807E+02  0.18726430377E+02  0.00000000000E+00 0. -1.
         11    1    3    3    0    0 -0.36599257514E+02 -0.55938957281E+01 -0.43971584073E+01  0.37284478303E+02  0.51100000000E-03 0. -1.
        -11    1    3    3    0    0 -0.20782266854E+01  0.14071511726E+01 -0.32154977564E+01  0.40790350159E+01  0.51100000000E-03 0.  1.
        -12    1    3    3    0    0  0.29818246312E+02  0.16053047835E+01 -0.86824126434E+01  0.31098056304E+02  0.00000000000E+00 0.  1.
</event>
<event>
 7    1  0.2684545E-013  0.7246154E+02  0.7816164E-02  0.1226708E+00
        -11   -1    0    0    0    0  0.00000000000E+00  0.00000000000E+00  0.45593999997E+02  0.45594000000E+02  0.51100000000E-03 0. -1.
         11   -1    0    0    0    0 -0.00000000000E+00 -0.00000000000E+00 -0.45593999997E+02  0.45594000000E+02  0.51100000000E-03 0.  1.
    9900012    2    1    2    0    0 -0.12551573914E+02  0.12305506497E+01 -0.13842833495E+02  0.72461540063E+02  0.69999960618E+02 0.  0.
         12    1    1    2    0    0  0.12551573914E+02 -0.12305506497E+01  0.13842833495E+02  0.18726459937E+02  0.00000000000E+00 0. -1.
         11    1    3    3    0    0  0.78716374285E-01 -0.84184548046E+01 -0.44681872033E+01  0.95310689174E+01  0.51100000000E-03 0. -1.
        -11    1    3    3    0    0  0.14371930415E+02 -0.12722616721E+02 -0.18540581351E+02  0.26686523138E+02  0.51100000000E-03 0.  1.
         12    1    3    3    0    0 -0.27002220703E+02  0.22371622175E+02  0.91659350601E+01  0.36243948008E+02  0.00000000000E+00 0. -1.
</event>
<event>
 7    1  0.2684545E-013  0.7246153E+02  0.7816164E-02  0.1226708E+00
        -11   -1    0    0    0    0  0.00000000000E+00  0.00000000000E+00  0.45593999997E+02  0.45594000000E+02  0.51100000000E-03 0. -1.
         11   -1    0    0    0    0 -0.00000000000E+00 -0.00000000000E+00 -0.45593999997E+02  0.45594000000E+02  0.51100000000E-03 0.  1.
    9900012    2    1    2    0    0  0.38073704157E+01  0.17831551217E+02  0.42685142454E+01  0.72461534713E+02  0.69999953649E+02 0.  0.
         12    1    1    2    0    0 -0.38073704157E+01 -0.17831551217E+02 -0.42685142454E+01  0.18726465287E+02  0.00000000000E+00 0. -1.
         11    1    3    3    0    0 -0.41492565898E+01 -0.13184531009E+02 -0.23187281007E+00  0.13823963014E+02  0.51100000000E-03 0. -1.
        -11    1    3    3    0    0  0.22033236853E+02  0.13335736519E+01 -0.80141944838E+01  0.23483382601E+02  0.51100000000E-03 0.  1.
        -12    1    3    3    0    0 -0.14076609848E+02  0.29682508573E+02  0.12514581539E+02  0.35154189098E+02  0.00000000000E+00 0.  1.
</event>
<event>
 7    1  0.2684545E-013  0.7246157E+02  0.7816164E-02  0.1226708E+00
        -11   -1    0    0    0    0  0.00000000000E+00  0.00000000000E+00  0.45593999997E+02  0.45594000000E+02  0.51100000000E-03 0.  1.
         11   -1    0    0    0    0 -0.00000000000E+00 -0.00000000000E+00 -0.45593999997E+02  0.45594000000E+02  0.51100000000E-03 0. -1.
    9900012    2    1    2    0    0 -0.12946763026E+02  0.11203105873E+02  0.75862348754E+01  0.72461569117E+02  0.69999998466E+02 0.  0.
         12    1    1    2    0    0  0.12946763026E+02 -0.11203105873E+02 -0.75862348754E+01  0.18726430883E+02  0.00000000000E+00 0. -1.
         11    1    3    3    0    0 -0.27157962867E+01  0.22703304941E+02  0.16993243940E+02  0.28488347523E+02  0.51100000000E-03 0. -1.
        -11    1    3    3    0    0 -0.84010205824E+00 -0.96458199857E+01  0.14945075659E+02  0.17807383339E+02  0.51100000000E-03 0.  1.
         12    1    3    3    0    0 -0.93908646807E+01 -0.18543790824E+01 -0.24352084723E+02  0.26165838255E+02  0.00000000000E+00 0. -1.
</event>
<event>
 7    1  0.2684545E-013  0.7246158E+02  0.7816164E-02  0.1226708E+00
        -11   -1    0    0    0    0  0.00000000000E+00  0.00000000000E+00  0.45593999997E+02  0.45594000000E+02  0.51100000000E-03 0. -1.
         11   -1    0    0    0    0 -0.00000000000E+00 -0.00000000000E+00 -0.45593999997E+02  0.45594000000E+02  0.51100000000E-03 0.  1.
    9900012    2    1    2    0    0 -0.12193741621E+02  0.14212011262E+02 -0.10100747341E+00  0.72461580125E+02  0.70000012806E+02 0.  0.
         12    1    1    2    0    0  0.12193741621E+02 -0.14212011262E+02  0.10100747341E+00  0.18726419875E+02  0.00000000000E+00 0. -1.
         11    1    3    3    0    0 -0.11102490163E+02  0.98860601807E+01 -0.10568490581E+02  0.18239859296E+02  0.51100000000E-03 0. -1.
        -11    1    3    3    0    0 -0.29630750028E+01  0.24088454976E+02 -0.95024658631E+01  0.26063966205E+02  0.51100000000E-03 0.  1.
         12    1    3    3    0    0  0.18718235453E+01 -0.19762503895E+02  0.19969948970E+02  0.28157754624E+02  0.00000000000E+00 0. -1.
</event>
<event>
 7    1  0.2684545E-013  0.7246153E+02  0.7816164E-02  0.1226708E+00
        -11   -1    0    0    0    0  0.00000000000E+00  0.00000000000E+00  0.45593999997E+02  0.45594000000E+02  0.51100000000E-03 0. -1.
         11   -1    0    0    0    0 -0.00000000000E+00 -0.00000000000E+00 -0.45593999997E+02  0.45594000000E+02  0.51100000000E-03 0.  1.
    9900012    2    1    2    0    0  0.23585348585E+00 -0.18709549810E+02 -0.76022485417E+00  0.72461526152E+02  0.69999942496E+02 0.  0.
         12    1    1    2    0    0 -0.23585348585E+00  0.18709549810E+02  0.76022485417E+00  0.18726473848E+02  0.00000000000E+00 0. -1.
         11    1    3    3    0    0  0.40354810056E+01 -0.43243148019E+01 -0.76011570620E+01  0.96313236055E+01  0.51100000000E-03 0. -1.
        -11    1    3    3    0    0  0.22190059547E+02  0.62186663535E+01 -0.10590945114E+02  0.25362150394E+02  0.51100000000E-03 0.  1.
         12    1    3    3    0    0 -0.25989687067E+02 -0.20603901362E+02  0.17431877321E+02  0.37468052153E+02  0.00000000000E+00 0. -1.
</event>
<event>
 7    1  0.2684545E-013  0.7246160E+02  0.7816164E-02  0.1226708E+00
        -11   -1    0    0    0    0  0.00000000000E+00  0.00000000000E+00  0.45593999997E+02  0.45594000000E+02  0.51100000000E-03 0.  1.
         11   -1    0    0    0    0 -0.00000000000E+00 -0.00000000000E+00 -0.45593999997E+02  0.45594000000E+02  0.51100000000E-03 0. -1.
    9900012    2    1    2    0    0  0.15343435065E+02  0.89111762538E+01  0.59873306867E+01  0.72461596432E+02  0.70000034050E+02 0.  0.
         12    1    1    2    0    0 -0.15343435065E+02 -0.89111762538E+01 -0.59873306867E+01  0.18726403568E+02  0.00000000000E+00 0. -1.
         11    1    3    3    0    0 -0.18721781395E+02 -0.62553020387E+01 -0.13356100474E+02  0.23833155945E+02  0.51100000000E-03 0. -1.
        -11    1    3    3    0    0 -0.29670159343E+01 -0.82287509390E+00 -0.12690882126E+01  0.33302991048E+01  0.51100000000E-03 0.  1.
        -12    1    3    3    0    0  0.37032232394E+02  0.15989353386E+02  0.20612519373E+02  0.45298141382E+02  0.00000000000E+00 0.  1.
</event>
<event>
 7    1  0.2684545E-013  0.7246173E+02  0.7816164E-02  0.1226708E+00
        -11   -1    0    0    0    0  0.00000000000E+00  0.00000000000E+00  0.45593999997E+02  0.45594000000E+02  0.51100000000E-03 0. -1.
         11   -1    0    0    0    0 -0.00000000000E+00 -0.00000000000E+00 -0.45593999997E+02  0.45594000000E+02  0.51100000000E-03 0.  1.
    9900012    2    1    2    0    0  0.30414544002E+01 -0.97377055065E+01  0.15703495003E+02  0.72461732120E+02  0.70000210808E+02 0.  0.
         12    1    1    2    0    0 -0.30414544002E+01  0.97377055065E+01 -0.15703495003E+02  0.18726267880E+02  0.00000000000E+00 0. -1.
         11    1    3    3    0    0 -0.10653535036E+02  0.19839882809E+01  0.75235337636E+00  0.10862782982E+02  0.51100000000E-03 0.  1.
        -11    1    3    3    0    0  0.47037260599E+01 -0.16739189615E+02  0.34988594456E+02  0.39070797919E+02  0.51100000000E-03 0. -1.
         12    1    3    3    0    0  0.89912633758E+01  0.50174958271E+01 -0.20037452829E+02  0.22528151219E+02  0.00000000000E+00 0. -1.
</event>
<event>
 7    1  0.2684545E-013  0.7246156E+02  0.7816164E-02  0.1226708E+00
        -11   -1    0    0    0    0  0.00000000000E+00  0.00000000000E+00  0.45593999997E+02  0.45594000000E+02  0.51100000000E-03 0.  1.
         11   -1    0    0    0    0 -0.00000000000E+00 -0.00000000000E+00 -0.45593999997E+02  0.45594000000E+02  0.51100000000E-03 0. -1.
    9900012    2    1    2    0    0  0.11415720296E+01  0.11069501608E+02 -0.15061290866E+02  0.72461560534E+02  0.69999987285E+02 0.  0.
         12    1    1    2    0    0 -0.11415720296E+01 -0.11069501608E+02  0.15061290866E+02  0.18726439466E+02  0.00000000000E+00 0. -1.
         11    1    3    3    0    0  0.15616228670E+02 -0.58238332350E+01 -0.35802540762E+02  0.39491841647E+02  0.51100000000E-03 0. -1.
        -11    1    3    3    0    0 -0.72627643568E+01  0.11671713285E+02  0.45295600497E+01  0.14473892069E+02  0.51100000000E-03 0.  1.
        -12    1    3    3    0    0 -0.72118922834E+01  0.52216215570E+01  0.16211689846E+02  0.18495826818E+02  0.00000000000E+00 0.  1.
</event>
<event>
 7    1  0.2684545E-013  0.7246155E+02  0.7816164E-02  0.1226708E+00
        -11   -1    0    0    0    0  0.00000000000E+00  0.00000000000E+00  0.45593999997E+02  0.45594000000E+02  0.51100000000E-03 0. -1.
         11   -1    0    0    0    0 -0.00000000000E+00 -0.00000000000E+00 -0.45593999997E+02  0.45594000000E+02  0.51100000000E-03 0.  1.
    9900012    2    1    2    0    0  0.11192734716E+02  0.66368515815E+00 -0.14998738125E+02  0.72461549889E+02  0.69999973419E+02 0.  0.
         12    1    1    2    0    0 -0.11192734716E+02 -0.66368515815E+00  0.14998738125E+02  0.18726450111E+02  0.00000000000E+00 0. -1.
         11    1    3    3    0    0 -0.30257616970E+00 -0.37763921889E+01  0.18248180879E+00  0.37928867864E+01  0.51100000000E-03 0. -1.
        -11    1    3    3    0    0  0.71848915971E+01  0.94537590095E+00  0.26063555480E+02  0.27052270281E+02  0.51100000000E-03 0.  1.
        -12    1    3    3    0    0  0.43104192886E+01  0.34947014461E+01 -0.41244775413E+02  0.41616392822E+02  0.00000000000E+00 0.  1.
</event>
<event>
 7    1  0.2684545E-013  0.7246160E+02  0.7816164E-02  0.1226708E+00
        -11   -1    0    0    0    0  0.00000000000E+00  0.00000000000E+00  0.45593999997E+02  0.45594000000E+02  0.51100000000E-03 0.  1.
         11   -1    0    0    0    0 -0.00000000000E+00 -0.00000000000E+00 -0.45593999997E+02  0.45594000000E+02  0.51100000000E-03 0. -1.
    9900012    2    1    2    0    0  0.79142361096E+00 -0.74039128803E+01 -0.17182370475E+02  0.72461597985E+02  0.70000036073E+02 0.  0.
         12    1    1    2    0    0 -0.79142361096E+00  0.74039128803E+01  0.17182370475E+02  0.18726402015E+02  0.00000000000E+00 0. -1.
         11    1    3    3    0    0  0.70933044956E+01  0.56835610296E+01 -0.63477886518E+01  0.11086579981E+02  0.51100000000E-03 0. -1.
        -11    1    3    3    0    0  0.59962755399E+01  0.21113620841E+02  0.36500921451E+01  0.22250021984E+02  0.51100000000E-03 0.  1.
         12    1    3    3    0    0 -0.12298156425E+02 -0.34201094751E+02 -0.14484673968E+02  0.39124996020E+02  0.00000000000E+00 0. -1.
</event>
<event>
 7    1  0.2684545E-013  0.7246171E+02  0.7816164E-02  0.1226708E+00
        -11   -1    0    0    0    0  0.00000000000E+00  0.00000000000E+00  0.45593999997E+02  0.45594000000E+02  0.51100000000E-03 0.  1.
         11   -1    0    0    0    0 -0.00000000000E+00 -0.00000000000E+00 -0.45593999997E+02  0.45594000000E+02  0.51100000000E-03 0. -1.
    9900012    2    1    2    0    0 -0.55355295192E+01  0.17156939370E+02 -0.50666690208E+01  0.72461713914E+02  0.70000187092E+02 0.  0.
         12    1    1    2    0    0  0.55355295192E+01 -0.17156939370E+02  0.50666690208E+01  0.18726286086E+02  0.00000000000E+00 0. -1.
         11    1    3    3    0    0 -0.13130823824E+02 -0.38179423289E+01  0.12747770667E+02  0.18694942503E+02  0.51100000000E-03 0. -1.
        -11    1    3    3    0    0 -0.94769527879E+00 -0.14325835599E+02 -0.61614508087E+01  0.15623417305E+02  0.51100000000E-03 0.  1.
        -12    1    3    3    0    0  0.85429895839E+01  0.35300717297E+02 -0.11652988879E+02  0.38143354107E+02  0.00000000000E+00 0.  1.
</event>
<event>
 7    1  0.2684545E-013  0.7246156E+02  0.7816164E-02  0.1226708E+00
        -11   -1    0    0    0    0  0.00000000000E+00  0.00000000000E+00  0.45593999997E+02  0.45594000000E+02  0.51100000000E-03 0.  1.
         11   -1    0    0    0    0 -0.00000000000E+00 -0.00000000000E+00 -0.45593999997E+02  0.45594000000E+02  0.51100000000E-03 0. -1.
    9900012    2    1    2    0    0  0.39141250158E+01  0.12369214239E+02  0.13504136924E+02  0.72461560146E+02  0.69999986780E+02 0.  0.
         12    1    1    2    0    0 -0.39141250158E+01 -0.12369214239E+02 -0.13504136924E+02  0.18726439854E+02  0.00000000000E+00 0. -1.
         11    1    3    3    0    0 -0.73531827623E+01 -0.36269651974E+01 -0.25556868813E+02  0.26839853149E+02  0.51100000000E-03 0. -1.
        -11    1    3    3    0    0 -0.27635362946E+01  0.51173621189E+01  0.97754767388E+01  0.11374729607E+02  0.51100000000E-03 0.  1.
        -12    1    3    3    0    0  0.14030844073E+02  0.10878817317E+02  0.29285528999E+02  0.34246977390E+02  0.00000000000E+00 0.  1.
</event>
<event>
 7    1  0.2684545E-013  0.7246160E+02  0.7816164E-02  0.1226708E+00
        -11   -1    0    0    0    0  0.00000000000E+00  0.00000000000E+00  0.45593999997E+02  0.45594000000E+02  0.51100000000E-03 0.  1.
         11   -1    0    0    0    0 -0.00000000000E+00 -0.00000000000E+00 -0.45593999997E+02  0.45594000000E+02  0.51100000000E-03 0. -1.
    9900012    2    1    2    0    0  0.23429363027E+01 -0.87977490342E+01  0.16364242586E+02  0.72461596875E+02  0.70000034627E+02 0.  0.
         12    1    1    2    0    0 -0.23429363027E+01  0.87977490342E+01 -0.16364242586E+02  0.18726403125E+02  0.00000000000E+00 0. -1.
         11    1    3    3    0    0  0.16105654259E+02 -0.83657445255E+01 -0.26859911148E+01  0.18346452766E+02  0.51100000000E-03 0. -1.
        -11    1    3    3    0    0  0.16785705498E+02 -0.27974363210E+01  0.15941902699E+02  0.23318014945E+02  0.51100000000E-03 0.  1.
         12    1    3    3    0    0 -0.30548423454E+02  0.23654318123E+01  0.31083310013E+01  0.30797129165E+02  0.00000000000E+00 0. -1.
</event>
<event>
 7    1  0.2684545E-013  0.7246160E+02  0.7816164E-02  0.1226708E+00
        -11   -1    0    0    0    0  0.00000000000E+00  0.00000000000E+00  0.45593999997E+02  0.45594000000E+02  0.51100000000E-03 0.  1.
         11   -1    0    0    0    0 -0.00000000000E+00 -0.00000000000E+00 -0.45593999997E+02  0.45594000000E+02  0.51100000000E-03 0. -1.
    9900012    2    1    2    0    0 -0.87016653734E+01 -0.14843014277E+01  0.16515323749E+02  0.72461600198E+02  0.70000038956E+02 0.  0.
         12    1    1    2    0    0  0.87016653734E+01  0.14843014277E+01 -0.16515323749E+02  0.18726399802E+02  0.00000000000E+00 0. -1.
         11    1    3    3    0    0 -0.18846700510E+01  0.20808385245E+02  0.11514956849E+02  0.23856552752E+02  0.51100000000E-03 0. -1.
        -11    1    3    3    0    0 -0.21061269495E+02  0.94695352571E+00  0.17725103293E+01  0.21156927633E+02  0.51100000000E-03 0.  1.
         12    1    3    3    0    0  0.14244274173E+02 -0.23239640199E+02  0.32278565707E+01  0.27448119814E+02  0.00000000000E+00 0. -1.
</event>
<event>
 7    1  0.2684545E-013  0.7246162E+02  0.7816164E-02  0.1226708E+00
        -11   -1    0    0    0    0  0.00000000000E+00  0.00000000000E+00  0.45593999997E+02  0.45594000000E+02  0.51100000000E-03 0. -1.
         11   -1    0    0    0    0 -0.00000000000E+00 -0.00000000000E+00 -0.45593999997E+02  0.45594000000E+02  0.51100000000E-03 0.  1.
    9900012    2    1    2    0    0  0.57425427024E+01 -0.12401514528E+02 -0.12802459404E+02  0.72461619515E+02  0.70000064119E+02 0.  0.
         12    1    1    2    0    0 -0.57425427024E+01  0.12401514528E+02  0.12802459404E+02  0.18726380485E+02  0.00000000000E+00 0. -1.
         11    1    3    3    0    0  0.32171643832E+01 -0.12652790055E+01 -0.20680444255E+01  0.40283849912E+01  0.51100000000E-03 0. -1.
        -11    1    3    3    0    0  0.75793647636E+00  0.27069969463E+02 -0.13160950154E+02  0.30109273050E+02  0.51100000000E-03 0.  1.
         12    1    3    3    0    0  0.17674418429E+01 -0.38206204985E+02  0.24265351757E+01  0.38323961473E+02  0.00000000000E+00 0. -1.
</event>
<event>
 7    1  0.2684545E-013  0.7246158E+02  0.7816164E-02  0.1226708E+00
        -11   -1    0    0    0    0  0.00000000000E+00  0.00000000000E+00  0.45593999997E+02  0.45594000000E+02  0.51100000000E-03 0.  1.
         11   -1    0    0    0    0 -0.00000000000E+00 -0.00000000000E+00 -0.45593999997E+02  0.45594000000E+02  0.51100000000E-03 0. -1.
    9900012    2    1    2    0    0 -0.19229434053E+01 -0.11863194046E+02  0.14361262562E+02  0.72461576244E+02  0.70000007751E+02 0.  0.
         12    1    1    2    0    0  0.19229434053E+01  0.11863194046E+02 -0.14361262562E+02  0.18726423756E+02  0.00000000000E+00 0. -1.
         11    1    3    3    0    0  0.97278787673E+01 -0.17483494694E+02 -0.14486915452E+02  0.24701719204E+02  0.51100000000E-03 0. -1.
        -11    1    3    3    0    0 -0.10417257667E+02 -0.62821470835E+01 -0.39954747901E+01  0.12804235562E+02  0.51100000000E-03 0.  1.
        -12    1    3    3    0    0 -0.12335645059E+01  0.11902447732E+02  0.32843652804E+02  0.34955621478E+02  0.00000000000E+00 0.  1.
</event>
<event>
 7    1  0.2684545E-013  0.7246159E+02  0.7816164E-02  0.1226708E+00
        -11   -1    0    0    0    0  0.00000000000E+00  0.00000000000E+00  0.45593999997E+02  0.45594000000E+02  0.51100000000E-03 0. -1.
         11   -1    0    0    0    0 -0.00000000000E+00 -0.00000000000E+00 -0.45593999997E+02  0.45594000000E+02  0.51100000000E-03 0.  1.
    9900012    2    1    2    0    0 -0.11240544991E+02 -0.19088540796E+01 -0.14855468710E+02  0.72461587472E+02  0.70000022377E+02 0.  0.
         12    1    1    2    0    0  0.11240544991E+02  0.19088540796E+01  0.14855468710E+02  0.18726412528E+02  0.00000000000E+00 0. -1.
         11    1    3    3    0    0  0.67795484991E+01 -0.25020184976E+02 -0.10205380451E+02  0.27858961296E+02  0.51100000000E-03 0. -1.
        -11    1    3    3    0    0 -0.12120157035E+02 -0.56476843235E+01 -0.71056337591E+01  0.15142145692E+02  0.51100000000E-03 0.  1.
         12    1    3    3    0    0 -0.58999364545E+01  0.28759015220E+02  0.24555454999E+01  0.29460480483E+02  0.00000000000E+00 0. -1.
</event>
<event>
 7    1  0.2684545E-013  0.7246149E+02  0.7816164E-02  0.1226708E+00
        -11   -1    0    0    0    0  0.00000000000E+00  0.00000000000E+00  0.45593999997E+02  0.45594000000E+02  0.51100000000E-03 0. -1.
         11   -1    0    0    0    0 -0.00000000000E+00 -0.00000000000E+00 -0.45593999997E+02  0.45594000000E+02  0.51100000000E-03 0.  1.
    9900012    2    1    2    0    0  0.10500672739E+02  0.13596703823E+02  0.74530407395E+01  0.72461486734E+02  0.69999891148E+02 0.  0.
         12    1    1    2    0    0 -0.10500672739E+02 -0.13596703823E+02 -0.74530407395E+01  0.18726513266E+02  0.00000000000E+00 0. -1.
         11    1    3    3    0    0  0.38476015893E+01 -0.19852368900E+02  0.21658895878E+02  0.29631543325E+02  0.51100000000E-03 0. -1.
        -11    1    3    3    0    0 -0.18471490462E+01  0.35874587034E+01  0.49207111460E+01  0.63635853094E+01  0.51100000000E-03 0.  1.
        -12    1    3    3    0    0  0.85002201963E+01  0.29861614019E+02 -0.19126566284E+02  0.36466358100E+02  0.00000000000E+00 0.  1.
</event>
<event>
 7    1  0.2684545E-013  0.7246148E+02  0.7816164E-02  0.1226708E+00
        -11   -1    0    0    0    0  0.00000000000E+00  0.00000000000E+00  0.45593999997E+02  0.45594000000E+02  0.51100000000E-03 0.  1.
         11   -1    0    0    0    0 -0.00000000000E+00 -0.00000000000E+00 -0.45593999997E+02  0.45594000000E+02  0.51100000000E-03 0. -1.
    9900012    2    1    2    0    0  0.18356520726E+02  0.17601685724E+01  0.32591949462E+01  0.72461484087E+02  0.69999887699E+02 0.  0.
         12    1    1    2    0    0 -0.18356520726E+02 -0.17601685724E+01 -0.32591949462E+01  0.18726515913E+02  0.00000000000E+00 0. -1.
         11    1    3    3    0    0 -0.57427063371E+01  0.37114268886E+01  0.51373396386E+00  0.68569153757E+01  0.51100000000E-03 0. -1.
        -11    1    3    3    0    0  0.13000614681E+02  0.18196531512E+02 -0.22311723374E+02  0.31590231739E+02  0.51100000000E-03 0.  1.
        -12    1    3    3    0    0  0.11098612381E+02 -0.20147789829E+02  0.25057184356E+02  0.34014336972E+02  0.00000000000E+00 0.  1.
</event>
<event>
 7    1  0.2684545E-013  0.7246151E+02  0.7816164E-02  0.1226708E+00
        -11   -1    0    0    0    0  0.00000000000E+00  0.00000000000E+00  0.45593999997E+02  0.45594000000E+02  0.51100000000E-03 0.  1.
         11   -1    0    0    0    0 -0.00000000000E+00 -0.00000000000E+00 -0.45593999997E+02  0.45594000000E+02  0.51100000000E-03 0. -1.
    9900012    2    1    2    0    0  0.10793210194E+02 -0.60712710735E+01  0.14047341133E+02  0.72461507759E+02  0.69999918536E+02 0.  0.
         12    1    1    2    0    0 -0.10793210194E+02  0.60712710735E+01 -0.14047341133E+02  0.18726492241E+02  0.00000000000E+00 0. -1.
         11    1    3    3    0    0  0.50501243345E+01 -0.10874505447E+02 -0.27906573887E+01  0.12310418085E+02  0.51100000000E-03 0. -1.
        -11    1    3    3    0    0  0.25620440237E+02 -0.11486734495E+02  0.19690161697E+02  0.34293650946E+02  0.51100000000E-03 0.  1.
         12    1    3    3    0    0 -0.19877354377E+02  0.16289968869E+02 -0.28521631754E+01  0.25857438728E+02  0.00000000000E+00 0. -1.
</event>
<event>
 7    1  0.2684545E-013  0.7246192E+02  0.7816164E-02  0.1226707E+00
        -11   -1    0    0    0    0  0.00000000000E+00  0.00000000000E+00  0.45593999997E+02  0.45594000000E+02  0.51100000000E-03 0. -1.
         11   -1    0    0    0    0 -0.00000000000E+00 -0.00000000000E+00 -0.45593999997E+02  0.45594000000E+02  0.51100000000E-03 0.  1.
    9900012    2    1    2    0    0  0.10298770158E+02  0.13034277715E+02 -0.86434368047E+01  0.72461920268E+02  0.70000455904E+02 0.  0.
         12    1    1    2    0    0 -0.10298770158E+02 -0.13034277715E+02  0.86434368047E+01  0.18726079732E+02  0.00000000000E+00 0. -1.
         11    1    3    3    0    0 -0.21144465361E+01  0.11079504580E+02  0.35851895619E+01  0.11835535068E+02  0.51100000000E-03 0. -1.
        -11    1    3    3    0    0 -0.19031683869E+02  0.13114811687E+02  0.41081440970E+01  0.23475095839E+02  0.51100000000E-03 0.  1.
         12    1    3    3    0    0  0.31444900564E+02 -0.11160038552E+02 -0.16336770464E+02  0.37151289360E+02  0.00000000000E+00 0. -1.
</event>
<event>
 7    1  0.2684545E-013  0.7246153E+02  0.7816164E-02  0.1226708E+00
        -11   -1    0    0    0    0  0.00000000000E+00  0.00000000000E+00  0.45593999997E+02  0.45594000000E+02  0.51100000000E-03 0.  1.
         11   -1    0    0    0    0 -0.00000000000E+00 -0.00000000000E+00 -0.45593999997E+02  0.45594000000E+02  0.51100000000E-03 0. -1.
    9900012    2    1    2    0    0  0.13995199400E+02  0.24202684108E+01  0.12204815642E+02  0.72461525952E+02  0.69999942236E+02 0.  0.
         12    1    1    2    0    0 -0.13995199400E+02 -0.24202684108E+01 -0.12204815642E+02  0.18726474048E+02  0.00000000000E+00 0. -1.
         11    1    3    3    0    0  0.10885620544E+01 -0.13439288516E+02  0.56282639251E+01  0.14610845227E+02  0.51100000000E-03 0. -1.
        -11    1    3    3    0    0 -0.16491750131E+02 -0.91322266857E+01  0.11649115694E+01  0.18887361008E+02  0.51100000000E-03 0.  1.
         12    1    3    3    0    0  0.29398387476E+02  0.24991783613E+02  0.54116401472E+01  0.38963319718E+02  0.00000000000E+00 0. -1.
</event>
<event>
 7    1  0.2684545E-013  0.7246140E+02  0.7816164E-02  0.1226708E+00
        -11   -1    0    0    0    0  0.00000000000E+00  0.00000000000E+00  0.45593999997E+02  0.45594000000E+02  0.51100000000E-03 0.  1.
         11   -1    0    0    0    0 -0.00000000000E+00 -0.00000000000E+00 -0.45593999997E+02  0.45594000000E+02  0.51100000000E-03 0. -1.
    9900012    2    1    2    0    0 -0.10398136880E+02 -0.15533370047E+02  0.11308441841E+01  0.72461397421E+02  0.69999774799E+02 0.  0.
         12    1    1    2    0    0  0.10398136880E+02  0.15533370047E+02 -0.11308441841E+01  0.18726602579E+02  0.00000000000E+00 0. -1.
         11    1    3    3    0    0  0.96010842399E+01 -0.73960739880E+01 -0.40669410463E+01  0.12783690342E+02  0.51100000000E-03 0. -1.
        -11    1    3    3    0    0 -0.18877950838E+02 -0.31122749275E+02  0.21506618824E+01  0.36464063090E+02  0.51100000000E-03 0.  1.
        -12    1    3    3    0    0 -0.11212702820E+01  0.22985453215E+02  0.30471233480E+01  0.23213643989E+02  0.00000000000E+00 0.  1.
</event>
<event>
 7    1  0.2684545E-013  0.7246165E+02  0.7816164E-02  0.1226708E+00
        -11   -1    0    0    0    0  0.00000000000E+00  0.00000000000E+00  0.45593999997E+02  0.45594000000E+02  0.51100000000E-03 0.  1.
         11   -1    0    0    0    0 -0.00000000000E+00 -0.00000000000E+00 -0.45593999997E+02  0.45594000000E+02  0.51100000000E-03 0. -1.
    9900012    2    1    2    0    0  0.61631537301E+01 -0.72070315208E+01  0.16147770736E+02  0.72461647793E+02  0.70000100956E+02 0.  0.
         12    1    1    2    0    0 -0.61631537301E+01  0.72070315208E+01 -0.16147770736E+02  0.18726352207E+02  0.00000000000E+00 0. -1.
         11    1    3    3    0    0  0.64484610577E+01  0.23612030075E+02  0.12861978208E+02  0.27650336308E+02  0.51100000000E-03 0. -1.
        -11    1    3    3    0    0 -0.71292591975E+01  0.46616276805E+01 -0.96835267917E-01  0.85185965198E+01  0.51100000000E-03 0.  1.
        -12    1    3    3    0    0  0.68439518700E+01 -0.35480689276E+02  0.33826277958E+01  0.36292714965E+02  0.00000000000E+00 0.  1.
</event>
<event>
 7    1  0.2684545E-013  0.7246156E+02  0.7816164E-02  0.1226708E+00
        -11   -1    0    0    0    0  0.00000000000E+00  0.00000000000E+00  0.45593999997E+02  0.45594000000E+02  0.51100000000E-03 0.  1.
         11   -1    0    0    0    0 -0.00000000000E+00 -0.00000000000E+00 -0.45593999997E+02  0.45594000000E+02  0.51100000000E-03 0. -1.
    9900012    2    1    2    0    0  0.86321909529E+01 -0.97326527488E+00  0.16589680691E+02  0.72461562234E+02  0.69999989501E+02 0.  0.
         12    1    1    2    0    0 -0.86321909529E+01  0.97326527488E+00 -0.16589680691E+02  0.18726437766E+02  0.00000000000E+00 0. -1.
         11    1    3    3    0    0 -0.96826678489E+01  0.17482473485E+02  0.11202572555E+02  0.22910446699E+02  0.51100000000E-03 0. -1.
        -11    1    3    3    0    0 -0.42715013231E+01  0.43965854773E+01  0.14842231809E+02  0.16058254349E+02  0.51100000000E-03 0.  1.
         12    1    3    3    0    0  0.22586360125E+02 -0.22852324237E+02 -0.94551236733E+01  0.33492861186E+02  0.00000000000E+00 0. -1.
</event>
<event>
 7    1  0.2684545E-013  0.7246172E+02  0.7816164E-02  0.1226708E+00
        -11   -1    0    0    0    0  0.00000000000E+00  0.00000000000E+00  0.45593999997E+02  0.45594000000E+02  0.51100000000E-03 0. -1.
         11   -1    0    0    0    0 -0.00000000000E+00 -0.00000000000E+00 -0.45593999997E+02  0.45594000000E+02  0.51100000000E-03 0.  1.
    9900012    2    1    2    0    0  0.18591875881E+02  0.16618707727E+01  0.15013113229E+01  0.72461719031E+02  0.70000193757E+02 0.  0.
         12    1    1    2    0    0 -0.18591875881E+02 -0.16618707727E+01 -0.15013113229E+01  0.18726280969E+02  0.00000000000E+00 0. -1.
         11    1    3    3    0    0  0.45086459680E+01  0.80708215485E+01  0.11361445824E+02  0.14647474199E+02  0.51100000000E-03 0. -1.
        -11    1    3    3    0    0  0.27597995361E+01  0.21997484034E+02 -0.15051575256E+02  0.26796561631E+02  0.51100000000E-03 0.  1.
        -12    1    3    3    0    0  0.11323430377E+02 -0.28406434810E+02  0.51914407545E+01  0.31017683202E+02  0.00000000000E+00 0.  1.
</event>
<event>
 7    1  0.2684545E-013  0.7246162E+02  0.7816164E-02  0.1226708E+00
        -11   -1    0    0    0    0  0.00000000000E+00  0.00000000000E+00  0.45593999997E+02  0.45594000000E+02  0.51100000000E-03 0.  1.
         11   -1    0    0    0    0 -0.00000000000E+00 -0.00000000000E+00 -0.45593999997E+02  0.45594000000E+02  0.51100000000E-03 0. -1.
    9900012    2    1    2    0    0 -0.11763710298E+02 -0.98843336829E+01  0.10704785535E+02  0.72461618457E+02  0.70000062741E+02 0.  0.
         12    1    1    2    0    0  0.11763710298E+02  0.98843336829E+01 -0.10704785535E+02  0.18726381543E+02  0.00000000000E+00 0. -1.
         11    1    3    3    0    0  0.14421166657E+02 -0.18949928305E+01  0.26876666277E+02  0.30560043128E+02  0.51100000000E-03 0. -1.
        -11    1    3    3    0    0 -0.70455884119E+01 -0.33041059630E+01  0.77002761885E+01  0.10947679477E+02  0.51100000000E-03 0.  1.
         12    1    3    3    0    0 -0.19139288544E+02 -0.46852348893E+01 -0.23872156930E+02  0.30953895852E+02  0.00000000000E+00 0. -1.
</event>
<event>
 7    1  0.2684545E-013  0.7246160E+02  0.7816164E-02  0.1226708E+00
        -11   -1    0    0    0    0  0.00000000000E+00  0.00000000000E+00  0.45593999997E+02  0.45594000000E+02  0.51100000000E-03 0. -1.
         11   -1    0    0    0    0 -0.00000000000E+00 -0.00000000000E+00 -0.45593999997E+02  0.45594000000E+02  0.51100000000E-03 0.  1.
    9900012    2    1    2    0    0  0.17949821062E+02  0.50284210954E+01 -0.17880559061E+01  0.72461595145E+02  0.70000032372E+02 0.  0.
         12    1    1    2    0    0 -0.17949821062E+02 -0.50284210954E+01  0.17880559061E+01  0.18726404855E+02  0.00000000000E+00 0. -1.
         11    1    3    3    0    0 -0.94068602029E+00  0.11479327883E+02  0.34708401383E+01  0.12029405237E+02  0.51100000000E-03 0. -1.
        -11    1    3    3    0    0 -0.84069228426E+01 -0.20179101884E+02  0.12409015516E+02  0.25136749409E+02  0.51100000000E-03 0.  1.
        -12    1    3    3    0    0  0.27297429925E+02  0.13728195096E+02 -0.17667911560E+02  0.35295440499E+02  0.00000000000E+00 0.  1.
</event>
<event>
 7    1  0.2684545E-013  0.7246171E+02  0.7816164E-02  0.1226708E+00
        -11   -1    0    0    0    0  0.00000000000E+00  0.00000000000E+00  0.45593999997E+02  0.45594000000E+02  0.51100000000E-03 0. -1.
         11   -1    0    0    0    0 -0.00000000000E+00 -0.00000000000E+00 -0.45593999997E+02  0.45594000000E+02  0.51100000000E-03 0.  1.
    9900012    2    1    2    0    0  0.10051472942E+02 -0.66770231351E+01 -0.14319889023E+02  0.72461709180E+02  0.70000180924E+02 0.  0.
         12    1    1    2    0    0 -0.10051472942E+02  0.66770231351E+01  0.14319889023E+02  0.18726290820E+02  0.00000000000E+00 0. -1.
         11    1    3    3    0    0  0.18010291985E+02 -0.49372275701E+01  0.16981274897E+02  0.25241048530E+02  0.51100000000E-03 0. -1.
        -11    1    3    3    0    0  0.79846802967E+01  0.62348836905E+01  0.11497580229E+01  0.10195628369E+02  0.51100000000E-03 0.  1.
         12    1    3    3    0    0 -0.15943499340E+02 -0.79746792555E+01 -0.32450921943E+02  0.37025032281E+02  0.00000000000E+00 0. -1.
</event>
<event>
 7    1  0.2684545E-013  0.7246160E+02  0.7816164E-02  0.1226708E+00
        -11   -1    0    0    0    0  0.00000000000E+00  0.00000000000E+00  0.45593999997E+02  0.45594000000E+02  0.51100000000E-03 0. -1.
         11   -1    0    0    0    0 -0.00000000000E+00 -0.00000000000E+00 -0.45593999997E+02  0.45594000000E+02  0.51100000000E-03 0.  1.
    9900012    2    1    2    0    0 -0.16181475227E+02 -0.49135557329E+01 -0.80433242398E+01  0.72461595239E+02  0.70000032495E+02 0.  0.
         12    1    1    2    0    0  0.16181475227E+02  0.49135557329E+01  0.80433242398E+01  0.18726404761E+02  0.00000000000E+00 0. -1.
         11    1    3    3    0    0  0.22267224392E+01 -0.10995583785E+02 -0.70265450857E+01  0.13237578770E+02  0.51100000000E-03 0. -1.
        -11    1    3    3    0    0 -0.18966104656E+02 -0.21124285258E+02  0.96667632246E+01  0.29989912721E+02  0.51100000000E-03 0.  1.
        -12    1    3    3    0    0  0.55790698984E+00  0.27206313311E+02 -0.10683542379E+02  0.29234103748E+02  0.00000000000E+00 0.  1.
</event>
<event>
 7    1  0.2684545E-013  0.7246156E+02  0.7816164E-02  0.1226708E+00
        -11   -1    0    0    0    0  0.00000000000E+00  0.00000000000E+00  0.45593999997E+02  0.45594000000E+02  0.51100000000E-03 0.  1.
         11   -1    0    0    0    0 -0.00000000000E+00 -0.00000000000E+00 -0.45593999997E+02  0.45594000000E+02  0.51100000000E-03 0. -1.
    9900012    2    1    2    0    0 -0.39937651727E+01  0.17386811679E+02  0.56945900856E+01  0.72461555147E+02  0.69999980267E+02 0.  0.
         12    1    1    2    0    0  0.39937651727E+01 -0.17386811679E+02 -0.56945900856E+01  0.18726444853E+02  0.00000000000E+00 0. -1.
         11    1    3    3    0    0 -0.44935775111E+01  0.10401930148E+02  0.33253213655E+01  0.11808901392E+02  0.51100000000E-03 0. -1.
        -11    1    3    3    0    0  0.86309489960E+00  0.20668172063E+01  0.31261977346E+02  0.31342110555E+02  0.51100000000E-03 0.  1.
         12    1    3    3    0    0 -0.36328256121E+00  0.49180643246E+01 -0.28892708626E+02  0.29310543200E+02  0.00000000000E+00 0. -1.
</event>
<event>
 7    1  0.2684545E-013  0.7246165E+02  0.7816164E-02  0.1226708E+00
        -11   -1    0    0    0    0  0.00000000000E+00  0.00000000000E+00  0.45593999997E+02  0.45594000000E+02  0.51100000000E-03 0.  1.
         11   -1    0    0    0    0 -0.00000000000E+00 -0.00000000000E+00 -0.45593999997E+02  0.45594000000E+02  0.51100000000E-03 0. -1.
    9900012    2    1    2    0    0  0.23690616441E+01  0.89865276307E+01  0.16257495981E+02  0.72461646711E+02  0.70000099547E+02 0.  0.
         12    1    1    2    0    0 -0.23690616441E+01 -0.89865276307E+01 -0.16257495981E+02  0.18726353289E+02  0.00000000000E+00 0. -1.
         11    1    3    3    0    0  0.14171618793E+02 -0.14979630692E+01 -0.17124541177E+02  0.22278433144E+02  0.51100000000E-03 0. -1.
        -11    1    3    3    0    0 -0.76806345998E+01 -0.82661689497E+01  0.28085797768E+02  0.30267701159E+02  0.51100000000E-03 0.  1.
         12    1    3    3    0    0 -0.41219225487E+01  0.18750659650E+02  0.52962393905E+01  0.19915512408E+02  0.00000000000E+00 0. -1.
</event>
<event>
 7    1  0.2684545E-013  0.7246156E+02  0.7816164E-02  0.1226708E+00
        -11   -1    0    0    0    0  0.00000000000E+00  0.00000000000E+00  0.45593999997E+02  0.45594000000E+02  0.51100000000E-03 0. -1.
         11   -1    0    0    0    0 -0.00000000000E+00 -0.00000000000E+00 -0.45593999997E+02  0.45594000000E+02  0.51100000000E-03 0.  1.
    9900012    2    1    2    0    0 -0.90915624521E+01 -0.13973081650E+02 -0.85308847746E+01  0.72461561106E+02  0.69999988031E+02 0.  0.
         12    1    1    2    0    0  0.90915624521E+01  0.13973081650E+02  0.85308847746E+01  0.18726438894E+02  0.00000000000E+00 0. -1.
         11    1    3    3    0    0 -0.26902536233E+02  0.58134720036E+01 -0.17369564405E+01  0.27578251040E+02  0.51100000000E-03 0. -1.
        -11    1    3    3    0    0 -0.51299063261E+01 -0.70422730530E+01 -0.15034690111E+02  0.17376750434E+02  0.51100000000E-03 0.  1.
         12    1    3    3    0    0  0.22940880107E+02 -0.12744280600E+02  0.82407617766E+01  0.27506559632E+02  0.00000000000E+00 0. -1.
</event>
<event>
 7    1  0.2684545E-013  0.7246156E+02  0.7816164E-02  0.1226708E+00
        -11   -1    0    0    0    0  0.00000000000E+00  0.00000000000E+00  0.45593999997E+02  0.45594000000E+02  0.51100000000E-03 0. -1.
         11   -1    0    0    0    0 -0.00000000000E+00 -0.00000000000E+00 -0.45593999997E+02  0.45594000000E+02  0.51100000000E-03 0.  1.
    9900012    2    1    2    0    0  0.80900581297E-02 -0.11994292014E+02  0.14381112011E+02  0.72461561763E+02  0.69999988887E+02 0.  0.
         12    1    1    2    0    0 -0.80900581297E-02  0.11994292014E+02 -0.14381112011E+02  0.18726438237E+02  0.00000000000E+00 0. -1.
         11    1    3    3    0    0 -0.21414339611E+02 -0.13606134038E+02  0.30048121816E+02  0.39326714195E+02  0.51100000000E-03 0. -1.
        -11    1    3    3    0    0  0.84152930972E+01  0.12299744122E+00  0.41499742948E+01  0.93837398297E+01  0.51100000000E-03 0.  1.
        -12    1    3    3    0    0  0.13007136571E+02  0.14888445828E+01 -0.19816984100E+02  0.23751107739E+02  0.00000000000E+00 0.  1.
</event>
<event>
 7    1  0.2684545E-013  0.7246137E+02  0.7816164E-02  0.1226709E+00
        -11   -1    0    0    0    0  0.00000000000E+00  0.00000000000E+00  0.45593999997E+02  0.45594000000E+02  0.51100000000E-03 0. -1.
         11   -1    0    0    0    0 -0.00000000000E+00 -0.00000000000E+00 -0.45593999997E+02  0.45594000000E+02  0.51100000000E-03 0.  1.
    9900012    2    1    2    0    0 -0.23041446963E+01 -0.17402612412E+02 -0.65212574547E+01  0.72461366551E+02  0.69999734585E+02 0.  0.
         12    1    1    2    0    0  0.23041446963E+01  0.17402612412E+02  0.65212574547E+01  0.18726633449E+02  0.00000000000E+00 0. -1.
         11    1    3    3    0    0  0.83220966190E+01  0.28819937262E+01 -0.24022521794E+02  0.25586026139E+02  0.51100000000E-03 0. -1.
        -11    1    3    3    0    0 -0.43482114775E+01  0.83332840371E+00 -0.10412524064E+02  0.11314682360E+02  0.51100000000E-03 0.  1.
         12    1    3    3    0    0 -0.62780298377E+01 -0.21117934542E+02  0.27913788403E+02  0.35560658051E+02  0.00000000000E+00 0. -1.
</event>
<event>
 7    1  0.2684545E-013  0.7246161E+02  0.7816164E-02  0.1226708E+00
        -11   -1    0    0    0    0  0.00000000000E+00  0.00000000000E+00  0.45593999997E+02  0.45594000000E+02  0.51100000000E-03 0.  1.
         11   -1    0    0    0    0 -0.00000000000E+00 -0.00000000000E+00 -0.45593999997E+02  0.45594000000E+02  0.51100000000E-03 0. -1.
    9900012    2    1    2    0    0  0.58972490680E+00 -0.23022622819E+01  0.18574970746E+02  0.72461608856E+02  0.70000050233E+02 0.  0.
         12    1    1    2    0    0 -0.58972490680E+00  0.23022622819E+01 -0.18574970746E+02  0.18726391144E+02  0.00000000000E+00 0. -1.
         11    1    3    3    0    0 -0.23574452388E+01 -0.40092663467E+01 -0.45946304457E+00  0.46736357628E+01  0.51100000000E-03 0. -1.
        -11    1    3    3    0    0  0.31484493982E+02 -0.10610020820E+02  0.46824907218E+01  0.33552520363E+02  0.51100000000E-03 0.  1.
         12    1    3    3    0    0 -0.28537323836E+02  0.12317024885E+02  0.14351943069E+02  0.34235452730E+02  0.00000000000E+00 0. -1.
</event>
<event>
 7    1  0.2684545E-013  0.7246158E+02  0.7816164E-02  0.1226708E+00
        -11   -1    0    0    0    0  0.00000000000E+00  0.00000000000E+00  0.45593999997E+02  0.45594000000E+02  0.51100000000E-03 0. -1.
         11   -1    0    0    0    0 -0.00000000000E+00 -0.00000000000E+00 -0.45593999997E+02  0.45594000000E+02  0.51100000000E-03 0.  1.
    9900012    2    1    2    0    0 -0.14559379035E+02 -0.69755677157E+01 -0.94891962257E+01  0.72461577281E+02  0.70000009101E+02 0.  0.
         12    1    1    2    0    0  0.14559379035E+02  0.69755677157E+01  0.94891962257E+01  0.18726422719E+02  0.00000000000E+00 0. -1.
         11    1    3    3    0    0 -0.52255725460E+01  0.64059384687E+01 -0.27329308115E+01  0.87069838164E+01  0.51100000000E-03 0. -1.
        -11    1    3    3    0    0  0.51768484982E+01  0.17269391553E+02 -0.20378479624E+02  0.27208713256E+02  0.51100000000E-03 0.  1.
         12    1    3    3    0    0 -0.14510654987E+02 -0.30650897737E+02  0.13622214210E+02  0.36545880209E+02  0.00000000000E+00 0. -1.
</event>
<event>
 7    1  0.2684545E-013  0.7246157E+02  0.7816164E-02  0.1226708E+00
        -11   -1    0    0    0    0  0.00000000000E+00  0.00000000000E+00  0.45593999997E+02  0.45594000000E+02  0.51100000000E-03 0.  1.
         11   -1    0    0    0    0 -0.00000000000E+00 -0.00000000000E+00 -0.45593999997E+02  0.45594000000E+02  0.51100000000E-03 0. -1.
    9900012    2    1    2    0    0  0.90892836043E+01  0.17316486138E+01  0.16280835600E+02  0.72461567046E+02  0.69999995768E+02 0.  0.
         12    1    1    2    0    0 -0.90892836043E+01 -0.17316486138E+01 -0.16280835600E+02  0.18726432954E+02  0.00000000000E+00 0. -1.
         11    1    3    3    0    0 -0.12905887072E+02  0.12610396779E+02  0.77165499414E+01  0.19624708184E+02  0.51100000000E-03 0. -1.
        -11    1    3    3    0    0  0.38164860725E+01  0.11454433029E+02  0.18742438887E+02  0.22294587182E+02  0.51100000000E-03 0.  1.
         12    1    3    3    0    0  0.18178684604E+02 -0.22333181194E+02 -0.10178153228E+02  0.30542271679E+02  0.00000000000E+00 0. -1.
</event>
<event>
 7    1  0.2684545E-013  0.7246157E+02  0.7816164E-02  0.1226708E+00
        -11   -1    0    0    0    0  0.00000000000E+00  0.00000000000E+00  0.45593999997E+02  0.45594000000E+02  0.51100000000E-03 0.  1.
         11   -1    0    0    0    0 -0.00000000000E+00 -0.00000000000E+00 -0.45593999997E+02  0.45594000000E+02  0.51100000000E-03 0. -1.
    9900012    2    1    2    0    0 -0.36646394629E+01 -0.45805426935E+01  0.17783928660E+02  0.72461572889E+02  0.70000003380E+02 0.  0.
         12    1    1    2    0    0  0.36646394629E+01  0.45805426935E+01 -0.17783928660E+02  0.18726427111E+02  0.00000000000E+00 0. -1.
         11    1    3    3    0    0  0.54880791245E+01 -0.80810428041E+01  0.94248411031E+01  0.13573868106E+02  0.51100000000E-03 0. -1.
        -11    1    3    3    0    0  0.18917445700E+02 -0.15149539226E+01  0.20464451290E+02  0.27909829882E+02  0.51100000000E-03 0.  1.
         12    1    3    3    0    0 -0.28070164287E+02  0.50154540332E+01 -0.12105363733E+02  0.30977874901E+02  0.00000000000E+00 0. -1.
</event>
<event>
 7    1  0.2684545E-013  0.7246151E+02  0.7816164E-02  0.1226708E+00
        -11   -1    0    0    0    0  0.00000000000E+00  0.00000000000E+00  0.45593999997E+02  0.45594000000E+02  0.51100000000E-03 0. -1.
         11   -1    0    0    0    0 -0.00000000000E+00 -0.00000000000E+00 -0.45593999997E+02  0.45594000000E+02  0.51100000000E-03 0.  1.
    9900012    2    1    2    0    0  0.17398246377E+02 -0.89547891062E+00 -0.68688138313E+01  0.72461509060E+02  0.69999920230E+02 0.  0.
         12    1    1    2    0    0 -0.17398246377E+02  0.89547891062E+00  0.68688138313E+01  0.18726490940E+02  0.00000000000E+00 0. -1.
         11    1    3    3    0    0  0.11218183617E+02 -0.11315450684E+02 -0.38287160783E+00  0.15938433385E+02  0.51100000000E-03 0. -1.
        -11    1    3    3    0    0  0.27751586514E+02  0.10296558683E+02 -0.15179386629E+02  0.33265349141E+02  0.51100000000E-03 0.  1.
         12    1    3    3    0    0 -0.21571523754E+02  0.12341309031E+00  0.86934444058E+01  0.23257726533E+02  0.00000000000E+00 0. -1.
</event>
<event>
 7    1  0.2684545E-013  0.7246159E+02  0.7816164E-02  0.1226708E+00
        -11   -1    0    0    0    0  0.00000000000E+00  0.00000000000E+00  0.45593999997E+02  0.45594000000E+02  0.51100000000E-03 0.  1.
         11   -1    0    0    0    0 -0.00000000000E+00 -0.00000000000E+00 -0.45593999997E+02  0.45594000000E+02  0.51100000000E-03 0. -1.
    9900012    2    1    2    0    0  0.49774734933E+01 -0.13173724429E+02  0.12343269290E+02  0.72461586716E+02  0.70000021392E+02 0.  0.
         12    1    1    2    0    0 -0.49774734933E+01  0.13173724429E+02 -0.12343269290E+02  0.18726413284E+02  0.00000000000E+00 0. -1.
         11    1    3    3    0    0 -0.38383842305E+01 -0.12460670697E+02  0.12449447274E+02  0.18027485832E+02  0.51100000000E-03 0. -1.
        -11    1    3    3    0    0 -0.12901419195E+02  0.64493867918E+01  0.19539335033E+02  0.24286350508E+02  0.51100000000E-03 0.  1.
         12    1    3    3    0    0  0.21717276918E+02 -0.71624405240E+01 -0.19645513017E+02  0.30147750376E+02  0.00000000000E+00 0. -1.
</event>
<event>
 7    1  0.2684545E-013  0.7246158E+02  0.7816164E-02  0.1226708E+00
        -11   -1    0    0    0    0  0.00000000000E+00  0.00000000000E+00  0.45593999997E+02  0.45594000000E+02  0.51100000000E-03 0. -1.
         11   -1    0    0    0    0 -0.00000000000E+00 -0.00000000000E+00 -0.45593999997E+02  0.45594000000E+02  0.51100000000E-03 0.  1.
    9900012    2    1    2    0    0 -0.28499683747E+01  0.41423594498E-01 -0.18508232336E+02  0.72461582834E+02  0.70000016335E+02 0.  0.
         12    1    1    2    0    0  0.28499683747E+01 -0.41423594498E-01  0.18508232336E+02  0.18726417166E+02  0.00000000000E+00 0. -1.
         11    1    3    3    0    0 -0.16544906743E+02  0.34060219647E+00 -0.23081233239E+01  0.16708602052E+02  0.51100000000E-03 0. -1.
        -11    1    3    3    0    0  0.27395088231E+01  0.23336540032E+02 -0.18059864904E+02  0.29635413441E+02  0.51100000000E-03 0.  1.
         12    1    3    3    0    0  0.10955429545E+02 -0.23635718633E+02  0.18597558911E+01  0.26117567341E+02  0.00000000000E+00 0. -1.
</event>
<event>
 7    1  0.2684545E-013  0.7246158E+02  0.7816164E-02  0.1226708E+00
        -11   -1    0    0    0    0  0.00000000000E+00  0.00000000000E+00  0.45593999997E+02  0.45594000000E+02  0.51100000000E-03 0. -1.
         11   -1    0    0    0    0 -0.00000000000E+00 -0.00000000000E+00 -0.45593999997E+02  0.45594000000E+02  0.51100000000E-03 0.  1.
    9900012    2    1    2    0    0 -0.14878112248E+02  0.79234751258E+01 -0.81571598256E+01  0.72461576462E+02  0.70000008034E+02 0.  0.
         12    1    1    2    0    0  0.14878112248E+02 -0.79234751258E+01  0.81571598256E+01  0.18726423538E+02  0.00000000000E+00 0. -1.
         11    1    3    3    0    0 -0.27873564641E+02 -0.42719535016E+01 -0.27052323305E+01  0.28328492277E+02  0.51100000000E-03 0. -1.
        -11    1    3    3    0    0 -0.10159624932E+02 -0.41394621517E+01  0.71766370489E+01  0.13109433446E+02  0.51100000000E-03 0.  1.
        -12    1    3    3    0    0  0.23155077325E+02  0.16334890779E+02 -0.12628564544E+02  0.31023650739E+02  0.00000000000E+00 0.  1.
</event>
<event>
 7    1  0.2684545E-013  0.7246161E+02  0.7816164E-02  0.1226708E+00
        -11   -1    0    0    0    0  0.00000000000E+00  0.00000000000E+00  0.45593999997E+02  0.45594000000E+02  0.51100000000E-03 0.  1.
         11   -1    0    0    0    0 -0.00000000000E+00 -0.00000000000E+00 -0.45593999997E+02  0.45594000000E+02  0.51100000000E-03 0. -1.
    9900012    2    1    2    0    0  0.10841145861E+02 -0.11983452099E+02  0.94627733036E+01  0.72461610963E+02  0.70000052978E+02 0.  0.
         12    1    1    2    0    0 -0.10841145861E+02  0.11983452099E+02 -0.94627733036E+01  0.18726389037E+02  0.00000000000E+00 0. -1.
         11    1    3    3    0    0 -0.10975823023E+02 -0.15724348918E+02 -0.15809270328E+02  0.24852703444E+02  0.51100000000E-03 0. -1.
        -11    1    3    3    0    0 -0.78381823654E+01 -0.51480534368E+01  0.54027034897E+01  0.10822604226E+02  0.51100000000E-03 0.  1.
        -12    1    3    3    0    0  0.29655151249E+02  0.88889502558E+01  0.19869340142E+02  0.36786303292E+02  0.00000000000E+00 0.  1.
</event>
<event>
 7    1  0.2684545E-013  0.7246157E+02  0.7816164E-02  0.1226708E+00
        -11   -1    0    0    0    0  0.00000000000E+00  0.00000000000E+00  0.45593999997E+02  0.45594000000E+02  0.51100000000E-03 0. -1.
         11   -1    0    0    0    0 -0.00000000000E+00 -0.00000000000E+00 -0.45593999997E+02  0.45594000000E+02  0.51100000000E-03 0.  1.
    9900012    2    1    2    0    0  0.97590543561E+01 -0.16019538843E+01 -0.15902007228E+02  0.72461568624E+02  0.69999997825E+02 0.  0.
         12    1    1    2    0    0 -0.97590543561E+01  0.16019538843E+01  0.15902007228E+02  0.18726431376E+02  0.00000000000E+00 0. -1.
         11    1    3    3    0    0 -0.50814912082E+01  0.96264522200E+01 -0.75794456384E+01  0.13264167207E+02  0.51100000000E-03 0. -1.
        -11    1    3    3    0    0  0.16404802693E+02  0.21998512181E+01 -0.29643682577E+02  0.33951506796E+02  0.51100000000E-03 0.  1.
         12    1    3    3    0    0 -0.15642571284E+01 -0.13428257323E+02  0.21321120987E+02  0.25245894621E+02  0.00000000000E+00 0. -1.
</event>
<event>
 7    1  0.2684545E-013  0.7246154E+02  0.7816164E-02  0.1226708E+00
        -11   -1    0    0    0    0  0.00000000000E+00  0.00000000000E+00  0.45593999997E+02  0.45594000000E+02  0.51100000000E-03 0.  1.
         11   -1    0    0    0    0 -0.00000000000E+00 -0.00000000000E+00 -0.45593999997E+02  0.45594000000E+02  0.51100000000E-03 0. -1.
    9900012    2    1    2    0    0  0.17090468170E+02  0.65369341549E+01  0.39830422342E+01  0.72461541823E+02  0.69999962911E+02 0.  0.
         12    1    1    2    0    0 -0.17090468170E+02 -0.65369341549E+01 -0.39830422342E+01  0.18726458177E+02  0.00000000000E+00 0. -1.
         11    1    3    3    0    0 -0.91590160585E+01  0.12609596216E+02 -0.77325498826E+01  0.17397753298E+02  0.51100000000E-03 0. -1.
        -11    1    3    3    0    0 -0.11417838070E+02  0.26264577584E+01  0.11481968019E+02  0.16404295060E+02  0.51100000000E-03 0.  1.
         12    1    3    3    0    0  0.37667322299E+02 -0.86991198191E+01  0.23362409800E+00  0.38659493465E+02  0.00000000000E+00 0. -1.
</event>
<event>
 7    1  0.2684545E-013  0.7246153E+02  0.7816164E-02  0.1226708E+00
        -11   -1    0    0    0    0  0.00000000000E+00  0.00000000000E+00  0.45593999997E+02  0.45594000000E+02  0.51100000000E-03 0.  1.
         11   -1    0    0    0    0 -0.00000000000E+00 -0.00000000000E+00 -0.45593999997E+02  0.45594000000E+02  0.51100000000E-03 0. -1.
    9900012    2    1    2    0    0  0.10726231174E+02  0.10633793312E+02  0.11070281094E+02  0.72461528926E+02  0.69999946110E+02 0.  0.
         12    1    1    2    0    0 -0.10726231174E+02 -0.10633793312E+02 -0.11070281094E+02  0.18726471074E+02  0.00000000000E+00 0. -1.
         11    1    3    3    0    0  0.25418760679E+01  0.61676657147E+01  0.31921387895E+00  0.66785576343E+01  0.51100000000E-03 0. -1.
        -11    1    3    3    0    0  0.62366680824E+01  0.16699237747E+02  0.34592653464E+02  0.38915449940E+02  0.51100000000E-03 0.  1.
         12    1    3    3    0    0  0.19476870234E+01 -0.12233110150E+02 -0.23841586250E+02  0.26867521351E+02  0.00000000000E+00 0. -1.
</event>
<event>
 7    1  0.2684545E-013  0.7246156E+02  0.7816164E-02  0.1226708E+00
        -11   -1    0    0    0    0  0.00000000000E+00  0.00000000000E+00  0.45593999997E+02  0.45594000000E+02  0.51100000000E-03 0.  1.
         11   -1    0    0    0    0 -0.00000000000E+00 -0.00000000000E+00 -0.45593999997E+02  0.45594000000E+02  0.51100000000E-03 0. -1.
    9900012    2    1    2    0    0  0.17846525608E+02 -0.23331446455E+01  0.51708493952E+01  0.72461555498E+02  0.69999980725E+02 0.  0.
         12    1    1    2    0    0 -0.17846525608E+02  0.23331446455E+01 -0.51708493952E+01  0.18726444502E+02  0.00000000000E+00 0. -1.
         11    1    3    3    0    0  0.51720320186E+00  0.60646269777E+01 -0.27499954689E+02  0.28165487883E+02  0.51100000000E-03 0. -1.
        -11    1    3    3    0    0  0.16503249267E+02 -0.68026565002E+01  0.80018077538E+01  0.19561756041E+02  0.51100000000E-03 0.  1.
        -12    1    3    3    0    0  0.82607313969E+00 -0.15951151230E+01  0.24668996330E+02  0.24734311574E+02  0.00000000000E+00 0.  1.
</event>
<event>
 7    1  0.2684545E-013  0.7246188E+02  0.7816164E-02  0.1226707E+00
        -11   -1    0    0    0    0  0.00000000000E+00  0.00000000000E+00  0.45593999997E+02  0.45594000000E+02  0.51100000000E-03 0. -1.
         11   -1    0    0    0    0 -0.00000000000E+00 -0.00000000000E+00 -0.45593999997E+02  0.45594000000E+02  0.51100000000E-03 0.  1.
    9900012    2    1    2    0    0 -0.12800713897E+02  0.13022624650E+02 -0.41497607279E+01  0.72461880724E+02  0.70000404391E+02 0.  0.
         12    1    1    2    0    0  0.12800713897E+02 -0.13022624650E+02  0.41497607279E+01  0.18726119276E+02  0.00000000000E+00 0. -1.
         11    1    3    3    0    0  0.25790484148E+02  0.93788591478E+00  0.10850658474E+02  0.27995812047E+02  0.51100000000E-03 0. -1.
        -11    1    3    3    0    0 -0.25853739782E+01 -0.13780239831E+00 -0.42073312658E+01  0.49401199124E+01  0.51100000000E-03 0.  1.
        -12    1    3    3    0    0 -0.36005824067E+02  0.12222541133E+02 -0.10793087936E+02  0.39525948764E+02  0.00000000000E+00 0.  1.
</event>
<event>
 7    1  0.2684545E-013  0.7246138E+02  0.7816164E-02  0.1226709E+00
        -11   -1    0    0    0    0  0.00000000000E+00  0.00000000000E+00  0.45593999997E+02  0.45594000000E+02  0.51100000000E-03 0.  1.
         11   -1    0    0    0    0 -0.00000000000E+00 -0.00000000000E+00 -0.45593999997E+02  0.45594000000E+02  0.51100000000E-03 0. -1.
    9900012    2    1    2    0    0 -0.13718676407E+02  0.64808494472E+01  0.10976471045E+02  0.72461377013E+02  0.69999748214E+02 0.  0.
         12    1    1    2    0    0  0.13718676407E+02 -0.64808494472E+01 -0.10976471045E+02  0.18726622987E+02  0.00000000000E+00 0. -1.
         11    1    3    3    0    0 -0.16542171387E+02 -0.85728707080E+01 -0.14583230662E+02  0.23660265493E+02  0.51100000000E-03 0. -1.
        -11    1    3    3    0    0  0.19251440947E+02  0.13882259418E+01  0.71089086377E+01  0.20568950680E+02  0.51100000000E-03 0.  1.
         12    1    3    3    0    0 -0.16427945967E+02  0.13665494213E+02  0.18450793070E+02  0.28232160840E+02  0.00000000000E+00 0. -1.
</event>
<event>
 7    1  0.2684545E-013  0.7246161E+02  0.7816164E-02  0.1226708E+00
        -11   -1    0    0    0    0  0.00000000000E+00  0.00000000000E+00  0.45593999997E+02  0.45594000000E+02  0.51100000000E-03 0. -1.
         11   -1    0    0    0    0 -0.00000000000E+00 -0.00000000000E+00 -0.45593999997E+02  0.45594000000E+02  0.51100000000E-03 0.  1.
    9900012    2    1    2    0    0 -0.33750885355E+01 -0.11968000726E+02 -0.14001901847E+02  0.72461614355E+02  0.70000057397E+02 0.  0.
         12    1    1    2    0    0  0.33750885355E+01  0.11968000726E+02  0.14001901847E+02  0.18726385645E+02  0.00000000000E+00 0. -1.
         11    1    3    3    0    0  0.72937513163E+01  0.14605766004E+02 -0.19224712288E+01  0.16438464183E+02  0.51100000000E-03 0. -1.
        -11    1    3    3    0    0 -0.20023045176E+02 -0.52090391833E+01  0.10811180976E+02  0.23343908449E+02  0.51100000000E-03 0.  1.
        -12    1    3    3    0    0  0.93542053241E+01 -0.21364727547E+02 -0.22890611594E+02  0.32679241722E+02  0.00000000000E+00 0.  1.
</event>
<event>
 7    1  0.2684545E-013  0.7246165E+02  0.7816164E-02  0.1226708E+00
        -11   -1    0    0    0    0  0.00000000000E+00  0.00000000000E+00  0.45593999997E+02  0.45594000000E+02  0.51100000000E-03 0. -1.
         11   -1    0    0    0    0 -0.00000000000E+00 -0.00000000000E+00 -0.45593999997E+02  0.45594000000E+02  0.51100000000E-03 0.  1.
    9900012    2    1    2    0    0 -0.18404180867E+01  0.17983921842E+02 -0.48854428823E+01  0.72461651298E+02  0.70000105522E+02 0.  0.
         12    1    1    2    0    0  0.18404180867E+01 -0.17983921842E+02  0.48854428823E+01  0.18726348702E+02  0.00000000000E+00 0. -1.
         11    1    3    3    0    0  0.51083621479E+01 -0.13097195287E+02  0.84711591840E+01  0.16413178437E+02  0.51100000000E-03 0. -1.
        -11    1    3    3    0    0 -0.22147800454E+02  0.28079539423E+01 -0.49754984611E+01  0.22872806026E+02  0.51100000000E-03 0.  1.
        -12    1    3    3    0    0  0.15199020220E+02  0.28273163187E+02 -0.83811036053E+01  0.33175666834E+02  0.00000000000E+00 0.  1.
</event>
<event>
 7    1  0.2684545E-013  0.7246148E+02  0.7816164E-02  0.1226708E+00
        -11   -1    0    0    0    0  0.00000000000E+00  0.00000000000E+00  0.45593999997E+02  0.45594000000E+02  0.51100000000E-03 0.  1.
         11   -1    0    0    0    0 -0.00000000000E+00 -0.00000000000E+00 -0.45593999997E+02  0.45594000000E+02  0.51100000000E-03 0. -1.
    9900012    2    1    2    0    0 -0.31091689862E+01  0.17086131916E+02  0.70056921219E+01  0.72461479828E+02  0.69999882151E+02 0.  0.
         12    1    1    2    0    0  0.31091689862E+01 -0.17086131916E+02 -0.70056921219E+01  0.18726520172E+02  0.00000000000E+00 0. -1.
         11    1    3    3    0    0  0.15031599956E+02  0.75957351097E+01  0.17142334665E+01  0.16928756178E+02  0.51100000000E-03 0. -1.
        -11    1    3    3    0    0 -0.15164258940E+02 -0.19424901215E+02 -0.41070732380E+01  0.24982985956E+02  0.51100000000E-03 0.  1.
         12    1    3    3    0    0 -0.29765100027E+01  0.28915298021E+02  0.93985318934E+01  0.30549737695E+02  0.00000000000E+00 0. -1.
</event>
<event>
 7    1  0.2684545E-013  0.7246157E+02  0.7816164E-02  0.1226708E+00
        -11   -1    0    0    0    0  0.00000000000E+00  0.00000000000E+00  0.45593999997E+02  0.45594000000E+02  0.51100000000E-03 0. -1.
         11   -1    0    0    0    0 -0.00000000000E+00 -0.00000000000E+00 -0.45593999997E+02  0.45594000000E+02  0.51100000000E-03 0.  1.
    9900012    2    1    2    0    0  0.70233134494E+01  0.17036729904E+02 -0.33319814210E+01  0.72461569539E+02  0.69999999016E+02 0.  0.
         12    1    1    2    0    0 -0.70233134494E+01 -0.17036729904E+02  0.33319814210E+01  0.18726430461E+02  0.00000000000E+00 0. -1.
         11    1    3    3    0    0  0.67967903293E+01 -0.20653161833E+01 -0.12546918822E+02  0.14418289146E+02  0.51100000000E-03 0. -1.
        -11    1    3    3    0    0  0.85586297241E+01  0.23188506519E+02 -0.17155414581E+02  0.30087625813E+02  0.51100000000E-03 0.  1.
         12    1    3    3    0    0 -0.83321066040E+01 -0.40864604323E+01  0.26370351982E+02  0.27955654580E+02  0.00000000000E+00 0. -1.
</event>
<event>
 7    1  0.2684545E-013  0.7246152E+02  0.7816164E-02  0.1226708E+00
        -11   -1    0    0    0    0  0.00000000000E+00  0.00000000000E+00  0.45593999997E+02  0.45594000000E+02  0.51100000000E-03 0. -1.
         11   -1    0    0    0    0 -0.00000000000E+00 -0.00000000000E+00 -0.45593999997E+02  0.45594000000E+02  0.51100000000E-03 0.  1.
    9900012    2    1    2    0    0 -0.14772333112E+02  0.23871975482E+01 -0.11258804443E+02  0.72461515675E+02  0.69999928848E+02 0.  0.
         12    1    1    2    0    0  0.14772333112E+02 -0.23871975482E+01  0.11258804443E+02  0.18726484325E+02  0.00000000000E+00 0. -1.
         11    1    3    3    0    0 -0.31217341950E+02  0.56673510953E+01 -0.23988354144E+02  0.39775399956E+02  0.51100000000E-03 0. -1.
        -11    1    3    3    0    0  0.15402072474E+00  0.16219446336E+01 -0.66801591730E+01  0.68759692855E+01  0.51100000000E-03 0.  1.
        -12    1    3    3    0    0  0.16290988114E+02 -0.49020981807E+01  0.19409708874E+02  0.25810146433E+02  0.00000000000E+00 0.  1.
</event>
<event>
 7    1  0.2684545E-013  0.7246161E+02  0.7816164E-02  0.1226708E+00
        -11   -1    0    0    0    0  0.00000000000E+00  0.00000000000E+00  0.45593999997E+02  0.45594000000E+02  0.51100000000E-03 0.  1.
         11   -1    0    0    0    0 -0.00000000000E+00 -0.00000000000E+00 -0.45593999997E+02  0.45594000000E+02  0.51100000000E-03 0. -1.
    9900012    2    1    2    0    0  0.83616487960E+01 -0.42811518262E+01  0.16199757982E+02  0.72461612462E+02  0.70000054932E+02 0.  0.
         12    1    1    2    0    0 -0.83616487960E+01  0.42811518262E+01 -0.16199757982E+02  0.18726387538E+02  0.00000000000E+00 0. -1.
         11    1    3    3    0    0  0.19440927080E+01  0.91380361600E+01 -0.19980605864E+02  0.22056922094E+02  0.51100000000E-03 0. -1.
        -11    1    3    3    0    0 -0.11606079123E+02 -0.79829761174E+01  0.71308585473E+01  0.15788544080E+02  0.51100000000E-03 0.  1.
         12    1    3    3    0    0  0.18023635211E+02 -0.54362118688E+01  0.29049505299E+02  0.34616146287E+02  0.00000000000E+00 0. -1.
</event>
<event>
 7    1  0.2684545E-013  0.7246157E+02  0.7816164E-02  0.1226708E+00
        -11   -1    0    0    0    0  0.00000000000E+00  0.00000000000E+00  0.45593999997E+02  0.45594000000E+02  0.51100000000E-03 0.  1.
         11   -1    0    0    0    0 -0.00000000000E+00 -0.00000000000E+00 -0.45593999997E+02  0.45594000000E+02  0.51100000000E-03 0. -1.
    9900012    2    1    2    0    0  0.13773070523E+02 -0.10155747717E+02  0.76054352795E+01  0.72461566033E+02  0.69999994448E+02 0.  0.
         12    1    1    2    0    0 -0.13773070523E+02  0.10155747717E+02 -0.76054352795E+01  0.18726433967E+02  0.00000000000E+00 0. -1.
         11    1    3    3    0    0 -0.58580557648E+00 -0.36204479746E+01  0.94215684703E+01  0.10110230680E+02  0.51100000000E-03 0. -1.
        -11    1    3    3    0    0  0.95200007596E+01 -0.26378320237E+02  0.18457916406E+02  0.33572918719E+02  0.51100000000E-03 0.  1.
         12    1    3    3    0    0  0.48388753402E+01  0.19843020494E+02 -0.20274049597E+02  0.28778416634E+02  0.00000000000E+00 0. -1.
</event>
<event>
 7    1  0.2684545E-013  0.7246156E+02  0.7816164E-02  0.1226708E+00
        -11   -1    0    0    0    0  0.00000000000E+00  0.00000000000E+00  0.45593999997E+02  0.45594000000E+02  0.51100000000E-03 0. -1.
         11   -1    0    0    0    0 -0.00000000000E+00 -0.00000000000E+00 -0.45593999997E+02  0.45594000000E+02  0.51100000000E-03 0.  1.
    9900012    2    1    2    0    0 -0.11511078709E+02 -0.14715265542E+02  0.12788836161E+01  0.72461561035E+02  0.69999987938E+02 0.  0.
         12    1    1    2    0    0  0.11511078709E+02  0.14715265542E+02 -0.12788836161E+01  0.18726438965E+02  0.00000000000E+00 0. -1.
         11    1    3    3    0    0 -0.42221857389E+01 -0.10250226369E+02  0.45403039686E+01  0.11979497210E+02  0.51100000000E-03 0. -1.
        -11    1    3    3    0    0 -0.20371796477E+02  0.17713882188E+02 -0.16386198471E+02  0.31580044561E+02  0.51100000000E-03 0.  1.
         12    1    3    3    0    0  0.13082903507E+02 -0.22178921360E+02  0.13124778118E+02  0.28902019264E+02  0.00000000000E+00 0. -1.
</event>
<event>
 7    1  0.2684545E-013  0.7246156E+02  0.7816164E-02  0.1226708E+00
        -11   -1    0    0    0    0  0.00000000000E+00  0.00000000000E+00  0.45593999997E+02  0.45594000000E+02  0.51100000000E-03 0.  1.
         11   -1    0    0    0    0 -0.00000000000E+00 -0.00000000000E+00 -0.45593999997E+02  0.45594000000E+02  0.51100000000E-03 0. -1.
    9900012    2    1    2    0    0 -0.80259572596E+01 -0.26483879585E+01  0.16710765901E+02  0.72461557580E+02  0.69999983438E+02 0.  0.
         12    1    1    2    0    0  0.80259572596E+01  0.26483879585E+01 -0.16710765901E+02  0.18726442420E+02  0.00000000000E+00 0. -1.
         11    1    3    3    0    0 -0.41974996511E+01 -0.20039570568E+02  0.17434720502E+02  0.26891873700E+02  0.51100000000E-03 0. -1.
        -11    1    3    3    0    0  0.31806097816E+01  0.20469555326E+02  0.16654459307E+02  0.26579879399E+02  0.51100000000E-03 0.  1.
         12    1    3    3    0    0 -0.70090673900E+01 -0.30783727164E+01 -0.17378413908E+02  0.18989804481E+02  0.00000000000E+00 0. -1.
</event>
<event>
 7    1  0.2684545E-013  0.7246155E+02  0.7816164E-02  0.1226708E+00
        -11   -1    0    0    0    0  0.00000000000E+00  0.00000000000E+00  0.45593999997E+02  0.45594000000E+02  0.51100000000E-03 0.  1.
         11   -1    0    0    0    0 -0.00000000000E+00 -0.00000000000E+00 -0.45593999997E+02  0.45594000000E+02  0.51100000000E-03 0. -1.
    9900012    2    1    2    0    0 -0.25782277232E+01 -0.15515065247E+02 -0.10164413192E+02  0.72461553371E+02  0.69999977954E+02 0.  0.
         12    1    1    2    0    0  0.25782277232E+01  0.15515065247E+02  0.10164413192E+02  0.18726446629E+02  0.00000000000E+00 0. -1.
         11    1    3    3    0    0 -0.19642616479E+02 -0.48723295208E+01 -0.10389807194E+02  0.22749067473E+02  0.51100000000E-03 0. -1.
        -11    1    3    3    0    0  0.83308031370E+00  0.17309862870E+02 -0.10722111604E+01  0.17363035806E+02  0.51100000000E-03 0.  1.
        -12    1    3    3    0    0  0.16231308442E+02 -0.27952598596E+02  0.12976051622E+01  0.32349450091E+02  0.00000000000E+00 0.  1.
</event>
<event>
 7    1  0.2684545E-013  0.7246162E+02  0.7816164E-02  0.1226708E+00
        -11   -1    0    0    0    0  0.00000000000E+00  0.00000000000E+00  0.45593999997E+02  0.45594000000E+02  0.51100000000E-03 0.  1.
         11   -1    0    0    0    0 -0.00000000000E+00 -0.00000000000E+00 -0.45593999997E+02  0.45594000000E+02  0.51100000000E-03 0. -1.
    9900012    2    1    2    0    0  0.94106457488E-01 -0.13681879228E+02  0.12785713722E+02  0.72461624200E+02  0.70000070222E+02 0.  0.
         12    1    1    2    0    0 -0.94106457488E-01  0.13681879228E+02 -0.12785713722E+02  0.18726375800E+02  0.00000000000E+00 0. -1.
         11    1    3    3    0    0  0.44744801224E+01  0.18759370014E+00  0.15003000306E+02  0.15657144766E+02  0.51100000000E-03 0. -1.
        -11    1    3    3    0    0  0.24090526582E+02  0.14255461301E+01  0.19805953421E+01  0.24213806205E+02  0.51100000000E-03 0.  1.
         12    1    3    3    0    0 -0.28470900247E+02 -0.15295019059E+02 -0.41978819268E+01  0.32590673229E+02  0.00000000000E+00 0. -1.
</event>
<event>
 7    1  0.2684545E-013  0.7246156E+02  0.7816164E-02  0.1226708E+00
        -11   -1    0    0    0    0  0.00000000000E+00  0.00000000000E+00  0.45593999997E+02  0.45594000000E+02  0.51100000000E-03 0. -1.
         11   -1    0    0    0    0 -0.00000000000E+00 -0.00000000000E+00 -0.45593999997E+02  0.45594000000E+02  0.51100000000E-03 0.  1.
    9900012    2    1    2    0    0  0.91872407560E+01  0.16241482973E+02 -0.15774964994E+01  0.72461557277E+02  0.69999983042E+02 0.  0.
         12    1    1    2    0    0 -0.91872407560E+01 -0.16241482973E+02  0.15774964994E+01  0.18726442723E+02  0.00000000000E+00 0. -1.
         11    1    3    3    0    0  0.26484427347E+02 -0.41960813143E+01  0.17329430643E+02  0.31927122591E+02  0.51100000000E-03 0. -1.
        -11    1    3    3    0    0  0.20088713893E+01 -0.40427089960E+01 -0.37481068559E+01  0.58674837494E+01  0.51100000000E-03 0.  1.
        -12    1    3    3    0    0 -0.19306057980E+02  0.24480273283E+02 -0.15158820286E+02  0.34666950936E+02  0.00000000000E+00 0.  1.
</event>
<event>
 7    1  0.2684545E-013  0.7246159E+02  0.7816164E-02  0.1226708E+00
        -11   -1    0    0    0    0  0.00000000000E+00  0.00000000000E+00  0.45593999997E+02  0.45594000000E+02  0.51100000000E-03 0. -1.
         11   -1    0    0    0    0 -0.00000000000E+00 -0.00000000000E+00 -0.45593999997E+02  0.45594000000E+02  0.51100000000E-03 0.  1.
    9900012    2    1    2    0    0 -0.67753923035E+01 -0.14584365490E+02 -0.95952538115E+01  0.72461586747E+02  0.70000021432E+02 0.  0.
         12    1    1    2    0    0  0.67753923035E+01  0.14584365490E+02  0.95952538115E+01  0.18726413253E+02  0.00000000000E+00 0. -1.
         11    1    3    3    0    0 -0.15055660317E+02 -0.10725894629E+02  0.17814228660E+02  0.25672250898E+02  0.51100000000E-03 0. -1.
        -11    1    3    3    0    0  0.51748592554E+01 -0.19761050621E+02 -0.91667740058E+01  0.22389909242E+02  0.51100000000E-03 0.  1.
        -12    1    3    3    0    0  0.31054087577E+01  0.15902579759E+02 -0.18242708466E+02  0.24399426606E+02  0.00000000000E+00 0.  1.
</event>
<event>
 7    1  0.2684545E-013  0.7246153E+02  0.7816164E-02  0.1226708E+00
        -11   -1    0    0    0    0  0.00000000000E+00  0.00000000000E+00  0.45593999997E+02  0.45594000000E+02  0.51100000000E-03 0.  1.
         11   -1    0    0    0    0 -0.00000000000E+00 -0.00000000000E+00 -0.45593999997E+02  0.45594000000E+02  0.51100000000E-03 0. -1.
    9900012    2    1    2    0    0  0.64884507023E+01 -0.11750561877E+02  0.13057753493E+02  0.72461531480E+02  0.69999949437E+02 0.  0.
         12    1    1    2    0    0 -0.64884507023E+01  0.11750561877E+02 -0.13057753493E+02  0.18726468520E+02  0.00000000000E+00 0. -1.
         11    1    3    3    0    0  0.13822847901E+02 -0.26247581176E+02  0.86031965351E+01  0.30887240611E+02  0.51100000000E-03 0. -1.
        -11    1    3    3    0    0 -0.15374721255E+02 -0.49623235623E+01  0.10977131923E+02  0.19532130819E+02  0.51100000000E-03 0.  1.
         12    1    3    3    0    0  0.80403240567E+01  0.19459342861E+02 -0.65225749644E+01  0.22042160050E+02  0.00000000000E+00 0. -1.
</event>
<event>
 7    1  0.2684545E-013  0.7246116E+02  0.7816164E-02  0.1226709E+00
        -11   -1    0    0    0    0  0.00000000000E+00  0.00000000000E+00  0.45593999997E+02  0.45594000000E+02  0.51100000000E-03 0.  1.
         11   -1    0    0    0    0 -0.00000000000E+00 -0.00000000000E+00 -0.45593999997E+02  0.45594000000E+02  0.51100000000E-03 0. -1.
    9900012    2    1    2    0    0  0.18261485917E+02  0.10268433208E+01  0.40197265063E+01  0.72461161605E+02  0.69999467604E+02 0.  0.
         12    1    1    2    0    0 -0.18261485917E+02 -0.10268433208E+01 -0.40197265063E+01  0.18726838395E+02  0.00000000000E+00 0. -1.
         11    1    3    3    0    0 -0.21766808670E+02  0.28860919306E+01  0.13797195604E+02  0.25932336823E+02  0.51100000000E-03 0. -1.
        -11    1    3    3    0    0  0.88183068675E+01 -0.75499654049E+01  0.35190932855E+01  0.12130479440E+02  0.51100000000E-03 0.  1.
        -12    1    3    3    0    0  0.31209987719E+02  0.56907167950E+01 -0.13296562383E+02  0.34398345342E+02  0.00000000000E+00 0.  1.
</event>
<event>
 7    1  0.2684545E-013  0.7246164E+02  0.7816164E-02  0.1226708E+00
        -11   -1    0    0    0    0  0.00000000000E+00  0.00000000000E+00  0.45593999997E+02  0.45594000000E+02  0.51100000000E-03 0. -1.
         11   -1    0    0    0    0 -0.00000000000E+00 -0.00000000000E+00 -0.45593999997E+02  0.45594000000E+02  0.51100000000E-03 0.  1.
    9900012    2    1    2    0    0  0.39466881238E+01 -0.14989473017E+02  0.10507888963E+02  0.72461644803E+02  0.70000097062E+02 0.  0.
         12    1    1    2    0    0 -0.39466881238E+01  0.14989473017E+02 -0.10507888963E+02  0.18726355197E+02  0.00000000000E+00 0. -1.
         11    1    3    3    0    0  0.11009752447E+02  0.11165687014E+02 -0.36428549016E+01  0.16098372822E+02  0.51100000000E-03 0. -1.
        -11    1    3    3    0    0  0.16770612815E+02  0.19739677581E+01  0.90047965757E+01  0.19137302959E+02  0.51100000000E-03 0.  1.
        -12    1    3    3    0    0 -0.23833677138E+02 -0.28129127789E+02  0.51459472890E+01  0.37225969022E+02  0.00000000000E+00 0.  1.
</event>
<event>
 7    1  0.2684545E-013  0.7246151E+02  0.7816164E-02  0.1226708E+00
        -11   -1    0    0    0    0  0.00000000000E+00  0.00000000000E+00  0.45593999997E+02  0.45594000000E+02  0.51100000000E-03 0.  1.
         11   -1    0    0    0    0 -0.00000000000E+00 -0.00000000000E+00 -0.45593999997E+02  0.45594000000E+02  0.51100000000E-03 0. -1.
    9900012    2    1    2    0    0 -0.76378508263E+01 -0.86339584117E+01  0.14758025784E+02  0.72461512658E+02  0.69999924919E+02 0.  0.
         12    1    1    2    0    0  0.76378508263E+01  0.86339584117E+01 -0.14758025784E+02  0.18726487342E+02  0.00000000000E+00 0. -1.
         11    1    3    3    0    0 -0.32189706482E+01  0.10267524084E+02 -0.18742149905E+02  0.21611386031E+02  0.51100000000E-03 0. -1.
        -11    1    3    3    0    0 -0.96664447610E+01  0.19006555944E+01 -0.13319547009E+01  0.99411643982E+01  0.51100000000E-03 0.  1.
        -12    1    3    3    0    0  0.52475645829E+01 -0.20802138090E+02  0.34832130390E+02  0.40908962230E+02  0.00000000000E+00 0.  1.
</event>
<event>
 7    1  0.2684545E-013  0.7246157E+02  0.7816164E-02  0.1226708E+00
        -11   -1    0    0    0    0  0.00000000000E+00  0.00000000000E+00  0.45593999997E+02  0.45594000000E+02  0.51100000000E-03 0.  1.
         11   -1    0    0    0    0 -0.00000000000E+00 -0.00000000000E+00 -0.45593999997E+02  0.45594000000E+02  0.51100000000E-03 0. -1.
    9900012    2    1    2    0    0  0.13020126044E+02  0.83287611752E+01  0.10572949080E+02  0.72461569557E+02  0.69999999039E+02 0.  0.
         12    1    1    2    0    0 -0.13020126044E+02 -0.83287611752E+01 -0.10572949080E+02  0.18726430443E+02  0.00000000000E+00 0. -1.
         11    1    3    3    0    0  0.26530916582E+02 -0.15380656648E+02  0.16434976963E+02  0.34793140152E+02  0.51100000000E-03 0. -1.
        -11    1    3    3    0    0 -0.83874057558E+01  0.76438787492E+01 -0.14747270311E+02  0.18608047709E+02  0.51100000000E-03 0.  1.
        -12    1    3    3    0    0 -0.51233847829E+01  0.16065539074E+02  0.88852424280E+01  0.19060381696E+02  0.00000000000E+00 0.  1.
</event>
<event>
 7    1  0.2684545E-013  0.7246173E+02  0.7816164E-02  0.1226708E+00
        -11   -1    0    0    0    0  0.00000000000E+00  0.00000000000E+00  0.45593999997E+02  0.45594000000E+02  0.51100000000E-03 0. -1.
         11   -1    0    0    0    0 -0.00000000000E+00 -0.00000000000E+00 -0.45593999997E+02  0.45594000000E+02  0.51100000000E-03 0.  1.
    9900012    2    1    2    0    0 -0.19264844905E+01  0.41293460563E+00 -0.18622332587E+02  0.72461731593E+02  0.70000210121E+02 0.  0.
         12    1    1    2    0    0  0.19264844905E+01 -0.41293460563E+00  0.18622332587E+02  0.18726268407E+02  0.00000000000E+00 0. -1.
         11    1    3    3    0    0 -0.15974760849E+02  0.78133401803E+01 -0.14489585916E+02  0.22938817956E+02  0.51100000000E-03 0. -1.
        -11    1    3    3    0    0 -0.49512823284E+01  0.57906743130E+01  0.16724341537E+02  0.18377995152E+02  0.51100000000E-03 0.  1.
        -12    1    3    3    0    0  0.18999558687E+02 -0.13191079888E+02 -0.20857088208E+02  0.31144918485E+02  0.00000000000E+00 0.  1.
</event>
<event>
 7    1  0.2684545E-013  0.7246156E+02  0.7816164E-02  0.1226708E+00
        -11   -1    0    0    0    0  0.00000000000E+00  0.00000000000E+00  0.45593999997E+02  0.45594000000E+02  0.51100000000E-03 0.  1.
         11   -1    0    0    0    0 -0.00000000000E+00 -0.00000000000E+00 -0.45593999997E+02  0.45594000000E+02  0.51100000000E-03 0. -1.
    9900012    2    1    2    0    0 -0.14242619019E+02  0.49694814254E+01  0.11096470685E+02  0.72461558699E+02  0.69999984895E+02 0.  0.
         12    1    1    2    0    0  0.14242619019E+02 -0.49694814254E+01 -0.11096470685E+02  0.18726441301E+02  0.00000000000E+00 0. -1.
         11    1    3    3    0    0  0.44723787597E+01 -0.14424218268E+02  0.26585020611E+00  0.15104003476E+02  0.51100000000E-03 0. -1.
        -11    1    3    3    0    0 -0.16522952553E+02 -0.10733176423E+02 -0.85394287695E+01  0.21473958209E+02  0.51100000000E-03 0.  1.
        -12    1    3    3    0    0 -0.21920452257E+01  0.30126876116E+02  0.19370049248E+02  0.35883597014E+02  0.00000000000E+00 0.  1.
</event>
<event>
 7    1  0.2684545E-013  0.7246161E+02  0.7816164E-02  0.1226708E+00
        -11   -1    0    0    0    0  0.00000000000E+00  0.00000000000E+00  0.45593999997E+02  0.45594000000E+02  0.51100000000E-03 0. -1.
         11   -1    0    0    0    0 -0.00000000000E+00 -0.00000000000E+00 -0.45593999997E+02  0.45594000000E+02  0.51100000000E-03 0.  1.
    9900012    2    1    2    0    0 -0.85030929844E+01 -0.52213654874E+01 -0.15846522725E+02  0.72461614061E+02  0.70000057014E+02 0.  0.
         12    1    1    2    0    0  0.85030929844E+01  0.52213654874E+01  0.15846522725E+02  0.18726385939E+02  0.00000000000E+00 0. -1.
         11    1    3    3    0    0  0.95663497787E+01  0.14924296942E+01  0.29476705543E+01  0.10120827853E+02  0.51100000000E-03 0. -1.
        -11    1    3    3    0    0  0.43912889314E+01  0.22226568501E+02 -0.93467730414E+01  0.24508486945E+02  0.51100000000E-03 0.  1.
        -12    1    3    3    0    0 -0.22460731694E+02 -0.28940363682E+02 -0.94474202382E+01  0.37832299262E+02  0.00000000000E+00 0.  1.
</event>
<event>
 7    1  0.2684545E-013  0.7246157E+02  0.7816164E-02  0.1226708E+00
        -11   -1    0    0    0    0  0.00000000000E+00  0.00000000000E+00  0.45593999997E+02  0.45594000000E+02  0.51100000000E-03 0. -1.
         11   -1    0    0    0    0 -0.00000000000E+00 -0.00000000000E+00 -0.45593999997E+02  0.45594000000E+02  0.51100000000E-03 0.  1.
    9900012    2    1    2    0    0  0.70849493481E+01  0.12500521738E+02 -0.12009148418E+02  0.72461569569E+02  0.69999999055E+02 0.  0.
         12    1    1    2    0    0 -0.70849493481E+01 -0.12500521738E+02  0.12009148418E+02  0.18726430431E+02  0.00000000000E+00 0. -1.
         11    1    3    3    0    0  0.69664830502E+01 -0.14593545304E+02 -0.23581906380E+01  0.16342108614E+02  0.51100000000E-03 0. -1.
        -11    1    3    3    0    0 -0.15202980086E+02 -0.73382279670E+01 -0.71997682588E+01  0.18352570840E+02  0.51100000000E-03 0.  1.
        -12    1    3    3    0    0  0.15321446384E+02  0.34432295008E+02 -0.24511895208E+01  0.37766890114E+02  0.00000000000E+00 0.  1.
</event>
<event>
 7    1  0.2684545E-013  0.7246160E+02  0.7816164E-02  0.1226708E+00
        -11   -1    0    0    0    0  0.00000000000E+00  0.00000000000E+00  0.45593999997E+02  0.45594000000E+02  0.51100000000E-03 0.  1.
         11   -1    0    0    0    0 -0.00000000000E+00 -0.00000000000E+00 -0.45593999997E+02  0.45594000000E+02  0.51100000000E-03 0. -1.
    9900012    2    1    2    0    0  0.12888660007E+01  0.15395092905E+02  0.10583390018E+02  0.72461596037E+02  0.70000033534E+02 0.  0.
         12    1    1    2    0    0 -0.12888660007E+01 -0.15395092905E+02 -0.10583390018E+02  0.18726403963E+02  0.00000000000E+00 0. -1.
         11    1    3    3    0    0 -0.17573117480E+02 -0.62608662561E+01  0.30924571176E+01  0.18909685231E+02  0.51100000000E-03 0. -1.
        -11    1    3    3    0    0  0.90216423677E+01 -0.33604306603E+01  0.21267639398E+02  0.23345128209E+02  0.51100000000E-03 0.  1.
         12    1    3    3    0    0  0.98403411129E+01  0.25016389822E+02 -0.13776706498E+02  0.30206782597E+02  0.00000000000E+00 0. -1.
</event>
<event>
 7    1  0.2684545E-013  0.7246156E+02  0.7816164E-02  0.1226708E+00
        -11   -1    0    0    0    0  0.00000000000E+00  0.00000000000E+00  0.45593999997E+02  0.45594000000E+02  0.51100000000E-03 0.  1.
         11   -1    0    0    0    0 -0.00000000000E+00 -0.00000000000E+00 -0.45593999997E+02  0.45594000000E+02  0.51100000000E-03 0. -1.
    9900012    2    1    2    0    0 -0.18718468993E+02  0.34750290030E-01 -0.54516895895E+00  0.72461561518E+02  0.69999988567E+02 0.  0.
         12    1    1    2    0    0  0.18718468993E+02 -0.34750290030E-01  0.54516895895E+00  0.18726438482E+02  0.00000000000E+00 0. -1.
         11    1    3    3    0    0  0.74724565338E+01 -0.33831818701E+01  0.66388189314E+01  0.10552603626E+02  0.51100000000E-03 0. -1.
        -11    1    3    3    0    0 -0.15187940852E+02  0.86379135706E+01  0.23276193765E+02  0.29104437713E+02  0.51100000000E-03 0.  1.
         12    1    3    3    0    0 -0.11002984675E+02 -0.52199814105E+01 -0.30460181655E+02  0.32804520179E+02  0.00000000000E+00 0. -1.
</event>
<event>
 7    1  0.2684545E-013  0.7246147E+02  0.7816164E-02  0.1226708E+00
        -11   -1    0    0    0    0  0.00000000000E+00  0.00000000000E+00  0.45593999997E+02  0.45594000000E+02  0.51100000000E-03 0. -1.
         11   -1    0    0    0    0 -0.00000000000E+00 -0.00000000000E+00 -0.45593999997E+02  0.45594000000E+02  0.51100000000E-03 0.  1.
    9900012    2    1    2    0    0 -0.12040156439E+02 -0.10930843553E+02  0.92862385044E+01  0.72461469798E+02  0.69999869085E+02 0.  0.
         12    1    1    2    0    0  0.12040156439E+02  0.10930843553E+02 -0.92862385044E+01  0.18726530202E+02  0.00000000000E+00 0. -1.
         11    1    3    3    0    0 -0.31240813918E+01 -0.69393032322E+00 -0.17187792244E+01  0.36325784396E+01  0.51100000000E-03 0. -1.
        -11    1    3    3    0    0 -0.22410454474E+02  0.12228435143E+02  0.27767414090E+02  0.37719920219E+02  0.51100000000E-03 0.  1.
         12    1    3    3    0    0  0.13494379427E+02 -0.22465348373E+02 -0.16762396362E+02  0.31108971140E+02  0.00000000000E+00 0. -1.
</event>
<event>
 7    1  0.2684545E-013  0.7246156E+02  0.7816164E-02  0.1226708E+00
        -11   -1    0    0    0    0  0.00000000000E+00  0.00000000000E+00  0.45593999997E+02  0.45594000000E+02  0.51100000000E-03 0. -1.
         11   -1    0    0    0    0 -0.00000000000E+00 -0.00000000000E+00 -0.45593999997E+02  0.45594000000E+02  0.51100000000E-03 0.  1.
    9900012    2    1    2    0    0 -0.17985659762E+02  0.33965212076E+01 -0.39571751220E+01  0.72461560180E+02  0.69999986824E+02 0.  0.
         12    1    1    2    0    0  0.17985659762E+02 -0.33965212076E+01  0.39571751220E+01  0.18726439820E+02  0.00000000000E+00 0. -1.
         11    1    3    3    0    0 -0.83085978892E+01 -0.19764957258E+02 -0.25662411510E+00  0.21441832722E+02  0.51100000000E-03 0. -1.
        -11    1    3    3    0    0  0.68231265254E+01 -0.84374066353E+01  0.80218575401E+01  0.13494261186E+02  0.51100000000E-03 0.  1.
        -12    1    3    3    0    0 -0.16500188398E+02  0.31598885101E+02 -0.11722408547E+02  0.37525466272E+02  0.00000000000E+00 0.  1.
</event>
<event>
 7    1  0.2684545E-013  0.7246153E+02  0.7816164E-02  0.1226708E+00
        -11   -1    0    0    0    0  0.00000000000E+00  0.00000000000E+00  0.45593999997E+02  0.45594000000E+02  0.51100000000E-03 0.  1.
         11   -1    0    0    0    0 -0.00000000000E+00 -0.00000000000E+00 -0.45593999997E+02  0.45594000000E+02  0.51100000000E-03 0. -1.
    9900012    2    1    2    0    0 -0.25538854990E+01  0.12743449443E+02  0.13481951203E+02  0.72461525609E+02  0.69999941789E+02 0.  0.
         12    1    1    2    0    0  0.25538854990E+01 -0.12743449443E+02 -0.13481951203E+02  0.18726474391E+02  0.00000000000E+00 0. -1.
         11    1    3    3    0    0  0.98371261903E+00  0.73999605122E+01  0.35083883768E+02  0.35869290579E+02  0.51100000000E-03 0. -1.
        -11    1    3    3    0    0  0.81396719244E+01  0.11704815465E+02 -0.45437104722E+01  0.14963364235E+02  0.51100000000E-03 0.  1.
         12    1    3    3    0    0 -0.11677270042E+02 -0.63613265339E+01 -0.17058222093E+02  0.21628870795E+02  0.00000000000E+00 0. -1.
</event>
<event>
 7    1  0.2684545E-013  0.7246161E+02  0.7816164E-02  0.1226708E+00
        -11   -1    0    0    0    0  0.00000000000E+00  0.00000000000E+00  0.45593999997E+02  0.45594000000E+02  0.51100000000E-03 0.  1.
         11   -1    0    0    0    0 -0.00000000000E+00 -0.00000000000E+00 -0.45593999997E+02  0.45594000000E+02  0.51100000000E-03 0. -1.
    9900012    2    1    2    0    0  0.43812502449E+01  0.16843046728E+02  0.69133264441E+01  0.72461610617E+02  0.70000052528E+02 0.  0.
         12    1    1    2    0    0 -0.43812502449E+01 -0.16843046728E+02 -0.69133264441E+01  0.18726389383E+02  0.00000000000E+00 0. -1.
         11    1    3    3    0    0 -0.17201066944E+02  0.34776014554E+01  0.28115951345E+02  0.33143281917E+02  0.51100000000E-03 0.  1.
        -11    1    3    3    0    0 -0.40647971934E+01  0.35129783628E+01 -0.17343104277E+01  0.56454783784E+01  0.51100000000E-03 0. -1.
        -12    1    3    3    0    0  0.25647114383E+02  0.98524669100E+01 -0.19468314473E+02  0.33672850322E+02  0.00000000000E+00 0.  1.
</event>
<event>
 7    1  0.2684545E-013  0.7246150E+02  0.7816164E-02  0.1226708E+00
        -11   -1    0    0    0    0  0.00000000000E+00  0.00000000000E+00  0.45593999997E+02  0.45594000000E+02  0.51100000000E-03 0. -1.
         11   -1    0    0    0    0 -0.00000000000E+00 -0.00000000000E+00 -0.45593999997E+02  0.45594000000E+02  0.51100000000E-03 0.  1.
    9900012    2    1    2    0    0  0.76814143460E+01 -0.15810375671E+02 -0.64583135643E+01  0.72461496874E+02  0.69999904356E+02 0.  0.
         12    1    1    2    0    0 -0.76814143460E+01  0.15810375671E+02  0.64583135643E+01  0.18726503126E+02  0.00000000000E+00 0. -1.
         11    1    3    3    0    0 -0.11460673584E+02 -0.28351989503E+01 -0.53694574348E+01  0.12969829047E+02  0.51100000000E-03 0.  1.
        -11    1    3    3    0    0  0.66738527356E+01 -0.27177567965E+02 -0.18701082785E+02  0.33658446316E+02  0.51100000000E-03 0. -1.
        -12    1    3    3    0    0  0.12468235195E+02  0.14202391244E+02  0.17612226656E+02  0.25833221512E+02  0.00000000000E+00 0.  1.
</event>
<event>
 7    1  0.2684545E-013  0.7246160E+02  0.7816164E-02  0.1226708E+00
        -11   -1    0    0    0    0  0.00000000000E+00  0.00000000000E+00  0.45593999997E+02  0.45594000000E+02  0.51100000000E-03 0.  1.
         11   -1    0    0    0    0 -0.00000000000E+00 -0.00000000000E+00 -0.45593999997E+02  0.45594000000E+02  0.51100000000E-03 0. -1.
    9900012    2    1    2    0    0  0.63802680091E+01  0.95728891712E+01  0.14775992257E+02  0.72461602211E+02  0.70000041578E+02 0.  0.
         12    1    1    2    0    0 -0.63802680091E+01 -0.95728891712E+01 -0.14775992257E+02  0.18726397789E+02  0.00000000000E+00 0. -1.
         11    1    3    3    0    0  0.29001838589E+02 -0.11579196436E+02  0.25359348340E+01  0.31330742050E+02  0.51100000000E-03 0. -1.
        -11    1    3    3    0    0  0.48551929714E+01  0.48951327974E+01  0.46471011521E+01  0.83144917627E+01  0.51100000000E-03 0.  1.
        -12    1    3    3    0    0 -0.27476763552E+02  0.16256952810E+02  0.75929562710E+01  0.32816368399E+02  0.00000000000E+00 0.  1.
</event>
<event>
 7    1  0.2684545E-013  0.7246162E+02  0.7816164E-02  0.1226708E+00
        -11   -1    0    0    0    0  0.00000000000E+00  0.00000000000E+00  0.45593999997E+02  0.45594000000E+02  0.51100000000E-03 0. -1.
         11   -1    0    0    0    0 -0.00000000000E+00 -0.00000000000E+00 -0.45593999997E+02  0.45594000000E+02  0.51100000000E-03 0.  1.
    9900012    2    1    2    0    0  0.15499615480E+02 -0.40755137590E+01 -0.96865520856E+01  0.72461623316E+02  0.70000069070E+02 0.  0.
         12    1    1    2    0    0 -0.15499615480E+02  0.40755137590E+01  0.96865520856E+01  0.18726376684E+02  0.00000000000E+00 0. -1.
         11    1    3    3    0    0 -0.10895505588E+02 -0.25638069607E+02  0.11175022597E+01  0.27879588712E+02  0.51100000000E-03 0. -1.
        -11    1    3    3    0    0  0.11384933606E+01 -0.39672737887E+01  0.39913939467E+01  0.57416595463E+01  0.51100000000E-03 0.  1.
        -12    1    3    3    0    0  0.25256627707E+02  0.25529829637E+02 -0.14795448292E+02  0.38840375057E+02  0.00000000000E+00 0.  1.
</event>
<event>
 7    1  0.2684545E-013  0.7246160E+02  0.7816164E-02  0.1226708E+00
        -11   -1    0    0    0    0  0.00000000000E+00  0.00000000000E+00  0.45593999997E+02  0.45594000000E+02  0.51100000000E-03 0. -1.
         11   -1    0    0    0    0 -0.00000000000E+00 -0.00000000000E+00 -0.45593999997E+02  0.45594000000E+02  0.51100000000E-03 0.  1.
    9900012    2    1    2    0    0 -0.21246872989E+01 -0.96707377970E+01 -0.15894667739E+02  0.72461603438E+02  0.70000043176E+02 0.  0.
         12    1    1    2    0    0  0.21246872989E+01  0.96707377970E+01  0.15894667739E+02  0.18726396562E+02  0.00000000000E+00 0. -1.
         11    1    3    3    0    0  0.39758030340E+01 -0.16528945969E+01  0.12047330513E+02  0.12793640727E+02  0.51100000000E-03 0. -1.
        -11    1    3    3    0    0  0.87472459864E+01  0.18987766425E+02 -0.17066001789E+02  0.26986996934E+02  0.51100000000E-03 0.  1.
        -12    1    3    3    0    0 -0.14847736319E+02 -0.27005609626E+02 -0.10875996463E+02  0.32680965777E+02  0.00000000000E+00 0.  1.
</event>
<event>
 7    1  0.2684545E-013  0.7246165E+02  0.7816164E-02  0.1226708E+00
        -11   -1    0    0    0    0  0.00000000000E+00  0.00000000000E+00  0.45593999997E+02  0.45594000000E+02  0.51100000000E-03 0.  1.
         11   -1    0    0    0    0 -0.00000000000E+00 -0.00000000000E+00 -0.45593999997E+02  0.45594000000E+02  0.51100000000E-03 0. -1.
    9900012    2    1    2    0    0 -0.13949585404E+02 -0.10927716885E+02 -0.60555996056E+01  0.72461649158E+02  0.70000102735E+02 0.  0.
         12    1    1    2    0    0  0.13949585404E+02  0.10927716885E+02  0.60555996056E+01  0.18726350842E+02  0.00000000000E+00 0. -1.
         11    1    3    3    0    0 -0.58735420569E+01 -0.13322143633E+02  0.37447927552E+01  0.15033345613E+02  0.51100000000E-03 0. -1.
        -11    1    3    3    0    0 -0.12067245712E+02 -0.10361584099E+02  0.19535178855E+02  0.25191348857E+02  0.51100000000E-03 0.  1.
         12    1    3    3    0    0  0.39912023649E+01  0.12756010847E+02 -0.29335571215E+02  0.32236954688E+02  0.00000000000E+00 0. -1.
</event>
<event>
 7    1  0.2684545E-013  0.7246160E+02  0.7816164E-02  0.1226708E+00
        -11   -1    0    0    0    0  0.00000000000E+00  0.00000000000E+00  0.45593999997E+02  0.45594000000E+02  0.51100000000E-03 0.  1.
         11   -1    0    0    0    0 -0.00000000000E+00 -0.00000000000E+00 -0.45593999997E+02  0.45594000000E+02  0.51100000000E-03 0. -1.
    9900012    2    1    2    0    0  0.10992836711E+02  0.77678062595E+01  0.13019096737E+02  0.72461597439E+02  0.70000035361E+02 0.  0.
         12    1    1    2    0    0 -0.10992836711E+02 -0.77678062595E+01 -0.13019096737E+02  0.18726402561E+02  0.00000000000E+00 0. -1.
         11    1    3    3    0    0 -0.68059229379E+01  0.63468016898E+01 -0.27327951621E+01  0.96990024427E+01  0.51100000000E-03 0. -1.
        -11    1    3    3    0    0 -0.66395943352E+01 -0.21882472507E+02  0.17731208948E+02  0.28936526864E+02  0.51100000000E-03 0.  1.
         12    1    3    3    0    0  0.24438353984E+02  0.23303477076E+02 -0.19793170490E+01  0.33826068132E+02  0.00000000000E+00 0. -1.
</event>
<event>
 7    1  0.2684545E-013  0.7246159E+02  0.7816164E-02  0.1226708E+00
        -11   -1    0    0    0    0  0.00000000000E+00  0.00000000000E+00  0.45593999997E+02  0.45594000000E+02  0.51100000000E-03 0. -1.
         11   -1    0    0    0    0 -0.00000000000E+00 -0.00000000000E+00 -0.45593999997E+02  0.45594000000E+02  0.51100000000E-03 0.  1.
    9900012    2    1    2    0    0  0.25426654039E+00  0.18667181439E+02 -0.14662865297E+01  0.72461593229E+02  0.70000029877E+02 0.  0.
         12    1    1    2    0    0 -0.25426654039E+00 -0.18667181439E+02  0.14662865297E+01  0.18726406771E+02  0.00000000000E+00 0. -1.
         11    1    3    3    0    0 -0.65566669346E+01  0.22174180502E+02  0.13035830465E+02  0.26544623531E+02  0.51100000000E-03 0. -1.
        -11    1    3    3    0    0  0.27878591776E+01  0.19188237335E+02 -0.11829752854E+02  0.22713512799E+02  0.51100000000E-03 0.  1.
        -12    1    3    3    0    0  0.40230742973E+01 -0.22695236398E+02 -0.26723641400E+01  0.23203456899E+02  0.00000000000E+00 0.  1.
</event>
<event>
 7    1  0.2684545E-013  0.7246156E+02  0.7816164E-02  0.1226708E+00
        -11   -1    0    0    0    0  0.00000000000E+00  0.00000000000E+00  0.45593999997E+02  0.45594000000E+02  0.51100000000E-03 0.  1.
         11   -1    0    0    0    0 -0.00000000000E+00 -0.00000000000E+00 -0.45593999997E+02  0.45594000000E+02  0.51100000000E-03 0. -1.
    9900012    2    1    2    0    0 -0.63020671896E+01 -0.17624855275E+02 -0.57276949251E+00  0.72461557754E+02  0.69999983664E+02 0.  0.
         12    1    1    2    0    0  0.63020671896E+01  0.17624855275E+02  0.57276949251E+00  0.18726442246E+02  0.00000000000E+00 0. -1.
         11    1    3    3    0    0  0.46667325713E+01  0.14431060220E+02  0.83840985998E+01  0.17329945227E+02  0.51100000000E-03 0. -1.
        -11    1    3    3    0    0  0.43814701154E+01 -0.34711274908E+02 -0.15460300848E+02  0.38250369785E+02  0.51100000000E-03 0.  1.
         12    1    3    3    0    0 -0.15350269876E+02  0.26553594140E+01  0.65034327560E+01  0.16881242742E+02  0.00000000000E+00 0. -1.
</event>
<event>
 7    1  0.2684545E-013  0.7246164E+02  0.7816164E-02  0.1226708E+00
        -11   -1    0    0    0    0  0.00000000000E+00  0.00000000000E+00  0.45593999997E+02  0.45594000000E+02  0.51100000000E-03 0. -1.
         11   -1    0    0    0    0 -0.00000000000E+00 -0.00000000000E+00 -0.45593999997E+02  0.45594000000E+02  0.51100000000E-03 0.  1.
    9900012    2    1    2    0    0  0.73661150680E+01  0.14733813151E+02  0.89068406759E+01  0.72461635911E+02  0.70000085478E+02 0.  0.
         12    1    1    2    0    0 -0.73661150680E+01 -0.14733813151E+02 -0.89068406759E+01  0.18726364089E+02  0.00000000000E+00 0. -1.
         11    1    3    3    0    0 -0.18263502521E+01 -0.25965163814E+01 -0.42835818124E+01  0.53316532114E+01  0.51100000000E-03 0. -1.
        -11    1    3    3    0    0  0.10467689258E+02  0.54079166639E+01 -0.24711556667E+02  0.27376616194E+02  0.51100000000E-03 0.  1.
         12    1    3    3    0    0 -0.12752239381E+01  0.11922412868E+02  0.37901979155E+02  0.39753366506E+02  0.00000000000E+00 0. -1.
</event>
<event>
 7    1  0.2684545E-013  0.7246159E+02  0.7816164E-02  0.1226708E+00
        -11   -1    0    0    0    0  0.00000000000E+00  0.00000000000E+00  0.45593999997E+02  0.45594000000E+02  0.51100000000E-03 0. -1.
         11   -1    0    0    0    0 -0.00000000000E+00 -0.00000000000E+00 -0.45593999997E+02  0.45594000000E+02  0.51100000000E-03 0.  1.
    9900012    2    1    2    0    0 -0.10301517252E+02 -0.15618260078E+02 -0.79201362840E+00  0.72461585737E+02  0.70000020117E+02 0.  0.
         12    1    1    2    0    0  0.10301517252E+02  0.15618260078E+02  0.79201362840E+00  0.18726414263E+02  0.00000000000E+00 0. -1.
         11    1    3    3    0    0  0.93519293180E+01 -0.89644070820E+01  0.68280726999E+01  0.14643829873E+02  0.51100000000E-03 0. -1.
        -11    1    3    3    0    0 -0.56763847723E+01  0.18607042950E+02  0.12050421212E+02  0.22883532138E+02  0.51100000000E-03 0.  1.
         12    1    3    3    0    0 -0.13977061798E+02 -0.25260895946E+02 -0.19670507540E+02  0.34934223727E+02  0.00000000000E+00 0. -1.
</event>
<event>
 7    1  0.2684545E-013  0.7246127E+02  0.7816164E-02  0.1226709E+00
        -11   -1    0    0    0    0  0.00000000000E+00  0.00000000000E+00  0.45593999997E+02  0.45594000000E+02  0.51100000000E-03 0.  1.
         11   -1    0    0    0    0 -0.00000000000E+00 -0.00000000000E+00 -0.45593999997E+02  0.45594000000E+02  0.51100000000E-03 0. -1.
    9900012    2    1    2    0    0  0.16626246985E+02 -0.53254305069E+01 -0.67748155265E+01  0.72461269791E+02  0.69999608538E+02 0.  0.
         12    1    1    2    0    0 -0.16626246985E+02  0.53254305069E+01  0.67748155265E+01  0.18726730209E+02  0.00000000000E+00 0. -1.
         11    1    3    3    0    0  0.73371605294E+00  0.75973552343E+01 -0.14836330395E+02  0.16684569088E+02  0.51100000000E-03 0. -1.
        -11    1    3    3    0    0  0.20015740119E+02 -0.11378529658E+02 -0.18075419024E+02  0.29271514529E+02  0.51100000000E-03 0.  1.
        -12    1    3    3    0    0 -0.41232091872E+01 -0.15442560834E+01  0.26136933892E+02  0.26505186174E+02  0.00000000000E+00 0.  1.
</event>
<event>
 7    1  0.2684545E-013  0.7246156E+02  0.7816164E-02  0.1226708E+00
        -11   -1    0    0    0    0  0.00000000000E+00  0.00000000000E+00  0.45593999997E+02  0.45594000000E+02  0.51100000000E-03 0.  1.
         11   -1    0    0    0    0 -0.00000000000E+00 -0.00000000000E+00 -0.45593999997E+02  0.45594000000E+02  0.51100000000E-03 0. -1.
    9900012    2    1    2    0    0 -0.49819145066E+01  0.83176367819E+01  0.16021137363E+02  0.72461564242E+02  0.69999992116E+02 0.  0.
         12    1    1    2    0    0  0.49819145066E+01 -0.83176367819E+01 -0.16021137363E+02  0.18726435758E+02  0.00000000000E+00 0. -1.
         11    1    3    3    0    0  0.47807415858E+01 -0.14132116374E+02  0.10010880136E+02  0.17966355353E+02  0.51100000000E-03 0. -1.
        -11    1    3    3    0    0 -0.11851126950E+02 -0.88489386725E+01  0.15792582154E+02  0.21636972454E+02  0.51100000000E-03 0.  1.
         12    1    3    3    0    0  0.20884708572E+01  0.31298691828E+02 -0.97823249276E+01  0.32858236436E+02  0.00000000000E+00 0. -1.
</event>
<event>
 7    1  0.2684545E-013  0.7246163E+02  0.7816164E-02  0.1226708E+00
        -11   -1    0    0    0    0  0.00000000000E+00  0.00000000000E+00  0.45593999997E+02  0.45594000000E+02  0.51100000000E-03 0.  1.
         11   -1    0    0    0    0 -0.00000000000E+00 -0.00000000000E+00 -0.45593999997E+02  0.45594000000E+02  0.51100000000E-03 0. -1.
    9900012    2    1    2    0    0  0.38971482387E+01  0.41393160043E+01  0.17842514340E+02  0.72461627704E+02  0.70000074787E+02 0.  0.
         12    1    1    2    0    0 -0.38971482387E+01 -0.41393160043E+01 -0.17842514340E+02  0.18726372296E+02  0.00000000000E+00 0. -1.
         11    1    3    3    0    0  0.44395406455E+01  0.10794276932E+02  0.64868145026E+01  0.13353078232E+02  0.51100000000E-03 0. -1.
        -11    1    3    3    0    0  0.14399520431E+02 -0.22909446229E+02  0.21739292609E+02  0.34710023892E+02  0.51100000000E-03 0.  1.
         12    1    3    3    0    0 -0.14941912838E+02  0.16254485302E+02 -0.10383592771E+02  0.24398525581E+02  0.00000000000E+00 0. -1.
</event>
<event>
 7    1  0.2684545E-013  0.7246157E+02  0.7816164E-02  0.1226708E+00
        -11   -1    0    0    0    0  0.00000000000E+00  0.00000000000E+00  0.45593999997E+02  0.45594000000E+02  0.51100000000E-03 0. -1.
         11   -1    0    0    0    0 -0.00000000000E+00 -0.00000000000E+00 -0.45593999997E+02  0.45594000000E+02  0.51100000000E-03 0.  1.
    9900012    2    1    2    0    0 -0.10756376973E+02  0.15196374975E+02  0.20123510598E+01  0.72461574426E+02  0.70000005383E+02 0.  0.
         12    1    1    2    0    0  0.10756376973E+02 -0.15196374975E+02 -0.20123510598E+01  0.18726425574E+02  0.00000000000E+00 0. -1.
         11    1    3    3    0    0  0.81919991095E+00 -0.73545160474E+01  0.29416496238E+02  0.30332989400E+02  0.51100000000E-03 0. -1.
        -11    1    3    3    0    0 -0.61467925987E+01  0.30651174736E+01  0.13224536763E+01  0.69947757910E+01  0.51100000000E-03 0.  1.
        -12    1    3    3    0    0 -0.54287842849E+01  0.19485773549E+02 -0.28726598854E+02  0.35133809235E+02  0.00000000000E+00 0.  1.
</event>
<event>
 7    1  0.2684545E-013  0.7246153E+02  0.7816164E-02  0.1226708E+00
        -11   -1    0    0    0    0  0.00000000000E+00  0.00000000000E+00  0.45593999997E+02  0.45594000000E+02  0.51100000000E-03 0. -1.
         11   -1    0    0    0    0 -0.00000000000E+00 -0.00000000000E+00 -0.45593999997E+02  0.45594000000E+02  0.51100000000E-03 0.  1.
    9900012    2    1    2    0    0 -0.11453870934E+02 -0.14712697027E+02 -0.17395868186E+01  0.72461527415E+02  0.69999944141E+02 0.  0.
         12    1    1    2    0    0  0.11453870934E+02  0.14712697027E+02  0.17395868186E+01  0.18726472585E+02  0.00000000000E+00 0. -1.
         11    1    3    3    0    0  0.36068270629E+01 -0.22338157561E+02  0.11792297779E+02  0.25515892535E+02  0.51100000000E-03 0. -1.
        -11    1    3    3    0    0 -0.51792677071E+01 -0.16247477326E+02  0.13890837765E+01  0.17109496995E+02  0.51100000000E-03 0.  1.
        -12    1    3    3    0    0 -0.98814302898E+01  0.23872937859E+02 -0.14920968375E+02  0.29836137884E+02  0.00000000000E+00 0.  1.
</event>
<event>
 7    1  0.2684545E-013  0.7246154E+02  0.7816164E-02  0.1226708E+00
        -11   -1    0    0    0    0  0.00000000000E+00  0.00000000000E+00  0.45593999997E+02  0.45594000000E+02  0.51100000000E-03 0. -1.
         11   -1    0    0    0    0 -0.00000000000E+00 -0.00000000000E+00 -0.45593999997E+02  0.45594000000E+02  0.51100000000E-03 0.  1.
    9900012    2    1    2    0    0 -0.73774530022E+01 -0.33504408295E+01 -0.16882773456E+02  0.72461539947E+02  0.69999960467E+02 0.  0.
         12    1    1    2    0    0  0.73774530022E+01  0.33504408295E+01  0.16882773456E+02  0.18726460053E+02  0.00000000000E+00 0. -1.
         11    1    3    3    0    0 -0.51241190875E+01  0.14870952274E+02 -0.11681708024E+02  0.19592450601E+02  0.51100000000E-03 0. -1.
        -11    1    3    3    0    0 -0.85886112464E+01  0.22346570417E+01 -0.23235236054E+02  0.24872356743E+02  0.51100000000E-03 0.  1.
         12    1    3    3    0    0  0.63352773317E+01 -0.20456050145E+02  0.18034170622E+02  0.27996732602E+02  0.00000000000E+00 0. -1.
</event>
<event>
 7    1  0.2684545E-013  0.7246151E+02  0.7816164E-02  0.1226708E+00
        -11   -1    0    0    0    0  0.00000000000E+00  0.00000000000E+00  0.45593999997E+02  0.45594000000E+02  0.51100000000E-03 0.  1.
         11   -1    0    0    0    0 -0.00000000000E+00 -0.00000000000E+00 -0.45593999997E+02  0.45594000000E+02  0.51100000000E-03 0. -1.
    9900012    2    1    2    0    0 -0.88632431345E+01  0.37070800703E+01 -0.16074259352E+02  0.72461512470E+02  0.69999924673E+02 0.  0.
         12    1    1    2    0    0  0.88632431345E+01 -0.37070800703E+01  0.16074259352E+02  0.18726487530E+02  0.00000000000E+00 0. -1.
         11    1    3    3    0    0 -0.22196084176E+02  0.14637096165E+02 -0.91265677156E+01  0.28110584757E+02  0.51100000000E-03 0. -1.
        -11    1    3    3    0    0  0.43653078976E+00  0.12725697513E+02 -0.11342159310E+02  0.17052229015E+02  0.51100000000E-03 0.  1.
        -12    1    3    3    0    0  0.12896310251E+02 -0.23655713608E+02  0.43944676732E+01  0.27298698697E+02  0.00000000000E+00 0.  1.
</event>
<event>
 7    1  0.3082749E-013  0.7246179E+02  0.7816164E-02  0.1226707E+00
        -11   -1    0    0    0    0  0.00000000000E+00  0.00000000000E+00  0.45593999997E+02  0.45594000000E+02  0.51100000000E-03 0. -1.
         11   -1    0    0    0    0 -0.00000000000E+00 -0.00000000000E+00 -0.45593999997E+02  0.45594000000E+02  0.51100000000E-03 0.  1.
    9900012    2    1    2    0    0 -0.12716991152E+02 -0.26853354049E+01 -0.13481021146E+02  0.72461793194E+02  0.70000290368E+02 0.  0.
         12    1    1    2    0    0  0.12716991152E+02  0.26853354049E+01  0.13481021146E+02  0.18726206806E+02  0.00000000000E+00 0. -1.
         11    1    3    3    0    0  0.37545537602E+01  0.57449969335E+01 -0.45572597186E+01  0.82383420728E+01  0.51100000000E-03 0. -1.
        -11    1    3    3    0    0 -0.12153673628E+02  0.14261477179E+02 -0.28389873193E+02  0.34015972927E+02  0.51100000000E-03 0.  1.
         12    1    3    3    0    0 -0.43178712845E+01 -0.22691809518E+02  0.19466111765E+02  0.30207478195E+02  0.00000000000E+00 0. -1.
</event>
<event>
 7    1  0.2684545E-013  0.7246155E+02  0.7816164E-02  0.1226708E+00
        -11   -1    0    0    0    0  0.00000000000E+00  0.00000000000E+00  0.45593999997E+02  0.45594000000E+02  0.51100000000E-03 0. -1.
         11   -1    0    0    0    0 -0.00000000000E+00 -0.00000000000E+00 -0.45593999997E+02  0.45594000000E+02  0.51100000000E-03 0.  1.
    9900012    2    1    2    0    0  0.14388257955E+01  0.90796839151E+01 -0.16314686681E+02  0.72461551293E+02  0.69999975247E+02 0.  0.
         12    1    1    2    0    0 -0.14388257955E+01 -0.90796839151E+01  0.16314686681E+02  0.18726448707E+02  0.00000000000E+00 0. -1.
         11    1    3    3    0    0 -0.10140586914E+02 -0.17816764955E+02 -0.11985904011E+02  0.23747221135E+02  0.51100000000E-03 0.  1.
        -11    1    3    3    0    0  0.10447063992E+02  0.10113149376E+01  0.13619842597E+02  0.17194883442E+02  0.51100000000E-03 0. -1.
        -12    1    3    3    0    0  0.11323487178E+01  0.25885133932E+02 -0.17948625268E+02  0.31519446716E+02  0.00000000000E+00 0.  1.
</event>
<event>
 7    1  0.2684545E-013  0.7246156E+02  0.7816164E-02  0.1226708E+00
        -11   -1    0    0    0    0  0.00000000000E+00  0.00000000000E+00  0.45593999997E+02  0.45594000000E+02  0.51100000000E-03 0.  1.
         11   -1    0    0    0    0 -0.00000000000E+00 -0.00000000000E+00 -0.45593999997E+02  0.45594000000E+02  0.51100000000E-03 0. -1.
    9900012    2    1    2    0    0  0.12462474030E+02  0.17912984401E+00  0.13976203178E+02  0.72461558754E+02  0.69999984967E+02 0.  0.
         12    1    1    2    0    0 -0.12462474030E+02 -0.17912984401E+00 -0.13976203178E+02  0.18726441246E+02  0.00000000000E+00 0. -1.
         11    1    3    3    0    0 -0.11553257932E+02 -0.59047462212E+01 -0.44228660804E+01  0.13707864218E+02  0.51100000000E-03 0. -1.
        -11    1    3    3    0    0 -0.26243911853E+01  0.22867322083E+02  0.16165934590E+01  0.23074124534E+02  0.51100000000E-03 0.  1.
         12    1    3    3    0    0  0.26640123148E+02 -0.16783446018E+02  0.16782475800E+02  0.35679570002E+02  0.00000000000E+00 0. -1.
</event>
<event>
 7    1  0.2684545E-013  0.7246158E+02  0.7816164E-02  0.1226708E+00
        -11   -1    0    0    0    0  0.00000000000E+00  0.00000000000E+00  0.45593999997E+02  0.45594000000E+02  0.51100000000E-03 0.  1.
         11   -1    0    0    0    0 -0.00000000000E+00 -0.00000000000E+00 -0.45593999997E+02  0.45594000000E+02  0.51100000000E-03 0. -1.
    9900012    2    1    2    0    0 -0.82514539379E+01  0.13728427570E+02 -0.97016890419E+01  0.72461575197E+02  0.70000006387E+02 0.  0.
         12    1    1    2    0    0  0.82514539379E+01 -0.13728427570E+02  0.97016890419E+01  0.18726424803E+02  0.00000000000E+00 0. -1.
         11    1    3    3    0    0 -0.12559352090E+02  0.61325016208E+01 -0.16073279058E+02  0.21300122089E+02  0.51100000000E-03 0. -1.
        -11    1    3    3    0    0  0.34924475675E+01 -0.21104483734E+02 -0.13351967845E+01  0.21433132631E+02  0.51100000000E-03 0.  1.
         12    1    3    3    0    0  0.81545058476E+00  0.28700409683E+02  0.77067868005E+01  0.29728320477E+02  0.00000000000E+00 0. -1.
</event>
<event>
 7    1  0.2684545E-013  0.7246157E+02  0.7816164E-02  0.1226708E+00
        -11   -1    0    0    0    0  0.00000000000E+00  0.00000000000E+00  0.45593999997E+02  0.45594000000E+02  0.51100000000E-03 0. -1.
         11   -1    0    0    0    0 -0.00000000000E+00 -0.00000000000E+00 -0.45593999997E+02  0.45594000000E+02  0.51100000000E-03 0.  1.
    9900012    2    1    2    0    0 -0.16641317150E+02  0.64673652467E+01 -0.56496736066E+01  0.72461573176E+02  0.70000003754E+02 0.  0.
         12    1    1    2    0    0  0.16641317150E+02 -0.64673652467E+01  0.56496736066E+01  0.18726426824E+02  0.00000000000E+00 0. -1.
         11    1    3    3    0    0 -0.51338562988E+01  0.24889910814E+02  0.11721715407E+02  0.27986831781E+02  0.51100000000E-03 0. -1.
        -11    1    3    3    0    0 -0.20787405354E+02 -0.69310730335E+00 -0.10633914324E+02  0.23359725025E+02  0.51100000000E-03 0.  1.
         12    1    3    3    0    0  0.92799445031E+01 -0.17729438264E+02 -0.67374746891E+01  0.21115016370E+02  0.00000000000E+00 0. -1.
</event>
<event>
 7    1  0.2684545E-013  0.7246155E+02  0.7816164E-02  0.1226708E+00
        -11   -1    0    0    0    0  0.00000000000E+00  0.00000000000E+00  0.45593999997E+02  0.45594000000E+02  0.51100000000E-03 0.  1.
         11   -1    0    0    0    0 -0.00000000000E+00 -0.00000000000E+00 -0.45593999997E+02  0.45594000000E+02  0.51100000000E-03 0. -1.
    9900012    2    1    2    0    0  0.10816414198E+02  0.14477522596E+02  0.49078051898E+01  0.72461547362E+02  0.69999970126E+02 0.  0.
         12    1    1    2    0    0 -0.10816414198E+02 -0.14477522596E+02 -0.49078051898E+01  0.18726452638E+02  0.00000000000E+00 0. -1.
         11    1    3    3    0    0 -0.18123683380E+02 -0.13471535320E+02  0.10294265007E+02  0.24817777004E+02  0.51100000000E-03 0. -1.
        -11    1    3    3    0    0  0.74436227200E+01 -0.31322701266E+01 -0.56430916972E+01  0.98520616882E+01  0.51100000000E-03 0.  1.
        -12    1    3    3    0    0  0.21496474858E+02  0.31081328043E+02  0.25663188039E+00  0.37791708669E+02  0.00000000000E+00 0.  1.
</event>
<event>
 7    1  0.2684545E-013  0.7246140E+02  0.7816164E-02  0.1226708E+00
        -11   -1    0    0    0    0  0.00000000000E+00  0.00000000000E+00  0.45593999997E+02  0.45594000000E+02  0.51100000000E-03 0.  1.
         11   -1    0    0    0    0 -0.00000000000E+00 -0.00000000000E+00 -0.45593999997E+02  0.45594000000E+02  0.51100000000E-03 0. -1.
    9900012    2    1    2    0    0  0.11559060650E+02 -0.57322978960E+01  0.13572564376E+02  0.72461397905E+02  0.69999775430E+02 0.  0.
         12    1    1    2    0    0 -0.11559060650E+02  0.57322978960E+01 -0.13572564376E+02  0.18726602095E+02  0.00000000000E+00 0. -1.
         11    1    3    3    0    0 -0.48629468360E+01  0.28538333211E+01 -0.27617106196E+01  0.62785079726E+01  0.51100000000E-03 0. -1.
        -11    1    3    3    0    0  0.23686382278E+01 -0.32407920041E+02  0.20191909105E+02  0.38256985270E+02  0.51100000000E-03 0.  1.
         12    1    3    3    0    0  0.14053369259E+02  0.23821788824E+02 -0.38576341094E+01  0.27925904662E+02  0.00000000000E+00 0. -1.
</event>
<event>
 7    1  0.2684545E-013  0.7246159E+02  0.7816164E-02  0.1226708E+00
        -11   -1    0    0    0    0  0.00000000000E+00  0.00000000000E+00  0.45593999997E+02  0.45594000000E+02  0.51100000000E-03 0. -1.
         11   -1    0    0    0    0 -0.00000000000E+00 -0.00000000000E+00 -0.45593999997E+02  0.45594000000E+02  0.51100000000E-03 0.  1.
    9900012    2    1    2    0    0 -0.12834867706E+02 -0.27066031769E+01 -0.13364842910E+02  0.72461586681E+02  0.70000021347E+02 0.  0.
         12    1    1    2    0    0  0.12834867706E+02  0.27066031769E+01  0.13364842910E+02  0.18726413319E+02  0.00000000000E+00 0. -1.
         11    1    3    3    0    0  0.19295029281E+01 -0.21538016384E+02  0.35547883116E+01  0.21914507787E+02  0.51100000000E-03 0. -1.
        -11    1    3    3    0    0  0.12356865555E+02  0.10267859484E+02  0.22870268790E+01  0.16228110085E+02  0.51100000000E-03 0.  1.
        -12    1    3    3    0    0 -0.27121236189E+02  0.85635537231E+01 -0.19206658100E+02  0.34318968810E+02  0.00000000000E+00 0.  1.
</event>
<event>
 7    1  0.2684545E-013  0.7246153E+02  0.7816164E-02  0.1226708E+00
        -11   -1    0    0    0    0  0.00000000000E+00  0.00000000000E+00  0.45593999997E+02  0.45594000000E+02  0.51100000000E-03 0.  1.
         11   -1    0    0    0    0 -0.00000000000E+00 -0.00000000000E+00 -0.45593999997E+02  0.45594000000E+02  0.51100000000E-03 0. -1.
    9900012    2    1    2    0    0 -0.12095701333E+02  0.10491900907E+02  0.97105474076E+01  0.72461529261E+02  0.69999946546E+02 0.  0.
         12    1    1    2    0    0  0.12095701333E+02 -0.10491900907E+02 -0.97105474076E+01  0.18726470739E+02  0.00000000000E+00 0. -1.
         11    1    3    3    0    0 -0.16364498895E+02  0.12726332993E+02 -0.19435291209E+02  0.28416314331E+02  0.51100000000E-03 0. -1.
        -11    1    3    3    0    0  0.10343683035E+02  0.12892229438E+02  0.12295406459E+02  0.20600446084E+02  0.51100000000E-03 0.  1.
        -12    1    3    3    0    0 -0.60748854733E+01 -0.15126661523E+02  0.16850432158E+02  0.23444768846E+02  0.00000000000E+00 0.  1.
</event>
<event>
 7    1  0.2684545E-013  0.7246157E+02  0.7816164E-02  0.1226708E+00
        -11   -1    0    0    0    0  0.00000000000E+00  0.00000000000E+00  0.45593999997E+02  0.45594000000E+02  0.51100000000E-03 0.  1.
         11   -1    0    0    0    0 -0.00000000000E+00 -0.00000000000E+00 -0.45593999997E+02  0.45594000000E+02  0.51100000000E-03 0. -1.
    9900012    2    1    2    0    0 -0.77259447058E+00 -0.12237823677E+02  0.14153377800E+02  0.72461565910E+02  0.69999994289E+02 0.  0.
         12    1    1    2    0    0  0.77259447058E+00  0.12237823677E+02 -0.14153377800E+02  0.18726434090E+02  0.00000000000E+00 0. -1.
         11    1    3    3    0    0 -0.17602678734E+02 -0.48187785408E+01  0.19618005573E+02  0.26794422334E+02  0.51100000000E-03 0. -1.
        -11    1    3    3    0    0 -0.21379855889E+01 -0.20327268269E+02  0.40363544130E+01  0.20834130048E+02  0.51100000000E-03 0.  1.
        -12    1    3    3    0    0  0.18968069853E+02  0.12908223134E+02 -0.95009821860E+01  0.24833013528E+02  0.00000000000E+00 0.  1.
</event>
<event>
 7    1  0.2684545E-013  0.7246138E+02  0.7816164E-02  0.1226709E+00
        -11   -1    0    0    0    0  0.00000000000E+00  0.00000000000E+00  0.45593999997E+02  0.45594000000E+02  0.51100000000E-03 0. -1.
         11   -1    0    0    0    0 -0.00000000000E+00 -0.00000000000E+00 -0.45593999997E+02  0.45594000000E+02  0.51100000000E-03 0.  1.
    9900012    2    1    2    0    0  0.34926346358E+01  0.11177570563E+02 -0.14613335431E+02  0.72461383840E+02  0.69999757109E+02 0.  0.
         12    1    1    2    0    0 -0.34926346358E+01 -0.11177570563E+02  0.14613335431E+02  0.18726616160E+02  0.00000000000E+00 0. -1.
         11    1    3    3    0    0  0.18608302244E+02  0.16953572532E+02  0.17660376894E+02  0.30750308068E+02  0.51100000000E-03 0. -1.
        -11    1    3    3    0    0 -0.15018818591E+01  0.23557030925E+01  0.23358848295E+01  0.36416128812E+01  0.51100000000E-03 0.  1.
        -12    1    3    3    0    0 -0.13613785750E+02 -0.81317050614E+01 -0.34609597154E+02  0.38069462891E+02  0.00000000000E+00 0.  1.
</event>
<event>
 7    1  0.2981262E-013  0.7246170E+02  0.7816164E-02  0.1226708E+00
        -11   -1    0    0    0    0  0.00000000000E+00  0.00000000000E+00  0.45593999997E+02  0.45594000000E+02  0.51100000000E-03 0.  1.
         11   -1    0    0    0    0 -0.00000000000E+00 -0.00000000000E+00 -0.45593999997E+02  0.45594000000E+02  0.51100000000E-03 0. -1.
    9900012    2    1    2    0    0  0.69347787040E+01  0.13455027639E+02  0.11024759950E+02  0.72461701477E+02  0.70000170889E+02 0.  0.
         12    1    1    2    0    0 -0.69347787040E+01 -0.13455027639E+02 -0.11024759950E+02  0.18726298523E+02  0.00000000000E+00 0. -1.
         11    1    3    3    0    0 -0.90166487182E+01 -0.65581975022E+01 -0.15201719258E+02  0.18852113336E+02  0.51100000000E-03 0. -1.
        -11    1    3    3    0    0  0.18587905587E+02 -0.67550864302E+01  0.95585174251E+01  0.21966034745E+02  0.51100000000E-03 0.  1.
        -12    1    3    3    0    0 -0.26364781649E+01  0.26768311571E+02  0.16667961783E+02  0.31643553395E+02  0.00000000000E+00 0.  1.
</event>
<event>
 7    1  0.2684545E-013  0.7246157E+02  0.7816164E-02  0.1226708E+00
        -11   -1    0    0    0    0  0.00000000000E+00  0.00000000000E+00  0.45593999997E+02  0.45594000000E+02  0.51100000000E-03 0. -1.
         11   -1    0    0    0    0 -0.00000000000E+00 -0.00000000000E+00 -0.45593999997E+02  0.45594000000E+02  0.51100000000E-03 0.  1.
    9900012    2    1    2    0    0 -0.61786184248E+01  0.65958293331E+01 -0.16401181702E+02  0.72461573447E+02  0.70000004106E+02 0.  0.
         12    1    1    2    0    0  0.61786184248E+01 -0.65958293331E+01  0.16401181702E+02  0.18726426553E+02  0.00000000000E+00 0. -1.
         11    1    3    3    0    0 -0.60987393954E+01 -0.19186279609E+02  0.11145949498E+02  0.23011739133E+02  0.51100000000E-03 0. -1.
        -11    1    3    3    0    0  0.91842116248E+00  0.19290157610E+01 -0.25388756776E+02  0.25478492305E+02  0.51100000000E-03 0.  1.
        -12    1    3    3    0    0 -0.99830019183E+00  0.23853093181E+02 -0.21583744248E+01  0.23971342009E+02  0.00000000000E+00 0.  1.
</event>
<event>
 7    1  0.2684545E-013  0.7246157E+02  0.7816164E-02  0.1226708E+00
        -11   -1    0    0    0    0  0.00000000000E+00  0.00000000000E+00  0.45593999997E+02  0.45594000000E+02  0.51100000000E-03 0. -1.
         11   -1    0    0    0    0 -0.00000000000E+00 -0.00000000000E+00 -0.45593999997E+02  0.45594000000E+02  0.51100000000E-03 0.  1.
    9900012    2    1    2    0    0 -0.52847413834E+01 -0.17851391053E+02 -0.20195604170E+01  0.72461567390E+02  0.69999996217E+02 0.  0.
         12    1    1    2    0    0  0.52847413834E+01  0.17851391053E+02  0.20195604170E+01  0.18726432610E+02  0.00000000000E+00 0. -1.
         11    1    3    3    0    0 -0.37590311165E+01 -0.64038448302E+01  0.24950582267E+02  0.26032116688E+02  0.51100000000E-03 0. -1.
        -11    1    3    3    0    0  0.96376028720E+01 -0.20987331451E+02 -0.15862744928E+02  0.28017461474E+02  0.51100000000E-03 0.  1.
        -12    1    3    3    0    0 -0.11163313139E+02  0.95397852276E+01 -0.11107397756E+02  0.18411989228E+02  0.00000000000E+00 0.  1.
</event>
<event>
 7    1  0.2684545E-013  0.7246165E+02  0.7816164E-02  0.1226708E+00
        -11   -1    0    0    0    0  0.00000000000E+00  0.00000000000E+00  0.45593999997E+02  0.45594000000E+02  0.51100000000E-03 0.  1.
         11   -1    0    0    0    0 -0.00000000000E+00 -0.00000000000E+00 -0.45593999997E+02  0.45594000000E+02  0.51100000000E-03 0. -1.
    9900012    2    1    2    0    0 -0.14423668174E+02 -0.28321369811E+01 -0.11602286934E+02  0.72461647830E+02  0.70000101005E+02 0.  0.
         12    1    1    2    0    0  0.14423668174E+02  0.28321369811E+01  0.11602286934E+02  0.18726352170E+02  0.00000000000E+00 0. -1.
         11    1    3    3    0    0 -0.15948830730E+02  0.18028115250E+02 -0.18768480738E+01  0.24143336556E+02  0.51100000000E-03 0. -1.
        -11    1    3    3    0    0 -0.28344939570E+01 -0.91829793816E+01  0.16605554650E+02  0.19186086412E+02  0.51100000000E-03 0.  1.
        -12    1    3    3    0    0  0.43596565122E+01 -0.11677272850E+02 -0.26330993511E+02  0.29132224861E+02  0.00000000000E+00 0.  1.
</event>
<event>
 7    1  0.2684545E-013  0.7246157E+02  0.7816164E-02  0.1226708E+00
        -11   -1    0    0    0    0  0.00000000000E+00  0.00000000000E+00  0.45593999997E+02  0.45594000000E+02  0.51100000000E-03 0. -1.
         11   -1    0    0    0    0 -0.00000000000E+00 -0.00000000000E+00 -0.45593999997E+02  0.45594000000E+02  0.51100000000E-03 0.  1.
    9900012    2    1    2    0    0  0.18660191512E+02  0.15736095664E+01 -0.13693466634E-01  0.72461569965E+02  0.69999999571E+02 0.  0.
         12    1    1    2    0    0 -0.18660191512E+02 -0.15736095664E+01  0.13693466634E-01  0.18726430035E+02  0.00000000000E+00 0. -1.
         11    1    3    3    0    0  0.15027113193E+01  0.20483677356E+02  0.17030583433E+02  0.26681078532E+02  0.51100000000E-03 0. -1.
        -11    1    3    3    0    0 -0.14198075819E+01  0.83723766402E+01  0.29388237650E+00  0.84969942502E+01  0.51100000000E-03 0.  1.
        -12    1    3    3    0    0  0.18577287775E+02 -0.27282444430E+02 -0.17338159276E+02  0.37283497183E+02  0.00000000000E+00 0.  1.
</event>
<event>
 7    1  0.2684545E-013  0.7246159E+02  0.7816164E-02  0.1226708E+00
        -11   -1    0    0    0    0  0.00000000000E+00  0.00000000000E+00  0.45593999997E+02  0.45594000000E+02  0.51100000000E-03 0.  1.
         11   -1    0    0    0    0 -0.00000000000E+00 -0.00000000000E+00 -0.45593999997E+02  0.45594000000E+02  0.51100000000E-03 0. -1.
    9900012    2    1    2    0    0 -0.82029451643E+00  0.37317951478E+01  0.18332462386E+02  0.72461592036E+02  0.70000028322E+02 0.  0.
         12    1    1    2    0    0  0.82029451643E+00 -0.37317951478E+01 -0.18332462386E+02  0.18726407964E+02  0.00000000000E+00 0. -1.
         11    1    3    3    0    0 -0.45373457079E+01  0.97280682792E+01  0.76584489868E+01  0.13186154089E+02  0.51100000000E-03 0. -1.
        -11    1    3    3    0    0  0.39009904577E+01  0.12572440479E+02  0.29824346306E+02  0.32600239555E+02  0.51100000000E-03 0.  1.
         12    1    3    3    0    0 -0.18393926623E+00 -0.18568713610E+02 -0.19150332908E+02  0.26675198392E+02  0.00000000000E+00 0. -1.
</event>
<event>
 7    1  0.2684545E-013  0.7246157E+02  0.7816164E-02  0.1226708E+00
        -11   -1    0    0    0    0  0.00000000000E+00  0.00000000000E+00  0.45593999997E+02  0.45594000000E+02  0.51100000000E-03 0. -1.
         11   -1    0    0    0    0 -0.00000000000E+00 -0.00000000000E+00 -0.45593999997E+02  0.45594000000E+02  0.51100000000E-03 0.  1.
    9900012    2    1    2    0    0 -0.11281468699E+02 -0.10729251292E+01 -0.14908263720E+02  0.72461573979E+02  0.70000004800E+02 0.  0.
         12    1    1    2    0    0  0.11281468699E+02  0.10729251292E+01  0.14908263720E+02  0.18726426021E+02  0.00000000000E+00 0. -1.
         11    1    3    3    0    0  0.43429886490E+01  0.48626189489E+01 -0.40078346355E+01  0.76530616210E+01  0.51100000000E-03 0. -1.
        -11    1    3    3    0    0 -0.39272002804E+02 -0.28468901008E+01 -0.11273708906E+02  0.40957191068E+02  0.51100000000E-03 0.  1.
         12    1    3    3    0    0  0.23647545455E+02 -0.30886539773E+01  0.37327982115E+00  0.23851321290E+02  0.00000000000E+00 0. -1.
</event>
<event>
 7    1  0.2684545E-013  0.7246158E+02  0.7816164E-02  0.1226708E+00
        -11   -1    0    0    0    0  0.00000000000E+00  0.00000000000E+00  0.45593999997E+02  0.45594000000E+02  0.51100000000E-03 0. -1.
         11   -1    0    0    0    0 -0.00000000000E+00 -0.00000000000E+00 -0.45593999997E+02  0.45594000000E+02  0.51100000000E-03 0.  1.
    9900012    2    1    2    0    0 -0.15104909352E+02 -0.67637950839E+01  0.87619369683E+01  0.72461581498E+02  0.70000014595E+02 0.  0.
         12    1    1    2    0    0  0.15104909352E+02  0.67637950839E+01 -0.87619369683E+01  0.18726418502E+02  0.00000000000E+00 0. -1.
         11    1    3    3    0    0  0.17081596753E+01 -0.18803770216E+02 -0.18151468871E+02  0.26191132206E+02  0.51100000000E-03 0. -1.
        -11    1    3    3    0    0 -0.40376557995E+01 -0.10215118503E+02  0.34871919837E+01  0.11524401007E+02  0.51100000000E-03 0.  1.
         12    1    3    3    0    0 -0.12775413228E+02  0.22255093634E+02  0.23426213856E+02  0.34746048285E+02  0.00000000000E+00 0. -1.
</event>
<event>
 7    1  0.2684545E-013  0.7246151E+02  0.7816164E-02  0.1226708E+00
        -11   -1    0    0    0    0  0.00000000000E+00  0.00000000000E+00  0.45593999997E+02  0.45594000000E+02  0.51100000000E-03 0.  1.
         11   -1    0    0    0    0 -0.00000000000E+00 -0.00000000000E+00 -0.45593999997E+02  0.45594000000E+02  0.51100000000E-03 0. -1.
    9900012    2    1    2    0    0  0.88741652812E+01 -0.90744262355E+01  0.13769006046E+02  0.72461506777E+02  0.69999917257E+02 0.  0.
         12    1    1    2    0    0 -0.88741652812E+01  0.90744262355E+01 -0.13769006046E+02  0.18726493223E+02  0.00000000000E+00 0. -1.
         11    1    3    3    0    0 -0.62480405941E+01 -0.29511378336E+02 -0.72850918923E+01  0.31032757317E+02  0.51100000000E-03 0. -1.
        -11    1    3    3    0    0  0.59556769197E+01 -0.46580320472E+01  0.24602062903E+00  0.75649108743E+01  0.51100000000E-03 0.  1.
        -12    1    3    3    0    0  0.91665289556E+01  0.25094984148E+02  0.20808077309E+02  0.33863838586E+02  0.00000000000E+00 0.  1.
</event>
<event>
 7    1  0.2684545E-013  0.7246158E+02  0.7816164E-02  0.1226708E+00
        -11   -1    0    0    0    0  0.00000000000E+00  0.00000000000E+00  0.45593999997E+02  0.45594000000E+02  0.51100000000E-03 0.  1.
         11   -1    0    0    0    0 -0.00000000000E+00 -0.00000000000E+00 -0.45593999997E+02  0.45594000000E+02  0.51100000000E-03 0. -1.
    9900012    2    1    2    0    0 -0.40123962993E+01  0.72344012112E+01  0.16800085591E+02  0.72461581207E+02  0.70000014216E+02 0.  0.
         12    1    1    2    0    0  0.40123962993E+01 -0.72344012112E+01 -0.16800085591E+02  0.18726418793E+02  0.00000000000E+00 0. -1.
         11    1    3    3    0    0 -0.19889179366E+02 -0.10352472774E+02 -0.23528986552E+01  0.22545271804E+02  0.51100000000E-03 0. -1.
        -11    1    3    3    0    0  0.38086159873E+01 -0.42543855741E+01 -0.10016389832E+02  0.11529675532E+02  0.51100000000E-03 0.  1.
        -12    1    3    3    0    0  0.12068167080E+02  0.21841259559E+02  0.29169374078E+02  0.38386633870E+02  0.00000000000E+00 0.  1.
</event>
<event>
 7    1  0.2684545E-013  0.7246157E+02  0.7816164E-02  0.1226708E+00
        -11   -1    0    0    0    0  0.00000000000E+00  0.00000000000E+00  0.45593999997E+02  0.45594000000E+02  0.51100000000E-03 0.  1.
         11   -1    0    0    0    0 -0.00000000000E+00 -0.00000000000E+00 -0.45593999997E+02  0.45594000000E+02  0.51100000000E-03 0. -1.
    9900012    2    1    2    0    0  0.79764021365E+01 -0.70706745716E+01  0.15396809759E+02  0.72461569996E+02  0.69999999611E+02 0.  0.
         12    1    1    2    0    0 -0.79764021365E+01  0.70706745716E+01 -0.15396809759E+02  0.18726430004E+02  0.00000000000E+00 0. -1.
         11    1    3    3    0    0 -0.68738959016E+00 -0.20039973531E+02  0.11216941979E+01  0.20083108368E+02  0.51100000000E-03 0. -1.
        -11    1    3    3    0    0  0.24514133610E+01  0.41388067044E+00  0.30694720591E+02  0.30795236598E+02  0.51100000000E-03 0.  1.
         12    1    3    3    0    0  0.62123783657E+01  0.12555418289E+02 -0.16419605030E+02  0.21583225030E+02  0.00000000000E+00 0. -1.
</event>
<event>
 7    1  0.2684545E-013  0.7246156E+02  0.7816164E-02  0.1226708E+00
        -11   -1    0    0    0    0  0.00000000000E+00  0.00000000000E+00  0.45593999997E+02  0.45594000000E+02  0.51100000000E-03 0. -1.
         11   -1    0    0    0    0 -0.00000000000E+00 -0.00000000000E+00 -0.45593999997E+02  0.45594000000E+02  0.51100000000E-03 0.  1.
    9900012    2    1    2    0    0  0.16794517590E+02 -0.68555942773E+01 -0.46502391387E+01  0.72461555649E+02  0.69999980922E+02 0.  0.
         12    1    1    2    0    0 -0.16794517590E+02  0.68555942773E+01  0.46502391387E+01  0.18726444351E+02  0.00000000000E+00 0. -1.
         11    1    3    3    0    0  0.41448200664E+01  0.20789483308E+02  0.13691556727E+02  0.25235706359E+02  0.51100000000E-03 0. -1.
        -11    1    3    3    0    0  0.86914057004E+01 -0.90745800026E+01  0.78944881360E+01  0.14839524199E+02  0.51100000000E-03 0.  1.
        -12    1    3    3    0    0  0.39582918236E+01 -0.18570497582E+02 -0.26236284002E+02  0.32386325090E+02  0.00000000000E+00 0.  1.
</event>
<event>
 7    1  0.2684545E-013  0.7246141E+02  0.7816164E-02  0.1226708E+00
        -11   -1    0    0    0    0  0.00000000000E+00  0.00000000000E+00  0.45593999997E+02  0.45594000000E+02  0.51100000000E-03 0.  1.
         11   -1    0    0    0    0 -0.00000000000E+00 -0.00000000000E+00 -0.45593999997E+02  0.45594000000E+02  0.51100000000E-03 0. -1.
    9900012    2    1    2    0    0  0.53336656997E+01 -0.17297825304E+02  0.47981611697E+01  0.72461411932E+02  0.69999793704E+02 0.  0.
         12    1    1    2    0    0 -0.53336656997E+01  0.17297825304E+02 -0.47981611697E+01  0.18726588068E+02  0.00000000000E+00 0. -1.
         11    1    3    3    0    0  0.90364172203E+01  0.18416914008E+02  0.93101566481E+01  0.22528172914E+02  0.51100000000E-03 0. -1.
        -11    1    3    3    0    0  0.90409927790E+00  0.26913325392E+01  0.86263000131E+01  0.90815041991E+01  0.51100000000E-03 0.  1.
        -12    1    3    3    0    0 -0.46068507984E+01 -0.38406071851E+02 -0.13138295492E+02  0.40851734819E+02  0.00000000000E+00 0.  1.
</event>
<event>
 7    1  0.2684545E-013  0.7246160E+02  0.7816164E-02  0.1226708E+00
        -11   -1    0    0    0    0  0.00000000000E+00  0.00000000000E+00  0.45593999997E+02  0.45594000000E+02  0.51100000000E-03 0. -1.
         11   -1    0    0    0    0 -0.00000000000E+00 -0.00000000000E+00 -0.45593999997E+02  0.45594000000E+02  0.51100000000E-03 0.  1.
    9900012    2    1    2    0    0 -0.77021447648E+01  0.16828659543E+02  0.28550592036E+01  0.72461596741E+02  0.70000034451E+02 0.  0.
         12    1    1    2    0    0  0.77021447648E+01 -0.16828659543E+02 -0.28550592036E+01  0.18726403259E+02  0.00000000000E+00 0. -1.
         11    1    3    3    0    0  0.17001174896E+02  0.19472219118E+02  0.14206965864E+02  0.29496527669E+02  0.51100000000E-03 0. -1.
        -11    1    3    3    0    0 -0.43467867811E+01 -0.77861876232E+01 -0.18702383193E+02  0.20719517619E+02  0.51100000000E-03 0.  1.
        -12    1    3    3    0    0 -0.20356532880E+02  0.51426280479E+01  0.73504765325E+01  0.22245551452E+02  0.00000000000E+00 0.  1.
</event>
<event>
 7    1  0.2684545E-013  0.7246163E+02  0.7816164E-02  0.1226708E+00
        -11   -1    0    0    0    0  0.00000000000E+00  0.00000000000E+00  0.45593999997E+02  0.45594000000E+02  0.51100000000E-03 0. -1.
         11   -1    0    0    0    0 -0.00000000000E+00 -0.00000000000E+00 -0.45593999997E+02  0.45594000000E+02  0.51100000000E-03 0.  1.
    9900012    2    1    2    0    0  0.17523268209E+02  0.64156734446E+01  0.15656097248E+01  0.72461630136E+02  0.70000077955E+02 0.  0.
         12    1    1    2    0    0 -0.17523268209E+02 -0.64156734446E+01 -0.15656097248E+01  0.18726369864E+02  0.00000000000E+00 0. -1.
         11    1    3    3    0    0  0.36796393987E+02  0.13004377601E+01  0.15200955353E+02  0.39833839794E+02  0.51100000000E-03 0. -1.
        -11    1    3    3    0    0 -0.12983976823E+01  0.26191377964E+01  0.55168802103E+01  0.62435316011E+01  0.51100000000E-03 0.  1.
        -12    1    3    3    0    0 -0.17974728096E+02  0.24960978881E+01 -0.19152225838E+02  0.26384258742E+02  0.00000000000E+00 0.  1.
</event>
<event>
 7    1  0.2684545E-013  0.7246158E+02  0.7816164E-02  0.1226708E+00
        -11   -1    0    0    0    0  0.00000000000E+00  0.00000000000E+00  0.45593999997E+02  0.45594000000E+02  0.51100000000E-03 0.  1.
         11   -1    0    0    0    0 -0.00000000000E+00 -0.00000000000E+00 -0.45593999997E+02  0.45594000000E+02  0.51100000000E-03 0. -1.
    9900012    2    1    2    0    0 -0.13980124143E+02  0.63224084836E+01  0.10736025462E+02  0.72461575814E+02  0.70000007190E+02 0.  0.
         12    1    1    2    0    0  0.13980124143E+02 -0.63224084836E+01 -0.10736025462E+02  0.18726424186E+02  0.00000000000E+00 0. -1.
         11    1    3    3    0    0 -0.43234652656E+01 -0.50818794987E+01 -0.81070049600E+01  0.10499589555E+02  0.51100000000E-03 0. -1.
        -11    1    3    3    0    0 -0.33368874683E+01 -0.20453455732E+02 -0.54204268513E+01  0.21421010640E+02  0.51100000000E-03 0.  1.
        -12    1    3    3    0    0 -0.63197714090E+01  0.31857743714E+02  0.24263457274E+02  0.40540975618E+02  0.00000000000E+00 0.  1.
</event>
<event>
 7    1  0.2684545E-013  0.7246163E+02  0.7816164E-02  0.1226708E+00
        -11   -1    0    0    0    0  0.00000000000E+00  0.00000000000E+00  0.45593999997E+02  0.45594000000E+02  0.51100000000E-03 0.  1.
         11   -1    0    0    0    0 -0.00000000000E+00 -0.00000000000E+00 -0.45593999997E+02  0.45594000000E+02  0.51100000000E-03 0. -1.
    9900012    2    1    2    0    0  0.35921584863E+01 -0.31229652622E+01  0.18111333457E+02  0.72461630511E+02  0.70000078444E+02 0.  0.
         12    1    1    2    0    0 -0.35921584863E+01  0.31229652622E+01 -0.18111333457E+02  0.18726369489E+02  0.00000000000E+00 0. -1.
         11    1    3    3    0    0  0.12464231205E+02  0.13669789548E+02 -0.58042740780E+01  0.19388393529E+02  0.51100000000E-03 0. -1.
        -11    1    3    3    0    0  0.12883626083E+02 -0.13463396845E+02  0.24830559743E+02  0.31045250411E+02  0.51100000000E-03 0.  1.
         12    1    3    3    0    0 -0.21755698802E+02 -0.33293579649E+01 -0.91495220774E+00  0.22027986571E+02  0.00000000000E+00 0. -1.
</event>
<event>
 7    1  0.2684545E-013  0.7246160E+02  0.7816164E-02  0.1226708E+00
        -11   -1    0    0    0    0  0.00000000000E+00  0.00000000000E+00  0.45593999997E+02  0.45594000000E+02  0.51100000000E-03 0. -1.
         11   -1    0    0    0    0 -0.00000000000E+00 -0.00000000000E+00 -0.45593999997E+02  0.45594000000E+02  0.51100000000E-03 0.  1.
    9900012    2    1    2    0    0  0.10557754239E+02  0.79634585099E+01 -0.13258783523E+02  0.72461596541E+02  0.70000034191E+02 0.  0.
         12    1    1    2    0    0 -0.10557754239E+02 -0.79634585099E+01  0.13258783523E+02  0.18726403459E+02  0.00000000000E+00 0. -1.
         11    1    3    3    0    0  0.41181635656E+01  0.15594643643E+02 -0.18022298997E+00  0.16130240609E+02  0.51100000000E-03 0. -1.
        -11    1    3    3    0    0 -0.42373214744E+01  0.18789847204E+02  0.80296498171E+01  0.20868361883E+02  0.51100000000E-03 0.  1.
         12    1    3    3    0    0  0.10676912148E+02 -0.26421032337E+02 -0.21108210350E+02  0.35462994049E+02  0.00000000000E+00 0. -1.
</event>
<event>
 7    1  0.2684545E-013  0.7246158E+02  0.7816164E-02  0.1226708E+00
        -11   -1    0    0    0    0  0.00000000000E+00  0.00000000000E+00  0.45593999997E+02  0.45594000000E+02  0.51100000000E-03 0.  1.
         11   -1    0    0    0    0 -0.00000000000E+00 -0.00000000000E+00 -0.45593999997E+02  0.45594000000E+02  0.51100000000E-03 0. -1.
    9900012    2    1    2    0    0  0.11527722329E+02 -0.23012746416E+01  0.14577193472E+02  0.72461579718E+02  0.70000012276E+02 0.  0.
         12    1    1    2    0    0 -0.11527722329E+02  0.23012746416E+01 -0.14577193472E+02  0.18726420282E+02  0.00000000000E+00 0. -1.
         11    1    3    3    0    0  0.41360675234E+01  0.75107126282E+01 -0.23004631833E+01  0.88774990769E+01  0.51100000000E-03 0. -1.
        -11    1    3    3    0    0  0.32669310250E+02 -0.11504170752E+02  0.16209478985E+02  0.38241037984E+02  0.51100000000E-03 0.  1.
         12    1    3    3    0    0 -0.25277655445E+02  0.16921834823E+01  0.66817766941E+00  0.25343042657E+02  0.00000000000E+00 0. -1.
</event>
<event>
 7    1  0.2684545E-013  0.7246155E+02  0.7816164E-02  0.1226708E+00
        -11   -1    0    0    0    0  0.00000000000E+00  0.00000000000E+00  0.45593999997E+02  0.45594000000E+02  0.51100000000E-03 0. -1.
         11   -1    0    0    0    0 -0.00000000000E+00 -0.00000000000E+00 -0.45593999997E+02  0.45594000000E+02  0.51100000000E-03 0.  1.
    9900012    2    1    2    0    0  0.38610715834E+00 -0.15012939061E+02 -0.11186718001E+02  0.72461546047E+02  0.69999968414E+02 0.  0.
         12    1    1    2    0    0 -0.38610715834E+00  0.15012939061E+02  0.11186718001E+02  0.18726453953E+02  0.00000000000E+00 0. -1.
         11    1    3    3    0    0 -0.11760787205E+02 -0.14217061748E+01  0.18857160918E+02  0.22269483207E+02  0.51100000000E-03 0. -1.
        -11    1    3    3    0    0 -0.88844419525E+01  0.38098497652E+01 -0.17841421712E+02  0.20291983467E+02  0.51100000000E-03 0.  1.
         12    1    3    3    0    0  0.21031336316E+02 -0.17401082652E+02 -0.12202457207E+02  0.29900079374E+02  0.00000000000E+00 0. -1.
</event>
<event>
 7    1  0.2684545E-013  0.7246156E+02  0.7816164E-02  0.1226708E+00
        -11   -1    0    0    0    0  0.00000000000E+00  0.00000000000E+00  0.45593999997E+02  0.45594000000E+02  0.51100000000E-03 0. -1.
         11   -1    0    0    0    0 -0.00000000000E+00 -0.00000000000E+00 -0.45593999997E+02  0.45594000000E+02  0.51100000000E-03 0.  1.
    9900012    2    1    2    0    0 -0.74716497001E+01 -0.69729998837E+00 -0.17157144129E+02  0.72461564910E+02  0.69999992986E+02 0.  0.
         12    1    1    2    0    0  0.74716497001E+01  0.69729998837E+00  0.17157144129E+02  0.18726435090E+02  0.00000000000E+00 0. -1.
         11    1    3    3    0    0  0.90121499718E+01 -0.93811617968E+01  0.39040780874E+01  0.13581858111E+02  0.51100000000E-03 0.  1.
        -11    1    3    3    0    0 -0.83534071752E+00 -0.21055415670E+02 -0.51186904729E+01  0.21684771513E+02  0.51100000000E-03 0. -1.
        -12    1    3    3    0    0 -0.15648458954E+02  0.29739277478E+02 -0.15942531743E+02  0.37194935287E+02  0.00000000000E+00 0.  1.
</event>
<event>
 7    1  0.2684545E-013  0.7246154E+02  0.7816164E-02  0.1226708E+00
        -11   -1    0    0    0    0  0.00000000000E+00  0.00000000000E+00  0.45593999997E+02  0.45594000000E+02  0.51100000000E-03 0. -1.
         11   -1    0    0    0    0 -0.00000000000E+00 -0.00000000000E+00 -0.45593999997E+02  0.45594000000E+02  0.51100000000E-03 0.  1.
    9900012    2    1    2    0    0  0.50883956499E+01 -0.15512704039E+02 -0.91730292160E+01  0.72461542196E+02  0.69999963396E+02 0.  0.
         12    1    1    2    0    0 -0.50883956499E+01  0.15512704039E+02  0.91730292160E+01  0.18726457804E+02  0.00000000000E+00 0. -1.
         11    1    3    3    0    0  0.59779340442E+00  0.23187038395E+01 -0.99302870965E+01  0.10214908053E+02  0.51100000000E-03 0. -1.
        -11    1    3    3    0    0  0.81174862431E+01  0.21012318953E+02 -0.42202061577E+01  0.22917706494E+02  0.51100000000E-03 0.  1.
         12    1    3    3    0    0 -0.36268839976E+01 -0.38843726832E+02  0.49774640382E+01  0.39328927648E+02  0.00000000000E+00 0. -1.
</event>
<event>
 7    1  0.2684545E-013  0.7246151E+02  0.7816164E-02  0.1226708E+00
        -11   -1    0    0    0    0  0.00000000000E+00  0.00000000000E+00  0.45593999997E+02  0.45594000000E+02  0.51100000000E-03 0.  1.
         11   -1    0    0    0    0 -0.00000000000E+00 -0.00000000000E+00 -0.45593999997E+02  0.45594000000E+02  0.51100000000E-03 0. -1.
    9900012    2    1    2    0    0 -0.10637316957E+02  0.12222981764E+02 -0.93876269300E+01  0.72461512485E+02  0.69999924693E+02 0.  0.
         12    1    1    2    0    0  0.10637316957E+02 -0.12222981764E+02  0.93876269300E+01  0.18726487515E+02  0.00000000000E+00 0. -1.
         11    1    3    3    0    0 -0.15117688603E+02 -0.67514541509E+00 -0.43773890108E+01  0.15753154123E+02  0.51100000000E-03 0.  1.
        -11    1    3    3    0    0 -0.15776125057E+02 -0.14845655152E+02  0.16171596543E+01  0.21723139836E+02  0.51100000000E-03 0. -1.
         12    1    3    3    0    0  0.20256496703E+02  0.27743782332E+02 -0.66273975735E+01  0.34985218526E+02  0.00000000000E+00 0. -1.
</event>
<event>
 7    1  0.2684545E-013  0.7246148E+02  0.7816164E-02  0.1226708E+00
        -11   -1    0    0    0    0  0.00000000000E+00  0.00000000000E+00  0.45593999997E+02  0.45594000000E+02  0.51100000000E-03 0.  1.
         11   -1    0    0    0    0 -0.00000000000E+00 -0.00000000000E+00 -0.45593999997E+02  0.45594000000E+02  0.51100000000E-03 0. -1.
    9900012    2    1    2    0    0  0.12911265417E+02  0.52969585376E+01  0.12486954661E+02  0.72461479203E+02  0.69999881337E+02 0.  0.
         12    1    1    2    0    0 -0.12911265417E+02 -0.52969585376E+01 -0.12486954661E+02  0.18726520797E+02  0.00000000000E+00 0. -1.
         11    1    3    3    0    0 -0.19574918774E+02  0.46067963154E+01 -0.42185403811E+01  0.20547411042E+02  0.51100000000E-03 0. -1.
        -11    1    3    3    0    0  0.60711511506E+01 -0.73808542446E+01  0.21822549887E+02  0.23823508757E+02  0.51100000000E-03 0.  1.
         12    1    3    3    0    0  0.26415033041E+02  0.80710164667E+01 -0.51170548448E+01  0.28090559404E+02  0.00000000000E+00 0. -1.
</event>
<event>
 7    1  0.2684545E-013  0.7246194E+02  0.7816164E-02  0.1226707E+00
        -11   -1    0    0    0    0  0.00000000000E+00  0.00000000000E+00  0.45593999997E+02  0.45594000000E+02  0.51100000000E-03 0. -1.
         11   -1    0    0    0    0 -0.00000000000E+00 -0.00000000000E+00 -0.45593999997E+02  0.45594000000E+02  0.51100000000E-03 0.  1.
    9900012    2    1    2    0    0  0.99601379150E+01 -0.12526570346E+02 -0.97234765967E+01  0.72461940376E+02  0.70000482098E+02 0.  0.
         12    1    1    2    0    0 -0.99601379150E+01  0.12526570346E+02  0.97234765967E+01  0.18726059624E+02  0.00000000000E+00 0. -1.
         11    1    3    3    0    0 -0.94541765879E+01 -0.49894143161E+01 -0.16995992984E+02  0.20078333794E+02  0.51100000000E-03 0. -1.
        -11    1    3    3    0    0 -0.18611689612E+01 -0.24552560094E+02  0.39794552379E+01  0.24942498298E+02  0.51100000000E-03 0.  1.
         12    1    3    3    0    0  0.21275483464E+02  0.17015404064E+02  0.32930611496E+01  0.27441108283E+02  0.00000000000E+00 0. -1.
</event>
<event>
 7    1  0.2684545E-013  0.7246166E+02  0.7816164E-02  0.1226708E+00
        -11   -1    0    0    0    0  0.00000000000E+00  0.00000000000E+00  0.45593999997E+02  0.45594000000E+02  0.51100000000E-03 0. -1.
         11   -1    0    0    0    0 -0.00000000000E+00 -0.00000000000E+00 -0.45593999997E+02  0.45594000000E+02  0.51100000000E-03 0.  1.
    9900012    2    1    2    0    0  0.70676620077E+01  0.74817315456E+01  0.15644415086E+02  0.72461658218E+02  0.70000114536E+02 0.  0.
         12    1    1    2    0    0 -0.70676620077E+01 -0.74817315456E+01 -0.15644415086E+02  0.18726341782E+02  0.00000000000E+00 0. -1.
         11    1    3    3    0    0 -0.77956997090E+01  0.17578682390E+02  0.21602829432E+02  0.28921708944E+02  0.51100000000E-03 0. -1.
        -11    1    3    3    0    0 -0.11845197945E+02  0.43347014161E+01 -0.57360913259E-01  0.12613549907E+02  0.51100000000E-03 0.  1.
        -12    1    3    3    0    0  0.26708559661E+02 -0.14431652260E+02 -0.59010534333E+01  0.30926399366E+02  0.00000000000E+00 0.  1.
</event>
<event>
 7    1  0.2684545E-013  0.7246157E+02  0.7816164E-02  0.1226708E+00
        -11   -1    0    0    0    0  0.00000000000E+00  0.00000000000E+00  0.45593999997E+02  0.45594000000E+02  0.51100000000E-03 0. -1.
         11   -1    0    0    0    0 -0.00000000000E+00 -0.00000000000E+00 -0.45593999997E+02  0.45594000000E+02  0.51100000000E-03 0.  1.
    9900012    2    1    2    0    0 -0.90451304691E+01 -0.72579217586E+01 -0.14703305875E+02  0.72461574364E+02  0.70000005301E+02 0.  0.
         12    1    1    2    0    0  0.90451304691E+01  0.72579217586E+01  0.14703305875E+02  0.18726425636E+02  0.00000000000E+00 0. -1.
         11    1    3    3    0    0 -0.19565238826E+02 -0.82711438486E+01 -0.26738331326E+02  0.34148920236E+02  0.51100000000E-03 0. -1.
        -11    1    3    3    0    0  0.26578259682E+01 -0.12897032433E+02 -0.57809181914E+01  0.14381116085E+02  0.51100000000E-03 0.  1.
         12    1    3    3    0    0  0.78622823890E+01  0.13910254523E+02  0.17815943642E+02  0.23931538043E+02  0.00000000000E+00 0. -1.
</event>
<event>
 7    1  0.2684545E-013  0.7246157E+02  0.7816164E-02  0.1226708E+00
        -11   -1    0    0    0    0  0.00000000000E+00  0.00000000000E+00  0.45593999997E+02  0.45594000000E+02  0.51100000000E-03 0.  1.
         11   -1    0    0    0    0 -0.00000000000E+00 -0.00000000000E+00 -0.45593999997E+02  0.45594000000E+02  0.51100000000E-03 0. -1.
    9900012    2    1    2    0    0 -0.16684365922E+02 -0.13034443027E+01 -0.84031137617E+01  0.72461565364E+02  0.69999993577E+02 0.  0.
         12    1    1    2    0    0  0.16684365922E+02  0.13034443027E+01  0.84031137617E+01  0.18726434636E+02  0.00000000000E+00 0. -1.
         11    1    3    3    0    0 -0.36897504683E+01 -0.18861392422E+02 -0.29045271564E+02  0.34828066026E+02  0.51100000000E-03 0. -1.
        -11    1    3    3    0    0 -0.10981708230E+01 -0.54235583037E+01  0.28081257378E+01  0.62053633455E+01  0.51100000000E-03 0.  1.
         12    1    3    3    0    0 -0.11896444631E+02  0.22981506423E+02  0.17834032064E+02  0.31428135993E+02  0.00000000000E+00 0. -1.
</event>
<event>
 7    1  0.2684545E-013  0.7246157E+02  0.7816164E-02  0.1226708E+00
        -11   -1    0    0    0    0  0.00000000000E+00  0.00000000000E+00  0.45593999997E+02  0.45594000000E+02  0.51100000000E-03 0.  1.
         11   -1    0    0    0    0 -0.00000000000E+00 -0.00000000000E+00 -0.45593999997E+02  0.45594000000E+02  0.51100000000E-03 0. -1.
    9900012    2    1    2    0    0 -0.11458280465E+02  0.88813927764E+01  0.11853596290E+02  0.72461572848E+02  0.70000003327E+02 0.  0.
         12    1    1    2    0    0  0.11458280465E+02 -0.88813927764E+01 -0.11853596290E+02  0.18726427152E+02  0.00000000000E+00 0. -1.
         11    1    3    3    0    0  0.70834930911E+01 -0.10487436013E+02  0.89524782678E+01  0.15501904912E+02  0.51100000000E-03 0. -1.
        -11    1    3    3    0    0 -0.12286147632E+01 -0.65060585201E+01  0.20259954415E+02  0.21314409324E+02  0.51100000000E-03 0.  1.
         12    1    3    3    0    0 -0.17313158793E+02  0.25874887309E+02 -0.17358836393E+02  0.35645258612E+02  0.00000000000E+00 0. -1.
</event>
<event>
 7    1  0.2684545E-013  0.7246143E+02  0.7816164E-02  0.1226708E+00
        -11   -1    0    0    0    0  0.00000000000E+00  0.00000000000E+00  0.45593999997E+02  0.45594000000E+02  0.51100000000E-03 0.  1.
         11   -1    0    0    0    0 -0.00000000000E+00 -0.00000000000E+00 -0.45593999997E+02  0.45594000000E+02  0.51100000000E-03 0. -1.
    9900012    2    1    2    0    0 -0.13414247939E+01 -0.98581283649E+01  0.15865129019E+02  0.72461429728E+02  0.69999816887E+02 0.  0.
         12    1    1    2    0    0  0.13414247939E+01  0.98581283649E+01 -0.15865129019E+02  0.18726570272E+02  0.00000000000E+00 0. -1.
         11    1    3    3    0    0  0.12704551879E+02 -0.64201981235E+00 -0.15029210549E+00  0.12721651460E+02  0.51100000000E-03 0. -1.
        -11    1    3    3    0    0 -0.10445717003E+02  0.92868271147E+01  0.32067482208E+02  0.34981160315E+02  0.51100000000E-03 0.  1.
         12    1    3    3    0    0 -0.36002596701E+01 -0.18502935667E+02 -0.16052061083E+02  0.24758617954E+02  0.00000000000E+00 0. -1.
</event>
<event>
 7    1  0.2684545E-013  0.7246122E+02  0.7816164E-02  0.1226709E+00
        -11   -1    0    0    0    0  0.00000000000E+00  0.00000000000E+00  0.45593999997E+02  0.45594000000E+02  0.51100000000E-03 0. -1.
         11   -1    0    0    0    0 -0.00000000000E+00 -0.00000000000E+00 -0.45593999997E+02  0.45594000000E+02  0.51100000000E-03 0.  1.
    9900012    2    1    2    0    0 -0.61395675120E+01  0.10025853434E+02 -0.14576705714E+02  0.72461217687E+02  0.69999540662E+02 0.  0.
         12    1    1    2    0    0  0.61395675120E+01 -0.10025853434E+02  0.14576705714E+02  0.18726782313E+02  0.00000000000E+00 0. -1.
         11    1    3    3    0    0 -0.91464361265E+01  0.18326371197E+02  0.20697145700E+02  0.29118465197E+02  0.51100000000E-03 0. -1.
        -11    1    3    3    0    0  0.60585181487E+01 -0.29385830375E+01  0.76750309707E+00  0.67771656090E+01  0.51100000000E-03 0.  1.
        -12    1    3    3    0    0 -0.30516495343E+01 -0.53619347254E+01 -0.36041354512E+02  0.36565586881E+02  0.00000000000E+00 0.  1.
</event>
<event>
 7    1  0.2684545E-013  0.7246161E+02  0.7816164E-02  0.1226708E+00
        -11   -1    0    0    0    0  0.00000000000E+00  0.00000000000E+00  0.45593999997E+02  0.45594000000E+02  0.51100000000E-03 0. -1.
         11   -1    0    0    0    0 -0.00000000000E+00 -0.00000000000E+00 -0.45593999997E+02  0.45594000000E+02  0.51100000000E-03 0.  1.
    9900012    2    1    2    0    0  0.17799329731E+02 -0.58163813388E+01  0.17667137879E+00  0.72461611038E+02  0.70000053077E+02 0.  0.
         12    1    1    2    0    0 -0.17799329731E+02  0.58163813388E+01 -0.17667137879E+00  0.18726388962E+02  0.00000000000E+00 0. -1.
         11    1    3    3    0    0  0.30205679955E+02  0.16659724239E+02  0.24899035895E+01  0.34585099875E+02  0.51100000000E-03 0. -1.
        -11    1    3    3    0    0 -0.89042993954E+01 -0.22326367023E+01  0.10278084832E+02  0.13780792519E+02  0.51100000000E-03 0.  1.
        -12    1    3    3    0    0 -0.35020508281E+01 -0.20243468875E+02 -0.12591317043E+02  0.24095718644E+02  0.00000000000E+00 0.  1.
</event>
<event>
 7    1  0.2684545E-013  0.7246150E+02  0.7816164E-02  0.1226708E+00
        -11   -1    0    0    0    0  0.00000000000E+00  0.00000000000E+00  0.45593999997E+02  0.45594000000E+02  0.51100000000E-03 0.  1.
         11   -1    0    0    0    0 -0.00000000000E+00 -0.00000000000E+00 -0.45593999997E+02  0.45594000000E+02  0.51100000000E-03 0. -1.
    9900012    2    1    2    0    0  0.79808920412E+01  0.51305338054E+01  0.16145113291E+02  0.72461502782E+02  0.69999912052E+02 0.  0.
         12    1    1    2    0    0 -0.79808920412E+01 -0.51305338054E+01 -0.16145113291E+02  0.18726497218E+02  0.00000000000E+00 0. -1.
         11    1    3    3    0    0  0.16071977081E+02  0.11216089281E+02 -0.89651392214E+01  0.21551863668E+02  0.51100000000E-03 0. -1.
        -11    1    3    3    0    0  0.68183704227E+01 -0.82481508428E+01 -0.87666367836E+01  0.13833874667E+02  0.51100000000E-03 0.  1.
         12    1    3    3    0    0 -0.14909455463E+02  0.21625953674E+01  0.33876889296E+02  0.37075764446E+02  0.00000000000E+00 0. -1.
</event>
<event>
 7    1  0.2684545E-013  0.7246170E+02  0.7816164E-02  0.1226708E+00
        -11   -1    0    0    0    0  0.00000000000E+00  0.00000000000E+00  0.45593999997E+02  0.45594000000E+02  0.51100000000E-03 0. -1.
         11   -1    0    0    0    0 -0.00000000000E+00 -0.00000000000E+00 -0.45593999997E+02  0.45594000000E+02  0.51100000000E-03 0.  1.
    9900012    2    1    2    0    0 -0.16074000502E+02 -0.95676308447E+01  0.87247799846E+00  0.72461701114E+02  0.70000170417E+02 0.  0.
         12    1    1    2    0    0  0.16074000502E+02  0.95676308447E+01 -0.87247799846E+00  0.18726298886E+02  0.00000000000E+00 0. -1.
         11    1    3    3    0    0  0.13457869725E+02  0.11289340713E+02 -0.12553446357E+02  0.21590564767E+02  0.51100000000E-03 0. -1.
        -11    1    3    3    0    0 -0.11259018861E+02 -0.22067204546E+02 -0.45750401494E+01  0.25192419789E+02  0.51100000000E-03 0.  1.
        -12    1    3    3    0    0 -0.18272851366E+02  0.12102329885E+01  0.18000964505E+02  0.25678716557E+02  0.00000000000E+00 0.  1.
</event>
<event>
 7    1  0.2684545E-013  0.7246158E+02  0.7816164E-02  0.1226708E+00
        -11   -1    0    0    0    0  0.00000000000E+00  0.00000000000E+00  0.45593999997E+02  0.45594000000E+02  0.51100000000E-03 0. -1.
         11   -1    0    0    0    0 -0.00000000000E+00 -0.00000000000E+00 -0.45593999997E+02  0.45594000000E+02  0.51100000000E-03 0.  1.
    9900012    2    1    2    0    0 -0.18124534972E+02  0.42277728223E+01 -0.20750689211E+01  0.72461581709E+02  0.70000014870E+02 0.  0.
         12    1    1    2    0    0  0.18124534972E+02 -0.42277728223E+01  0.20750689211E+01  0.18726418291E+02  0.00000000000E+00 0. -1.
         11    1    3    3    0    0 -0.76320201146E+01 -0.73408084032E+01  0.10845368366E+02  0.15157744367E+02  0.51100000000E-03 0. -1.
        -11    1    3    3    0    0  0.90972384843E+01  0.62003338018E-01  0.17270180840E+02  0.19519803763E+02  0.51100000000E-03 0.  1.
        -12    1    3    3    0    0 -0.19589753341E+02  0.11506577887E+02 -0.30190618127E+02  0.37784033579E+02  0.00000000000E+00 0.  1.
</event>
<event>
 7    1  0.2684545E-013  0.7246157E+02  0.7816164E-02  0.1226708E+00
        -11   -1    0    0    0    0  0.00000000000E+00  0.00000000000E+00  0.45593999997E+02  0.45594000000E+02  0.51100000000E-03 0.  1.
         11   -1    0    0    0    0 -0.00000000000E+00 -0.00000000000E+00 -0.45593999997E+02  0.45594000000E+02  0.51100000000E-03 0. -1.
    9900012    2    1    2    0    0  0.74093959411E+01 -0.37959238961E+01  0.16774121013E+02  0.72461566218E+02  0.69999994690E+02 0.  0.
         12    1    1    2    0    0 -0.74093959411E+01  0.37959238961E+01 -0.16774121013E+02  0.18726433782E+02  0.00000000000E+00 0. -1.
         11    1    3    3    0    0  0.18967802633E+01  0.18344953312E+02  0.10183215708E+02  0.21067343682E+02  0.51100000000E-03 0. -1.
        -11    1    3    3    0    0 -0.11440351438E+02 -0.16044374278E+02  0.20648875160E+02  0.28542593306E+02  0.51100000000E-03 0.  1.
         12    1    3    3    0    0  0.16952967116E+02 -0.60965029305E+01 -0.14057969856E+02  0.22851629230E+02  0.00000000000E+00 0. -1.
</event>
<event>
 7    1  0.2684545E-013  0.7246159E+02  0.7816164E-02  0.1226708E+00
        -11   -1    0    0    0    0  0.00000000000E+00  0.00000000000E+00  0.45593999997E+02  0.45594000000E+02  0.51100000000E-03 0.  1.
         11   -1    0    0    0    0 -0.00000000000E+00 -0.00000000000E+00 -0.45593999997E+02  0.45594000000E+02  0.51100000000E-03 0. -1.
    9900012    2    1    2    0    0  0.22136679064E+01  0.48593429265E+01  0.17948948184E+02  0.72461594039E+02  0.70000030932E+02 0.  0.
         12    1    1    2    0    0 -0.22136679064E+01 -0.48593429265E+01 -0.17948948184E+02  0.18726405961E+02  0.00000000000E+00 0. -1.
         11    1    3    3    0    0  0.85396177404E+01 -0.45686076963E+00  0.17547029398E+02  0.19520041851E+02  0.51100000000E-03 0. -1.
        -11    1    3    3    0    0 -0.10420870499E+02  0.22839970996E+02  0.15454309319E+02  0.29480408645E+02  0.51100000000E-03 0.  1.
         12    1    3    3    0    0  0.40949206655E+01 -0.17523767300E+02 -0.15052390532E+02  0.23461143544E+02  0.00000000000E+00 0. -1.
</event>
<event>
 7    1  0.2684545E-013  0.7246155E+02  0.7816164E-02  0.1226708E+00
        -11   -1    0    0    0    0  0.00000000000E+00  0.00000000000E+00  0.45593999997E+02  0.45594000000E+02  0.51100000000E-03 0. -1.
         11   -1    0    0    0    0 -0.00000000000E+00 -0.00000000000E+00 -0.45593999997E+02  0.45594000000E+02  0.51100000000E-03 0.  1.
    9900012    2    1    2    0    0 -0.50082656010E+01  0.16632148485E+02 -0.69977819100E+01  0.72461547074E+02  0.69999969751E+02 0.  0.
         12    1    1    2    0    0  0.50082656010E+01 -0.16632148485E+02  0.69977819100E+01  0.18726452926E+02  0.00000000000E+00 0. -1.
         11    1    3    3    0    0 -0.49613387289E+01 -0.12349714422E+02 -0.66586244563E+01  0.14881787803E+02  0.51100000000E-03 0. -1.
        -11    1    3    3    0    0 -0.37550144748E+00  0.46082959981E+00 -0.21847941140E+02  0.21856026574E+02  0.51100000000E-03 0.  1.
         12    1    3    3    0    0  0.32857457534E+00  0.28521033307E+02  0.21508783687E+02  0.35723732697E+02  0.00000000000E+00 0. -1.
</event>
<event>
 7    1  0.2684545E-013  0.7246158E+02  0.7816164E-02  0.1226708E+00
        -11   -1    0    0    0    0  0.00000000000E+00  0.00000000000E+00  0.45593999997E+02  0.45594000000E+02  0.51100000000E-03 0. -1.
         11   -1    0    0    0    0 -0.00000000000E+00 -0.00000000000E+00 -0.45593999997E+02  0.45594000000E+02  0.51100000000E-03 0.  1.
    9900012    2    1    2    0    0  0.17235695140E+02 -0.64242723480E+01 -0.35125788541E+01  0.72461583569E+02  0.70000017292E+02 0.  0.
         12    1    1    2    0    0 -0.17235695140E+02  0.64242723480E+01  0.35125788541E+01  0.18726416431E+02  0.00000000000E+00 0. -1.
         11    1    3    3    0    0 -0.35519701620E+01  0.91269917825E+01  0.96153187431E+00  0.98408848604E+01  0.51100000000E-03 0. -1.
        -11    1    3    3    0    0 -0.17521627415E+02  0.53437939933E+01  0.22949994358E+01  0.18461597552E+02  0.51100000000E-03 0.  1.
        -12    1    3    3    0    0  0.38309292717E+02 -0.20895058124E+02 -0.67691101642E+01  0.44159101156E+02  0.00000000000E+00 0.  1.
</event>
<event>
 7    1  0.2684545E-013  0.7246156E+02  0.7816164E-02  0.1226708E+00
        -11   -1    0    0    0    0  0.00000000000E+00  0.00000000000E+00  0.45593999997E+02  0.45594000000E+02  0.51100000000E-03 0. -1.
         11   -1    0    0    0    0 -0.00000000000E+00 -0.00000000000E+00 -0.45593999997E+02  0.45594000000E+02  0.51100000000E-03 0.  1.
    9900012    2    1    2    0    0 -0.84111606716E+01 -0.28117753412E-01 -0.16731138932E+02  0.72461563489E+02  0.69999991134E+02 0.  0.
         12    1    1    2    0    0  0.84111606716E+01  0.28117753412E-01  0.16731138932E+02  0.18726436511E+02  0.00000000000E+00 0. -1.
         11    1    3    3    0    0 -0.30100518710E+01 -0.81448488491E+01  0.32084166366E+01  0.92570466466E+01  0.51100000000E-03 0. -1.
        -11    1    3    3    0    0 -0.18847449021E+02 -0.20810760821E+02 -0.93686871406E+01  0.29598756723E+02  0.51100000000E-03 0.  1.
         12    1    3    3    0    0  0.13446340220E+02  0.28927491916E+02 -0.10570868428E+02  0.33605760119E+02  0.00000000000E+00 0. -1.
</event>
<event>
 7    1  0.2684545E-013  0.7246142E+02  0.7816164E-02  0.1226708E+00
        -11   -1    0    0    0    0  0.00000000000E+00  0.00000000000E+00  0.45593999997E+02  0.45594000000E+02  0.51100000000E-03 0.  1.
         11   -1    0    0    0    0 -0.00000000000E+00 -0.00000000000E+00 -0.45593999997E+02  0.45594000000E+02  0.51100000000E-03 0. -1.
    9900012    2    1    2    0    0  0.16778127304E+02  0.17315016681E+01  0.81351865013E+01  0.72461416935E+02  0.69999800221E+02 0.  0.
         12    1    1    2    0    0 -0.16778127304E+02 -0.17315016681E+01 -0.81351865013E+01  0.18726583065E+02  0.00000000000E+00 0. -1.
         11    1    3    3    0    0  0.10020332161E+02  0.41063975461E+01 -0.67981282621E+01  0.12786090315E+02  0.51100000000E-03 0. -1.
        -11    1    3    3    0    0  0.74742201980E+01  0.74090420737E+01  0.35425653449E+02  0.36955849260E+02  0.51100000000E-03 0.  1.
         12    1    3    3    0    0 -0.71642505470E+00 -0.97839379518E+01 -0.20492338685E+02  0.22719477360E+02  0.00000000000E+00 0. -1.
</event>
<event>
 7    1  0.2704929E-013  0.7246151E+02  0.7816164E-02  0.1226708E+00
        -11   -1    0    0    0    0  0.00000000000E+00  0.00000000000E+00  0.45593999997E+02  0.45594000000E+02  0.51100000000E-03 0. -1.
         11   -1    0    0    0    0 -0.00000000000E+00 -0.00000000000E+00 -0.45593999997E+02  0.45594000000E+02  0.51100000000E-03 0.  1.
    9900012    2    1    2    0    0  0.80433719418E+00 -0.97236809583E+01 -0.15983881601E+02  0.72461510720E+02  0.69999922393E+02 0.  0.
         12    1    1    2    0    0 -0.80433719418E+00  0.97236809583E+01  0.15983881601E+02  0.18726489280E+02  0.00000000000E+00 0. -1.
         11    1    3    3    0    0  0.19535372052E+02  0.14101703559E+01  0.16516825201E+02  0.25620789539E+02  0.51100000000E-03 0. -1.
        -11    1    3    3    0    0 -0.15378908923E+02 -0.42715328064E+01 -0.28390704018E+01  0.16211636351E+02  0.51100000000E-03 0.  1.
        -12    1    3    3    0    0 -0.33521259349E+01 -0.68623185078E+01 -0.29661636400E+02  0.30629084830E+02  0.00000000000E+00 0.  1.
</event>
<event>
 7    1  0.2684545E-013  0.7246227E+02  0.7816164E-02  0.1226706E+00
        -11   -1    0    0    0    0  0.00000000000E+00  0.00000000000E+00  0.45593999997E+02  0.45594000000E+02  0.51100000000E-03 0. -1.
         11   -1    0    0    0    0 -0.00000000000E+00 -0.00000000000E+00 -0.45593999997E+02  0.45594000000E+02  0.51100000000E-03 0.  1.
    9900012    2    1    2    0    0 -0.11876470597E+02 -0.14457679915E+01 -0.14405276322E+02  0.72462274785E+02  0.70000917724E+02 0.  0.
         12    1    1    2    0    0  0.11876470597E+02  0.14457679915E+01  0.14405276322E+02  0.18725725215E+02  0.00000000000E+00 0. -1.
         11    1    3    3    0    0  0.11347260431E+02 -0.14181650767E+02  0.74455689519E+01  0.19629468537E+02  0.51100000000E-03 0. -1.
        -11    1    3    3    0    0 -0.29778604265E+02 -0.27866173575E+01 -0.78406765489E+01  0.30919358294E+02  0.51100000000E-03 0.  1.
        -12    1    3    3    0    0  0.65548732377E+01  0.15522500133E+02 -0.14010168725E+02  0.21913447954E+02  0.00000000000E+00 0.  1.
</event>
<event>
 7    1  0.2684545E-013  0.7246141E+02  0.7816164E-02  0.1226708E+00
        -11   -1    0    0    0    0  0.00000000000E+00  0.00000000000E+00  0.45593999997E+02  0.45594000000E+02  0.51100000000E-03 0.  1.
         11   -1    0    0    0    0 -0.00000000000E+00 -0.00000000000E+00 -0.45593999997E+02  0.45594000000E+02  0.51100000000E-03 0. -1.
    9900012    2    1    2    0    0  0.70583894745E+01  0.10841284307E+02  0.13539979035E+02  0.72461405551E+02  0.69999785391E+02 0.  0.
         12    1    1    2    0    0 -0.70583894745E+01 -0.10841284307E+02 -0.13539979035E+02  0.18726594449E+02  0.00000000000E+00 0. -1.
         11    1    3    3    0    0  0.20643746352E-01  0.10498390954E+02  0.21869759667E+01  0.10723782118E+02  0.51100000000E-03 0. -1.
        -11    1    3    3    0    0 -0.53173813580E+01 -0.18341157560E+02  0.27955968181E+02  0.33855705019E+02  0.51100000000E-03 0.  1.
         12    1    3    3    0    0  0.12355127086E+02  0.18684050914E+02 -0.16602965113E+02  0.27881918413E+02  0.00000000000E+00 0. -1.
</event>
<event>
 7    1  0.2684545E-013  0.7246151E+02  0.7816164E-02  0.1226708E+00
        -11   -1    0    0    0    0  0.00000000000E+00  0.00000000000E+00  0.45593999997E+02  0.45594000000E+02  0.51100000000E-03 0. -1.
         11   -1    0    0    0    0 -0.00000000000E+00 -0.00000000000E+00 -0.45593999997E+02  0.45594000000E+02  0.51100000000E-03 0.  1.
    9900012    2    1    2    0    0 -0.74888537571E+01  0.50585577253E+01 -0.16401513735E+02  0.72461505677E+02  0.69999915823E+02 0.  0.
         12    1    1    2    0    0  0.74888537571E+01 -0.50585577253E+01  0.16401513735E+02  0.18726494323E+02  0.00000000000E+00 0. -1.
         11    1    3    3    0    0 -0.27564855418E+02  0.14555042913E+02 -0.14877327202E+01  0.31207112608E+02  0.51100000000E-03 0. -1.
        -11    1    3    3    0    0  0.15422615242E+02  0.89170194856E+00 -0.22703819204E+02  0.27461165306E+02  0.51100000000E-03 0.  1.
         12    1    3    3    0    0  0.46533864189E+01 -0.10388187136E+02  0.77900381892E+01  0.13793227763E+02  0.00000000000E+00 0. -1.
</event>
<event>
 7    1  0.2684545E-013  0.7246162E+02  0.7816164E-02  0.1226708E+00
        -11   -1    0    0    0    0  0.00000000000E+00  0.00000000000E+00  0.45593999997E+02  0.45594000000E+02  0.51100000000E-03 0. -1.
         11   -1    0    0    0    0 -0.00000000000E+00 -0.00000000000E+00 -0.45593999997E+02  0.45594000000E+02  0.51100000000E-03 0.  1.
    9900012    2    1    2    0    0  0.49954283217E+01  0.14600190784E+02 -0.10609307814E+02  0.72461620549E+02  0.70000065466E+02 0.  0.
         12    1    1    2    0    0 -0.49954283217E+01 -0.14600190784E+02  0.10609307814E+02  0.18726379451E+02  0.00000000000E+00 0. -1.
         11    1    3    3    0    0 -0.12305311943E+01  0.13151178035E+02 -0.16943135222E+02  0.21483424358E+02  0.51100000000E-03 0. -1.
        -11    1    3    3    0    0 -0.18267212453E+02  0.21384567345E+00 -0.10650937387E+02  0.21146613163E+02  0.51100000000E-03 0.  1.
         12    1    3    3    0    0  0.24493171969E+02  0.12351670755E+01  0.16984764795E+02  0.29831583028E+02  0.00000000000E+00 0. -1.
</event>
<event>
 7    1  0.2684545E-013  0.7246164E+02  0.7816164E-02  0.1226708E+00
        -11   -1    0    0    0    0  0.00000000000E+00  0.00000000000E+00  0.45593999997E+02  0.45594000000E+02  0.51100000000E-03 0.  1.
         11   -1    0    0    0    0 -0.00000000000E+00 -0.00000000000E+00 -0.45593999997E+02  0.45594000000E+02  0.51100000000E-03 0. -1.
    9900012    2    1    2    0    0  0.17298085779E+02 -0.66170458198E+01  0.27690479025E+01  0.72461636410E+02  0.70000086128E+02 0.  0.
         12    1    1    2    0    0 -0.17298085779E+02  0.66170458198E+01 -0.27690479025E+01  0.18726363590E+02  0.00000000000E+00 0. -1.
         11    1    3    3    0    0 -0.15844387823E+02 -0.17759976552E+02 -0.77358600794E+01  0.25026084873E+02  0.51100000000E-03 0. -1.
        -11    1    3    3    0    0  0.89654185142E+01 -0.10096650918E+02  0.65642209918E+01  0.15013663323E+02  0.51100000000E-03 0.  1.
        -12    1    3    3    0    0  0.24177055088E+02  0.21239581651E+02  0.39406869901E+01  0.32421888214E+02  0.00000000000E+00 0.  1.
</event>
<event>
 7    1  0.2684545E-013  0.7246156E+02  0.7816164E-02  0.1226708E+00
        -11   -1    0    0    0    0  0.00000000000E+00  0.00000000000E+00  0.45593999997E+02  0.45594000000E+02  0.51100000000E-03 0. -1.
         11   -1    0    0    0    0 -0.00000000000E+00 -0.00000000000E+00 -0.45593999997E+02  0.45594000000E+02  0.51100000000E-03 0.  1.
    9900012    2    1    2    0    0  0.13535954147E+01 -0.11986804267E+02 -0.14323539981E+02  0.72461561613E+02  0.69999988691E+02 0.  0.
         12    1    1    2    0    0 -0.13535954147E+01  0.11986804267E+02  0.14323539981E+02  0.18726438387E+02  0.00000000000E+00 0. -1.
         11    1    3    3    0    0 -0.96742498123E+01  0.57816846045E+01  0.17441233009E+02  0.20765731276E+02  0.51100000000E-03 0. -1.
        -11    1    3    3    0    0 -0.85810356665E+01 -0.86320389099E+01 -0.26895883613E+02  0.29521768654E+02  0.51100000000E-03 0.  1.
        -12    1    3    3    0    0  0.19608880894E+02 -0.91364499611E+01 -0.48688893762E+01  0.22174061684E+02  0.00000000000E+00 0.  1.
</event>
<event>
 7    1  0.2684545E-013  0.7246183E+02  0.7816164E-02  0.1226707E+00
        -11   -1    0    0    0    0  0.00000000000E+00  0.00000000000E+00  0.45593999997E+02  0.45594000000E+02  0.51100000000E-03 0.  1.
         11   -1    0    0    0    0 -0.00000000000E+00 -0.00000000000E+00 -0.45593999997E+02  0.45594000000E+02  0.51100000000E-03 0. -1.
    9900012    2    1    2    0    0  0.15973370162E+02 -0.75324904096E+01  0.62275703540E+01  0.72461825841E+02  0.70000332896E+02 0.  0.
         12    1    1    2    0    0 -0.15973370162E+02  0.75324904096E+01 -0.62275703540E+01  0.18726174159E+02  0.00000000000E+00 0. -1.
         11    1    3    3    0    0  0.13806437791E+02 -0.80592305241E+01 -0.10794315528E+02  0.19289535222E+02  0.51100000000E-03 0. -1.
        -11    1    3    3    0    0  0.22144614403E+02 -0.13518113111E+02  0.82700140416E+01  0.27230799872E+02  0.51100000000E-03 0.  1.
         12    1    3    3    0    0 -0.19977682032E+02  0.14044853225E+02  0.87518718403E+01  0.25941490747E+02  0.00000000000E+00 0. -1.
</event>
<event>
 7    1  0.2684545E-013  0.7246164E+02  0.7816164E-02  0.1226708E+00
        -11   -1    0    0    0    0  0.00000000000E+00  0.00000000000E+00  0.45593999997E+02  0.45594000000E+02  0.51100000000E-03 0.  1.
         11   -1    0    0    0    0 -0.00000000000E+00 -0.00000000000E+00 -0.45593999997E+02  0.45594000000E+02  0.51100000000E-03 0. -1.
    9900012    2    1    2    0    0 -0.16269144850E+01  0.37171129123E+00  0.18651849135E+02  0.72461641674E+02  0.70000092985E+02 0.  0.
         12    1    1    2    0    0  0.16269144850E+01 -0.37171129123E+00 -0.18651849135E+02  0.18726358326E+02  0.00000000000E+00 0. -1.
         11    1    3    3    0    0 -0.97024562132E+01  0.39814570926E+01 -0.31703952465E+01  0.10956325270E+02  0.51100000000E-03 0. -1.
        -11    1    3    3    0    0 -0.21058141187E+02  0.95328375122E+01  0.18039407663E+02  0.29321332343E+02  0.51100000000E-03 0.  1.
         12    1    3    3    0    0  0.29133682915E+02 -0.13142583314E+02  0.37828367179E+01  0.32183984060E+02  0.00000000000E+00 0. -1.
</event>
<event>
 7    1  0.2684545E-013  0.7246156E+02  0.7816164E-02  0.1226708E+00
        -11   -1    0    0    0    0  0.00000000000E+00  0.00000000000E+00  0.45593999997E+02  0.45594000000E+02  0.51100000000E-03 0. -1.
         11   -1    0    0    0    0 -0.00000000000E+00 -0.00000000000E+00 -0.45593999997E+02  0.45594000000E+02  0.51100000000E-03 0.  1.
    9900012    2    1    2    0    0 -0.93004122940E+01 -0.13892038336E+02 -0.84375955710E+01  0.72461563687E+02  0.69999991393E+02 0.  0.
         12    1    1    2    0    0  0.93004122940E+01  0.13892038336E+02  0.84375955710E+01  0.18726436313E+02  0.00000000000E+00 0. -1.
         11    1    3    3    0    0 -0.10766257036E+02  0.57808164759E+01 -0.77580440205E+01  0.14474715091E+02  0.51100000000E-03 0. -1.
        -11    1    3    3    0    0 -0.25245578598E+02 -0.13338409510E+02  0.71609585077E+01  0.29436911081E+02  0.51100000000E-03 0.  1.
         12    1    3    3    0    0  0.26711423340E+02 -0.63344453021E+01 -0.78405100583E+01  0.28549937515E+02  0.00000000000E+00 0. -1.
</event>
<event>
 7    1  0.2684545E-013  0.7246168E+02  0.7816164E-02  0.1226708E+00
        -11   -1    0    0    0    0  0.00000000000E+00  0.00000000000E+00  0.45593999997E+02  0.45594000000E+02  0.51100000000E-03 0. -1.
         11   -1    0    0    0    0 -0.00000000000E+00 -0.00000000000E+00 -0.45593999997E+02  0.45594000000E+02  0.51100000000E-03 0.  1.
    9900012    2    1    2    0    0 -0.13022165455E+02  0.13303991858E+02 -0.20253903663E+01  0.72461676318E+02  0.70000138116E+02 0.  0.
         12    1    1    2    0    0  0.13022165455E+02 -0.13303991858E+02  0.20253903663E+01  0.18726323682E+02  0.00000000000E+00 0. -1.
         11    1    3    3    0    0 -0.26849144277E+01  0.35529042884E+01  0.16400161528E+02  0.16994034034E+02  0.51100000000E-03 0. -1.
        -11    1    3    3    0    0  0.16771654926E+02 -0.92740410698E+01 -0.77233303737E+01  0.20662673570E+02  0.51100000000E-03 0.  1.
        -12    1    3    3    0    0 -0.27108905954E+02  0.19025128639E+02 -0.10702221520E+02  0.34804968714E+02  0.00000000000E+00 0.  1.
</event>
<event>
 7    1  0.2684545E-013  0.7246161E+02  0.7816164E-02  0.1226708E+00
        -11   -1    0    0    0    0  0.00000000000E+00  0.00000000000E+00  0.45593999997E+02  0.45594000000E+02  0.51100000000E-03 0.  1.
         11   -1    0    0    0    0 -0.00000000000E+00 -0.00000000000E+00 -0.45593999997E+02  0.45594000000E+02  0.51100000000E-03 0. -1.
    9900012    2    1    2    0    0  0.25863907903E+01 -0.17902098047E+02  0.48479916022E+01  0.72461613419E+02  0.70000056178E+02 0.  0.
         12    1    1    2    0    0 -0.25863907903E+01  0.17902098047E+02 -0.48479916022E+01  0.18726386581E+02  0.00000000000E+00 0. -1.
         11    1    3    3    0    0 -0.48780583665E+01 -0.17990405514E+02 -0.55718393472E+01  0.19454961782E+02  0.51100000000E-03 0. -1.
        -11    1    3    3    0    0 -0.16836235870E+02 -0.15023668713E+02  0.91883874598E+01  0.24363824089E+02  0.51100000000E-03 0.  1.
         12    1    3    3    0    0  0.24300685027E+02  0.15111976180E+02  0.12314434896E+01  0.28642827548E+02  0.00000000000E+00 0. -1.
</event>
<event>
 7    1  0.2684545E-013  0.7246162E+02  0.7816164E-02  0.1226708E+00
        -11   -1    0    0    0    0  0.00000000000E+00  0.00000000000E+00  0.45593999997E+02  0.45594000000E+02  0.51100000000E-03 0.  1.
         11   -1    0    0    0    0 -0.00000000000E+00 -0.00000000000E+00 -0.45593999997E+02  0.45594000000E+02  0.51100000000E-03 0. -1.
    9900012    2    1    2    0    0  0.14854145415E+02 -0.64225009765E+01  0.94224883332E+01  0.72461616441E+02  0.70000060115E+02 0.  0.
         12    1    1    2    0    0 -0.14854145415E+02  0.64225009765E+01 -0.94224883332E+01  0.18726383559E+02  0.00000000000E+00 0. -1.
         11    1    3    3    0    0 -0.14072725538E+02  0.13724553097E+02  0.11119602121E+02  0.22584297939E+02  0.51100000000E-03 0. -1.
        -11    1    3    3    0    0  0.39226592982E+01 -0.82021877210E+01  0.14988689654E+02  0.17530657637E+02  0.51100000000E-03 0.  1.
        -12    1    3    3    0    0  0.25004211655E+02 -0.11944866353E+02 -0.16685803442E+02  0.32346660866E+02  0.00000000000E+00 0.  1.
</event>
<event>
 7    1  0.2684545E-013  0.7246159E+02  0.7816164E-02  0.1226708E+00
        -11   -1    0    0    0    0  0.00000000000E+00  0.00000000000E+00  0.45593999997E+02  0.45594000000E+02  0.51100000000E-03 0. -1.
         11   -1    0    0    0    0 -0.00000000000E+00 -0.00000000000E+00 -0.45593999997E+02  0.45594000000E+02  0.51100000000E-03 0.  1.
    9900012    2    1    2    0    0 -0.59713819097E+01  0.24429044735E+01 -0.17579907056E+02  0.72461593076E+02  0.70000029677E+02 0.  0.
         12    1    1    2    0    0  0.59713819097E+01 -0.24429044735E+01  0.17579907056E+02  0.18726406924E+02  0.00000000000E+00 0. -1.
         11    1    3    3    0    0  0.26850208340E+01  0.26026269318E+02  0.14104969787E+02  0.29724168692E+02  0.51100000000E-03 0. -1.
        -11    1    3    3    0    0  0.29485206512E+01 -0.71234763585E+00 -0.33860191785E+01  0.45460245625E+01  0.51100000000E-03 0.  1.
        -12    1    3    3    0    0 -0.11604923395E+02 -0.22871017208E+02 -0.28298857665E+02  0.38191399821E+02  0.00000000000E+00 0.  1.
</event>
<event>
 7    1  0.2684545E-013  0.7246159E+02  0.7816164E-02  0.1226708E+00
        -11   -1    0    0    0    0  0.00000000000E+00  0.00000000000E+00  0.45593999997E+02  0.45594000000E+02  0.51100000000E-03 0.  1.
         11   -1    0    0    0    0 -0.00000000000E+00 -0.00000000000E+00 -0.45593999997E+02  0.45594000000E+02  0.51100000000E-03 0. -1.
    9900012    2    1    2    0    0  0.11839578852E+01  0.17996255481E+02 -0.50409692481E+01  0.72461592481E+02  0.70000028902E+02 0.  0.
         12    1    1    2    0    0 -0.11839578852E+01 -0.17996255481E+02  0.50409692481E+01  0.18726407519E+02  0.00000000000E+00 0. -1.
         11    1    3    3    0    0 -0.12303553432E+01 -0.88494009471E+01 -0.10953534755E+02  0.14135260708E+02  0.51100000000E-03 0. -1.
        -11    1    3    3    0    0  0.17156857568E+02  0.32272849069E+02 -0.79159551171E+01  0.37397284585E+02  0.51100000000E-03 0.  1.
         12    1    3    3    0    0 -0.14742544340E+02 -0.54271926413E+01  0.13828520624E+02  0.20929047188E+02  0.00000000000E+00 0. -1.
</event>
<event>
 7    1  0.2684545E-013  0.7246153E+02  0.7816164E-02  0.1226708E+00
        -11   -1    0    0    0    0  0.00000000000E+00  0.00000000000E+00  0.45593999997E+02  0.45594000000E+02  0.51100000000E-03 0.  1.
         11   -1    0    0    0    0 -0.00000000000E+00 -0.00000000000E+00 -0.45593999997E+02  0.45594000000E+02  0.51100000000E-03 0. -1.
    9900012    2    1    2    0    0  0.18326763336E+02 -0.37277564564E+01  0.95621529647E+00  0.72461527554E+02  0.69999944323E+02 0.  0.
         12    1    1    2    0    0 -0.18326763336E+02  0.37277564564E+01 -0.95621529647E+00  0.18726472446E+02  0.00000000000E+00 0. -1.
         11    1    3    3    0    0  0.95873833358E+01 -0.12414274044E+02  0.13107386756E+02  0.20441029991E+02  0.51100000000E-03 0.  1.
        -11    1    3    3    0    0 -0.59598501373E+01 -0.16749761859E+02  0.43808432944E+01  0.18310273735E+02  0.51100000000E-03 0. -1.
         12    1    3    3    0    0  0.14699230137E+02  0.25436279447E+02 -0.16532014754E+02  0.33710223828E+02  0.00000000000E+00 0. -1.
</event>
<event>
 7    1  0.2684545E-013  0.7246160E+02  0.7816164E-02  0.1226708E+00
        -11   -1    0    0    0    0  0.00000000000E+00  0.00000000000E+00  0.45593999997E+02  0.45594000000E+02  0.51100000000E-03 0. -1.
         11   -1    0    0    0    0 -0.00000000000E+00 -0.00000000000E+00 -0.45593999997E+02  0.45594000000E+02  0.51100000000E-03 0.  1.
    9900012    2    1    2    0    0 -0.61192864243E+01 -0.15785062589E+02  0.80040046580E+01  0.72461602646E+02  0.70000042144E+02 0.  0.
         12    1    1    2    0    0  0.61192864243E+01  0.15785062589E+02 -0.80040046580E+01  0.18726397354E+02  0.00000000000E+00 0. -1.
         11    1    3    3    0    0  0.89597739135E-01  0.11021140140E+02  0.12750420923E+02  0.16853687778E+02  0.51100000000E-03 0. -1.
        -11    1    3    3    0    0 -0.14120999561E+02  0.98654276785E+01  0.24780592384E+01  0.17403162636E+02  0.51100000000E-03 0.  1.
         12    1    3    3    0    0  0.79121153971E+01 -0.36671630408E+02 -0.72244755034E+01  0.38204752232E+02  0.00000000000E+00 0. -1.
</event>
<event>
 7    1  0.2684545E-013  0.7246179E+02  0.7816164E-02  0.1226707E+00
        -11   -1    0    0    0    0  0.00000000000E+00  0.00000000000E+00  0.45593999997E+02  0.45594000000E+02  0.51100000000E-03 0. -1.
         11   -1    0    0    0    0 -0.00000000000E+00 -0.00000000000E+00 -0.45593999997E+02  0.45594000000E+02  0.51100000000E-03 0.  1.
    9900012    2    1    2    0    0  0.10694197342E+02 -0.88222000207E+01 -0.12588639550E+02  0.72461790674E+02  0.70000287085E+02 0.  0.
         12    1    1    2    0    0 -0.10694197342E+02  0.88222000207E+01  0.12588639550E+02  0.18726209326E+02  0.00000000000E+00 0. -1.
         11    1    3    3    0    0 -0.18019325006E+02  0.16588717517E+02 -0.22764341185E+01  0.24598044132E+02  0.51100000000E-03 0. -1.
        -11    1    3    3    0    0  0.51327386027E+01 -0.21754544319E+02 -0.14154693199E+01  0.22396623802E+02  0.51100000000E-03 0.  1.
        -12    1    3    3    0    0  0.23580783746E+02 -0.36563732196E+01 -0.88967361120E+01  0.25467122740E+02  0.00000000000E+00 0.  1.
</event>
<event>
 7    1  0.2684545E-013  0.7246170E+02  0.7816164E-02  0.1226708E+00
        -11   -1    0    0    0    0  0.00000000000E+00  0.00000000000E+00  0.45593999997E+02  0.45594000000E+02  0.51100000000E-03 0. -1.
         11   -1    0    0    0    0 -0.00000000000E+00 -0.00000000000E+00 -0.45593999997E+02  0.45594000000E+02  0.51100000000E-03 0.  1.
    9900012    2    1    2    0    0 -0.53689466648E+01 -0.13848605426E+01 -0.17886616980E+02  0.72461695132E+02  0.70000162624E+02 0.  0.
         12    1    1    2    0    0  0.53689466648E+01  0.13848605426E+01  0.17886616980E+02  0.18726304868E+02  0.00000000000E+00 0. -1.
         11    1    3    3    0    0 -0.60381278462E+01 -0.82398115769E+01 -0.28978206135E+02  0.30726046179E+02  0.51100000000E-03 0. -1.
        -11    1    3    3    0    0 -0.24836654885E+01  0.22349292941E+02  0.11484165762E+00  0.22487166964E+02  0.51100000000E-03 0.  1.
         12    1    3    3    0    0  0.31528466699E+01 -0.15494341907E+02  0.10976747498E+02  0.19248481989E+02  0.00000000000E+00 0. -1.
</event>
<event>
 7    1  0.2684545E-013  0.7246161E+02  0.7816164E-02  0.1226708E+00
        -11   -1    0    0    0    0  0.00000000000E+00  0.00000000000E+00  0.45593999997E+02  0.45594000000E+02  0.51100000000E-03 0.  1.
         11   -1    0    0    0    0 -0.00000000000E+00 -0.00000000000E+00 -0.45593999997E+02  0.45594000000E+02  0.51100000000E-03 0. -1.
    9900012    2    1    2    0    0  0.18030062617E+02  0.41558708345E+01 -0.28850257823E+01  0.72461607017E+02  0.70000047839E+02 0.  0.
         12    1    1    2    0    0 -0.18030062617E+02 -0.41558708345E+01  0.28850257823E+01  0.18726392983E+02  0.00000000000E+00 0. -1.
         11    1    3    3    0    0 -0.14182805339E+01 -0.27955895225E+01  0.35410742728E+00  0.31547159590E+01  0.51100000000E-03 0. -1.
        -11    1    3    3    0    0  0.39877592531E+00  0.28716410062E+02  0.17577000253E+02  0.33671088002E+02  0.51100000000E-03 0.  1.
         12    1    3    3    0    0  0.19049567226E+02 -0.21764949705E+02 -0.20816133463E+02  0.35635803056E+02  0.00000000000E+00 0. -1.
</event>
<event>
 7    1  0.2684545E-013  0.7246157E+02  0.7816164E-02  0.1226708E+00
        -11   -1    0    0    0    0  0.00000000000E+00  0.00000000000E+00  0.45593999997E+02  0.45594000000E+02  0.51100000000E-03 0. -1.
         11   -1    0    0    0    0 -0.00000000000E+00 -0.00000000000E+00 -0.45593999997E+02  0.45594000000E+02  0.51100000000E-03 0.  1.
    9900012    2    1    2    0    0  0.16871813363E+02  0.28386819378E+01  0.76133469395E+01  0.72461568067E+02  0.69999997099E+02 0.  0.
         12    1    1    2    0    0 -0.16871813363E+02 -0.28386819378E+01 -0.76133469395E+01  0.18726431933E+02  0.00000000000E+00 0. -1.
         11    1    3    3    0    0  0.21292259946E+01  0.39935457432E+01 -0.34314838565E+01  0.56795327852E+01  0.51100000000E-03 0. -1.
        -11    1    3    3    0    0  0.19233683934E+02  0.24376356360E+02 -0.10806987590E+02  0.32877535311E+02  0.51100000000E-03 0.  1.
         12    1    3    3    0    0 -0.44910965657E+01 -0.25531220166E+02  0.21851818386E+02  0.33904499971E+02  0.00000000000E+00 0. -1.
</event>
<event>
 7    1  0.2684545E-013  0.7246147E+02  0.7816164E-02  0.1226708E+00
        -11   -1    0    0    0    0  0.00000000000E+00  0.00000000000E+00  0.45593999997E+02  0.45594000000E+02  0.51100000000E-03 0. -1.
         11   -1    0    0    0    0 -0.00000000000E+00 -0.00000000000E+00 -0.45593999997E+02  0.45594000000E+02  0.51100000000E-03 0.  1.
    9900012    2    1    2    0    0 -0.43502989835E+01  0.72812462018E+01 -0.16695547264E+02  0.72461469463E+02  0.69999868649E+02 0.  0.
         12    1    1    2    0    0  0.43502989835E+01 -0.72812462018E+01  0.16695547264E+02  0.18726530537E+02  0.00000000000E+00 0. -1.
         11    1    3    3    0    0 -0.19207841729E+02  0.14789357915E+02 -0.32874862176E+02  0.40846332207E+02  0.51100000000E-03 0. -1.
        -11    1    3    3    0    0 -0.32922332395E+01 -0.28455602109E+01 -0.26134833956E+01  0.50760524364E+01  0.51100000000E-03 0.  1.
         12    1    3    3    0    0  0.18149775985E+02 -0.46625515025E+01  0.18792798308E+02  0.26539084820E+02  0.00000000000E+00 0. -1.
</event>
<event>
 7    1  0.2684545E-013  0.7246154E+02  0.7816164E-02  0.1226708E+00
        -11   -1    0    0    0    0  0.00000000000E+00  0.00000000000E+00  0.45593999997E+02  0.45594000000E+02  0.51100000000E-03 0.  1.
         11   -1    0    0    0    0 -0.00000000000E+00 -0.00000000000E+00 -0.45593999997E+02  0.45594000000E+02  0.51100000000E-03 0. -1.
    9900012    2    1    2    0    0  0.29424577200E+01  0.82893543513E+01  0.16532056552E+02  0.72461538860E+02  0.69999959050E+02 0.  0.
         12    1    1    2    0    0 -0.29424577200E+01 -0.82893543513E+01 -0.16532056552E+02  0.18726461140E+02  0.00000000000E+00 0. -1.
         11    1    3    3    0    0 -0.15800590640E+02  0.13138166020E+02  0.38293486886E+01  0.20902965880E+02  0.51100000000E-03 0. -1.
        -11    1    3    3    0    0  0.27131524061E+01  0.20116566801E+02  0.53829899844E+01  0.21000334218E+02  0.51100000000E-03 0.  1.
        -12    1    3    3    0    0  0.16029895954E+02 -0.24965378469E+02  0.73197178792E+01  0.30558238762E+02  0.00000000000E+00 0.  1.
</event>
<event>
 7    1  0.2684545E-013  0.7246160E+02  0.7816164E-02  0.1226708E+00
        -11   -1    0    0    0    0  0.00000000000E+00  0.00000000000E+00  0.45593999997E+02  0.45594000000E+02  0.51100000000E-03 0.  1.
         11   -1    0    0    0    0 -0.00000000000E+00 -0.00000000000E+00 -0.45593999997E+02  0.45594000000E+02  0.51100000000E-03 0. -1.
    9900012    2    1    2    0    0 -0.96209185561E+01 -0.37591614439E+01  0.15620011268E+02  0.72461598300E+02  0.70000036482E+02 0.  0.
         12    1    1    2    0    0  0.96209185561E+01  0.37591614439E+01 -0.15620011268E+02  0.18726401700E+02  0.00000000000E+00 0. -1.
         11    1    3    3    0    0  0.11107795685E+02 -0.23793296136E+02 -0.30568426463E+01  0.26435740073E+02  0.51100000000E-03 0. -1.
        -11    1    3    3    0    0 -0.86468128720E+01 -0.36580626546E+01 -0.48058499598E+01  0.10547274023E+02  0.51100000000E-03 0.  1.
         12    1    3    3    0    0 -0.12081901369E+02  0.23692197347E+02  0.23482703874E+02  0.35478584203E+02  0.00000000000E+00 0. -1.
</event>
<event>
 7    1  0.2684545E-013  0.7246115E+02  0.7816164E-02  0.1226709E+00
        -11   -1    0    0    0    0  0.00000000000E+00  0.00000000000E+00  0.45593999997E+02  0.45594000000E+02  0.51100000000E-03 0. -1.
         11   -1    0    0    0    0 -0.00000000000E+00 -0.00000000000E+00 -0.45593999997E+02  0.45594000000E+02  0.51100000000E-03 0.  1.
    9900012    2    1    2    0    0 -0.91616225988E+01  0.14673525183E+02 -0.71726775587E+01  0.72461148334E+02  0.69999450316E+02 0.  0.
         12    1    1    2    0    0  0.91616225988E+01 -0.14673525183E+02  0.71726775587E+01  0.18726851666E+02  0.00000000000E+00 0. -1.
         11    1    3    3    0    0 -0.40595702951E+01 -0.93230329910E+01 -0.77804599957E+01  0.12803695292E+02  0.51100000000E-03 0. -1.
        -11    1    3    3    0    0 -0.30222015311E+01  0.73191851949E+01 -0.26557856301E+02  0.27713244227E+02  0.51100000000E-03 0.  1.
         12    1    3    3    0    0 -0.20798507727E+01  0.16677372980E+02  0.27165638738E+02  0.31944208815E+02  0.00000000000E+00 0. -1.
</event>
<event>
 7    1  0.2684545E-013  0.7246164E+02  0.7816164E-02  0.1226708E+00
        -11   -1    0    0    0    0  0.00000000000E+00  0.00000000000E+00  0.45593999997E+02  0.45594000000E+02  0.51100000000E-03 0.  1.
         11   -1    0    0    0    0 -0.00000000000E+00 -0.00000000000E+00 -0.45593999997E+02  0.45594000000E+02  0.51100000000E-03 0. -1.
    9900012    2    1    2    0    0 -0.49569100494E+01  0.45999776076E+01  0.17462700873E+02  0.72461636952E+02  0.70000086834E+02 0.  0.
         12    1    1    2    0    0  0.49569100494E+01 -0.45999776076E+01 -0.17462700873E+02  0.18726363048E+02  0.00000000000E+00 0. -1.
         11    1    3    3    0    0  0.24341776513E+01  0.53603371462E+01 -0.46884012924E+01  0.75259246673E+01  0.51100000000E-03 0. -1.
        -11    1    3    3    0    0 -0.19604943871E+02  0.12891494176E+02 -0.11870940600E+02  0.26295696934E+02  0.51100000000E-03 0.  1.
        -12    1    3    3    0    0  0.12213856170E+02 -0.13651853714E+02  0.34022042765E+02  0.38640015351E+02  0.00000000000E+00 0.  1.
</event>
<event>
 7    1  0.2684545E-013  0.7246158E+02  0.7816164E-02  0.1226708E+00
        -11   -1    0    0    0    0  0.00000000000E+00  0.00000000000E+00  0.45593999997E+02  0.45594000000E+02  0.51100000000E-03 0.  1.
         11   -1    0    0    0    0 -0.00000000000E+00 -0.00000000000E+00 -0.45593999997E+02  0.45594000000E+02  0.51100000000E-03 0. -1.
    9900012    2    1    2    0    0 -0.17261546885E+02 -0.52330047909E+01  0.50332423986E+01  0.72461578317E+02  0.70000010451E+02 0.  0.
         12    1    1    2    0    0  0.17261546885E+02  0.52330047909E+01 -0.50332423986E+01  0.18726421683E+02  0.00000000000E+00 0. -1.
         11    1    3    3    0    0 -0.22707350610E+02  0.57012077048E+01 -0.48175080609E+01  0.23902634273E+02  0.51100000000E-03 0. -1.
        -11    1    3    3    0    0 -0.27951163091E+01  0.10688217241E+02 -0.12295236452E+02  0.16529473756E+02  0.51100000000E-03 0.  1.
        -12    1    3    3    0    0  0.82409200339E+01 -0.21622429736E+02  0.22145986912E+02  0.32029470289E+02  0.00000000000E+00 0.  1.
</event>
<event>
 7    1  0.2684545E-013  0.7246204E+02  0.7816164E-02  0.1226707E+00
        -11   -1    0    0    0    0  0.00000000000E+00  0.00000000000E+00  0.45593999997E+02  0.45594000000E+02  0.51100000000E-03 0.  1.
         11   -1    0    0    0    0 -0.00000000000E+00 -0.00000000000E+00 -0.45593999997E+02  0.45594000000E+02  0.51100000000E-03 0. -1.
    9900012    2    1    2    0    0  0.17898879612E+02 -0.32422316950E+01  0.44474153017E+01  0.72462043133E+02  0.70000615957E+02 0.  0.
         12    1    1    2    0    0 -0.17898879612E+02  0.32422316950E+01 -0.44474153017E+01  0.18725956867E+02  0.00000000000E+00 0. -1.
         11    1    3    3    0    0 -0.29781782837E+01 -0.47105612140E+01 -0.51345190110E+01  0.75777449532E+01  0.51100000000E-03 0. -1.
        -11    1    3    3    0    0  0.79803583453E+00 -0.17950967130E+02  0.26655369021E+02  0.32146271635E+02  0.51100000000E-03 0.  1.
         12    1    3    3    0    0  0.20079022061E+02  0.19419296649E+02 -0.17073434708E+02  0.32738026545E+02  0.00000000000E+00 0. -1.
</event>
<event>
 7    1  0.2684545E-013  0.7246155E+02  0.7816164E-02  0.1226708E+00
        -11   -1    0    0    0    0  0.00000000000E+00  0.00000000000E+00  0.45593999997E+02  0.45594000000E+02  0.51100000000E-03 0.  1.
         11   -1    0    0    0    0 -0.00000000000E+00 -0.00000000000E+00 -0.45593999997E+02  0.45594000000E+02  0.51100000000E-03 0. -1.
    9900012    2    1    2    0    0  0.64762338621E+01  0.37073762271E+01  0.17175377342E+02  0.72461552650E+02  0.69999977015E+02 0.  0.
         12    1    1    2    0    0 -0.64762338621E+01 -0.37073762271E+01 -0.17175377342E+02  0.18726447350E+02  0.00000000000E+00 0. -1.
         11    1    3    3    0    0  0.12211014549E+02 -0.40419423163E+01 -0.13718529761E+02  0.18805430946E+02  0.51100000000E-03 0. -1.
        -11    1    3    3    0    0 -0.42251725236E+01 -0.50678815855E+01 -0.93216101373E+01  0.11420504474E+02  0.51100000000E-03 0.  1.
        -12    1    3    3    0    0 -0.15096081630E+01  0.12817200129E+02  0.40215517240E+02  0.42235617230E+02  0.00000000000E+00 0.  1.
</event>
<event>
 7    1  0.2684545E-013  0.7246155E+02  0.7816164E-02  0.1226708E+00
        -11   -1    0    0    0    0  0.00000000000E+00  0.00000000000E+00  0.45593999997E+02  0.45594000000E+02  0.51100000000E-03 0. -1.
         11   -1    0    0    0    0 -0.00000000000E+00 -0.00000000000E+00 -0.45593999997E+02  0.45594000000E+02  0.51100000000E-03 0.  1.
    9900012    2    1    2    0    0 -0.41350876244E+01 -0.16919448151E+02 -0.68784695297E+01  0.72461547627E+02  0.69999970471E+02 0.  0.
         12    1    1    2    0    0  0.41350876244E+01  0.16919448151E+02  0.68784695297E+01  0.18726452373E+02  0.00000000000E+00 0. -1.
         11    1    3    3    0    0 -0.11586898469E+02  0.11960842213E+02 -0.17198584817E+01  0.16741441874E+02  0.51100000000E-03 0. -1.
        -11    1    3    3    0    0  0.21527647967E+02 -0.38515441536E+01 -0.13644920301E+02  0.25777080316E+02  0.51100000000E-03 0.  1.
         12    1    3    3    0    0 -0.14075837122E+02 -0.25028746210E+02  0.84863092529E+01  0.29943025436E+02  0.00000000000E+00 0. -1.
</event>
<event>
 7    1  0.2684545E-013  0.7246152E+02  0.7816164E-02  0.1226708E+00
        -11   -1    0    0    0    0  0.00000000000E+00  0.00000000000E+00  0.45593999997E+02  0.45594000000E+02  0.51100000000E-03 0. -1.
         11   -1    0    0    0    0 -0.00000000000E+00 -0.00000000000E+00 -0.45593999997E+02  0.45594000000E+02  0.51100000000E-03 0.  1.
    9900012    2    1    2    0    0  0.16488584163E+02  0.82894254135E+01  0.31769379331E+01  0.72461523662E+02  0.69999939253E+02 0.  0.
         12    1    1    2    0    0 -0.16488584163E+02 -0.82894254135E+01 -0.31769379331E+01  0.18726476338E+02  0.00000000000E+00 0. -1.
         11    1    3    3    0    0 -0.23955954170E+02 -0.95987986974E+01  0.48895708585E+01  0.26266567726E+02  0.51100000000E-03 0. -1.
        -11    1    3    3    0    0  0.12181391907E+02  0.11731633510E+02 -0.32775993021E+01  0.17226728971E+02  0.51100000000E-03 0.  1.
        -12    1    3    3    0    0  0.28263146426E+02  0.61565906010E+01  0.15649663767E+01  0.28968226965E+02  0.00000000000E+00 0.  1.
</event>
<event>
 7    1  0.2684545E-013  0.7246161E+02  0.7816164E-02  0.1226708E+00
        -11   -1    0    0    0    0  0.00000000000E+00  0.00000000000E+00  0.45593999997E+02  0.45594000000E+02  0.51100000000E-03 0. -1.
         11   -1    0    0    0    0 -0.00000000000E+00 -0.00000000000E+00 -0.45593999997E+02  0.45594000000E+02  0.51100000000E-03 0.  1.
    9900012    2    1    2    0    0  0.11672359267E+02  0.80301265825E+01  0.12245437600E+02  0.72461610978E+02  0.70000052998E+02 0.  0.
         12    1    1    2    0    0 -0.11672359267E+02 -0.80301265825E+01 -0.12245437600E+02  0.18726389022E+02  0.00000000000E+00 0. -1.
         11    1    3    3    0    0  0.17563769073E+01 -0.71366206893E+01  0.32503014802E+01  0.80362102185E+01  0.51100000000E-03 0.  1.
        -11    1    3    3    0    0 -0.44888511515E+01  0.16368463551E+02  0.32595728083E+02  0.36749937050E+02  0.51100000000E-03 0. -1.
        -12    1    3    3    0    0  0.14404833512E+02 -0.12017162790E+01 -0.23600591963E+02  0.27675463709E+02  0.00000000000E+00 0.  1.
</event>
<event>
 7    1  0.2684545E-013  0.7246185E+02  0.7816164E-02  0.1226707E+00
        -11   -1    0    0    0    0  0.00000000000E+00  0.00000000000E+00  0.45593999997E+02  0.45594000000E+02  0.51100000000E-03 0.  1.
         11   -1    0    0    0    0 -0.00000000000E+00 -0.00000000000E+00 -0.45593999997E+02  0.45594000000E+02  0.51100000000E-03 0. -1.
    9900012    2    1    2    0    0 -0.80158067030E+01 -0.16562946163E+02  0.34762629974E+01  0.72461848576E+02  0.70000362513E+02 0.  0.
         12    1    1    2    0    0  0.80158067030E+01  0.16562946163E+02 -0.34762629974E+01  0.18726151424E+02  0.00000000000E+00 0. -1.
         11    1    3    3    0    0  0.88709275816E+00  0.87850301233E+01  0.68129705695E-01  0.88299677092E+01  0.51100000000E-03 0. -1.
        -11    1    3    3    0    0  0.36916044647E+00 -0.46736661482E+01  0.29042825616E+02  0.29418789145E+02  0.51100000000E-03 0.  1.
         12    1    3    3    0    0 -0.92720599077E+01 -0.20674310139E+02 -0.25634692325E+02  0.34213091722E+02  0.00000000000E+00 0. -1.
</event>
<event>
 7    1  0.2684545E-013  0.7246157E+02  0.7816164E-02  0.1226708E+00
        -11   -1    0    0    0    0  0.00000000000E+00  0.00000000000E+00  0.45593999997E+02  0.45594000000E+02  0.51100000000E-03 0.  1.
         11   -1    0    0    0    0 -0.00000000000E+00 -0.00000000000E+00 -0.45593999997E+02  0.45594000000E+02  0.51100000000E-03 0. -1.
    9900012    2    1    2    0    0 -0.83745136263E+01  0.79032359991E+01  0.14767720340E+02  0.72461569967E+02  0.69999999574E+02 0.  0.
         12    1    1    2    0    0  0.83745136263E+01 -0.79032359991E+01 -0.14767720340E+02  0.18726430033E+02  0.00000000000E+00 0. -1.
         11    1    3    3    0    0  0.99723413269E+01 -0.38939814906E+01 -0.12754127192E+02  0.16651679917E+02  0.51100000000E-03 0. -1.
        -11    1    3    3    0    0 -0.91051285192E+01 -0.16006117502E+02  0.56977413035E+01  0.19275980366E+02  0.51100000000E-03 0.  1.
         12    1    3    3    0    0 -0.92417264340E+01  0.27803334992E+02  0.21824106228E+02  0.36533909684E+02  0.00000000000E+00 0. -1.
</event>
<event>
 7    1  0.2684545E-013  0.7246155E+02  0.7816164E-02  0.1226708E+00
        -11   -1    0    0    0    0  0.00000000000E+00  0.00000000000E+00  0.45593999997E+02  0.45594000000E+02  0.51100000000E-03 0. -1.
         11   -1    0    0    0    0 -0.00000000000E+00 -0.00000000000E+00 -0.45593999997E+02  0.45594000000E+02  0.51100000000E-03 0.  1.
    9900012    2    1    2    0    0 -0.37140423585E+01  0.17432077344E+02 -0.57452902318E+01  0.72461553700E+02  0.69999978383E+02 0.  0.
         12    1    1    2    0    0  0.37140423585E+01 -0.17432077344E+02  0.57452902318E+01  0.18726446300E+02  0.00000000000E+00 0. -1.
         11    1    3    3    0    0 -0.25314717489E+02  0.85798194643E+01  0.88132357186E+01  0.28144650427E+02  0.51100000000E-03 0. -1.
        -11    1    3    3    0    0  0.16795469388E+00 -0.29534899880E+01  0.95311044267E+01  0.99796424656E+01  0.51100000000E-03 0.  1.
        -12    1    3    3    0    0  0.21432720436E+02  0.11805747868E+02 -0.24089630377E+02  0.34337260807E+02  0.00000000000E+00 0.  1.
</event>
<event>
 7    1  0.2684545E-013  0.7246157E+02  0.7816164E-02  0.1226708E+00
        -11   -1    0    0    0    0  0.00000000000E+00  0.00000000000E+00  0.45593999997E+02  0.45594000000E+02  0.51100000000E-03 0.  1.
         11   -1    0    0    0    0 -0.00000000000E+00 -0.00000000000E+00 -0.45593999997E+02  0.45594000000E+02  0.51100000000E-03 0. -1.
    9900012    2    1    2    0    0  0.13410355996E+02  0.12690448178E+02 -0.31295390309E+01  0.72461571151E+02  0.70000001116E+02 0.  0.
         12    1    1    2    0    0 -0.13410355996E+02 -0.12690448178E+02  0.31295390309E+01  0.18726428849E+02  0.00000000000E+00 0. -1.
         11    1    3    3    0    0  0.13271928745E+02  0.14858607128E+02 -0.43142927867E+00  0.19927579630E+02  0.51100000000E-03 0. -1.
        -11    1    3    3    0    0  0.10979177398E+02 -0.24896223896E+02 -0.81074181016E-02  0.27209637385E+02  0.51100000000E-03 0.  1.
         12    1    3    3    0    0 -0.10840750147E+02  0.22728064945E+02 -0.26900023341E+01  0.25324354137E+02  0.00000000000E+00 0. -1.
</event>
<event>
 7    1  0.2684545E-013  0.7246158E+02  0.7816164E-02  0.1226708E+00
        -11   -1    0    0    0    0  0.00000000000E+00  0.00000000000E+00  0.45593999997E+02  0.45594000000E+02  0.51100000000E-03 0. -1.
         11   -1    0    0    0    0 -0.00000000000E+00 -0.00000000000E+00 -0.45593999997E+02  0.45594000000E+02  0.51100000000E-03 0.  1.
    9900012    2    1    2    0    0  0.13394078676E+02 -0.10945311162E+02 -0.71748031567E+01  0.72461575346E+02  0.70000006580E+02 0.  0.
         12    1    1    2    0    0 -0.13394078676E+02  0.10945311162E+02  0.71748031567E+01  0.18726424654E+02  0.00000000000E+00 0. -1.
         11    1    3    3    0    0  0.27256792371E+02 -0.17490520834E+02 -0.66760179250E+01  0.33066905888E+02  0.51100000000E-03 0. -1.
        -11    1    3    3    0    0 -0.16280520513E+02 -0.11272672900E+02 -0.58250627473E+01  0.20641217473E+02  0.51100000000E-03 0.  1.
        -12    1    3    3    0    0  0.24178068176E+01  0.17817882573E+02  0.53262775155E+01  0.18753451985E+02  0.00000000000E+00 0.  1.
</event>
<event>
 7    1  0.2684545E-013  0.7246163E+02  0.7816164E-02  0.1226708E+00
        -11   -1    0    0    0    0  0.00000000000E+00  0.00000000000E+00  0.45593999997E+02  0.45594000000E+02  0.51100000000E-03 0.  1.
         11   -1    0    0    0    0 -0.00000000000E+00 -0.00000000000E+00 -0.45593999997E+02  0.45594000000E+02  0.51100000000E-03 0. -1.
    9900012    2    1    2    0    0  0.14630411124E+02 -0.13673451492E+01  0.11608546779E+02  0.72461630337E+02  0.70000078217E+02 0.  0.
         12    1    1    2    0    0 -0.14630411124E+02  0.13673451492E+01 -0.11608546779E+02  0.18726369663E+02  0.00000000000E+00 0. -1.
         11    1    3    3    0    0 -0.58951467402E+01  0.84799523212E+01  0.19859517656E+01  0.10516955412E+02  0.51100000000E-03 0. -1.
        -11    1    3    3    0    0 -0.16128798936E+01  0.45085040367E+01  0.28882998751E+02  0.29277219938E+02  0.51100000000E-03 0.  1.
         12    1    3    3    0    0  0.22138437758E+02 -0.14355801507E+02 -0.19260403737E+02  0.32667454988E+02  0.00000000000E+00 0. -1.
</event>
<event>
 7    1  0.2684545E-013  0.7246182E+02  0.7816164E-02  0.1226707E+00
        -11   -1    0    0    0    0  0.00000000000E+00  0.00000000000E+00  0.45593999997E+02  0.45594000000E+02  0.51100000000E-03 0. -1.
         11   -1    0    0    0    0 -0.00000000000E+00 -0.00000000000E+00 -0.45593999997E+02  0.45594000000E+02  0.51100000000E-03 0.  1.
    9900012    2    1    2    0    0  0.18295244245E+02 -0.38035855727E+01  0.12192151758E+01  0.72461822845E+02  0.70000328994E+02 0.  0.
         12    1    1    2    0    0 -0.18295244245E+02  0.38035855727E+01 -0.12192151758E+01  0.18726177155E+02  0.00000000000E+00 0. -1.
         11    1    3    3    0    0 -0.12630094508E+02 -0.14384567334E+02  0.11004248317E+02  0.22080048595E+02  0.51100000000E-03 0. -1.
        -11    1    3    3    0    0  0.17749989047E+02 -0.12654934984E+02 -0.92077676747E+01  0.23664160167E+02  0.51100000000E-03 0.  1.
         12    1    3    3    0    0  0.13175349706E+02  0.23235916746E+02 -0.57726546605E+00  0.26717614083E+02  0.00000000000E+00 0. -1.
</event>
<event>
 7    1  0.2684545E-013  0.7246158E+02  0.7816164E-02  0.1226708E+00
        -11   -1    0    0    0    0  0.00000000000E+00  0.00000000000E+00  0.45593999997E+02  0.45594000000E+02  0.51100000000E-03 0.  1.
         11   -1    0    0    0    0 -0.00000000000E+00 -0.00000000000E+00 -0.45593999997E+02  0.45594000000E+02  0.51100000000E-03 0. -1.
    9900012    2    1    2    0    0  0.17727420598E+02 -0.18385865594E+00  0.60318920285E+01  0.72461575715E+02  0.70000007061E+02 0.  0.
         12    1    1    2    0    0 -0.17727420598E+02  0.18385865594E+00 -0.60318920285E+01  0.18726424285E+02  0.00000000000E+00 0. -1.
         11    1    3    3    0    0  0.22844970678E+02 -0.11479606161E+02 -0.20791138881E+01  0.25651447477E+02  0.51100000000E-03 0. -1.
        -11    1    3    3    0    0  0.78815127961E+00 -0.14025834524E+02 -0.80546913857E+01  0.16193309424E+02  0.51100000000E-03 0.  1.
         12    1    3    3    0    0 -0.59057013589E+01  0.25321582028E+02  0.16165697302E+02  0.30616818813E+02  0.00000000000E+00 0. -1.
</event>
<event>
 7    1  0.2684545E-013  0.7246136E+02  0.7816164E-02  0.1226709E+00
        -11   -1    0    0    0    0  0.00000000000E+00  0.00000000000E+00  0.45593999997E+02  0.45594000000E+02  0.51100000000E-03 0. -1.
         11   -1    0    0    0    0 -0.00000000000E+00 -0.00000000000E+00 -0.45593999997E+02  0.45594000000E+02  0.51100000000E-03 0.  1.
    9900012    2    1    2    0    0 -0.37664847709E+00  0.16989275846E+02 -0.78682809918E+01  0.72461355784E+02  0.69999720560E+02 0.  0.
         12    1    1    2    0    0  0.37664847709E+00 -0.16989275846E+02  0.78682809918E+01  0.18726644216E+02  0.00000000000E+00 0. -1.
         11    1    3    3    0    0 -0.16080636638E+02  0.27542785194E+02 -0.80217265534E+01  0.32886775276E+02  0.51100000000E-03 0. -1.
        -11    1    3    3    0    0  0.30850988150E+00  0.12026842704E+02  0.19430878182E+01  0.12186702356E+02  0.51100000000E-03 0.  1.
        -12    1    3    3    0    0  0.15395478279E+02 -0.22580352052E+02 -0.17896422566E+01  0.27387878152E+02  0.00000000000E+00 0.  1.
</event>
<event>
 7    1  0.2684545E-013  0.7246160E+02  0.7816164E-02  0.1226708E+00
        -11   -1    0    0    0    0  0.00000000000E+00  0.00000000000E+00  0.45593999997E+02  0.45594000000E+02  0.51100000000E-03 0. -1.
         11   -1    0    0    0    0 -0.00000000000E+00 -0.00000000000E+00 -0.45593999997E+02  0.45594000000E+02  0.51100000000E-03 0.  1.
    9900012    2    1    2    0    0  0.63865751422E+01  0.10321224344E+02 -0.14260500520E+02  0.72461604482E+02  0.70000044536E+02 0.  0.
         12    1    1    2    0    0 -0.63865751422E+01 -0.10321224344E+02  0.14260500520E+02  0.18726395518E+02  0.00000000000E+00 0. -1.
         11    1    3    3    0    0  0.18123581727E+02 -0.58963882316E+00 -0.17109209189E+02  0.24930642348E+02  0.51100000000E-03 0. -1.
        -11    1    3    3    0    0  0.14694838156E+02  0.70999693436E+01  0.10915482590E+02  0.19634041702E+02  0.51100000000E-03 0.  1.
         12    1    3    3    0    0 -0.26431844740E+02  0.38108938238E+01 -0.80667739208E+01  0.27896920432E+02  0.00000000000E+00 0. -1.
</event>
<event>
 7    1  0.2684545E-013  0.7246158E+02  0.7816164E-02  0.1226708E+00
        -11   -1    0    0    0    0  0.00000000000E+00  0.00000000000E+00  0.45593999997E+02  0.45594000000E+02  0.51100000000E-03 0. -1.
         11   -1    0    0    0    0 -0.00000000000E+00 -0.00000000000E+00 -0.45593999997E+02  0.45594000000E+02  0.51100000000E-03 0.  1.
    9900012    2    1    2    0    0 -0.10536938686E+02 -0.84522861601E+01 -0.12969608617E+02  0.72461575732E+02  0.70000007083E+02 0.  0.
         12    1    1    2    0    0  0.10536938686E+02  0.84522861601E+01  0.12969608617E+02  0.18726424268E+02  0.00000000000E+00 0. -1.
         11    1    3    3    0    0  0.66909811254E+01 -0.25606247953E+01 -0.21701166989E+02  0.22853154633E+02  0.51100000000E-03 0. -1.
        -11    1    3    3    0    0 -0.72467848665E+01 -0.69653277484E+01 -0.18241698987E+02  0.20827656222E+02  0.51100000000E-03 0.  1.
         12    1    3    3    0    0 -0.99811349449E+01  0.10736663836E+01  0.26973257359E+02  0.28780764876E+02  0.00000000000E+00 0. -1.
</event>
<event>
 7    1  0.2684545E-013  0.7246157E+02  0.7816164E-02  0.1226708E+00
        -11   -1    0    0    0    0  0.00000000000E+00  0.00000000000E+00  0.45593999997E+02  0.45594000000E+02  0.51100000000E-03 0.  1.
         11   -1    0    0    0    0 -0.00000000000E+00 -0.00000000000E+00 -0.45593999997E+02  0.45594000000E+02  0.51100000000E-03 0. -1.
    9900012    2    1    2    0    0 -0.16209456182E+02 -0.62615908222E+01  0.69803560479E+01  0.72461565211E+02  0.69999993379E+02 0.  0.
         12    1    1    2    0    0  0.16209456182E+02  0.62615908222E+01 -0.69803560479E+01  0.18726434789E+02  0.00000000000E+00 0. -1.
         11    1    3    3    0    0 -0.28792190578E+02 -0.11705353335E+02 -0.72541740257E+01  0.31915961149E+02  0.51100000000E-03 0. -1.
        -11    1    3    3    0    0 -0.86195304148E+01 -0.47576395362E+01  0.13876135913E+02  0.17014070256E+02  0.51100000000E-03 0.  1.
        -12    1    3    3    0    0  0.21202264811E+02  0.10201402049E+02  0.35839416029E+00  0.23531533806E+02  0.00000000000E+00 0.  1.
</event>
<event>
 7    1  0.2684545E-013  0.7246157E+02  0.7816164E-02  0.1226708E+00
        -11   -1    0    0    0    0  0.00000000000E+00  0.00000000000E+00  0.45593999997E+02  0.45594000000E+02  0.51100000000E-03 0.  1.
         11   -1    0    0    0    0 -0.00000000000E+00 -0.00000000000E+00 -0.45593999997E+02  0.45594000000E+02  0.51100000000E-03 0. -1.
    9900012    2    1    2    0    0  0.70788204175E+01  0.12522720978E+02  0.11989622725E+02  0.72461567017E+02  0.69999995730E+02 0.  0.
         12    1    1    2    0    0 -0.70788204175E+01 -0.12522720978E+02 -0.11989622725E+02  0.18726432983E+02  0.00000000000E+00 0. -1.
         11    1    3    3    0    0 -0.52537834063E+01  0.19120320632E+02  0.10473737264E+02  0.22425166079E+02  0.51100000000E-03 0. -1.
        -11    1    3    3    0    0 -0.47154515136E+01 -0.27297899744E+01  0.22255119922E+02  0.22912389646E+02  0.51100000000E-03 0.  1.
         12    1    3    3    0    0  0.17048055337E+02 -0.38678096790E+01 -0.20739234461E+02  0.27124011291E+02  0.00000000000E+00 0. -1.
</event>
<event>
 7    1  0.2684545E-013  0.7246166E+02  0.7816164E-02  0.1226708E+00
        -11   -1    0    0    0    0  0.00000000000E+00  0.00000000000E+00  0.45593999997E+02  0.45594000000E+02  0.51100000000E-03 0.  1.
         11   -1    0    0    0    0 -0.00000000000E+00 -0.00000000000E+00 -0.45593999997E+02  0.45594000000E+02  0.51100000000E-03 0. -1.
    9900012    2    1    2    0    0 -0.36201889610E+01 -0.48581508044E+01  0.17719154777E+02  0.72461659104E+02  0.70000115691E+02 0.  0.
         12    1    1    2    0    0  0.36201889610E+01  0.48581508044E+01 -0.17719154777E+02  0.18726340896E+02  0.00000000000E+00 0. -1.
         11    1    3    3    0    0  0.52142610029E+01 -0.25772369813E+01  0.17821270522E+02  0.18746422366E+02  0.51100000000E-03 0. -1.
        -11    1    3    3    0    0 -0.42580960570E+01 -0.27610291833E+02  0.96875055979E+00  0.27953498440E+02  0.51100000000E-03 0.  1.
         12    1    3    3    0    0 -0.45763539069E+01  0.25329378010E+02 -0.10708663044E+01  0.25761738297E+02  0.00000000000E+00 0. -1.
</event>
<event>
 7    1  0.2684545E-013  0.7246145E+02  0.7816164E-02  0.1226708E+00
        -11   -1    0    0    0    0  0.00000000000E+00  0.00000000000E+00  0.45593999997E+02  0.45594000000E+02  0.51100000000E-03 0. -1.
         11   -1    0    0    0    0 -0.00000000000E+00 -0.00000000000E+00 -0.45593999997E+02  0.45594000000E+02  0.51100000000E-03 0.  1.
    9900012    2    1    2    0    0  0.17969588233E+02 -0.12155854439E+00  0.52690327692E+01  0.72461452425E+02  0.69999846453E+02 0.  0.
         12    1    1    2    0    0 -0.17969588233E+02  0.12155854439E+00 -0.52690327692E+01  0.18726547575E+02  0.00000000000E+00 0. -1.
         11    1    3    3    0    0 -0.69255107881E+01 -0.42525557864E+01 -0.81885376617E+01  0.11536857444E+02  0.51100000000E-03 0. -1.
        -11    1    3    3    0    0  0.63938308934E+01 -0.62357143606E+01 -0.19662851391E+02  0.21596132343E+02  0.51100000000E-03 0.  1.
         12    1    3    3    0    0  0.18501268128E+02  0.10366711603E+02  0.33120421822E+02  0.39328462638E+02  0.00000000000E+00 0. -1.
</event>
<event>
 7    1  0.2684545E-013  0.7246156E+02  0.7816164E-02  0.1226708E+00
        -11   -1    0    0    0    0  0.00000000000E+00  0.00000000000E+00  0.45593999997E+02  0.45594000000E+02  0.51100000000E-03 0.  1.
         11   -1    0    0    0    0 -0.00000000000E+00 -0.00000000000E+00 -0.45593999997E+02  0.45594000000E+02  0.51100000000E-03 0. -1.
    9900012    2    1    2    0    0  0.60525396588E+01 -0.15752705910E+02 -0.81178050237E+01  0.72461555110E+02  0.69999980220E+02 0.  0.
         12    1    1    2    0    0 -0.60525396588E+01  0.15752705910E+02  0.81178050237E+01  0.18726444890E+02  0.00000000000E+00 0. -1.
         11    1    3    3    0    0  0.13208677895E+02  0.10552592675E+02 -0.48774681095E+01  0.17595910869E+02  0.51100000000E-03 0. -1.
        -11    1    3    3    0    0  0.75482312997E+01 -0.33898487675E+01  0.18341864638E+02  0.20121900235E+02  0.51100000000E-03 0.  1.
         12    1    3    3    0    0 -0.14704369536E+02 -0.22915449817E+02 -0.21582201552E+02  0.34743744006E+02  0.00000000000E+00 0. -1.
</event>
<event>
 7    1  0.2684545E-013  0.7246153E+02  0.7816164E-02  0.1226708E+00
        -11   -1    0    0    0    0  0.00000000000E+00  0.00000000000E+00  0.45593999997E+02  0.45594000000E+02  0.51100000000E-03 0. -1.
         11   -1    0    0    0    0 -0.00000000000E+00 -0.00000000000E+00 -0.45593999997E+02  0.45594000000E+02  0.51100000000E-03 0.  1.
    9900012    2    1    2    0    0  0.65495208161E+01 -0.17538716156E+02 -0.42170918628E+00  0.72461531408E+02  0.69999949343E+02 0.  0.
         12    1    1    2    0    0 -0.65495208161E+01  0.17538716156E+02  0.42170918628E+00  0.18726468592E+02  0.00000000000E+00 0. -1.
         11    1    3    3    0    0 -0.57942419921E+01 -0.11050996311E+02 -0.32930887932E+00  0.12482235550E+02  0.51100000000E-03 0. -1.
        -11    1    3    3    0    0  0.96749132563E+01 -0.23541581180E+02 -0.20907349184E+02  0.32938233728E+02  0.51100000000E-03 0.  1.
         12    1    3    3    0    0  0.26688495518E+01  0.17053861335E+02  0.20814948877E+02  0.27041062130E+02  0.00000000000E+00 0. -1.
</event>
<event>
 7    1  0.2684545E-013  0.7246157E+02  0.7816164E-02  0.1226708E+00
        -11   -1    0    0    0    0  0.00000000000E+00  0.00000000000E+00  0.45593999997E+02  0.45594000000E+02  0.51100000000E-03 0. -1.
         11   -1    0    0    0    0 -0.00000000000E+00 -0.00000000000E+00 -0.45593999997E+02  0.45594000000E+02  0.51100000000E-03 0.  1.
    9900012    2    1    2    0    0 -0.15086727645E+02 -0.66229410321E+01 -0.88997998241E+01  0.72461571193E+02  0.70000001171E+02 0.  0.
         12    1    1    2    0    0  0.15086727645E+02  0.66229410321E+01  0.88997998241E+01  0.18726428807E+02  0.00000000000E+00 0. -1.
         11    1    3    3    0    0 -0.11166465319E+01  0.24415478391E+01 -0.19002892022E+02  0.19191611730E+02  0.51100000000E-03 0. -1.
        -11    1    3    3    0    0 -0.28464532755E+02 -0.36557835213E+01 -0.76711008134E+01  0.29705894466E+02  0.51100000000E-03 0.  1.
         12    1    3    3    0    0  0.14494451642E+02 -0.54087053500E+01  0.17774193012E+02  0.23564064997E+02  0.00000000000E+00 0. -1.
</event>
<event>
 7    1  0.2684545E-013  0.7246158E+02  0.7816164E-02  0.1226708E+00
        -11   -1    0    0    0    0  0.00000000000E+00  0.00000000000E+00  0.45593999997E+02  0.45594000000E+02  0.51100000000E-03 0. -1.
         11   -1    0    0    0    0 -0.00000000000E+00 -0.00000000000E+00 -0.45593999997E+02  0.45594000000E+02  0.51100000000E-03 0.  1.
    9900012    2    1    2    0    0 -0.67501382419E+01  0.12858463032E+02 -0.11822619851E+02  0.72461580749E+02  0.70000013620E+02 0.  0.
         12    1    1    2    0    0  0.67501382419E+01 -0.12858463032E+02  0.11822619851E+02  0.18726419251E+02  0.00000000000E+00 0. -1.
         11    1    3    3    0    0  0.12161840713E+02  0.19014543819E+01  0.22275538255E+01  0.12509512165E+02  0.51100000000E-03 0. -1.
        -11    1    3    3    0    0 -0.20099462940E+02  0.29319065212E+02 -0.19780496921E+02  0.40680020330E+02  0.51100000000E-03 0.  1.
         12    1    3    3    0    0  0.11874839848E+01 -0.18362056562E+02  0.57303232451E+01  0.19272048254E+02  0.00000000000E+00 0. -1.
</event>
<event>
 7    1  0.2684545E-013  0.7246154E+02  0.7816164E-02  0.1226708E+00
        -11   -1    0    0    0    0  0.00000000000E+00  0.00000000000E+00  0.45593999997E+02  0.45594000000E+02  0.51100000000E-03 0. -1.
         11   -1    0    0    0    0 -0.00000000000E+00 -0.00000000000E+00 -0.45593999997E+02  0.45594000000E+02  0.51100000000E-03 0.  1.
    9900012    2    1    2    0    0  0.15661208086E+02 -0.93889298328E+01  0.41539116341E+01  0.72461536800E+02  0.69999956367E+02 0.  0.
         12    1    1    2    0    0 -0.15661208086E+02  0.93889298328E+01 -0.41539116341E+01  0.18726463200E+02  0.00000000000E+00 0. -1.
         11    1    3    3    0    0  0.14396624305E+02 -0.59800882799E+01  0.10682412426E+02  0.18898099977E+02  0.51100000000E-03 0. -1.
        -11    1    3    3    0    0 -0.26540144100E+00 -0.27675307176E+02  0.21171530850E+01  0.27757438691E+02  0.51100000000E-03 0.  1.
        -12    1    3    3    0    0  0.15299852221E+01  0.24266465624E+02 -0.86456538771E+01  0.25805998132E+02  0.00000000000E+00 0.  1.
</event>
<event>
 7    1  0.2684545E-013  0.7246158E+02  0.7816164E-02  0.1226708E+00
        -11   -1    0    0    0    0  0.00000000000E+00  0.00000000000E+00  0.45593999997E+02  0.45594000000E+02  0.51100000000E-03 0. -1.
         11   -1    0    0    0    0 -0.00000000000E+00 -0.00000000000E+00 -0.45593999997E+02  0.45594000000E+02  0.51100000000E-03 0.  1.
    9900012    2    1    2    0    0  0.12355320326E+02  0.10390618873E+02 -0.94899961738E+01  0.72461576735E+02  0.70000008390E+02 0.  0.
         12    1    1    2    0    0 -0.12355320326E+02 -0.10390618873E+02  0.94899961738E+01  0.18726423265E+02  0.00000000000E+00 0. -1.
         11    1    3    3    0    0  0.11104944173E+01  0.40618576001E+01 -0.46731050493E+01  0.62904527720E+01  0.51100000000E-03 0. -1.
        -11    1    3    3    0    0  0.20880015553E+02  0.32149990263E+02 -0.10057284715E+01  0.38348512532E+02  0.51100000000E-03 0.  1.
         12    1    3    3    0    0 -0.96351896444E+01 -0.25821228990E+02 -0.38111626530E+01  0.27822611430E+02  0.00000000000E+00 0. -1.
</event>
<event>
 7    1  0.2684545E-013  0.7246159E+02  0.7816164E-02  0.1226708E+00
        -11   -1    0    0    0    0  0.00000000000E+00  0.00000000000E+00  0.45593999997E+02  0.45594000000E+02  0.51100000000E-03 0. -1.
         11   -1    0    0    0    0 -0.00000000000E+00 -0.00000000000E+00 -0.45593999997E+02  0.45594000000E+02  0.51100000000E-03 0.  1.
    9900012    2    1    2    0    0  0.79979845705E+01 -0.61004042785E+01 -0.15795431275E+02  0.72461592477E+02  0.70000028898E+02 0.  0.
         12    1    1    2    0    0 -0.79979845705E+01  0.61004042785E+01  0.15795431275E+02  0.18726407523E+02  0.00000000000E+00 0. -1.
         11    1    3    3    0    0  0.20516222880E+02 -0.27381318453E+02 -0.13214166262E+01  0.34240299994E+02  0.51100000000E-03 0. -1.
        -11    1    3    3    0    0 -0.75801089079E+01 -0.37061212875E+01  0.87621369931E+00  0.84829910268E+01  0.51100000000E-03 0.  1.
        -12    1    3    3    0    0 -0.49381294018E+01  0.24987035462E+02 -0.15350228348E+02  0.29738301457E+02  0.00000000000E+00 0.  1.
</event>
<event>
 7    1  0.2684545E-013  0.7246155E+02  0.7816164E-02  0.1226708E+00
        -11   -1    0    0    0    0  0.00000000000E+00  0.00000000000E+00  0.45593999997E+02  0.45594000000E+02  0.51100000000E-03 0. -1.
         11   -1    0    0    0    0 -0.00000000000E+00 -0.00000000000E+00 -0.45593999997E+02  0.45594000000E+02  0.51100000000E-03 0.  1.
    9900012    2    1    2    0    0 -0.13924979232E+02  0.91368500634E+01 -0.85611247375E+01  0.72461549923E+02  0.69999973463E+02 0.  0.
         12    1    1    2    0    0  0.13924979232E+02 -0.91368500634E+01  0.85611247375E+01  0.18726450077E+02  0.00000000000E+00 0. -1.
         11    1    3    3    0    0 -0.22281415713E+02  0.21836908492E+02  0.87755274010E+01  0.32408670754E+02  0.51100000000E-03 0. -1.
        -11    1    3    3    0    0 -0.12617010305E+02 -0.35471826712E+01 -0.78768054596E+01  0.15291027384E+02  0.51100000000E-03 0.  1.
        -12    1    3    3    0    0  0.20973446785E+02 -0.91528757569E+01 -0.94598466789E+01  0.24761851786E+02  0.00000000000E+00 0.  1.
</event>
<event>
 7    1  0.2684545E-013  0.7246157E+02  0.7816164E-02  0.1226708E+00
        -11   -1    0    0    0    0  0.00000000000E+00  0.00000000000E+00  0.45593999997E+02  0.45594000000E+02  0.51100000000E-03 0. -1.
         11   -1    0    0    0    0 -0.00000000000E+00 -0.00000000000E+00 -0.45593999997E+02  0.45594000000E+02  0.51100000000E-03 0.  1.
    9900012    2    1    2    0    0  0.82935135554E+00  0.18465103512E+02  0.30052363498E+01  0.72461566359E+02  0.69999994874E+02 0.  0.
         12    1    1    2    0    0 -0.82935135554E+00 -0.18465103512E+02 -0.30052363498E+01  0.18726433641E+02  0.00000000000E+00 0. -1.
         11    1    3    3    0    0 -0.11779837718E+02  0.15073749760E+02  0.49251117457E+01  0.19754473783E+02  0.51100000000E-03 0. -1.
        -11    1    3    3    0    0 -0.18394382164E+02  0.26914430491E+01  0.78693924519E+01  0.20187236034E+02  0.51100000000E-03 0.  1.
        -12    1    3    3    0    0  0.31003571238E+02  0.69991070315E+00 -0.97892678478E+01  0.32519856542E+02  0.00000000000E+00 0.  1.
</event>
<event>
 7    1  0.2684545E-013  0.7246157E+02  0.7816164E-02  0.1226708E+00
        -11   -1    0    0    0    0  0.00000000000E+00  0.00000000000E+00  0.45593999997E+02  0.45594000000E+02  0.51100000000E-03 0. -1.
         11   -1    0    0    0    0 -0.00000000000E+00 -0.00000000000E+00 -0.45593999997E+02  0.45594000000E+02  0.51100000000E-03 0.  1.
    9900012    2    1    2    0    0 -0.69182279051E+01 -0.41557430846E+00 -0.17396683780E+02  0.72461569857E+02  0.69999999431E+02 0.  0.
         12    1    1    2    0    0  0.69182279051E+01  0.41557430846E+00  0.17396683780E+02  0.18726430143E+02  0.00000000000E+00 0. -1.
         11    1    3    3    0    0 -0.13983108418E+02  0.27855678162E+01  0.14441784858E+02  0.20294133616E+02  0.51100000000E-03 0. -1.
        -11    1    3    3    0    0  0.17782887132E+02  0.72101254563E+01 -0.26426580242E+01  0.19370096168E+02  0.51100000000E-03 0.  1.
         12    1    3    3    0    0 -0.10718006619E+02 -0.10411267581E+02 -0.29195810613E+02  0.32797340073E+02  0.00000000000E+00 0. -1.
</event>
<event>
 7    1  0.2684545E-013  0.7246156E+02  0.7816164E-02  0.1226708E+00
        -11   -1    0    0    0    0  0.00000000000E+00  0.00000000000E+00  0.45593999997E+02  0.45594000000E+02  0.51100000000E-03 0. -1.
         11   -1    0    0    0    0 -0.00000000000E+00 -0.00000000000E+00 -0.45593999997E+02  0.45594000000E+02  0.51100000000E-03 0.  1.
    9900012    2    1    2    0    0 -0.15318399737E+02  0.10470487821E+01 -0.10720530130E+02  0.72461562861E+02  0.69999990317E+02 0.  0.
         12    1    1    2    0    0  0.15318399737E+02 -0.10470487821E+01  0.10720530130E+02  0.18726437139E+02  0.00000000000E+00 0. -1.
         11    1    3    3    0    0  0.10626637028E+02 -0.36497579845E+01 -0.42517191259E+01  0.12013461769E+02  0.51100000000E-03 0. -1.
        -11    1    3    3    0    0  0.43279707329E+01  0.63209670061E+01  0.19233282803E+02  0.20702780543E+02  0.51100000000E-03 0.  1.
        -12    1    3    3    0    0 -0.30273007498E+02 -0.16241602396E+01 -0.25702093807E+02  0.39745320549E+02  0.00000000000E+00 0.  1.
</event>
<event>
 7    1  0.2684545E-013  0.7246151E+02  0.7816164E-02  0.1226708E+00
        -11   -1    0    0    0    0  0.00000000000E+00  0.00000000000E+00  0.45593999997E+02  0.45594000000E+02  0.51100000000E-03 0. -1.
         11   -1    0    0    0    0 -0.00000000000E+00 -0.00000000000E+00 -0.45593999997E+02  0.45594000000E+02  0.51100000000E-03 0.  1.
    9900012    2    1    2    0    0  0.40709283779E+01  0.18251204991E+02 -0.10013207597E+01  0.72461505807E+02  0.69999915993E+02 0.  0.
         12    1    1    2    0    0 -0.40709283779E+01 -0.18251204991E+02  0.10013207597E+01  0.18726494193E+02  0.00000000000E+00 0. -1.
         11    1    3    3    0    0  0.88080934608E+01  0.11808200145E+02 -0.10196160384E+02  0.17915852978E+02  0.51100000000E-03 0. -1.
        -11    1    3    3    0    0  0.22730873464E+02  0.55526084009E+01 -0.45189321066E+01  0.23831592816E+02  0.51100000000E-03 0.  1.
         12    1    3    3    0    0 -0.27468038547E+02  0.89039644523E+00  0.13713771731E+02  0.30714060014E+02  0.00000000000E+00 0. -1.
</event>
<event>
 7    1  0.2684545E-013  0.7246188E+02  0.7816164E-02  0.1226707E+00
        -11   -1    0    0    0    0  0.00000000000E+00  0.00000000000E+00  0.45593999997E+02  0.45594000000E+02  0.51100000000E-03 0.  1.
         11   -1    0    0    0    0 -0.00000000000E+00 -0.00000000000E+00 -0.45593999997E+02  0.45594000000E+02  0.51100000000E-03 0. -1.
    9900012    2    1    2    0    0  0.28544452336E+01  0.82989646037E+00  0.18488672053E+02  0.72461879740E+02  0.70000403109E+02 0.  0.
         12    1    1    2    0    0 -0.28544452336E+01 -0.82989646037E+00 -0.18488672053E+02  0.18726120260E+02  0.00000000000E+00 0. -1.
         11    1    3    3    0    0 -0.20197214210E+01 -0.67273893922E+01 -0.71963288195E+01  0.10056052476E+02  0.51100000000E-03 0. -1.
        -11    1    3    3    0    0 -0.65168245608E+01 -0.22875076609E+02  0.64464899331E+01  0.24643363507E+02  0.51100000000E-03 0.  1.
         12    1    3    3    0    0  0.11390991215E+02  0.30432362462E+02  0.19238510939E+02  0.37762463757E+02  0.00000000000E+00 0. -1.
</event>
<event>
 7    1  0.2684545E-013  0.7246164E+02  0.7816164E-02  0.1226708E+00
        -11   -1    0    0    0    0  0.00000000000E+00  0.00000000000E+00  0.45593999997E+02  0.45594000000E+02  0.51100000000E-03 0.  1.
         11   -1    0    0    0    0 -0.00000000000E+00 -0.00000000000E+00 -0.45593999997E+02  0.45594000000E+02  0.51100000000E-03 0. -1.
    9900012    2    1    2    0    0  0.85262859931E+01  0.16287814671E+02  0.35617654849E+01  0.72461638021E+02  0.70000088227E+02 0.  0.
         12    1    1    2    0    0 -0.85262859931E+01 -0.16287814671E+02 -0.35617654849E+01  0.18726361979E+02  0.00000000000E+00 0. -1.
         11    1    3    3    0    0  0.20066953381E+02  0.17728535263E+02 -0.14333543889E+02  0.30371599583E+02  0.51100000000E-03 0. -1.
        -11    1    3    3    0    0  0.12811559811E+02  0.83813635573E+00  0.21931797211E+01  0.13024921301E+02  0.51100000000E-03 0.  1.
        -12    1    3    3    0    0 -0.24352227199E+02 -0.22788569473E+01  0.15702129653E+02  0.29065117137E+02  0.00000000000E+00 0.  1.
</event>
<event>
 7    1  0.2684545E-013  0.7246157E+02  0.7816164E-02  0.1226708E+00
        -11   -1    0    0    0    0  0.00000000000E+00  0.00000000000E+00  0.45593999997E+02  0.45594000000E+02  0.51100000000E-03 0.  1.
         11   -1    0    0    0    0 -0.00000000000E+00 -0.00000000000E+00 -0.45593999997E+02  0.45594000000E+02  0.51100000000E-03 0. -1.
    9900012    2    1    2    0    0 -0.49266683811E+01 -0.69835120682E+01  0.16662467705E+02  0.72461565952E+02  0.69999994343E+02 0.  0.
         12    1    1    2    0    0  0.49266683811E+01  0.69835120682E+01 -0.16662467705E+02  0.18726434048E+02  0.00000000000E+00 0. -1.
         11    1    3    3    0    0 -0.10481693279E+02 -0.13352084911E+02  0.22644973854E+02  0.28300864060E+02  0.51100000000E-03 0. -1.
        -11    1    3    3    0    0 -0.10699154486E+02 -0.13472915223E+02  0.19457946021E+01  0.17314082944E+02  0.51100000000E-03 0.  1.
         12    1    3    3    0    0  0.16254179384E+02  0.19841488065E+02 -0.79283007514E+01  0.26846618947E+02  0.00000000000E+00 0. -1.
</event>
<event>
 7    1  0.2684545E-013  0.7246165E+02  0.7816164E-02  0.1226708E+00
        -11   -1    0    0    0    0  0.00000000000E+00  0.00000000000E+00  0.45593999997E+02  0.45594000000E+02  0.51100000000E-03 0.  1.
         11   -1    0    0    0    0 -0.00000000000E+00 -0.00000000000E+00 -0.45593999997E+02  0.45594000000E+02  0.51100000000E-03 0. -1.
    9900012    2    1    2    0    0  0.86843406095E+01 -0.12215499329E+02  0.11226761379E+02  0.72461645129E+02  0.70000097486E+02 0.  0.
         12    1    1    2    0    0 -0.86843406095E+01  0.12215499329E+02 -0.11226761379E+02  0.18726354871E+02  0.00000000000E+00 0. -1.
         11    1    3    3    0    0  0.13855891297E+01 -0.79717157767E+01  0.22430501251E+02  0.23845240537E+02  0.51100000000E-03 0. -1.
        -11    1    3    3    0    0  0.36250148231E+01  0.12573678735E+02  0.13308043963E+02  0.18663926805E+02  0.51100000000E-03 0.  1.
         12    1    3    3    0    0  0.36737366567E+01 -0.16817462288E+02 -0.24511783834E+02  0.29952477787E+02  0.00000000000E+00 0. -1.
</event>
<event>
 7    1  0.2684545E-013  0.7246147E+02  0.7816164E-02  0.1226708E+00
        -11   -1    0    0    0    0  0.00000000000E+00  0.00000000000E+00  0.45593999997E+02  0.45594000000E+02  0.51100000000E-03 0.  1.
         11   -1    0    0    0    0 -0.00000000000E+00 -0.00000000000E+00 -0.45593999997E+02  0.45594000000E+02  0.51100000000E-03 0. -1.
    9900012    2    1    2    0    0 -0.15857513655E+01 -0.16693822614E+02  0.83357460718E+01  0.72461468462E+02  0.69999867345E+02 0.  0.
         12    1    1    2    0    0  0.15857513655E+01  0.16693822614E+02 -0.83357460718E+01  0.18726531538E+02  0.00000000000E+00 0. -1.
         11    1    3    3    0    0  0.45815022541E+01  0.24908756532E+02 -0.12285182381E+01  0.25356371432E+02  0.51100000000E-03 0. -1.
        -11    1    3    3    0    0 -0.42613441016E+01 -0.27172028803E+01 -0.33771739362E+01  0.60784495639E+01  0.51100000000E-03 0.  1.
        -12    1    3    3    0    0 -0.19059095180E+01 -0.38885376266E+02  0.12941438246E+02  0.41026647466E+02  0.00000000000E+00 0.  1.
</event>
<event>
 7    1  0.2684545E-013  0.7246160E+02  0.7816164E-02  0.1226708E+00
        -11   -1    0    0    0    0  0.00000000000E+00  0.00000000000E+00  0.45593999997E+02  0.45594000000E+02  0.51100000000E-03 0. -1.
         11   -1    0    0    0    0 -0.00000000000E+00 -0.00000000000E+00 -0.45593999997E+02  0.45594000000E+02  0.51100000000E-03 0.  1.
    9900012    2    1    2    0    0  0.92736168656E+00  0.82789089037E+01 -0.16771341777E+02  0.72461595184E+02  0.70000032423E+02 0.  0.
         12    1    1    2    0    0 -0.92736168656E+00 -0.82789089037E+01  0.16771341777E+02  0.18726404816E+02  0.00000000000E+00 0. -1.
         11    1    3    3    0    0  0.92403602398E+00 -0.11055675300E+02 -0.10167807804E+02  0.15048791138E+02  0.51100000000E-03 0. -1.
        -11    1    3    3    0    0 -0.22911771920E+02 -0.51587194725E+01 -0.23434957285E+01  0.23601984061E+02  0.51100000000E-03 0.  1.
         12    1    3    3    0    0  0.22915097583E+02  0.24493303676E+02 -0.42600382451E+01  0.33810819985E+02  0.00000000000E+00 0. -1.
</event>
<event>
 7    1  0.2684545E-013  0.7246165E+02  0.7816164E-02  0.1226708E+00
        -11   -1    0    0    0    0  0.00000000000E+00  0.00000000000E+00  0.45593999997E+02  0.45594000000E+02  0.51100000000E-03 0.  1.
         11   -1    0    0    0    0 -0.00000000000E+00 -0.00000000000E+00 -0.45593999997E+02  0.45594000000E+02  0.51100000000E-03 0. -1.
    9900012    2    1    2    0    0 -0.13700222780E+02  0.94097807172E+01 -0.86276435197E+01  0.72461646642E+02  0.70000099457E+02 0.  0.
         12    1    1    2    0    0  0.13700222780E+02 -0.94097807172E+01  0.86276435197E+01  0.18726353358E+02  0.00000000000E+00 0. -1.
         11    1    3    3    0    0  0.10663930609E+02 -0.38312100045E+01 -0.58916201946E+01  0.12771404579E+02  0.51100000000E-03 0. -1.
        -11    1    3    3    0    0  0.13416179349E+02  0.68780013632E+01  0.11349153969E+02  0.18870719837E+02  0.51100000000E-03 0.  1.
         12    1    3    3    0    0 -0.37780332738E+02  0.63629893585E+01 -0.14085177294E+02  0.40819522227E+02  0.00000000000E+00 0. -1.
</event>
<event>
 7    1  0.2684545E-013  0.7246152E+02  0.7816164E-02  0.1226708E+00
        -11   -1    0    0    0    0  0.00000000000E+00  0.00000000000E+00  0.45593999997E+02  0.45594000000E+02  0.51100000000E-03 0. -1.
         11   -1    0    0    0    0 -0.00000000000E+00 -0.00000000000E+00 -0.45593999997E+02  0.45594000000E+02  0.51100000000E-03 0.  1.
    9900012    2    1    2    0    0  0.43277050766E+01 -0.83972089926E+01 -0.16169073051E+02  0.72461519460E+02  0.69999933779E+02 0.  0.
         12    1    1    2    0    0 -0.43277050766E+01  0.83972089926E+01  0.16169073051E+02  0.18726480540E+02  0.00000000000E+00 0. -1.
         11    1    3    3    0    0 -0.16014311684E+02  0.11195252069E+01  0.16710874296E+02  0.23172501708E+02  0.51100000000E-03 0. -1.
        -11    1    3    3    0    0  0.15107582272E+02 -0.92773162712E+00 -0.24374774590E+00  0.15138003214E+02  0.51100000000E-03 0.  1.
        -12    1    3    3    0    0  0.52344344885E+01 -0.85890025724E+01 -0.32636199601E+02  0.34151014538E+02  0.00000000000E+00 0.  1.
</event>
<event>
 7    1  0.2684545E-013  0.7246157E+02  0.7816164E-02  0.1226708E+00
        -11   -1    0    0    0    0  0.00000000000E+00  0.00000000000E+00  0.45593999997E+02  0.45594000000E+02  0.51100000000E-03 0. -1.
         11   -1    0    0    0    0 -0.00000000000E+00 -0.00000000000E+00 -0.45593999997E+02  0.45594000000E+02  0.51100000000E-03 0.  1.
    9900012    2    1    2    0    0  0.16177830199E+02  0.94227337384E+01 -0.41133842905E+00  0.72461566801E+02  0.69999995449E+02 0.  0.
         12    1    1    2    0    0 -0.16177830199E+02 -0.94227337384E+01  0.41133842905E+00  0.18726433199E+02  0.00000000000E+00 0. -1.
         11    1    3    3    0    0 -0.91841083300E+01 -0.63359024558E+01  0.16643568797E+01  0.11281027871E+02  0.51100000000E-03 0. -1.
        -11    1    3    3    0    0  0.65696407864E+01 -0.13159531015E+02 -0.17956989600E+02  0.23211783912E+02  0.51100000000E-03 0.  1.
         12    1    3    3    0    0  0.18792297743E+02  0.28918167210E+02  0.15881294291E+02  0.37968755018E+02  0.00000000000E+00 0. -1.
</event>
<event>
 7    1  0.2684545E-013  0.7246156E+02  0.7816164E-02  0.1226708E+00
        -11   -1    0    0    0    0  0.00000000000E+00  0.00000000000E+00  0.45593999997E+02  0.45594000000E+02  0.51100000000E-03 0. -1.
         11   -1    0    0    0    0 -0.00000000000E+00 -0.00000000000E+00 -0.45593999997E+02  0.45594000000E+02  0.51100000000E-03 0.  1.
    9900012    2    1    2    0    0  0.91540727351E+01 -0.15748409396E+02 -0.43439764853E+01  0.72461559392E+02  0.69999985798E+02 0.  0.
         12    1    1    2    0    0 -0.91540727351E+01  0.15748409396E+02  0.43439764853E+01  0.18726440608E+02  0.00000000000E+00 0. -1.
         11    1    3    3    0    0  0.36846685504E+02 -0.27440187688E+01  0.46601459087E+00  0.36951658170E+02  0.51100000000E-03 0. -1.
        -11    1    3    3    0    0 -0.64437845380E+01  0.37384665942E+01 -0.39765241305E+01  0.84445980408E+01  0.51100000000E-03 0.  1.
        -12    1    3    3    0    0 -0.21248828231E+02 -0.16742857221E+02 -0.83346694568E+00  0.27065303181E+02  0.00000000000E+00 0.  1.
</event>
<event>
 7    1  0.2684545E-013  0.7246158E+02  0.7816164E-02  0.1226708E+00
        -11   -1    0    0    0    0  0.00000000000E+00  0.00000000000E+00  0.45593999997E+02  0.45594000000E+02  0.51100000000E-03 0.  1.
         11   -1    0    0    0    0 -0.00000000000E+00 -0.00000000000E+00 -0.45593999997E+02  0.45594000000E+02  0.51100000000E-03 0. -1.
    9900012    2    1    2    0    0 -0.56894592326E+01  0.87115984741E+01  0.15569740773E+02  0.72461582241E+02  0.70000015563E+02 0.  0.
         12    1    1    2    0    0  0.56894592326E+01 -0.87115984741E+01 -0.15569740773E+02  0.18726417759E+02  0.00000000000E+00 0. -1.
         11    1    3    3    0    0  0.12082498858E+02  0.44489586738E+01  0.94046356711E+00  0.12909859949E+02  0.51100000000E-03 0. -1.
        -11    1    3    3    0    0  0.72891205263E+01  0.21309311562E+02 -0.54795269898E+01  0.23178508442E+02  0.51100000000E-03 0.  1.
        -12    1    3    3    0    0 -0.25061078616E+02 -0.17046671762E+02  0.20108804196E+02  0.36373213850E+02  0.00000000000E+00 0.  1.
</event>
<event>
 7    1  0.2684545E-013  0.7246146E+02  0.7816164E-02  0.1226708E+00
        -11   -1    0    0    0    0  0.00000000000E+00  0.00000000000E+00  0.45593999997E+02  0.45594000000E+02  0.51100000000E-03 0. -1.
         11   -1    0    0    0    0 -0.00000000000E+00 -0.00000000000E+00 -0.45593999997E+02  0.45594000000E+02  0.51100000000E-03 0.  1.
    9900012    2    1    2    0    0 -0.40043798460E+00 -0.53305233510E+01 -0.17947376408E+02  0.72461464023E+02  0.69999861561E+02 0.  0.
         12    1    1    2    0    0  0.40043798460E+00  0.53305233510E+01  0.17947376408E+02  0.18726535977E+02  0.00000000000E+00 0. -1.
         11    1    3    3    0    0 -0.73231234736E+00 -0.40990752546E+01  0.10401853816E+01  0.42919325724E+01  0.51100000000E-03 0. -1.
        -11    1    3    3    0    0 -0.80672313786E+01 -0.22364271436E+02 -0.33583822119E+02  0.41147466111E+02  0.51100000000E-03 0.  1.
         12    1    3    3    0    0  0.83991057414E+01  0.21132823340E+02  0.14596260330E+02  0.27022065339E+02  0.00000000000E+00 0. -1.
</event>
<event>
 7    1  0.2684545E-013  0.7246163E+02  0.7816164E-02  0.1226708E+00
        -11   -1    0    0    0    0  0.00000000000E+00  0.00000000000E+00  0.45593999997E+02  0.45594000000E+02  0.51100000000E-03 0.  1.
         11   -1    0    0    0    0 -0.00000000000E+00 -0.00000000000E+00 -0.45593999997E+02  0.45594000000E+02  0.51100000000E-03 0. -1.
    9900012    2    1    2    0    0  0.70347756550E+01 -0.46816740775E+01  0.16711402400E+02  0.72461625261E+02  0.70000071605E+02 0.  0.
         12    1    1    2    0    0 -0.70347756550E+01  0.46816740775E+01 -0.16711402400E+02  0.18726374739E+02  0.00000000000E+00 0. -1.
         11    1    3    3    0    0 -0.32116210783E+01  0.15910318973E+02 -0.14730089662E+02  0.21918674720E+02  0.51100000000E-03 0. -1.
        -11    1    3    3    0    0  0.12887385503E+02  0.40635852802E+01  0.53093363043E+01  0.14518487617E+02  0.51100000000E-03 0.  1.
        -12    1    3    3    0    0 -0.26409887692E+01 -0.24655578331E+02  0.26132155757E+02  0.36024462925E+02  0.00000000000E+00 0.  1.
</event>
<event>
 7    1  0.2684545E-013  0.7246146E+02  0.7816164E-02  0.1226708E+00
        -11   -1    0    0    0    0  0.00000000000E+00  0.00000000000E+00  0.45593999997E+02  0.45594000000E+02  0.51100000000E-03 0.  1.
         11   -1    0    0    0    0 -0.00000000000E+00 -0.00000000000E+00 -0.45593999997E+02  0.45594000000E+02  0.51100000000E-03 0. -1.
    9900012    2    1    2    0    0  0.19423136820E+00  0.18711822043E+02  0.71635260408E+00  0.72461463453E+02  0.69999860819E+02 0.  0.
         12    1    1    2    0    0 -0.19423136820E+00 -0.18711822043E+02 -0.71635260408E+00  0.18726536547E+02  0.00000000000E+00 0. -1.
         11    1    3    3    0    0 -0.23624570801E+02  0.74068790181E+01 -0.11138120985E+01  0.24783518313E+02  0.51100000000E-03 0. -1.
        -11    1    3    3    0    0 -0.10474226534E+02  0.80185766624E+01  0.33767117014E+00  0.13195492233E+02  0.51100000000E-03 0.  1.
        -12    1    3    3    0    0  0.34293028703E+02  0.32863663630E+01  0.14924935325E+01  0.34482452907E+02  0.00000000000E+00 0.  1.
</event>
<event>
 7    1  0.2684545E-013  0.7246152E+02  0.7816164E-02  0.1226708E+00
        -11   -1    0    0    0    0  0.00000000000E+00  0.00000000000E+00  0.45593999997E+02  0.45594000000E+02  0.51100000000E-03 0. -1.
         11   -1    0    0    0    0 -0.00000000000E+00 -0.00000000000E+00 -0.45593999997E+02  0.45594000000E+02  0.51100000000E-03 0.  1.
    9900012    2    1    2    0    0  0.77003718309E+01  0.17069696412E+02  0.10321390334E+00  0.72461523689E+02  0.69999939287E+02 0.  0.
         12    1    1    2    0    0 -0.77003718309E+01 -0.17069696412E+02 -0.10321390334E+00  0.18726476311E+02  0.00000000000E+00 0. -1.
         11    1    3    3    0    0 -0.56639410458E+01 -0.72939042233E+01  0.52398931729E+01  0.10617803338E+02  0.51100000000E-03 0. -1.
        -11    1    3    3    0    0  0.14175556980E+02 -0.14307514042E+02 -0.10633474376E+02  0.22775472581E+02  0.51100000000E-03 0.  1.
         12    1    3    3    0    0 -0.81124410279E+00  0.38671114677E+02  0.54967951062E+01  0.39068247770E+02  0.00000000000E+00 0. -1.
</event>
<event>
 7    1  0.2684545E-013  0.7246147E+02  0.7816164E-02  0.1226708E+00
        -11   -1    0    0    0    0  0.00000000000E+00  0.00000000000E+00  0.45593999997E+02  0.45594000000E+02  0.51100000000E-03 0. -1.
         11   -1    0    0    0    0 -0.00000000000E+00 -0.00000000000E+00 -0.45593999997E+02  0.45594000000E+02  0.51100000000E-03 0.  1.
    9900012    2    1    2    0    0  0.40956735240E+01  0.13733980168E+02 -0.12053466836E+02  0.72461472943E+02  0.69999873181E+02 0.  0.
         12    1    1    2    0    0 -0.40956735240E+01 -0.13733980168E+02  0.12053466836E+02  0.18726527057E+02  0.00000000000E+00 0. -1.
         11    1    3    3    0    0  0.12279807249E+02  0.90910398851E+01 -0.15054519116E+02  0.21449457297E+02  0.51100000000E-03 0. -1.
        -11    1    3    3    0    0 -0.28341652576E+02 -0.15880021888E+01 -0.42493607427E+01  0.28702405625E+02  0.51100000000E-03 0.  1.
         12    1    3    3    0    0  0.20157518851E+02  0.62309424712E+01  0.72504130225E+01  0.22309610021E+02  0.00000000000E+00 0. -1.
</event>
<event>
 7    1  0.2684545E-013  0.7246156E+02  0.7816164E-02  0.1226708E+00
        -11   -1    0    0    0    0  0.00000000000E+00  0.00000000000E+00  0.45593999997E+02  0.45594000000E+02  0.51100000000E-03 0. -1.
         11   -1    0    0    0    0 -0.00000000000E+00 -0.00000000000E+00 -0.45593999997E+02  0.45594000000E+02  0.51100000000E-03 0.  1.
    9900012    2    1    2    0    0 -0.55632433232E+01  0.17202381857E+02 -0.48793410320E+01  0.72461559155E+02  0.69999985489E+02 0.  0.
         12    1    1    2    0    0  0.55632433232E+01 -0.17202381857E+02  0.48793410320E+01  0.18726440845E+02  0.00000000000E+00 0. -1.
         11    1    3    3    0    0  0.19181214756E+01  0.35169772023E+01  0.38032247918E+01  0.55238426584E+01  0.51100000000E-03 0. -1.
        -11    1    3    3    0    0 -0.12549569714E+02  0.36005784428E+02 -0.18074583073E+02  0.42197141679E+02  0.51100000000E-03 0.  1.
         12    1    3    3    0    0  0.50682049154E+01 -0.22320379774E+02  0.93920172492E+01  0.24740574818E+02  0.00000000000E+00 0. -1.
</event>
<event>
 7    1  0.2684545E-013  0.7246157E+02  0.7816164E-02  0.1226708E+00
        -11   -1    0    0    0    0  0.00000000000E+00  0.00000000000E+00  0.45593999997E+02  0.45594000000E+02  0.51100000000E-03 0. -1.
         11   -1    0    0    0    0 -0.00000000000E+00 -0.00000000000E+00 -0.45593999997E+02  0.45594000000E+02  0.51100000000E-03 0.  1.
    9900012    2    1    2    0    0  0.14986777946E+02 -0.47291523106E+01 -0.10183856049E+02  0.72461566308E+02  0.69999994808E+02 0.  0.
         12    1    1    2    0    0 -0.14986777946E+02  0.47291523106E+01  0.10183856049E+02  0.18726433692E+02  0.00000000000E+00 0. -1.
         11    1    3    3    0    0  0.44405160862E+01 -0.16431947793E+01 -0.26958377810E+02  0.27371013986E+02  0.51100000000E-03 0. -1.
        -11    1    3    3    0    0  0.17032282186E+02  0.82195035423E+01 -0.51355608855E+01  0.19596756385E+02  0.51100000000E-03 0.  1.
         12    1    3    3    0    0 -0.64860203264E+01 -0.11305461074E+02  0.21910082646E+02  0.25493795938E+02  0.00000000000E+00 0. -1.
</event>
<event>
 7    1  0.2684545E-013  0.7246144E+02  0.7816164E-02  0.1226708E+00
        -11   -1    0    0    0    0  0.00000000000E+00  0.00000000000E+00  0.45593999997E+02  0.45594000000E+02  0.51100000000E-03 0.  1.
         11   -1    0    0    0    0 -0.00000000000E+00 -0.00000000000E+00 -0.45593999997E+02  0.45594000000E+02  0.51100000000E-03 0. -1.
    9900012    2    1    2    0    0 -0.42435906477E+01 -0.15509057328E+02  0.95992262432E+01  0.72461439577E+02  0.69999829717E+02 0.  0.
         12    1    1    2    0    0  0.42435906477E+01  0.15509057328E+02 -0.95992262432E+01  0.18726560423E+02  0.00000000000E+00 0. -1.
         11    1    3    3    0    0  0.27059542654E+01  0.49558385288E+01  0.22943914168E+02  0.23628493850E+02  0.51100000000E-03 0. -1.
        -11    1    3    3    0    0 -0.18639824293E+02 -0.20364369754E+02  0.40214073913E+01  0.27898428680E+02  0.51100000000E-03 0.  1.
         12    1    3    3    0    0  0.11690279380E+02 -0.10052610341E+00 -0.17366095316E+02  0.20934517047E+02  0.00000000000E+00 0. -1.
</event>
<event>
 7    1  0.2684545E-013  0.7246157E+02  0.7816164E-02  0.1226708E+00
        -11   -1    0    0    0    0  0.00000000000E+00  0.00000000000E+00  0.45593999997E+02  0.45594000000E+02  0.51100000000E-03 0.  1.
         11   -1    0    0    0    0 -0.00000000000E+00 -0.00000000000E+00 -0.45593999997E+02  0.45594000000E+02  0.51100000000E-03 0. -1.
    9900012    2    1    2    0    0 -0.92549773698E+01  0.11687811024E+02  0.11332242486E+02  0.72461568081E+02  0.69999997117E+02 0.  0.
         12    1    1    2    0    0  0.92549773698E+01 -0.11687811024E+02 -0.11332242486E+02  0.18726431919E+02  0.00000000000E+00 0. -1.
         11    1    3    3    0    0 -0.11354883481E+02 -0.63383112252E+01 -0.64213249637E+01  0.14503136992E+02  0.51100000000E-03 0. -1.
        -11    1    3    3    0    0 -0.16849915587E+02 -0.10051996095E+02  0.13504017344E+02  0.23818496289E+02  0.51100000000E-03 0.  1.
         12    1    3    3    0    0  0.18949821698E+02  0.28078118344E+02  0.42495501060E+01  0.34139934801E+02  0.00000000000E+00 0. -1.
</event>
<event>
 7    1  0.2684545E-013  0.7246156E+02  0.7816164E-02  0.1226708E+00
        -11   -1    0    0    0    0  0.00000000000E+00  0.00000000000E+00  0.45593999997E+02  0.45594000000E+02  0.51100000000E-03 0. -1.
         11   -1    0    0    0    0 -0.00000000000E+00 -0.00000000000E+00 -0.45593999997E+02  0.45594000000E+02  0.51100000000E-03 0.  1.
    9900012    2    1    2    0    0 -0.16941573335E+02  0.67705431325E+01  0.42216542854E+01  0.72461560769E+02  0.69999987591E+02 0.  0.
         12    1    1    2    0    0  0.16941573335E+02 -0.67705431325E+01 -0.42216542854E+01  0.18726439231E+02  0.00000000000E+00 0. -1.
         11    1    3    3    0    0  0.15185200431E+01  0.97022676231E+01  0.20491150323E+02  0.22722833053E+02  0.51100000000E-03 0. -1.
        -11    1    3    3    0    0 -0.24412511224E+02 -0.13034053964E+02  0.23081081811E+01  0.27770211210E+02  0.51100000000E-03 0.  1.
        -12    1    3    3    0    0  0.59524178456E+01  0.10102329473E+02 -0.18577604218E+02  0.21968516506E+02  0.00000000000E+00 0.  1.
</event>
<event>
 7    1  0.2684545E-013  0.7246157E+02  0.7816164E-02  0.1226708E+00
        -11   -1    0    0    0    0  0.00000000000E+00  0.00000000000E+00  0.45593999997E+02  0.45594000000E+02  0.51100000000E-03 0. -1.
         11   -1    0    0    0    0 -0.00000000000E+00 -0.00000000000E+00 -0.45593999997E+02  0.45594000000E+02  0.51100000000E-03 0.  1.
    9900012    2    1    2    0    0  0.53231473992E+01 -0.34395714622E+01  0.17621369893E+02  0.72461568760E+02  0.69999998001E+02 0.  0.
         12    1    1    2    0    0 -0.53231473992E+01  0.34395714622E+01 -0.17621369893E+02  0.18726431240E+02  0.00000000000E+00 0. -1.
         11    1    3    3    0    0 -0.10357070322E+02 -0.16550387611E+02 -0.49648466615E+00  0.19530251739E+02  0.51100000000E-03 0. -1.
        -11    1    3    3    0    0 -0.13705132147E+02 -0.47414985092E+01  0.99617432989E+01  0.17593998554E+02  0.51100000000E-03 0.  1.
        -12    1    3    3    0    0  0.29385349869E+02  0.17852314658E+02  0.81561112606E+01  0.35337318467E+02  0.00000000000E+00 0.  1.
</event>
<event>
 7    1  0.2684545E-013  0.7246156E+02  0.7816164E-02  0.1226708E+00
        -11   -1    0    0    0    0  0.00000000000E+00  0.00000000000E+00  0.45593999997E+02  0.45594000000E+02  0.51100000000E-03 0.  1.
         11   -1    0    0    0    0 -0.00000000000E+00 -0.00000000000E+00 -0.45593999997E+02  0.45594000000E+02  0.51100000000E-03 0. -1.
    9900012    2    1    2    0    0 -0.11044265861E+02 -0.99688102714E+01  0.11372186559E+02  0.72461558433E+02  0.69999984548E+02 0.  0.
         12    1    1    2    0    0  0.11044265861E+02  0.99688102714E+01 -0.11372186559E+02  0.18726441567E+02  0.00000000000E+00 0. -1.
         11    1    3    3    0    0 -0.11608357603E+02  0.38503150150E+01 -0.98085971307E+00  0.12269514171E+02  0.51100000000E-03 0. -1.
        -11    1    3    3    0    0 -0.41607058761E+01  0.21939107490E+02  0.85972949438E+01  0.23928004335E+02  0.51100000000E-03 0.  1.
         12    1    3    3    0    0  0.47247976180E+01 -0.35758232776E+02  0.37557513286E+01  0.36264039927E+02  0.00000000000E+00 0. -1.
</event>
<event>
 7    1  0.2684545E-013  0.7246156E+02  0.7816164E-02  0.1226708E+00
        -11   -1    0    0    0    0  0.00000000000E+00  0.00000000000E+00  0.45593999997E+02  0.45594000000E+02  0.51100000000E-03 0.  1.
         11   -1    0    0    0    0 -0.00000000000E+00 -0.00000000000E+00 -0.45593999997E+02  0.45594000000E+02  0.51100000000E-03 0. -1.
    9900012    2    1    2    0    0 -0.15191667419E+02  0.16728294496E+01  0.10821021225E+02  0.72461558328E+02  0.69999984411E+02 0.  0.
         12    1    1    2    0    0  0.15191667419E+02 -0.16728294496E+01 -0.10821021225E+02  0.18726441672E+02  0.00000000000E+00 0. -1.
         11    1    3    3    0    0 -0.27154127276E+02  0.51847272635E+01  0.15201942839E+02  0.31548804910E+02  0.51100000000E-03 0. -1.
        -11    1    3    3    0    0  0.80740077398E+01 -0.11853044985E+01  0.17106209622E+02  0.18953019697E+02  0.51100000000E-03 0.  1.
         12    1    3    3    0    0  0.38884521168E+01 -0.23265933155E+01 -0.21487131236E+02  0.21959733721E+02  0.00000000000E+00 0. -1.
</event>
<event>
 7    1  0.2684545E-013  0.7246159E+02  0.7816164E-02  0.1226708E+00
        -11   -1    0    0    0    0  0.00000000000E+00  0.00000000000E+00  0.45593999997E+02  0.45594000000E+02  0.51100000000E-03 0. -1.
         11   -1    0    0    0    0 -0.00000000000E+00 -0.00000000000E+00 -0.45593999997E+02  0.45594000000E+02  0.51100000000E-03 0.  1.
    9900012    2    1    2    0    0  0.53839663019E+01  0.12030450271E+01 -0.17895367743E+02  0.72461585577E+02  0.70000019909E+02 0.  0.
         12    1    1    2    0    0 -0.53839663019E+01 -0.12030450271E+01  0.17895367743E+02  0.18726414423E+02  0.00000000000E+00 0. -1.
         11    1    3    3    0    0  0.28193305764E+01 -0.78029041683E-01  0.22575801221E+01  0.36126696083E+01  0.51100000000E-03 0. -1.
        -11    1    3    3    0    0 -0.12880663036E+02  0.20254290021E+02  0.13271318838E+02  0.27427643873E+02  0.51100000000E-03 0.  1.
         12    1    3    3    0    0  0.15445298761E+02 -0.18973215952E+02 -0.33424266703E+02  0.41421272096E+02  0.00000000000E+00 0. -1.
</event>
<event>
 7    1  0.2684545E-013  0.7246168E+02  0.7816164E-02  0.1226708E+00
        -11   -1    0    0    0    0  0.00000000000E+00  0.00000000000E+00  0.45593999997E+02  0.45594000000E+02  0.51100000000E-03 0. -1.
         11   -1    0    0    0    0 -0.00000000000E+00 -0.00000000000E+00 -0.45593999997E+02  0.45594000000E+02  0.51100000000E-03 0.  1.
    9900012    2    1    2    0    0 -0.17128605721E+02 -0.12957550705E+01 -0.74570104094E+01  0.72461678434E+02  0.70000140872E+02 0.  0.
         12    1    1    2    0    0  0.17128605721E+02  0.12957550705E+01  0.74570104094E+01  0.18726321566E+02  0.00000000000E+00 0. -1.
         11    1    3    3    0    0 -0.52939014201E+01  0.84050744822E+01  0.10002514423E+02  0.14096842353E+02  0.51100000000E-03 0. -1.
        -11    1    3    3    0    0  0.15044698367E+02 -0.16476339030E+02  0.47896188387E+01  0.22820016338E+02  0.51100000000E-03 0.  1.
         12    1    3    3    0    0 -0.26879402668E+02  0.67755094773E+01 -0.22249143671E+02  0.35544819743E+02  0.00000000000E+00 0. -1.
</event>
<event>
 7    1  0.2684545E-013  0.7246159E+02  0.7816164E-02  0.1226708E+00
        -11   -1    0    0    0    0  0.00000000000E+00  0.00000000000E+00  0.45593999997E+02  0.45594000000E+02  0.51100000000E-03 0. -1.
         11   -1    0    0    0    0 -0.00000000000E+00 -0.00000000000E+00 -0.45593999997E+02  0.45594000000E+02  0.51100000000E-03 0.  1.
    9900012    2    1    2    0    0 -0.12898079624E+02  0.12286724714E+02 -0.57753392311E+01  0.72461585356E+02  0.70000019620E+02 0.  0.
         12    1    1    2    0    0  0.12898079624E+02 -0.12286724714E+02  0.57753392311E+01  0.18726414644E+02  0.00000000000E+00 0. -1.
         11    1    3    3    0    0 -0.54039662704E+01 -0.20473344641E+02  0.18167479972E+01  0.21252323773E+02  0.51100000000E-03 0. -1.
        -11    1    3    3    0    0 -0.22748771262E+02  0.17444018052E+02 -0.73364860811E+01  0.29590951117E+02  0.51100000000E-03 0.  1.
         12    1    3    3    0    0  0.15254657909E+02  0.15316051303E+02 -0.25560114714E+00  0.21618310465E+02  0.00000000000E+00 0. -1.
</event>
<event>
 7    1  0.2684545E-013  0.7246156E+02  0.7816164E-02  0.1226708E+00
        -11   -1    0    0    0    0  0.00000000000E+00  0.00000000000E+00  0.45593999997E+02  0.45594000000E+02  0.51100000000E-03 0. -1.
         11   -1    0    0    0    0 -0.00000000000E+00 -0.00000000000E+00 -0.45593999997E+02  0.45594000000E+02  0.51100000000E-03 0.  1.
    9900012    2    1    2    0    0  0.24313623819E+01 -0.17129746594E+01 -0.18488749844E+02  0.72461556771E+02  0.69999982383E+02 0.  0.
         12    1    1    2    0    0 -0.24313623819E+01  0.17129746594E+01  0.18488749844E+02  0.18726443229E+02  0.00000000000E+00 0. -1.
         11    1    3    3    0    0 -0.74339853835E+00  0.31777482241E+01  0.10054015802E+02  0.10570428523E+02  0.51100000000E-03 0. -1.
        -11    1    3    3    0    0  0.62950188812E+01 -0.11967499913E+02  0.13520916328E+02  0.19122329761E+02  0.51100000000E-03 0.  1.
        -12    1    3    3    0    0 -0.31202579609E+01  0.70767770299E+01 -0.42063681973E+02  0.42768798487E+02  0.00000000000E+00 0.  1.
</event>
<event>
 7    1  0.2684545E-013  0.7246157E+02  0.7816164E-02  0.1226708E+00
        -11   -1    0    0    0    0  0.00000000000E+00  0.00000000000E+00  0.45593999997E+02  0.45594000000E+02  0.51100000000E-03 0. -1.
         11   -1    0    0    0    0 -0.00000000000E+00 -0.00000000000E+00 -0.45593999997E+02  0.45594000000E+02  0.51100000000E-03 0.  1.
    9900012    2    1    2    0    0 -0.17978383473E+02  0.13973140134E+01 -0.50501749713E+01  0.72461574127E+02  0.70000004992E+02 0.  0.
         12    1    1    2    0    0  0.17978383473E+02 -0.13973140134E+01  0.50501749713E+01  0.18726425873E+02  0.00000000000E+00 0. -1.
         11    1    3    3    0    0 -0.14695768003E+02  0.11674598004E+02 -0.55139196047E+01  0.19561828785E+02  0.51100000000E-03 0. -1.
        -11    1    3    3    0    0 -0.16374925429E+02  0.81280783300E+01 -0.16520240723E+02  0.24639849715E+02  0.51100000000E-03 0.  1.
         12    1    3    3    0    0  0.13092309960E+02 -0.18405362321E+02  0.16983985356E+02  0.28259895627E+02  0.00000000000E+00 0. -1.
</event>
<event>
 7    1  0.2684545E-013  0.7246163E+02  0.7816164E-02  0.1226708E+00
        -11   -1    0    0    0    0  0.00000000000E+00  0.00000000000E+00  0.45593999997E+02  0.45594000000E+02  0.51100000000E-03 0.  1.
         11   -1    0    0    0    0 -0.00000000000E+00 -0.00000000000E+00 -0.45593999997E+02  0.45594000000E+02  0.51100000000E-03 0. -1.
    9900012    2    1    2    0    0 -0.12979305404E+01 -0.95666337753E+01  0.16045928692E+02  0.72461630008E+02  0.70000077788E+02 0.  0.
         12    1    1    2    0    0  0.12979305404E+01  0.95666337753E+01 -0.16045928692E+02  0.18726369992E+02  0.00000000000E+00 0. -1.
         11    1    3    3    0    0  0.16152771551E+01 -0.21351353787E+02 -0.20457613150E+02  0.29614242601E+02  0.51100000000E-03 0. -1.
        -11    1    3    3    0    0  0.31607885950E+01 -0.36940802546E+01  0.14326914047E+02  0.15129351600E+02  0.51100000000E-03 0.  1.
        -12    1    3    3    0    0 -0.60739962906E+01  0.15478800266E+02  0.22176627795E+02  0.27718035806E+02  0.00000000000E+00 0.  1.
</event>
<event>
 7    1  0.2684545E-013  0.7246161E+02  0.7816164E-02  0.1226708E+00
        -11   -1    0    0    0    0  0.00000000000E+00  0.00000000000E+00  0.45593999997E+02  0.45594000000E+02  0.51100000000E-03 0.  1.
         11   -1    0    0    0    0 -0.00000000000E+00 -0.00000000000E+00 -0.45593999997E+02  0.45594000000E+02  0.51100000000E-03 0. -1.
    9900012    2    1    2    0    0 -0.10525898210E+02  0.10173293144E+02  0.11678501169E+02  0.72461606432E+02  0.70000047076E+02 0.  0.
         12    1    1    2    0    0  0.10525898210E+02 -0.10173293144E+02 -0.11678501169E+02  0.18726393568E+02  0.00000000000E+00 0. -1.
         11    1    3    3    0    0  0.14872850422E+01  0.56677147189E+01 -0.37451575328E+01  0.69542226121E+01  0.51100000000E-03 0. -1.
        -11    1    3    3    0    0  0.32752400562E+01  0.28070812619E+02  0.22972907504E+02  0.36420491457E+02  0.51100000000E-03 0.  1.
         12    1    3    3    0    0 -0.15288423308E+02 -0.23565234194E+02 -0.75492488021E+01  0.29086892363E+02  0.00000000000E+00 0. -1.
</event>
<event>
 7    1  0.2684545E-013  0.7246155E+02  0.7816164E-02  0.1226708E+00
        -11   -1    0    0    0    0  0.00000000000E+00  0.00000000000E+00  0.45593999997E+02  0.45594000000E+02  0.51100000000E-03 0. -1.
         11   -1    0    0    0    0 -0.00000000000E+00 -0.00000000000E+00 -0.45593999997E+02  0.45594000000E+02  0.51100000000E-03 0.  1.
    9900012    2    1    2    0    0 -0.58772816597E+01 -0.61091895723E+01 -0.16697760248E+02  0.72461552546E+02  0.69999976880E+02 0.  0.
         12    1    1    2    0    0  0.58772816597E+01  0.61091895723E+01  0.16697760248E+02  0.18726447454E+02  0.00000000000E+00 0. -1.
         11    1    3    3    0    0  0.15386074908E+02 -0.94239620858E+01 -0.12997343828E+02  0.22236755818E+02  0.51100000000E-03 0. -1.
        -11    1    3    3    0    0 -0.13125608430E+01 -0.57171786174E+01  0.18279090908E+02  0.19197242302E+02  0.51100000000E-03 0.  1.
        -12    1    3    3    0    0 -0.19950795725E+02  0.90319511310E+01 -0.21979507328E+02  0.31027554426E+02  0.00000000000E+00 0.  1.
</event>
<event>
 7    1  0.2684545E-013  0.7246148E+02  0.7816164E-02  0.1226708E+00
        -11   -1    0    0    0    0  0.00000000000E+00  0.00000000000E+00  0.45593999997E+02  0.45594000000E+02  0.51100000000E-03 0.  1.
         11   -1    0    0    0    0 -0.00000000000E+00 -0.00000000000E+00 -0.45593999997E+02  0.45594000000E+02  0.51100000000E-03 0. -1.
    9900012    2    1    2    0    0  0.12085839383E+02 -0.11850115757E+02  0.80118458762E+01  0.72461483202E+02  0.69999886546E+02 0.  0.
         12    1    1    2    0    0 -0.12085839383E+02  0.11850115757E+02 -0.80118458762E+01  0.18726516798E+02  0.00000000000E+00 0. -1.
         11    1    3    3    0    0  0.14166195073E+02 -0.18144987467E+01 -0.22646684889E+02  0.26773976643E+02  0.51100000000E-03 0. -1.
        -11    1    3    3    0    0 -0.35832013115E+01 -0.16353514785E+02  0.26670778774E+01  0.16952583346E+02  0.51100000000E-03 0.  1.
        -12    1    3    3    0    0  0.15028456212E+01  0.63178977747E+01  0.27991452888E+02  0.28734923213E+02  0.00000000000E+00 0.  1.
</event>
<event>
 7    1  0.2684545E-013  0.7246169E+02  0.7816164E-02  0.1226708E+00
        -11   -1    0    0    0    0  0.00000000000E+00  0.00000000000E+00  0.45593999997E+02  0.45594000000E+02  0.51100000000E-03 0. -1.
         11   -1    0    0    0    0 -0.00000000000E+00 -0.00000000000E+00 -0.45593999997E+02  0.45594000000E+02  0.51100000000E-03 0.  1.
    9900012    2    1    2    0    0  0.13599546691E+02  0.11776652780E+02 -0.51997667987E+01  0.72461687078E+02  0.70000152132E+02 0.  0.
         12    1    1    2    0    0 -0.13599546691E+02 -0.11776652780E+02  0.51997667987E+01  0.18726312922E+02  0.00000000000E+00 0. -1.
         11    1    3    3    0    0  0.18665000976E+02  0.11354376004E+02 -0.10255860545E+02  0.24134763137E+02  0.51100000000E-03 0. -1.
        -11    1    3    3    0    0 -0.68260231260E+00  0.10549123483E+01 -0.21433219941E+02  0.21470018707E+02  0.51100000000E-03 0.  1.
         12    1    3    3    0    0 -0.43828519724E+01 -0.63263557274E+00  0.26489313687E+02  0.26856905235E+02  0.00000000000E+00 0. -1.
</event>
<event>
 7    1  0.2684545E-013  0.7246201E+02  0.7816164E-02  0.1226707E+00
        -11   -1    0    0    0    0  0.00000000000E+00  0.00000000000E+00  0.45593999997E+02  0.45594000000E+02  0.51100000000E-03 0.  1.
         11   -1    0    0    0    0 -0.00000000000E+00 -0.00000000000E+00 -0.45593999997E+02  0.45594000000E+02  0.51100000000E-03 0. -1.
    9900012    2    1    2    0    0  0.10016837380E+02  0.15441074065E+02 -0.34494726011E+01  0.72462011092E+02  0.70000574218E+02 0.  0.
         12    1    1    2    0    0 -0.10016837380E+02 -0.15441074065E+02  0.34494726011E+01  0.18725988908E+02  0.00000000000E+00 0. -1.
         11    1    3    3    0    0  0.16357365818E+02  0.71348458247E+01 -0.21937350420E+02  0.28279264226E+02  0.51100000000E-03 0.  1.
        -11    1    3    3    0    0 -0.13579170274E+02 -0.10022181400E+02 -0.40656705624E+00  0.16882040231E+02  0.51100000000E-03 0. -1.
        -12    1    3    3    0    0  0.72386418353E+01  0.18328409640E+02  0.18894444876E+02  0.27300706634E+02  0.00000000000E+00 0.  1.
</event>
<event>
 7    1  0.2684545E-013  0.7246158E+02  0.7816164E-02  0.1226708E+00
        -11   -1    0    0    0    0  0.00000000000E+00  0.00000000000E+00  0.45593999997E+02  0.45594000000E+02  0.51100000000E-03 0.  1.
         11   -1    0    0    0    0 -0.00000000000E+00 -0.00000000000E+00 -0.45593999997E+02  0.45594000000E+02  0.51100000000E-03 0. -1.
    9900012    2    1    2    0    0 -0.76365610743E+01 -0.13109566505E+02  0.10977300424E+02  0.72461576860E+02  0.70000008554E+02 0.  0.
         12    1    1    2    0    0  0.76365610743E+01  0.13109566505E+02 -0.10977300424E+02  0.18726423140E+02  0.00000000000E+00 0. -1.
         11    1    3    3    0    0 -0.25450553007E+02 -0.52881695160E+01  0.93992942224E+01  0.27641311787E+02  0.51100000000E-03 0. -1.
        -11    1    3    3    0    0 -0.11685055417E+02 -0.36433140711E+01  0.76232107445E+01  0.14419694859E+02  0.51100000000E-03 0.  1.
        -12    1    3    3    0    0  0.29499047349E+02 -0.41780829180E+01 -0.60452045425E+01  0.30400570214E+02  0.00000000000E+00 0.  1.
</event>
<event>
 7    1  0.2684545E-013  0.7246158E+02  0.7816164E-02  0.1226708E+00
        -11   -1    0    0    0    0  0.00000000000E+00  0.00000000000E+00  0.45593999997E+02  0.45594000000E+02  0.51100000000E-03 0.  1.
         11   -1    0    0    0    0 -0.00000000000E+00 -0.00000000000E+00 -0.45593999997E+02  0.45594000000E+02  0.51100000000E-03 0. -1.
    9900012    2    1    2    0    0  0.12105013345E+02  0.14284703081E+02 -0.30772145145E+00  0.72461580623E+02  0.70000013455E+02 0.  0.
         12    1    1    2    0    0 -0.12105013345E+02 -0.14284703081E+02  0.30772145145E+00  0.18726419377E+02  0.00000000000E+00 0. -1.
         11    1    3    3    0    0  0.70886212381E+01 -0.86331902090E+01 -0.11422836663E+02  0.15976912152E+02  0.51100000000E-03 0. -1.
        -11    1    3    3    0    0  0.17579442654E+02 -0.70824026178E+01  0.14388895451E+02  0.23795746330E+02  0.51100000000E-03 0.  1.
        -12    1    3    3    0    0 -0.12563050547E+02  0.30000295908E+02 -0.32737802394E+01  0.32688922140E+02  0.00000000000E+00 0.  1.
</event>
<event>
 7    1  0.2684545E-013  0.7246156E+02  0.7816164E-02  0.1226708E+00
        -11   -1    0    0    0    0  0.00000000000E+00  0.00000000000E+00  0.45593999997E+02  0.45594000000E+02  0.51100000000E-03 0. -1.
         11   -1    0    0    0    0 -0.00000000000E+00 -0.00000000000E+00 -0.45593999997E+02  0.45594000000E+02  0.51100000000E-03 0.  1.
    9900012    2    1    2    0    0 -0.16013303506E+01 -0.16302858243E+02 -0.90737029908E+01  0.72461560623E+02  0.69999987401E+02 0.  0.
         12    1    1    2    0    0  0.16013303506E+01  0.16302858243E+02  0.90737029908E+01  0.18726439377E+02  0.00000000000E+00 0. -1.
         11    1    3    3    0    0  0.14634814035E+02 -0.40005524953E+01 -0.15340492378E+02  0.21575748162E+02  0.51100000000E-03 0. -1.
        -11    1    3    3    0    0  0.89064250554E+01 -0.20333462899E+02 -0.40170415779E+01  0.22559050158E+02  0.51100000000E-03 0.  1.
         12    1    3    3    0    0 -0.25142569440E+02  0.80311571512E+01  0.10283830965E+02  0.28326762303E+02  0.00000000000E+00 0. -1.
</event>
<event>
 7    1  0.2684545E-013  0.7246145E+02  0.7816164E-02  0.1226708E+00
        -11   -1    0    0    0    0  0.00000000000E+00  0.00000000000E+00  0.45593999997E+02  0.45594000000E+02  0.51100000000E-03 0. -1.
         11   -1    0    0    0    0 -0.00000000000E+00 -0.00000000000E+00 -0.45593999997E+02  0.45594000000E+02  0.51100000000E-03 0.  1.
    9900012    2    1    2    0    0 -0.39885236972E+01  0.22316044882E+01 -0.18160265564E+02  0.72461451326E+02  0.69999845022E+02 0.  0.
         12    1    1    2    0    0  0.39885236972E+01 -0.22316044882E+01  0.18160265564E+02  0.18726548674E+02  0.00000000000E+00 0. -1.
         11    1    3    3    0    0 -0.23224143568E+02 -0.10971708732E+01 -0.13375816006E+02  0.26823069967E+02  0.51100000000E-03 0. -1.
        -11    1    3    3    0    0 -0.86851023445E+01  0.64140249113E+01 -0.12490302172E+02  0.16509947514E+02  0.51100000000E-03 0.  1.
         12    1    3    3    0    0  0.27920722215E+02 -0.30852495499E+01  0.77058526138E+01  0.29128433845E+02  0.00000000000E+00 0. -1.
</event>
<event>
 7    1  0.2684545E-013  0.7246157E+02  0.7816164E-02  0.1226708E+00
        -11   -1    0    0    0    0  0.00000000000E+00  0.00000000000E+00  0.45593999997E+02  0.45594000000E+02  0.51100000000E-03 0. -1.
         11   -1    0    0    0    0 -0.00000000000E+00 -0.00000000000E+00 -0.45593999997E+02  0.45594000000E+02  0.51100000000E-03 0.  1.
    9900012    2    1    2    0    0  0.87156187596E+01 -0.16087261886E+02  0.39896503945E+01  0.72461566394E+02  0.69999994919E+02 0.  0.
         12    1    1    2    0    0 -0.87156187596E+01  0.16087261886E+02 -0.39896503945E+01  0.18726433606E+02  0.00000000000E+00 0. -1.
         11    1    3    3    0    0  0.21557207396E+02 -0.48086461706E+01 -0.79713317234E+00  0.22101395663E+02  0.51100000000E-03 0.  1.
        -11    1    3    3    0    0 -0.28298304101E+02  0.28847341860E+01  0.69577872709E+01  0.29283553581E+02  0.51100000000E-03 0. -1.
         12    1    3    3    0    0  0.15456715465E+02 -0.14163349901E+02 -0.21710037041E+01  0.21076617150E+02  0.00000000000E+00 0. -1.
</event>
<event>
 7    1  0.2684545E-013  0.7246157E+02  0.7816164E-02  0.1226708E+00
        -11   -1    0    0    0    0  0.00000000000E+00  0.00000000000E+00  0.45593999997E+02  0.45594000000E+02  0.51100000000E-03 0. -1.
         11   -1    0    0    0    0 -0.00000000000E+00 -0.00000000000E+00 -0.45593999997E+02  0.45594000000E+02  0.51100000000E-03 0.  1.
    9900012    2    1    2    0    0 -0.81047230385E+00  0.17831002884E+02 -0.56637189569E+01  0.72461568369E+02  0.69999997491E+02 0.  0.
         12    1    1    2    0    0  0.81047230385E+00 -0.17831002884E+02  0.56637189569E+01  0.18726431631E+02  0.00000000000E+00 0. -1.
         11    1    3    3    0    0  0.25712943807E+02 -0.19094150221E+01 -0.16076534433E+02  0.30385132953E+02  0.51100000000E-03 0. -1.
        -11    1    3    3    0    0 -0.89382497669E+01  0.39368878768E+01 -0.75820368902E+01  0.12364411782E+02  0.51100000000E-03 0.  1.
        -12    1    3    3    0    0 -0.17585166344E+02  0.15803530030E+02  0.17994852366E+02  0.29712023634E+02  0.00000000000E+00 0.  1.
</event>
<event>
 7    1  0.2684545E-013  0.7246158E+02  0.7816164E-02  0.1226708E+00
        -11   -1    0    0    0    0  0.00000000000E+00  0.00000000000E+00  0.45593999997E+02  0.45594000000E+02  0.51100000000E-03 0.  1.
         11   -1    0    0    0    0 -0.00000000000E+00 -0.00000000000E+00 -0.45593999997E+02  0.45594000000E+02  0.51100000000E-03 0. -1.
    9900012    2    1    2    0    0  0.47912822441E+01 -0.10673757477E+01  0.18071609390E+02  0.72461581697E+02  0.70000014854E+02 0.  0.
         12    1    1    2    0    0 -0.47912822441E+01  0.10673757477E+01 -0.18071609390E+02  0.18726418303E+02  0.00000000000E+00 0. -1.
         11    1    3    3    0    0 -0.33234470604E+01 -0.13946103333E+02  0.27785005100E+02  0.31265725758E+02  0.51100000000E-03 0. -1.
        -11    1    3    3    0    0  0.91437173166E+01 -0.10261805523E+02  0.39525859869E+01  0.14301578766E+02  0.51100000000E-03 0.  1.
         12    1    3    3    0    0 -0.10289880121E+01  0.23140533108E+02 -0.13665981697E+02  0.26894277172E+02  0.00000000000E+00 0. -1.
</event>
<event>
 7    1  0.2684545E-013  0.7246157E+02  0.7816164E-02  0.1226708E+00
        -11   -1    0    0    0    0  0.00000000000E+00  0.00000000000E+00  0.45593999997E+02  0.45594000000E+02  0.51100000000E-03 0.  1.
         11   -1    0    0    0    0 -0.00000000000E+00 -0.00000000000E+00 -0.45593999997E+02  0.45594000000E+02  0.51100000000E-03 0. -1.
    9900012    2    1    2    0    0 -0.16098402883E+01  0.19903673015E+00  0.18656046477E+02  0.72461567571E+02  0.69999996452E+02 0.  0.
         12    1    1    2    0    0  0.16098402883E+01 -0.19903673015E+00 -0.18656046477E+02  0.18726432429E+02  0.00000000000E+00 0. -1.
         11    1    3    3    0    0  0.42968922668E+01  0.14971040322E+02  0.18892025956E+02  0.24484770296E+02  0.51100000000E-03 0. -1.
        -11    1    3    3    0    0  0.16327343262E+02 -0.49833387186E+01  0.11911205310E+02  0.20815681949E+02  0.51100000000E-03 0.  1.
         12    1    3    3    0    0 -0.22234075818E+02 -0.97886648734E+01 -0.12147184788E+02  0.27161115326E+02  0.00000000000E+00 0. -1.
</event>
<event>
 7    1  0.2684545E-013  0.7246157E+02  0.7816164E-02  0.1226708E+00
        -11   -1    0    0    0    0  0.00000000000E+00  0.00000000000E+00  0.45593999997E+02  0.45594000000E+02  0.51100000000E-03 0.  1.
         11   -1    0    0    0    0 -0.00000000000E+00 -0.00000000000E+00 -0.45593999997E+02  0.45594000000E+02  0.51100000000E-03 0. -1.
    9900012    2    1    2    0    0 -0.95938834391E+01  0.15198710205E+02 -0.52569894664E+01  0.72461566020E+02  0.69999994432E+02 0.  0.
         12    1    1    2    0    0  0.95938834391E+01 -0.15198710205E+02  0.52569894664E+01  0.18726433980E+02  0.00000000000E+00 0. -1.
         11    1    3    3    0    0  0.11458459279E+02  0.80315225537E+01  0.65552380044E+01  0.15452274562E+02  0.51100000000E-03 0. -1.
        -11    1    3    3    0    0 -0.96571563253E+01 -0.12240527065E+02  0.15251475518E+02  0.21810517574E+02  0.51100000000E-03 0.  1.
         12    1    3    3    0    0 -0.11395186393E+02  0.19407714716E+02 -0.27063702989E+02  0.35198773884E+02  0.00000000000E+00 0. -1.
</event>
<event>
 7    1  0.2684545E-013  0.7246164E+02  0.7816164E-02  0.1226708E+00
        -11   -1    0    0    0    0  0.00000000000E+00  0.00000000000E+00  0.45593999997E+02  0.45594000000E+02  0.51100000000E-03 0.  1.
         11   -1    0    0    0    0 -0.00000000000E+00 -0.00000000000E+00 -0.45593999997E+02  0.45594000000E+02  0.51100000000E-03 0. -1.
    9900012    2    1    2    0    0 -0.53823007284E+01  0.11387180434E+02  0.13857831972E+02  0.72461640334E+02  0.70000091240E+02 0.  0.
         12    1    1    2    0    0  0.53823007284E+01 -0.11387180434E+02 -0.13857831972E+02  0.18726359666E+02  0.00000000000E+00 0. -1.
         11    1    3    3    0    0  0.27979653117E+01 -0.73768043132E+01  0.20410271669E+02  0.21882071237E+02  0.51100000000E-03 0.  1.
        -11    1    3    3    0    0  0.13168866601E+02  0.46172511070E+01  0.12440209334E+02  0.18694835219E+02  0.51100000000E-03 0. -1.
         12    1    3    3    0    0 -0.21349132641E+02  0.14146733640E+02 -0.18992649032E+02  0.31884733878E+02  0.00000000000E+00 0. -1.
</event>
<event>
 7    1  0.2684545E-013  0.7246161E+02  0.7816164E-02  0.1226708E+00
        -11   -1    0    0    0    0  0.00000000000E+00  0.00000000000E+00  0.45593999997E+02  0.45594000000E+02  0.51100000000E-03 0. -1.
         11   -1    0    0    0    0 -0.00000000000E+00 -0.00000000000E+00 -0.45593999997E+02  0.45594000000E+02  0.51100000000E-03 0.  1.
    9900012    2    1    2    0    0  0.71439592003E+01 -0.82038466824E+01 -0.15242652157E+02  0.72461609579E+02  0.70000051175E+02 0.  0.
         12    1    1    2    0    0 -0.71439592003E+01  0.82038466824E+01  0.15242652157E+02  0.18726390421E+02  0.00000000000E+00 0. -1.
         11    1    3    3    0    0 -0.19545135709E+02  0.39836335288E+01 -0.42317879206E+01  0.20390921883E+02  0.51100000000E-03 0. -1.
        -11    1    3    3    0    0 -0.34049745283E+01 -0.15511698124E+02 -0.14611609523E+02  0.21580216944E+02  0.51100000000E-03 0.  1.
         12    1    3    3    0    0  0.30094069437E+02  0.33242179132E+01  0.36007452867E+01  0.30490470752E+02  0.00000000000E+00 0. -1.
</event>
<event>
 7    1  0.2684545E-013  0.7246157E+02  0.7816164E-02  0.1226708E+00
        -11   -1    0    0    0    0  0.00000000000E+00  0.00000000000E+00  0.45593999997E+02  0.45594000000E+02  0.51100000000E-03 0.  1.
         11   -1    0    0    0    0 -0.00000000000E+00 -0.00000000000E+00 -0.45593999997E+02  0.45594000000E+02  0.51100000000E-03 0. -1.
    9900012    2    1    2    0    0 -0.95837161975E+01 -0.14789470236E+02  0.63327162954E+01  0.72461565697E+02  0.69999994011E+02 0.  0.
         12    1    1    2    0    0  0.95837161975E+01  0.14789470236E+02 -0.63327162954E+01  0.18726434303E+02  0.00000000000E+00 0. -1.
         11    1    3    3    0    0  0.20918659111E+01 -0.22029139380E+02  0.17692574348E+01  0.22198854856E+02  0.51100000000E-03 0. -1.
        -11    1    3    3    0    0 -0.24532880339E+02 -0.10149919482E+02  0.92856421849E+01  0.28126610785E+02  0.51100000000E-03 0.  1.
        -12    1    3    3    0    0  0.12857298230E+02  0.17389588625E+02 -0.47221833243E+01  0.22136100056E+02  0.00000000000E+00 0.  1.
</event>
<event>
 7    1  0.2684545E-013  0.7246120E+02  0.7816164E-02  0.1226709E+00
        -11   -1    0    0    0    0  0.00000000000E+00  0.00000000000E+00  0.45593999997E+02  0.45594000000E+02  0.51100000000E-03 0.  1.
         11   -1    0    0    0    0 -0.00000000000E+00 -0.00000000000E+00 -0.45593999997E+02  0.45594000000E+02  0.51100000000E-03 0. -1.
    9900012    2    1    2    0    0  0.16355672504E+02 -0.86445882025E+01 -0.29079389263E+01  0.72461200032E+02  0.69999517663E+02 0.  0.
         12    1    1    2    0    0 -0.16355672504E+02  0.86445882025E+01  0.29079389263E+01  0.18726799968E+02  0.00000000000E+00 0. -1.
         11    1    3    3    0    0 -0.70127411708E+01 -0.12525409248E+02  0.67324922295E+00  0.14370723028E+02  0.51100000000E-03 0. -1.
        -11    1    3    3    0    0  0.18823604839E+02 -0.19075439066E+02  0.12625798724E+02  0.29624504525E+02  0.51100000000E-03 0.  1.
        -12    1    3    3    0    0  0.45448088354E+01  0.22956260112E+02 -0.16206986873E+02  0.28465972479E+02  0.00000000000E+00 0.  1.
</event>
<event>
 7    1  0.2684545E-013  0.7246141E+02  0.7816164E-02  0.1226708E+00
        -11   -1    0    0    0    0  0.00000000000E+00  0.00000000000E+00  0.45593999997E+02  0.45594000000E+02  0.51100000000E-03 0. -1.
         11   -1    0    0    0    0 -0.00000000000E+00 -0.00000000000E+00 -0.45593999997E+02  0.45594000000E+02  0.51100000000E-03 0.  1.
    9900012    2    1    2    0    0 -0.95345417141E+01  0.12216623229E+02 -0.10513411648E+02  0.72461409459E+02  0.69999790482E+02 0.  0.
         12    1    1    2    0    0  0.95345417141E+01 -0.12216623229E+02  0.10513411648E+02  0.18726590541E+02  0.00000000000E+00 0. -1.
         11    1    3    3    0    0 -0.24190220373E+02  0.43951136875E+01  0.16863483320E+02  0.29813769569E+02  0.51100000000E-03 0. -1.
        -11    1    3    3    0    0  0.45139317454E+01  0.15316413272E+02 -0.46072829355E+01  0.16619120062E+02  0.51100000000E-03 0.  1.
        -12    1    3    3    0    0  0.10141746913E+02 -0.74949037306E+01 -0.22769612032E+02  0.26028519828E+02  0.00000000000E+00 0.  1.
</event>
<event>
 7    1  0.2684545E-013  0.7246156E+02  0.7816164E-02  0.1226708E+00
        -11   -1    0    0    0    0  0.00000000000E+00  0.00000000000E+00  0.45593999997E+02  0.45594000000E+02  0.51100000000E-03 0. -1.
         11   -1    0    0    0    0 -0.00000000000E+00 -0.00000000000E+00 -0.45593999997E+02  0.45594000000E+02  0.51100000000E-03 0.  1.
    9900012    2    1    2    0    0 -0.11101650486E+02  0.77508668840E+01 -0.12936651618E+02  0.72461560507E+02  0.69999987251E+02 0.  0.
         12    1    1    2    0    0  0.11101650486E+02 -0.77508668840E+01  0.12936651618E+02  0.18726439493E+02  0.00000000000E+00 0. -1.
         11    1    3    3    0    0  0.78413020141E+01 -0.43347682790E+01 -0.48748281951E+01  0.10200008995E+02  0.51100000000E-03 0. -1.
        -11    1    3    3    0    0 -0.61873152185E+01  0.11522075511E+02 -0.32310379043E+02  0.34856874327E+02  0.51100000000E-03 0.  1.
        -12    1    3    3    0    0 -0.12755637282E+02  0.56355965205E+00  0.24248555620E+02  0.27404677185E+02  0.00000000000E+00 0.  1.
</event>
<event>
 7    1  0.2684545E-013  0.7246165E+02  0.7816164E-02  0.1226708E+00
        -11   -1    0    0    0    0  0.00000000000E+00  0.00000000000E+00  0.45593999997E+02  0.45594000000E+02  0.51100000000E-03 0. -1.
         11   -1    0    0    0    0 -0.00000000000E+00 -0.00000000000E+00 -0.45593999997E+02  0.45594000000E+02  0.51100000000E-03 0.  1.
    9900012    2    1    2    0    0  0.52807481494E+01 -0.77244870826E+01 -0.16221036325E+02  0.72461654357E+02  0.70000109507E+02 0.  0.
         12    1    1    2    0    0 -0.52807481494E+01  0.77244870826E+01  0.16221036325E+02  0.18726345643E+02  0.00000000000E+00 0. -1.
         11    1    3    3    0    0 -0.79947104946E+01  0.15948182402E+02 -0.23043246050E+02  0.29141913228E+02  0.51100000000E-03 0. -1.
        -11    1    3    3    0    0 -0.71303781924E+01  0.41679172801E+01  0.11543513859E+01  0.83394457252E+01  0.51100000000E-03 0.  1.
         12    1    3    3    0    0  0.20405836836E+02 -0.27840586764E+02  0.56678583392E+01  0.34980295404E+02  0.00000000000E+00 0. -1.
</event>
<event>
 7    1  0.2684545E-013  0.7246159E+02  0.7816164E-02  0.1226708E+00
        -11   -1    0    0    0    0  0.00000000000E+00  0.00000000000E+00  0.45593999997E+02  0.45594000000E+02  0.51100000000E-03 0. -1.
         11   -1    0    0    0    0 -0.00000000000E+00 -0.00000000000E+00 -0.45593999997E+02  0.45594000000E+02  0.51100000000E-03 0.  1.
    9900012    2    1    2    0    0 -0.18258247726E+02  0.39969775313E+01 -0.11571218367E+01  0.72461591632E+02  0.70000027796E+02 0.  0.
         12    1    1    2    0    0  0.18258247726E+02 -0.39969775313E+01  0.11571218367E+01  0.18726408368E+02  0.00000000000E+00 0. -1.
         11    1    3    3    0    0 -0.19188767711E+01  0.13610277884E+02  0.10085823293E+02  0.17048330824E+02  0.51100000000E-03 0. -1.
        -11    1    3    3    0    0 -0.48667248578E+01  0.16051742752E+02 -0.19873478896E+02  0.26005742056E+02  0.51100000000E-03 0.  1.
        -12    1    3    3    0    0 -0.11472646097E+02 -0.25665043104E+02  0.86305337666E+01  0.29407518751E+02  0.00000000000E+00 0.  1.
</event>
<event>
 7    1  0.2684545E-013  0.7246187E+02  0.7816164E-02  0.1226707E+00
        -11   -1    0    0    0    0  0.00000000000E+00  0.00000000000E+00  0.45593999997E+02  0.45594000000E+02  0.51100000000E-03 0.  1.
         11   -1    0    0    0    0 -0.00000000000E+00 -0.00000000000E+00 -0.45593999997E+02  0.45594000000E+02  0.51100000000E-03 0. -1.
    9900012    2    1    2    0    0  0.87474063170E+00 -0.13903786280E+02  0.12513489132E+02  0.72461872415E+02  0.70000393567E+02 0.  0.
         12    1    1    2    0    0 -0.87474063170E+00  0.13903786280E+02 -0.12513489132E+02  0.18726127585E+02  0.00000000000E+00 0. -1.
         11    1    3    3    0    0  0.15165641026E+02  0.93850386303E+01  0.22937754770E+02  0.29055399016E+02  0.51100000000E-03 0. -1.
        -11    1    3    3    0    0 -0.60787900233E+01  0.59602430803E+01  0.44216115412E+01  0.95930617952E+01  0.51100000000E-03 0.  1.
        -12    1    3    3    0    0 -0.82121103711E+01 -0.29249067991E+02 -0.14845877179E+02  0.33813411604E+02  0.00000000000E+00 0.  1.
</event>
<event>
 7    1  0.2684545E-013  0.7246161E+02  0.7816164E-02  0.1226708E+00
        -11   -1    0    0    0    0  0.00000000000E+00  0.00000000000E+00  0.45593999997E+02  0.45594000000E+02  0.51100000000E-03 0.  1.
         11   -1    0    0    0    0 -0.00000000000E+00 -0.00000000000E+00 -0.45593999997E+02  0.45594000000E+02  0.51100000000E-03 0. -1.
    9900012    2    1    2    0    0 -0.12492806262E+01 -0.85286978172E+01  0.16624630052E+02  0.72461609186E+02  0.70000050664E+02 0.  0.
         12    1    1    2    0    0  0.12492806262E+01  0.85286978172E+01 -0.16624630052E+02  0.18726390814E+02  0.00000000000E+00 0. -1.
         11    1    3    3    0    0  0.43653105284E+01  0.32201394248E+01  0.23332639841E+02  0.23954901715E+02  0.51100000000E-03 0. -1.
        -11    1    3    3    0    0  0.17899858710E+02 -0.76665828236E+00 -0.12587973057E+02  0.21896341537E+02  0.51100000000E-03 0.  1.
         12    1    3    3    0    0 -0.23514449864E+02 -0.10982178960E+02  0.58799632682E+01  0.26610365934E+02  0.00000000000E+00 0. -1.
</event>
<event>
 7    1  0.2684545E-013  0.7246155E+02  0.7816164E-02  0.1226708E+00
        -11   -1    0    0    0    0  0.00000000000E+00  0.00000000000E+00  0.45593999997E+02  0.45594000000E+02  0.51100000000E-03 0.  1.
         11   -1    0    0    0    0 -0.00000000000E+00 -0.00000000000E+00 -0.45593999997E+02  0.45594000000E+02  0.51100000000E-03 0. -1.
    9900012    2    1    2    0    0  0.84337827753E+01 -0.94143454035E+01  0.13817432080E+02  0.72461547571E+02  0.69999970399E+02 0.  0.
         12    1    1    2    0    0 -0.84337827753E+01  0.94143454035E+01 -0.13817432080E+02  0.18726452429E+02  0.00000000000E+00 0. -1.
         11    1    3    3    0    0  0.19859326118E+02 -0.57329592755E+01  0.28401891791E+02  0.35127298694E+02  0.51100000000E-03 0. -1.
        -11    1    3    3    0    0 -0.12637051333E+02 -0.53653843071E+01  0.71649767770E+01  0.15486100466E+02  0.51100000000E-03 0.  1.
        -12    1    3    3    0    0  0.12115079899E+01  0.16839981791E+01 -0.21749436488E+02  0.21848148412E+02  0.00000000000E+00 0.  1.
</event>
<event>
 7    1  0.2684545E-013  0.7246160E+02  0.7816164E-02  0.1226708E+00
        -11   -1    0    0    0    0  0.00000000000E+00  0.00000000000E+00  0.45593999997E+02  0.45594000000E+02  0.51100000000E-03 0.  1.
         11   -1    0    0    0    0 -0.00000000000E+00 -0.00000000000E+00 -0.45593999997E+02  0.45594000000E+02  0.51100000000E-03 0. -1.
    9900012    2    1    2    0    0  0.14693314772E+02  0.68656125463E+01 -0.93620382563E+01  0.72461604326E+02  0.70000044333E+02 0.  0.
         12    1    1    2    0    0 -0.14693314772E+02 -0.68656125463E+01  0.93620382563E+01  0.18726395674E+02  0.00000000000E+00 0. -1.
         11    1    3    3    0    0 -0.58488953907E+01  0.47240161327E+01 -0.56330103798E+01  0.93945043464E+01  0.51100000000E-03 0. -1.
        -11    1    3    3    0    0 -0.13891086976E+02  0.15379197567E+02  0.10859813041E+02  0.23396956100E+02  0.51100000000E-03 0.  1.
        -12    1    3    3    0    0  0.34433297139E+02 -0.13237601153E+02 -0.14588840918E+02  0.39670143880E+02  0.00000000000E+00 0.  1.
</event>
<event>
 7    1  0.2684545E-013  0.7246158E+02  0.7816164E-02  0.1226708E+00
        -11   -1    0    0    0    0  0.00000000000E+00  0.00000000000E+00  0.45593999997E+02  0.45594000000E+02  0.51100000000E-03 0.  1.
         11   -1    0    0    0    0 -0.00000000000E+00 -0.00000000000E+00 -0.45593999997E+02  0.45594000000E+02  0.51100000000E-03 0. -1.
    9900012    2    1    2    0    0  0.17179918722E+02  0.62093604889E+01 -0.41198565878E+01  0.72461575267E+02  0.70000006478E+02 0.  0.
         12    1    1    2    0    0 -0.17179918722E+02 -0.62093604889E+01  0.41198565878E+01  0.18726424733E+02  0.00000000000E+00 0. -1.
         11    1    3    3    0    0  0.18978834629E+02  0.14484693955E+02  0.10544694974E+01  0.23898000523E+02  0.51100000000E-03 0. -1.
        -11    1    3    3    0    0  0.22539442090E+02 -0.10850576274E+01 -0.53230743208E+01  0.23184885600E+02  0.51100000000E-03 0.  1.
        -12    1    3    3    0    0 -0.24338357997E+02 -0.71902758390E+01  0.14874823551E+00  0.25378689144E+02  0.00000000000E+00 0.  1.
</event>
<event>
 7    1  0.2684545E-013  0.7246158E+02  0.7816164E-02  0.1226708E+00
        -11   -1    0    0    0    0  0.00000000000E+00  0.00000000000E+00  0.45593999997E+02  0.45594000000E+02  0.51100000000E-03 0.  1.
         11   -1    0    0    0    0 -0.00000000000E+00 -0.00000000000E+00 -0.45593999997E+02  0.45594000000E+02  0.51100000000E-03 0. -1.
    9900012    2    1    2    0    0  0.90684384160E+01  0.86318614218E+01  0.13925986048E+02  0.72461582982E+02  0.70000016528E+02 0.  0.
         12    1    1    2    0    0 -0.90684384160E+01 -0.86318614218E+01 -0.13925986048E+02  0.18726417018E+02  0.00000000000E+00 0. -1.
         11    1    3    3    0    0  0.26497631705E+01 -0.94445983369E+01  0.92075107372E+01  0.13453621700E+02  0.51100000000E-03 0.  1.
        -11    1    3    3    0    0  0.95012086656E+01  0.13028413364E+02  0.29451874672E+02  0.33577156563E+02  0.51100000000E-03 0. -1.
         12    1    3    3    0    0 -0.30825334200E+01  0.50480463945E+01 -0.24733399362E+02  0.25430804719E+02  0.00000000000E+00 0. -1.
</event>
<event>
 7    1  0.2684545E-013  0.7246158E+02  0.7816164E-02  0.1226708E+00
        -11   -1    0    0    0    0  0.00000000000E+00  0.00000000000E+00  0.45593999997E+02  0.45594000000E+02  0.51100000000E-03 0.  1.
         11   -1    0    0    0    0 -0.00000000000E+00 -0.00000000000E+00 -0.45593999997E+02  0.45594000000E+02  0.51100000000E-03 0. -1.
    9900012    2    1    2    0    0  0.14774780081E+02 -0.19358084396E+01  0.11341846801E+02  0.72461575632E+02  0.70000006953E+02 0.  0.
         12    1    1    2    0    0 -0.14774780081E+02  0.19358084396E+01 -0.11341846801E+02  0.18726424368E+02  0.00000000000E+00 0. -1.
         11    1    3    3    0    0  0.99621851274E+01 -0.18608439567E+01 -0.97232291760E+01  0.14044538391E+02  0.51100000000E-03 0. -1.
        -11    1    3    3    0    0  0.13544189502E+02  0.22578431073E+02  0.84158321221E-01  0.26329407549E+02  0.51100000000E-03 0.  1.
        -12    1    3    3    0    0 -0.87315945485E+01 -0.22653395556E+02  0.20980917655E+02  0.32087629692E+02  0.00000000000E+00 0.  1.
</event>
<event>
 7    1  0.2684545E-013  0.7246166E+02  0.7816164E-02  0.1226708E+00
        -11   -1    0    0    0    0  0.00000000000E+00  0.00000000000E+00  0.45593999997E+02  0.45594000000E+02  0.51100000000E-03 0.  1.
         11   -1    0    0    0    0 -0.00000000000E+00 -0.00000000000E+00 -0.45593999997E+02  0.45594000000E+02  0.51100000000E-03 0. -1.
    9900012    2    1    2    0    0  0.10047215146E+01 -0.14381838408E+02  0.11951116539E+02  0.72461656848E+02  0.70000112752E+02 0.  0.
         12    1    1    2    0    0 -0.10047215146E+01  0.14381838408E+02 -0.11951116539E+02  0.18726343152E+02  0.00000000000E+00 0. -1.
         11    1    3    3    0    0 -0.87096103488E+01 -0.63204861512E+01  0.11617071235E+02  0.15835472900E+02  0.51100000000E-03 0. -1.
        -11    1    3    3    0    0  0.14675436107E+02  0.17758424520E+02  0.14037341987E+02  0.26977343025E+02  0.51100000000E-03 0.  1.
         12    1    3    3    0    0 -0.49611042433E+01 -0.25819776777E+02 -0.13703296683E+02  0.29648840924E+02  0.00000000000E+00 0. -1.
</event>
<event>
 7    1  0.2684545E-013  0.7246159E+02  0.7816164E-02  0.1226708E+00
        -11   -1    0    0    0    0  0.00000000000E+00  0.00000000000E+00  0.45593999997E+02  0.45594000000E+02  0.51100000000E-03 0.  1.
         11   -1    0    0    0    0 -0.00000000000E+00 -0.00000000000E+00 -0.45593999997E+02  0.45594000000E+02  0.51100000000E-03 0. -1.
    9900012    2    1    2    0    0  0.90017861004E+01  0.13785691503E+02  0.89219430283E+01  0.72461587887E+02  0.70000022918E+02 0.  0.
         12    1    1    2    0    0 -0.90017861004E+01 -0.13785691503E+02 -0.89219430283E+01  0.18726412113E+02  0.00000000000E+00 0. -1.
         11    1    3    3    0    0 -0.12382330758E+02  0.31237726725E+01  0.88165119612E+00  0.12800678880E+02  0.51100000000E-03 0. -1.
        -11    1    3    3    0    0  0.91170681024E+01  0.32201864374E+02  0.96192813668E+01  0.34822572768E+02  0.51100000000E-03 0.  1.
         12    1    3    3    0    0  0.12267048756E+02 -0.21539945543E+02 -0.15789895347E+01  0.24838336239E+02  0.00000000000E+00 0. -1.
</event>
<event>
 7    1  0.2684545E-013  0.7246167E+02  0.7816164E-02  0.1226708E+00
        -11   -1    0    0    0    0  0.00000000000E+00  0.00000000000E+00  0.45593999997E+02  0.45594000000E+02  0.51100000000E-03 0.  1.
         11   -1    0    0    0    0 -0.00000000000E+00 -0.00000000000E+00 -0.45593999997E+02  0.45594000000E+02  0.51100000000E-03 0. -1.
    9900012    2    1    2    0    0 -0.16490350284E+02 -0.12626852387E+00  0.88728704243E+01  0.72461670253E+02  0.70000130215E+02 0.  0.
         12    1    1    2    0    0  0.16490350284E+02  0.12626852387E+00 -0.88728704243E+01  0.18726329747E+02  0.00000000000E+00 0. -1.
         11    1    3    3    0    0  0.79261701744E+01  0.20615475469E+02  0.11028944802E+01  0.22114212148E+02  0.51100000000E-03 0. -1.
        -11    1    3    3    0    0  0.40997772613E+01 -0.20895774684E+01 -0.10657999904E+02  0.11608939219E+02  0.51100000000E-03 0.  1.
        -12    1    3    3    0    0 -0.28516297719E+02 -0.18652166524E+02  0.18427975848E+02  0.38738518886E+02  0.00000000000E+00 0.  1.
</event>
<event>
 7    1  0.2684545E-013  0.7246156E+02  0.7816164E-02  0.1226708E+00
        -11   -1    0    0    0    0  0.00000000000E+00  0.00000000000E+00  0.45593999997E+02  0.45594000000E+02  0.51100000000E-03 0.  1.
         11   -1    0    0    0    0 -0.00000000000E+00 -0.00000000000E+00 -0.45593999997E+02  0.45594000000E+02  0.51100000000E-03 0. -1.
    9900012    2    1    2    0    0 -0.17578380551E+02 -0.62908236278E+01  0.14511054252E+01  0.72461557955E+02  0.69999983926E+02 0.  0.
         12    1    1    2    0    0  0.17578380551E+02  0.62908236278E+01 -0.14511054252E+01  0.18726442045E+02  0.00000000000E+00 0. -1.
         11    1    3    3    0    0 -0.41262595077E+02  0.49583570256E+01 -0.10047537254E+02  0.42756754577E+02  0.51100000000E-03 0. -1.
        -11    1    3    3    0    0  0.10313394311E+02 -0.82937945117E+01  0.83674744559E+01  0.15657833779E+02  0.51100000000E-03 0.  1.
        -12    1    3    3    0    0  0.13370820214E+02 -0.29553861418E+01  0.31311682238E+01  0.14046969598E+02  0.00000000000E+00 0.  1.
</event>
<event>
 7    1  0.2684545E-013  0.7246161E+02  0.7816164E-02  0.1226708E+00
        -11   -1    0    0    0    0  0.00000000000E+00  0.00000000000E+00  0.45593999997E+02  0.45594000000E+02  0.51100000000E-03 0.  1.
         11   -1    0    0    0    0 -0.00000000000E+00 -0.00000000000E+00 -0.45593999997E+02  0.45594000000E+02  0.51100000000E-03 0. -1.
    9900012    2    1    2    0    0  0.95432968484E+01 -0.14189469357E+02  0.76329677010E+01  0.72461608161E+02  0.70000049329E+02 0.  0.
         12    1    1    2    0    0 -0.95432968484E+01  0.14189469357E+02 -0.76329677010E+01  0.18726391839E+02  0.00000000000E+00 0. -1.
         11    1    3    3    0    0  0.61851272342E+01 -0.55286835585E+01  0.14859291591E-01  0.82959244122E+01  0.51100000000E-03 0. -1.
        -11    1    3    3    0    0  0.12797759654E+02 -0.24571426511E+02  0.26066257511E+02  0.38039288030E+02  0.51100000000E-03 0.  1.
         12    1    3    3    0    0 -0.94395900402E+01  0.15910640712E+02 -0.18448149102E+02  0.26126395719E+02  0.00000000000E+00 0. -1.
</event>
<event>
 7    1  0.2684545E-013  0.7246155E+02  0.7816164E-02  0.1226708E+00
        -11   -1    0    0    0    0  0.00000000000E+00  0.00000000000E+00  0.45593999997E+02  0.45594000000E+02  0.51100000000E-03 0.  1.
         11   -1    0    0    0    0 -0.00000000000E+00 -0.00000000000E+00 -0.45593999997E+02  0.45594000000E+02  0.51100000000E-03 0. -1.
    9900012    2    1    2    0    0  0.14487571544E+02 -0.57156964222E+00  0.11851738080E+02  0.72461545007E+02  0.69999967058E+02 0.  0.
         12    1    1    2    0    0 -0.14487571544E+02  0.57156964222E+00 -0.11851738080E+02  0.18726454993E+02  0.00000000000E+00 0. -1.
         11    1    3    3    0    0  0.60822782315E+01  0.30782807190E+00 -0.21393363918E+02  0.22243311053E+02  0.51100000000E-03 0. -1.
        -11    1    3    3    0    0 -0.82249285454E+01  0.21448471491E+01 -0.39421928190E+01  0.93696693299E+01  0.51100000000E-03 0.  1.
        -12    1    3    3    0    0  0.16630221858E+02 -0.30242448632E+01  0.37187294817E+02  0.40848564624E+02  0.00000000000E+00 0.  1.
</event>
<event>
 7    1  0.2684545E-013  0.7246155E+02  0.7816164E-02  0.1226708E+00
        -11   -1    0    0    0    0  0.00000000000E+00  0.00000000000E+00  0.45593999997E+02  0.45594000000E+02  0.51100000000E-03 0. -1.
         11   -1    0    0    0    0 -0.00000000000E+00 -0.00000000000E+00 -0.45593999997E+02  0.45594000000E+02  0.51100000000E-03 0.  1.
    9900012    2    1    2    0    0 -0.42755365159E+01  0.99140281298E+01 -0.15300708879E+02  0.72461551900E+02  0.69999976038E+02 0.  0.
         12    1    1    2    0    0  0.42755365159E+01 -0.99140281298E+01  0.15300708879E+02  0.18726448100E+02  0.00000000000E+00 0. -1.
         11    1    3    3    0    0  0.41535367698E+01 -0.13296905843E+02 -0.15828994920E+02  0.21085934960E+02  0.51100000000E-03 0.  1.
        -11    1    3    3    0    0 -0.19692208813E+02  0.94848738846E+01  0.16584338913E+02  0.27436949867E+02  0.51100000000E-03 0. -1.
         12    1    3    3    0    0  0.11263135527E+02  0.13726060088E+02 -0.16056052872E+02  0.23938667074E+02  0.00000000000E+00 0. -1.
</event>
<event>
 7    1  0.2684545E-013  0.7246144E+02  0.7816164E-02  0.1226708E+00
        -11   -1    0    0    0    0  0.00000000000E+00  0.00000000000E+00  0.45593999997E+02  0.45594000000E+02  0.51100000000E-03 0. -1.
         11   -1    0    0    0    0 -0.00000000000E+00 -0.00000000000E+00 -0.45593999997E+02  0.45594000000E+02  0.51100000000E-03 0.  1.
    9900012    2    1    2    0    0  0.18427155815E+02 -0.60398791877E+00 -0.32801059755E+01  0.72461442173E+02  0.69999833098E+02 0.  0.
         12    1    1    2    0    0 -0.18427155815E+02  0.60398791877E+00  0.32801059755E+01  0.18726557827E+02  0.00000000000E+00 0. -1.
         11    1    3    3    0    0  0.86571050208E+01 -0.12712248950E+02 -0.18307022012E+02  0.23910119112E+02  0.51100000000E-03 0. -1.
        -11    1    3    3    0    0  0.63073094400E+01  0.12042873100E+02 -0.13885361225E+02  0.19432349356E+02  0.51100000000E-03 0.  1.
        -12    1    3    3    0    0  0.34627413540E+01  0.65387931485E-01  0.28912277261E+02  0.29118973706E+02  0.00000000000E+00 0.  1.
</event>
<event>
 7    1  0.2684545E-013  0.7246165E+02  0.7816164E-02  0.1226708E+00
        -11   -1    0    0    0    0  0.00000000000E+00  0.00000000000E+00  0.45593999997E+02  0.45594000000E+02  0.51100000000E-03 0. -1.
         11   -1    0    0    0    0 -0.00000000000E+00 -0.00000000000E+00 -0.45593999997E+02  0.45594000000E+02  0.51100000000E-03 0.  1.
    9900012    2    1    2    0    0 -0.21047459475E+01 -0.93909481973E+01 -0.16064135601E+02  0.72461646480E+02  0.70000099246E+02 0.  0.
         12    1    1    2    0    0  0.21047459475E+01  0.93909481973E+01  0.16064135601E+02  0.18726353520E+02  0.00000000000E+00 0. -1.
         11    1    3    3    0    0 -0.22802933134E+02  0.46929480101E+01  0.84595436506E+01  0.24770171569E+02  0.51100000000E-03 0. -1.
        -11    1    3    3    0    0  0.14901690648E+01 -0.10829654750E+02 -0.25949029943E+02  0.28157666470E+02  0.51100000000E-03 0.  1.
        -12    1    3    3    0    0  0.19208018121E+02 -0.32542414579E+01  0.14253506910E+01  0.19533808441E+02  0.00000000000E+00 0.  1.
</event>
<event>
 7    1  0.2684545E-013  0.7246152E+02  0.7816164E-02  0.1226708E+00
        -11   -1    0    0    0    0  0.00000000000E+00  0.00000000000E+00  0.45593999997E+02  0.45594000000E+02  0.51100000000E-03 0.  1.
         11   -1    0    0    0    0 -0.00000000000E+00 -0.00000000000E+00 -0.45593999997E+02  0.45594000000E+02  0.51100000000E-03 0. -1.
    9900012    2    1    2    0    0  0.63912672914E+01  0.16259899298E+02 -0.67415566788E+01  0.72461515834E+02  0.69999929055E+02 0.  0.
         12    1    1    2    0    0 -0.63912672914E+01 -0.16259899298E+02  0.67415566788E+01  0.18726484166E+02  0.00000000000E+00 0. -1.
         11    1    3    3    0    0 -0.46922494097E+00  0.30800097212E+02 -0.39687995863E+01  0.31058292463E+02  0.51100000000E-03 0. -1.
        -11    1    3    3    0    0 -0.54555604871E+01  0.44300227227E+01  0.12340255958E+02  0.14201061894E+02  0.51100000000E-03 0.  1.
        -12    1    3    3    0    0  0.12316052719E+02 -0.18970220636E+02 -0.15113013050E+02  0.27202161477E+02  0.00000000000E+00 0.  1.
</event>
<event>
 7    1  0.2684545E-013  0.7246154E+02  0.7816164E-02  0.1226708E+00
        -11   -1    0    0    0    0  0.00000000000E+00  0.00000000000E+00  0.45593999997E+02  0.45594000000E+02  0.51100000000E-03 0.  1.
         11   -1    0    0    0    0 -0.00000000000E+00 -0.00000000000E+00 -0.45593999997E+02  0.45594000000E+02  0.51100000000E-03 0. -1.
    9900012    2    1    2    0    0 -0.12126583300E+02  0.14208145162E+02  0.13247469703E+01  0.72461538347E+02  0.69999958383E+02 0.  0.
         12    1    1    2    0    0  0.12126583300E+02 -0.14208145162E+02 -0.13247469703E+01  0.18726461653E+02  0.00000000000E+00 0. -1.
         11    1    3    3    0    0  0.61794804407E+01 -0.14680503475E+02  0.41105982176E+01  0.16449929446E+02  0.51100000000E-03 0. -1.
        -11    1    3    3    0    0 -0.61198543884E+01 -0.10747818720E+02 -0.71978854474E+01  0.14310058705E+02  0.51100000000E-03 0.  1.
        -12    1    3    3    0    0 -0.12186209353E+02  0.39636467358E+02  0.44120342001E+01  0.41701550196E+02  0.00000000000E+00 0.  1.
</event>
<event>
 7    1  0.2684545E-013  0.7246157E+02  0.7816164E-02  0.1226708E+00
        -11   -1    0    0    0    0  0.00000000000E+00  0.00000000000E+00  0.45593999997E+02  0.45594000000E+02  0.51100000000E-03 0.  1.
         11   -1    0    0    0    0 -0.00000000000E+00 -0.00000000000E+00 -0.45593999997E+02  0.45594000000E+02  0.51100000000E-03 0. -1.
    9900012    2    1    2    0    0  0.42399851902E+01  0.12932373748E+02  0.12862951424E+02  0.72461567224E+02  0.69999996000E+02 0.  0.
         12    1    1    2    0    0 -0.42399851902E+01 -0.12932373748E+02 -0.12862951424E+02  0.18726432776E+02  0.00000000000E+00 0. -1.
         11    1    3    3    0    0  0.35747654872E+01  0.88581823929E+01  0.43947199658E+00  0.95623992539E+01  0.51100000000E-03 0. -1.
        -11    1    3    3    0    0  0.30632065886E+02  0.64563437880E+01  0.32716513236E+01  0.31475570499E+02  0.51100000000E-03 0.  1.
        -12    1    3    3    0    0 -0.29966846183E+02 -0.23821524331E+01  0.91518281042E+01  0.31423597471E+02  0.00000000000E+00 0.  1.
</event>
<event>
 7    1  0.2684545E-013  0.7246159E+02  0.7816164E-02  0.1226708E+00
        -11   -1    0    0    0    0  0.00000000000E+00  0.00000000000E+00  0.45593999997E+02  0.45594000000E+02  0.51100000000E-03 0. -1.
         11   -1    0    0    0    0 -0.00000000000E+00 -0.00000000000E+00 -0.45593999997E+02  0.45594000000E+02  0.51100000000E-03 0.  1.
    9900012    2    1    2    0    0  0.20927367750E+00  0.74479445202E+01 -0.17180301230E+02  0.72461590216E+02  0.70000025951E+02 0.  0.
         12    1    1    2    0    0 -0.20927367750E+00 -0.74479445202E+01  0.17180301230E+02  0.18726409784E+02  0.00000000000E+00 0. -1.
         11    1    3    3    0    0  0.37192292342E+01  0.52516655655E+01 -0.22286095462E+01  0.68102392086E+01  0.51100000000E-03 0. -1.
        -11    1    3    3    0    0 -0.33613358657E+01 -0.38052506073E+00 -0.40164533583E+02  0.40306738101E+02  0.51100000000E-03 0.  1.
         12    1    3    3    0    0 -0.14861969101E+00  0.25768040155E+01  0.25212841899E+02  0.25344612906E+02  0.00000000000E+00 0. -1.
</event>
<event>
 7    1  0.2684545E-013  0.7246157E+02  0.7816164E-02  0.1226708E+00
        -11   -1    0    0    0    0  0.00000000000E+00  0.00000000000E+00  0.45593999997E+02  0.45594000000E+02  0.51100000000E-03 0.  1.
         11   -1    0    0    0    0 -0.00000000000E+00 -0.00000000000E+00 -0.45593999997E+02  0.45594000000E+02  0.51100000000E-03 0. -1.
    9900012    2    1    2    0    0 -0.88093685280E+01  0.16326708854E+02  0.25520386068E+01  0.72461566893E+02  0.69999995569E+02 0.  0.
         12    1    1    2    0    0  0.88093685280E+01 -0.16326708854E+02 -0.25520386068E+01  0.18726433107E+02  0.00000000000E+00 0. -1.
         11    1    3    3    0    0 -0.28318041344E+02  0.88340788402E+01 -0.89483101637E+01  0.30984264870E+02  0.51100000000E-03 0. -1.
        -11    1    3    3    0    0 -0.83529083672E-01  0.17736128914E+02  0.47528253226E+01  0.18362096688E+02  0.51100000000E-03 0.  1.
        -12    1    3    3    0    0  0.19592201900E+02 -0.10243498900E+02  0.67475234479E+01  0.23115205335E+02  0.00000000000E+00 0.  1.
</event>
<event>
 7    1  0.2684545E-013  0.7246156E+02  0.7816164E-02  0.1226708E+00
        -11   -1    0    0    0    0  0.00000000000E+00  0.00000000000E+00  0.45593999997E+02  0.45594000000E+02  0.51100000000E-03 0. -1.
         11   -1    0    0    0    0 -0.00000000000E+00 -0.00000000000E+00 -0.45593999997E+02  0.45594000000E+02  0.51100000000E-03 0.  1.
    9900012    2    1    2    0    0  0.20540945709E+01 -0.42471567999E+01 -0.18122413520E+02  0.72461561012E+02  0.69999987908E+02 0.  0.
         12    1    1    2    0    0 -0.20540945709E+01  0.42471567999E+01  0.18122413520E+02  0.18726438988E+02  0.00000000000E+00 0. -1.
         11    1    3    3    0    0 -0.14934270238E+02 -0.38243032719E+01 -0.74212514566E+00  0.15434003792E+02  0.51100000000E-03 0. -1.
        -11    1    3    3    0    0  0.65025450079E+01  0.23361457109E+02  0.23943284060E+01  0.24367469680E+02  0.51100000000E-03 0.  1.
        -12    1    3    3    0    0  0.10485819801E+02 -0.23784310637E+02 -0.19774616780E+02  0.32660087540E+02  0.00000000000E+00 0.  1.
</event>
<event>
 7    1  0.2684545E-013  0.7246154E+02  0.7816164E-02  0.1226708E+00
        -11   -1    0    0    0    0  0.00000000000E+00  0.00000000000E+00  0.45593999997E+02  0.45594000000E+02  0.51100000000E-03 0. -1.
         11   -1    0    0    0    0 -0.00000000000E+00 -0.00000000000E+00 -0.45593999997E+02  0.45594000000E+02  0.51100000000E-03 0.  1.
    9900012    2    1    2    0    0 -0.18505427073E+02  0.40550643980E+00  0.28399034618E+01  0.72461539621E+02  0.69999960043E+02 0.  0.
         12    1    1    2    0    0  0.18505427073E+02 -0.40550643980E+00 -0.28399034618E+01  0.18726460379E+02  0.00000000000E+00 0. -1.
         11    1    3    3    0    0 -0.95195973758E+01  0.10808134926E+02  0.82085804724E+01  0.16577675000E+02  0.51100000000E-03 0. -1.
        -11    1    3    3    0    0 -0.23952865985E+02 -0.25036503105E+02 -0.44209763368E+01  0.34930091735E+02  0.51100000000E-03 0.  1.
         12    1    3    3    0    0  0.14967036287E+02  0.14633874619E+02 -0.94770067375E+00  0.20953772886E+02  0.00000000000E+00 0. -1.
</event>
<event>
 7    1  0.2684545E-013  0.7246166E+02  0.7816164E-02  0.1226708E+00
        -11   -1    0    0    0    0  0.00000000000E+00  0.00000000000E+00  0.45593999997E+02  0.45594000000E+02  0.51100000000E-03 0. -1.
         11   -1    0    0    0    0 -0.00000000000E+00 -0.00000000000E+00 -0.45593999997E+02  0.45594000000E+02  0.51100000000E-03 0.  1.
    9900012    2    1    2    0    0  0.44042876209E+01  0.12587177422E+02 -0.13146905212E+02  0.72461657550E+02  0.70000113666E+02 0.  0.
         12    1    1    2    0    0 -0.44042876209E+01 -0.12587177422E+02  0.13146905212E+02  0.18726342450E+02  0.00000000000E+00 0. -1.
         11    1    3    3    0    0  0.49261164107E+01  0.88229534025E+01 -0.19508767656E+02  0.21970506261E+02  0.51100000000E-03 0. -1.
        -11    1    3    3    0    0 -0.18354095975E+02 -0.69284089518E+01 -0.11791521211E+02  0.22889204058E+02  0.51100000000E-03 0.  1.
         12    1    3    3    0    0  0.17832267185E+02  0.10692632972E+02  0.18153383655E+02  0.27601947231E+02  0.00000000000E+00 0. -1.
</event>
<event>
 7    1  0.2684545E-013  0.7246159E+02  0.7816164E-02  0.1226708E+00
        -11   -1    0    0    0    0  0.00000000000E+00  0.00000000000E+00  0.45593999997E+02  0.45594000000E+02  0.51100000000E-03 0.  1.
         11   -1    0    0    0    0 -0.00000000000E+00 -0.00000000000E+00 -0.45593999997E+02  0.45594000000E+02  0.51100000000E-03 0. -1.
    9900012    2    1    2    0    0  0.28871851716E+01 -0.79285313821E+01 -0.16717679345E+02  0.72461594825E+02  0.70000031956E+02 0.  0.
         12    1    1    2    0    0 -0.28871851716E+01  0.79285313821E+01  0.16717679345E+02  0.18726405175E+02  0.00000000000E+00 0. -1.
         11    1    3    3    0    0 -0.86655990925E+01  0.77954329162E+01 -0.18310812173E+02  0.21705926026E+02  0.51100000000E-03 0. -1.
        -11    1    3    3    0    0 -0.80220061413E+01 -0.26682145201E+02 -0.24174875291E+01  0.27966653380E+02  0.51100000000E-03 0.  1.
        -12    1    3    3    0    0  0.19574790405E+02  0.10958180903E+02  0.40106203568E+01  0.22789015419E+02  0.00000000000E+00 0.  1.
</event>
<event>
 7    1  0.2684545E-013  0.7246157E+02  0.7816164E-02  0.1226708E+00
        -11   -1    0    0    0    0  0.00000000000E+00  0.00000000000E+00  0.45593999997E+02  0.45594000000E+02  0.51100000000E-03 0. -1.
         11   -1    0    0    0    0 -0.00000000000E+00 -0.00000000000E+00 -0.45593999997E+02  0.45594000000E+02  0.51100000000E-03 0.  1.
    9900012    2    1    2    0    0 -0.12648677107E+02 -0.26022948021E+01 -0.13561651324E+02  0.72461565277E+02  0.69999993464E+02 0.  0.
         12    1    1    2    0    0  0.12648677107E+02  0.26022948021E+01  0.13561651324E+02  0.18726434723E+02  0.00000000000E+00 0. -1.
         11    1    3    3    0    0 -0.87139938550E+01  0.37172344327E+01 -0.11739308977E+02  0.15085187975E+02  0.51100000000E-03 0. -1.
        -11    1    3    3    0    0 -0.68203787373E+01 -0.25252433170E+02 -0.18453511395E+02  0.32011482787E+02  0.51100000000E-03 0.  1.
         12    1    3    3    0    0  0.28856954849E+01  0.18932903936E+02  0.16631169048E+02  0.25364894515E+02  0.00000000000E+00 0. -1.
</event>
<event>
 7    1  0.2684545E-013  0.7246156E+02  0.7816164E-02  0.1226708E+00
        -11   -1    0    0    0    0  0.00000000000E+00  0.00000000000E+00  0.45593999997E+02  0.45594000000E+02  0.51100000000E-03 0. -1.
         11   -1    0    0    0    0 -0.00000000000E+00 -0.00000000000E+00 -0.45593999997E+02  0.45594000000E+02  0.51100000000E-03 0.  1.
    9900012    2    1    2    0    0  0.93670587960E+01 -0.12810607336E+02 -0.99411388404E+01  0.72461556338E+02  0.69999981819E+02 0.  0.
         12    1    1    2    0    0 -0.93670587960E+01  0.12810607336E+02  0.99411388404E+01  0.18726443662E+02  0.00000000000E+00 0. -1.
         11    1    3    3    0    0  0.88648121558E+01  0.57515302033E+01  0.11623924349E+02  0.15709252426E+02  0.51100000000E-03 0. -1.
        -11    1    3    3    0    0 -0.14984220429E+02 -0.24002525253E+02  0.16233492944E+01  0.28342253678E+02  0.51100000000E-03 0.  1.
         12    1    3    3    0    0  0.15486467069E+02  0.54403877134E+01 -0.23188412484E+02  0.28410050234E+02  0.00000000000E+00 0. -1.
</event>
<event>
 7    1  0.2684545E-013  0.7246161E+02  0.7816164E-02  0.1226708E+00
        -11   -1    0    0    0    0  0.00000000000E+00  0.00000000000E+00  0.45593999997E+02  0.45594000000E+02  0.51100000000E-03 0.  1.
         11   -1    0    0    0    0 -0.00000000000E+00 -0.00000000000E+00 -0.45593999997E+02  0.45594000000E+02  0.51100000000E-03 0. -1.
    9900012    2    1    2    0    0  0.99327748401E+01  0.74776950788E+01  0.14003635473E+02  0.72461608298E+02  0.70000049507E+02 0.  0.
         12    1    1    2    0    0 -0.99327748401E+01 -0.74776950788E+01 -0.14003635473E+02  0.18726391702E+02  0.00000000000E+00 0. -1.
         11    1    3    3    0    0  0.19719713358E+01 -0.21717708171E+02 -0.76644742181E+01  0.23114750365E+02  0.51100000000E-03 0. -1.
        -11    1    3    3    0    0 -0.39201493303E+01  0.86597231458E+01 -0.72405622606E+01  0.11949230847E+02  0.51100000000E-03 0.  1.
         12    1    3    3    0    0  0.11880952835E+02  0.20535680104E+02  0.28908671952E+02  0.37397627085E+02  0.00000000000E+00 0. -1.
</event>
<event>
 7    1  0.2684545E-013  0.7246155E+02  0.7816164E-02  0.1226708E+00
        -11   -1    0    0    0    0  0.00000000000E+00  0.00000000000E+00  0.45593999997E+02  0.45594000000E+02  0.51100000000E-03 0.  1.
         11   -1    0    0    0    0 -0.00000000000E+00 -0.00000000000E+00 -0.45593999997E+02  0.45594000000E+02  0.51100000000E-03 0. -1.
    9900012    2    1    2    0    0  0.13937099501E+02  0.12503358850E+02  0.32149167992E+00  0.72461545933E+02  0.69999968265E+02 0.  0.
         12    1    1    2    0    0 -0.13937099501E+02 -0.12503358850E+02 -0.32149167992E+00  0.18726454067E+02  0.00000000000E+00 0. -1.
         11    1    3    3    0    0 -0.30353317793E+01  0.27293742959E+02 -0.48387301388E+01  0.27885030991E+02  0.51100000000E-03 0. -1.
        -11    1    3    3    0    0  0.78595721013E+01 -0.41520406019E+01 -0.16522953397E+02  0.18762204135E+02  0.51100000000E-03 0.  1.
        -12    1    3    3    0    0  0.91128591790E+01 -0.10638343508E+02  0.21683175216E+02  0.25814310807E+02  0.00000000000E+00 0.  1.
</event>
<event>
 7    1  0.2684545E-013  0.7246160E+02  0.7816164E-02  0.1226708E+00
        -11   -1    0    0    0    0  0.00000000000E+00  0.00000000000E+00  0.45593999997E+02  0.45594000000E+02  0.51100000000E-03 0. -1.
         11   -1    0    0    0    0 -0.00000000000E+00 -0.00000000000E+00 -0.45593999997E+02  0.45594000000E+02  0.51100000000E-03 0.  1.
    9900012    2    1    2    0    0  0.17366533057E+02  0.38080579888E+01 -0.58805136089E+01  0.72461595743E+02  0.70000033152E+02 0.  0.
         12    1    1    2    0    0 -0.17366533057E+02 -0.38080579888E+01  0.58805136089E+01  0.18726404257E+02  0.00000000000E+00 0. -1.
         11    1    3    3    0    0 -0.33909210294E+01 -0.54484142848E+01 -0.94463575873E+00  0.64865939155E+01  0.51100000000E-03 0. -1.
        -11    1    3    3    0    0 -0.18195385301E+02  0.58424358128E+00 -0.16349081632E+02  0.24468466590E+02  0.51100000000E-03 0.  1.
        -12    1    3    3    0    0  0.38952839388E+02  0.86722286924E+01  0.11413203782E+02  0.41506535238E+02  0.00000000000E+00 0.  1.
</event>
<event>
 7    1  0.2684545E-013  0.7246153E+02  0.7816164E-02  0.1226708E+00
        -11   -1    0    0    0    0  0.00000000000E+00  0.00000000000E+00  0.45593999997E+02  0.45594000000E+02  0.51100000000E-03 0. -1.
         11   -1    0    0    0    0 -0.00000000000E+00 -0.00000000000E+00 -0.45593999997E+02  0.45594000000E+02  0.51100000000E-03 0.  1.
    9900012    2    1    2    0    0 -0.10889263030E+02  0.88209388524E+01 -0.12421585486E+02  0.72461526825E+02  0.69999943373E+02 0.  0.
         12    1    1    2    0    0  0.10889263030E+02 -0.88209388524E+01  0.12421585486E+02  0.18726473175E+02  0.00000000000E+00 0. -1.
         11    1    3    3    0    0 -0.14784406971E+02  0.98590615956E+01 -0.23720880025E+02  0.29638824782E+02  0.51100000000E-03 0.  1.
        -11    1    3    3    0    0  0.14460564124E+00  0.13730912053E+02 -0.97469784315E+01  0.16839312498E+02  0.51100000000E-03 0. -1.
        -12    1    3    3    0    0  0.37505382990E+01 -0.14769034796E+02  0.21046272970E+02  0.25983389545E+02  0.00000000000E+00 0.  1.
</event>
<event>
 7    1  0.2684545E-013  0.7246158E+02  0.7816164E-02  0.1226708E+00
        -11   -1    0    0    0    0  0.00000000000E+00  0.00000000000E+00  0.45593999997E+02  0.45594000000E+02  0.51100000000E-03 0.  1.
         11   -1    0    0    0    0 -0.00000000000E+00 -0.00000000000E+00 -0.45593999997E+02  0.45594000000E+02  0.51100000000E-03 0. -1.
    9900012    2    1    2    0    0 -0.34775481583E+01 -0.13557076318E+02  0.12441504173E+02  0.72461583216E+02  0.70000016833E+02 0.  0.
         12    1    1    2    0    0  0.34775481583E+01  0.13557076318E+02 -0.12441504173E+02  0.18726416784E+02  0.00000000000E+00 0. -1.
         11    1    3    3    0    0  0.62827578309E+01  0.50829566983E+01 -0.89817402183E+01  0.12082266028E+02  0.51100000000E-03 0. -1.
        -11    1    3    3    0    0  0.17744680282E+02  0.67744189196E+01  0.67243236363E+01  0.20149018801E+02  0.51100000000E-03 0.  1.
         12    1    3    3    0    0 -0.27504986272E+02 -0.25414451935E+02  0.14698920755E+02  0.40230298387E+02  0.00000000000E+00 0. -1.
</event>
<event>
 7    1  0.2684545E-013  0.7246152E+02  0.7816164E-02  0.1226708E+00
        -11   -1    0    0    0    0  0.00000000000E+00  0.00000000000E+00  0.45593999997E+02  0.45594000000E+02  0.51100000000E-03 0.  1.
         11   -1    0    0    0    0 -0.00000000000E+00 -0.00000000000E+00 -0.45593999997E+02  0.45594000000E+02  0.51100000000E-03 0. -1.
    9900012    2    1    2    0    0 -0.86349452264E+01  0.11616064928E+02  0.11882170324E+02  0.72461515677E+02  0.69999928851E+02 0.  0.
         12    1    1    2    0    0  0.86349452264E+01 -0.11616064928E+02 -0.11882170324E+02  0.18726484323E+02  0.00000000000E+00 0. -1.
         11    1    3    3    0    0 -0.16063459478E+02 -0.83430866605E+01 -0.98180224702E+00  0.18127486349E+02  0.51100000000E-03 0. -1.
        -11    1    3    3    0    0 -0.99981550129E+01  0.29394200100E+02  0.14852336317E+02  0.34417640789E+02  0.51100000000E-03 0.  1.
         12    1    3    3    0    0  0.17426669264E+02 -0.94350485112E+01 -0.19883637456E+01  0.19916388539E+02  0.00000000000E+00 0. -1.
</event>
<event>
 7    1  0.2684545E-013  0.7246155E+02  0.7816164E-02  0.1226708E+00
        -11   -1    0    0    0    0  0.00000000000E+00  0.00000000000E+00  0.45593999997E+02  0.45594000000E+02  0.51100000000E-03 0.  1.
         11   -1    0    0    0    0 -0.00000000000E+00 -0.00000000000E+00 -0.45593999997E+02  0.45594000000E+02  0.51100000000E-03 0. -1.
    9900012    2    1    2    0    0 -0.77655434300E+00  0.18658968126E+02 -0.13855235958E+01  0.72461553359E+02  0.69999977939E+02 0.  0.
         12    1    1    2    0    0  0.77655434300E+00 -0.18658968126E+02  0.13855235958E+01  0.18726446641E+02  0.00000000000E+00 0. -1.
         11    1    3    3    0    0  0.27447946873E+02  0.16950816120E+01 -0.63638405326E+01  0.28226965048E+02  0.51100000000E-03 0. -1.
        -11    1    3    3    0    0 -0.12028059850E+02  0.16011810794E+02 -0.97936690931E+01  0.22292785004E+02  0.51100000000E-03 0.  1.
        -12    1    3    3    0    0 -0.16196441367E+02  0.95207571923E+00  0.14771986030E+02  0.21941803307E+02  0.00000000000E+00 0.  1.
</event>
<event>
 7    1  0.2684545E-013  0.7246157E+02  0.7816164E-02  0.1226708E+00
        -11   -1    0    0    0    0  0.00000000000E+00  0.00000000000E+00  0.45593999997E+02  0.45594000000E+02  0.51100000000E-03 0.  1.
         11   -1    0    0    0    0 -0.00000000000E+00 -0.00000000000E+00 -0.45593999997E+02  0.45594000000E+02  0.51100000000E-03 0. -1.
    9900012    2    1    2    0    0 -0.15508858312E+02 -0.86994672933E+01  0.58714314531E+01  0.72461571492E+02  0.70000001561E+02 0.  0.
         12    1    1    2    0    0  0.15508858312E+02  0.86994672933E+01 -0.58714314531E+01  0.18726428508E+02  0.00000000000E+00 0. -1.
         11    1    3    3    0    0 -0.74931001802E+01  0.57544341226E+01 -0.17925542263E+02  0.20262900288E+02  0.51100000000E-03 0. -1.
        -11    1    3    3    0    0 -0.75710828001E+01  0.14802590862E+02  0.47725854930E+01  0.17297848524E+02  0.51100000000E-03 0.  1.
        -12    1    3    3    0    0 -0.44467533204E+00 -0.29256492278E+02  0.19024388223E+02  0.34900822681E+02  0.00000000000E+00 0.  1.
</event>
<event>
 7    1  0.2684545E-013  0.7246144E+02  0.7816164E-02  0.1226708E+00
        -11   -1    0    0    0    0  0.00000000000E+00  0.00000000000E+00  0.45593999997E+02  0.45594000000E+02  0.51100000000E-03 0. -1.
         11   -1    0    0    0    0 -0.00000000000E+00 -0.00000000000E+00 -0.45593999997E+02  0.45594000000E+02  0.51100000000E-03 0.  1.
    9900012    2    1    2    0    0 -0.56337106068E+01  0.13984313789E+02 -0.11107857962E+02  0.72461435022E+02  0.69999823783E+02 0.  0.
         12    1    1    2    0    0  0.56337106068E+01 -0.13984313789E+02  0.11107857962E+02  0.18726564978E+02  0.00000000000E+00 0. -1.
         11    1    3    3    0    0 -0.31793822921E+02  0.46181610091E+01 -0.56400017170E+01  0.32618770772E+02  0.51100000000E-03 0. -1.
        -11    1    3    3    0    0 -0.39715393010E+01  0.23782522258E+01 -0.75338611905E+01  0.88424132886E+01  0.51100000000E-03 0.  1.
        -12    1    3    3    0    0  0.30131651616E+02  0.69879005544E+01  0.20660049457E+01  0.31000250962E+02  0.00000000000E+00 0.  1.
</event>
<event>
 7    1  0.2684545E-013  0.7246162E+02  0.7816164E-02  0.1226708E+00
        -11   -1    0    0    0    0  0.00000000000E+00  0.00000000000E+00  0.45593999997E+02  0.45594000000E+02  0.51100000000E-03 0.  1.
         11   -1    0    0    0    0 -0.00000000000E+00 -0.00000000000E+00 -0.45593999997E+02  0.45594000000E+02  0.51100000000E-03 0. -1.
    9900012    2    1    2    0    0 -0.13055247823E+02 -0.11049586792E+02  0.76252421848E+01  0.72461623352E+02  0.70000069118E+02 0.  0.
         12    1    1    2    0    0  0.13055247823E+02  0.11049586792E+02 -0.76252421848E+01  0.18726376648E+02  0.00000000000E+00 0. -1.
         11    1    3    3    0    0 -0.13029631608E+02 -0.50620716193E+01  0.30247794521E+02  0.33321538718E+02  0.51100000000E-03 0. -1.
        -11    1    3    3    0    0  0.23761929783E+01 -0.34227012959E+00  0.77710848090E+01  0.81334618264E+01  0.51100000000E-03 0.  1.
         12    1    3    3    0    0 -0.24018091933E+01 -0.56452450428E+01 -0.30393637145E+02  0.31006622807E+02  0.00000000000E+00 0. -1.
</event>
<event>
 7    1  0.2684545E-013  0.7246155E+02  0.7816164E-02  0.1226708E+00
        -11   -1    0    0    0    0  0.00000000000E+00  0.00000000000E+00  0.45593999997E+02  0.45594000000E+02  0.51100000000E-03 0.  1.
         11   -1    0    0    0    0 -0.00000000000E+00 -0.00000000000E+00 -0.45593999997E+02  0.45594000000E+02  0.51100000000E-03 0. -1.
    9900012    2    1    2    0    0 -0.17198410538E+02 -0.47695532576E+01  0.56697268131E+01  0.72461554383E+02  0.69999979273E+02 0.  0.
         12    1    1    2    0    0  0.17198410538E+02  0.47695532576E+01 -0.56697268131E+01  0.18726445617E+02  0.00000000000E+00 0. -1.
         11    1    3    3    0    0 -0.12657869466E+02  0.21468015301E+02 -0.74166034869E+01  0.26001987384E+02  0.51100000000E-03 0.  1.
        -11    1    3    3    0    0  0.44942758433E+01  0.79071190103E+01  0.11003750309E+01  0.91614339417E+01  0.51100000000E-03 0. -1.
         12    1    3    3    0    0 -0.90348169149E+01 -0.34144687569E+02  0.11985955269E+02  0.37298133057E+02  0.00000000000E+00 0. -1.
</event>
<event>
 7    1  0.2684545E-013  0.7246155E+02  0.7816164E-02  0.1226708E+00
        -11   -1    0    0    0    0  0.00000000000E+00  0.00000000000E+00  0.45593999997E+02  0.45594000000E+02  0.51100000000E-03 0. -1.
         11   -1    0    0    0    0 -0.00000000000E+00 -0.00000000000E+00 -0.45593999997E+02  0.45594000000E+02  0.51100000000E-03 0.  1.
    9900012    2    1    2    0    0  0.47587322236E+01 -0.46980213849E+01 -0.17491795743E+02  0.72461551975E+02  0.69999976136E+02 0.  0.
         12    1    1    2    0    0 -0.47587322236E+01  0.46980213849E+01  0.17491795743E+02  0.18726448025E+02  0.00000000000E+00 0. -1.
         11    1    3    3    0    0  0.31973590410E+01  0.63546507927E+01 -0.15359702531E+02  0.16927053897E+02  0.51100000000E-03 0. -1.
        -11    1    3    3    0    0  0.23990474669E+02 -0.35407409240E+01 -0.15092106259E+02  0.28563112448E+02  0.51100000000E-03 0.  1.
         12    1    3    3    0    0 -0.22429101486E+02 -0.75119312536E+01  0.12960013046E+02  0.26971385630E+02  0.00000000000E+00 0. -1.
</event>
<event>
 7    1  0.2684545E-013  0.7246159E+02  0.7816164E-02  0.1226708E+00
        -11   -1    0    0    0    0  0.00000000000E+00  0.00000000000E+00  0.45593999997E+02  0.45594000000E+02  0.51100000000E-03 0. -1.
         11   -1    0    0    0    0 -0.00000000000E+00 -0.00000000000E+00 -0.45593999997E+02  0.45594000000E+02  0.51100000000E-03 0.  1.
    9900012    2    1    2    0    0 -0.53110569054E+01  0.14057121210E+02  0.11174461827E+02  0.72461586053E+02  0.70000020529E+02 0.  0.
         12    1    1    2    0    0  0.53110569054E+01 -0.14057121210E+02 -0.11174461827E+02  0.18726413947E+02  0.00000000000E+00 0. -1.
         11    1    3    3    0    0 -0.11440198972E+02  0.27069249938E+02  0.74347713048E+00  0.29396857030E+02  0.51100000000E-03 0.  1.
        -11    1    3    3    0    0  0.73009687061E+01  0.12824929186E+02  0.87275854179E+01  0.17145078015E+02  0.51100000000E-03 0. -1.
        -12    1    3    3    0    0 -0.11718266394E+01 -0.25837057913E+02  0.17033992788E+01  0.25919651008E+02  0.00000000000E+00 0.  1.
</event>
<event>
 7    1  0.2684545E-013  0.7246158E+02  0.7816164E-02  0.1226708E+00
        -11   -1    0    0    0    0  0.00000000000E+00  0.00000000000E+00  0.45593999997E+02  0.45594000000E+02  0.51100000000E-03 0. -1.
         11   -1    0    0    0    0 -0.00000000000E+00 -0.00000000000E+00 -0.45593999997E+02  0.45594000000E+02  0.51100000000E-03 0.  1.
    9900012    2    1    2    0    0 -0.64488937208E+01  0.10628599927E+02 -0.14004406095E+02  0.72461581317E+02  0.70000014359E+02 0.  0.
         12    1    1    2    0    0  0.64488937208E+01 -0.10628599927E+02  0.14004406095E+02  0.18726418683E+02  0.00000000000E+00 0. -1.
         11    1    3    3    0    0 -0.30401249058E+01 -0.60499066660E+01 -0.37202117525E+01  0.77255230149E+01  0.51100000000E-03 0. -1.
        -11    1    3    3    0    0 -0.28306210868E+02  0.23254232209E+02  0.93917991800E+00  0.36645367354E+02  0.51100000000E-03 0.  1.
         12    1    3    3    0    0  0.24897442053E+02 -0.65757256158E+01 -0.11223374260E+02  0.28090690948E+02  0.00000000000E+00 0. -1.
</event>
<event>
 7    1  0.2684545E-013  0.7246157E+02  0.7816164E-02  0.1226708E+00
        -11   -1    0    0    0    0  0.00000000000E+00  0.00000000000E+00  0.45593999997E+02  0.45594000000E+02  0.51100000000E-03 0.  1.
         11   -1    0    0    0    0 -0.00000000000E+00 -0.00000000000E+00 -0.45593999997E+02  0.45594000000E+02  0.51100000000E-03 0. -1.
    9900012    2    1    2    0    0 -0.79564466750E+01 -0.14519178336E+02  0.87502857773E+01  0.72461572567E+02  0.70000002960E+02 0.  0.
         12    1    1    2    0    0  0.79564466750E+01  0.14519178336E+02 -0.87502857773E+01  0.18726427433E+02  0.00000000000E+00 0. -1.
         11    1    3    3    0    0 -0.37568546189E+02 -0.10627539985E+02  0.11318363138E+02  0.40650284295E+02  0.51100000000E-03 0. -1.
        -11    1    3    3    0    0 -0.43771624816E+00  0.11539165598E+01 -0.18273394512E+00  0.12476020586E+01  0.51100000000E-03 0.  1.
        -12    1    3    3    0    0  0.30049815762E+02 -0.50455549106E+01 -0.23853434152E+01  0.30563686213E+02  0.00000000000E+00 0.  1.
</event>
<event>
 7    1  0.2684545E-013  0.7246147E+02  0.7816164E-02  0.1226708E+00
        -11   -1    0    0    0    0  0.00000000000E+00  0.00000000000E+00  0.45593999997E+02  0.45594000000E+02  0.51100000000E-03 0.  1.
         11   -1    0    0    0    0 -0.00000000000E+00 -0.00000000000E+00 -0.45593999997E+02  0.45594000000E+02  0.51100000000E-03 0. -1.
    9900012    2    1    2    0    0 -0.49875985382E+01  0.15384065573E+02 -0.94412542219E+01  0.72461470850E+02  0.69999870455E+02 0.  0.
         12    1    1    2    0    0  0.49875985382E+01 -0.15384065573E+02  0.94412542219E+01  0.18726529150E+02  0.00000000000E+00 0. -1.
         11    1    3    3    0    0 -0.84505335260E+01  0.37602801945E+02 -0.27740934106E+01  0.38640365235E+02  0.51100000000E-03 0.  1.
        -11    1    3    3    0    0 -0.94607839558E+01 -0.34986242583E+01 -0.42480198658E+01  0.10944975002E+02  0.51100000000E-03 0. -1.
        -12    1    3    3    0    0  0.12923718944E+02 -0.18720112113E+02 -0.24191409455E+01  0.22876130612E+02  0.00000000000E+00 0.  1.
</event>
<event>
 7    1  0.2684545E-013  0.7246221E+02  0.7816164E-02  0.1226706E+00
        -11   -1    0    0    0    0  0.00000000000E+00  0.00000000000E+00  0.45593999997E+02  0.45594000000E+02  0.51100000000E-03 0.  1.
         11   -1    0    0    0    0 -0.00000000000E+00 -0.00000000000E+00 -0.45593999997E+02  0.45594000000E+02  0.51100000000E-03 0. -1.
    9900012    2    1    2    0    0  0.92466548307E+01  0.74490366010E+01 -0.14479861103E+02  0.72462211648E+02  0.70000835478E+02 0.  0.
         12    1    1    2    0    0 -0.92466548307E+01 -0.74490366010E+01  0.14479861103E+02  0.18725788352E+02  0.00000000000E+00 0. -1.
         11    1    3    3    0    0 -0.16303439273E+02  0.15449240644E+02  0.19262738670E+01  0.22543107591E+02  0.51100000000E-03 0.  1.
        -11    1    3    3    0    0 -0.56955747611E+01 -0.75245253320E+01 -0.16107471362E+02  0.18668387377E+02  0.51100000000E-03 0. -1.
        -12    1    3    3    0    0  0.31245668865E+02 -0.47567871055E+00 -0.29866360768E+00  0.31250716680E+02  0.00000000000E+00 0.  1.
</event>
<event>
 7    1  0.2684545E-013  0.7246160E+02  0.7816164E-02  0.1226708E+00
        -11   -1    0    0    0    0  0.00000000000E+00  0.00000000000E+00  0.45593999997E+02  0.45594000000E+02  0.51100000000E-03 0. -1.
         11   -1    0    0    0    0 -0.00000000000E+00 -0.00000000000E+00 -0.45593999997E+02  0.45594000000E+02  0.51100000000E-03 0.  1.
    9900012    2    1    2    0    0  0.28004009219E+00  0.17828008926E+02 -0.57237835318E+01  0.72461600917E+02  0.70000039891E+02 0.  0.
         12    1    1    2    0    0 -0.28004009219E+00 -0.17828008926E+02  0.57237835318E+01  0.18726399083E+02  0.00000000000E+00 0. -1.
         11    1    3    3    0    0  0.71418462041E+01  0.69325895545E+01  0.36878859053E+01  0.10614483871E+02  0.51100000000E-03 0. -1.
        -11    1    3    3    0    0 -0.32997812113E+02  0.10403652126E+02 -0.87943805152E+01  0.35699197620E+02  0.51100000000E-03 0.  1.
         12    1    3    3    0    0  0.26136006001E+02  0.49176724499E+00 -0.61728892192E+00  0.26147919426E+02  0.00000000000E+00 0. -1.
</event>
<event>
 7    1  0.2684545E-013  0.7246155E+02  0.7816164E-02  0.1226708E+00
        -11   -1    0    0    0    0  0.00000000000E+00  0.00000000000E+00  0.45593999997E+02  0.45594000000E+02  0.51100000000E-03 0. -1.
         11   -1    0    0    0    0 -0.00000000000E+00 -0.00000000000E+00 -0.45593999997E+02  0.45594000000E+02  0.51100000000E-03 0.  1.
    9900012    2    1    2    0    0  0.19029657325E+01 -0.14138611127E+02 -0.12130879250E+02  0.72461552538E+02  0.69999976868E+02 0.  0.
         12    1    1    2    0    0 -0.19029657325E+01  0.14138611127E+02  0.12130879250E+02  0.18726447462E+02  0.00000000000E+00 0. -1.
         11    1    3    3    0    0 -0.25768261529E+02 -0.20344523872E+01  0.17374282944E+01  0.25906774328E+02  0.51100000000E-03 0. -1.
        -11    1    3    3    0    0 -0.40199147839E+01 -0.12066198662E+02 -0.31798481094E+01  0.13109702486E+02  0.51100000000E-03 0.  1.
        -12    1    3    3    0    0  0.31691142045E+02 -0.37960078322E-01 -0.10688459435E+02  0.33445075724E+02  0.00000000000E+00 0.  1.
</event>
<event>
 7    1  0.2684545E-013  0.7246157E+02  0.7816164E-02  0.1226708E+00
        -11   -1    0    0    0    0  0.00000000000E+00  0.00000000000E+00  0.45593999997E+02  0.45594000000E+02  0.51100000000E-03 0.  1.
         11   -1    0    0    0    0 -0.00000000000E+00 -0.00000000000E+00 -0.45593999997E+02  0.45594000000E+02  0.51100000000E-03 0. -1.
    9900012    2    1    2    0    0  0.27011767861E+01 -0.17517261880E+02 -0.60438841772E+01  0.72461565322E+02  0.69999993522E+02 0.  0.
         12    1    1    2    0    0 -0.27011767861E+01  0.17517261880E+02  0.60438841772E+01  0.18726434678E+02  0.00000000000E+00 0. -1.
         11    1    3    3    0    0  0.66816775617E+01  0.11601058578E+02 -0.75817484204E+01  0.15385456917E+02  0.51100000000E-03 0. -1.
        -11    1    3    3    0    0 -0.10557317146E+02  0.20628333977E+01 -0.17067979852E+02  0.20174938995E+02  0.51100000000E-03 0.  1.
        -12    1    3    3    0    0  0.65768163704E+01 -0.31181153856E+02  0.18605844095E+02  0.36901169410E+02  0.00000000000E+00 0.  1.
</event>
<event>
 7    1  0.2684545E-013  0.7246154E+02  0.7816164E-02  0.1226708E+00
        -11   -1    0    0    0    0  0.00000000000E+00  0.00000000000E+00  0.45593999997E+02  0.45594000000E+02  0.51100000000E-03 0. -1.
         11   -1    0    0    0    0 -0.00000000000E+00 -0.00000000000E+00 -0.45593999997E+02  0.45594000000E+02  0.51100000000E-03 0.  1.
    9900012    2    1    2    0    0  0.20216085908E+01  0.46697268659E+01 -0.18021849721E+02  0.72461539639E+02  0.69999960065E+02 0.  0.
         12    1    1    2    0    0 -0.20216085908E+01 -0.46697268659E+01  0.18021849721E+02  0.18726460361E+02  0.00000000000E+00 0. -1.
         11    1    3    3    0    0 -0.22297211332E+02  0.60539638783E+01  0.81138003689E+01  0.24487749356E+02  0.51100000000E-03 0. -1.
        -11    1    3    3    0    0  0.95299639568E+01  0.12322025451E+02 -0.80559264928E+00  0.15598125016E+02  0.51100000000E-03 0.  1.
        -12    1    3    3    0    0  0.14788855966E+02 -0.13706262463E+02 -0.25330057441E+02  0.32375665267E+02  0.00000000000E+00 0.  1.
</event>
<event>
 7    1  0.2684545E-013  0.7246156E+02  0.7816164E-02  0.1226708E+00
        -11   -1    0    0    0    0  0.00000000000E+00  0.00000000000E+00  0.45593999997E+02  0.45594000000E+02  0.51100000000E-03 0.  1.
         11   -1    0    0    0    0 -0.00000000000E+00 -0.00000000000E+00 -0.45593999997E+02  0.45594000000E+02  0.51100000000E-03 0. -1.
    9900012    2    1    2    0    0 -0.16287057546E+02 -0.57469033031E+01  0.72377160372E+01  0.72461556811E+02  0.69999982435E+02 0.  0.
         12    1    1    2    0    0  0.16287057546E+02  0.57469033031E+01 -0.72377160372E+01  0.18726443189E+02  0.00000000000E+00 0. -1.
         11    1    3    3    0    0 -0.11403442643E+02 -0.14932394033E+02 -0.34408067587E-01  0.18788722145E+02  0.51100000000E-03 0. -1.
        -11    1    3    3    0    0 -0.22175259975E+02 -0.11234370736E+02  0.99616453677E+01  0.26780358838E+02  0.51100000000E-03 0.  1.
         12    1    3    3    0    0  0.17291645072E+02  0.20419861466E+02 -0.26895212629E+01  0.26892475828E+02  0.00000000000E+00 0. -1.
</event>
<event>
 7    1  0.2684545E-013  0.7246145E+02  0.7816164E-02  0.1226708E+00
        -11   -1    0    0    0    0  0.00000000000E+00  0.00000000000E+00  0.45593999997E+02  0.45594000000E+02  0.51100000000E-03 0.  1.
         11   -1    0    0    0    0 -0.00000000000E+00 -0.00000000000E+00 -0.45593999997E+02  0.45594000000E+02  0.51100000000E-03 0. -1.
    9900012    2    1    2    0    0 -0.17961922032E+02 -0.50567330226E+01  0.15755931632E+01  0.72461449710E+02  0.69999842916E+02 0.  0.
         12    1    1    2    0    0  0.17961922032E+02  0.50567330226E+01 -0.15755931632E+01  0.18726550290E+02  0.00000000000E+00 0. -1.
         11    1    3    3    0    0 -0.15326357805E+02 -0.27134458425E+02  0.78861539194E+01  0.32146033993E+02  0.51100000000E-03 0. -1.
        -11    1    3    3    0    0  0.52305514915E+01 -0.44891747075E+01  0.67828210149E+01  0.96704715315E+01  0.51100000000E-03 0.  1.
        -12    1    3    3    0    0 -0.78661157180E+01  0.26566900110E+02 -0.13093381771E+02  0.30644944186E+02  0.00000000000E+00 0.  1.
</event>
<event>
 7    1  0.2684545E-013  0.7246161E+02  0.7816164E-02  0.1226708E+00
        -11   -1    0    0    0    0  0.00000000000E+00  0.00000000000E+00  0.45593999997E+02  0.45594000000E+02  0.51100000000E-03 0. -1.
         11   -1    0    0    0    0 -0.00000000000E+00 -0.00000000000E+00 -0.45593999997E+02  0.45594000000E+02  0.51100000000E-03 0.  1.
    9900012    2    1    2    0    0  0.11687825262E+02 -0.66702415140E+01  0.13022303453E+02  0.72461607704E+02  0.70000048732E+02 0.  0.
         12    1    1    2    0    0 -0.11687825262E+02  0.66702415140E+01 -0.13022303453E+02  0.18726392296E+02  0.00000000000E+00 0. -1.
         11    1    3    3    0    0 -0.23520698136E+02  0.76231932886E+00  0.19552344255E+02  0.30595727442E+02  0.51100000000E-03 0. -1.
        -11    1    3    3    0    0  0.47343611946E+01 -0.94737989375E+00  0.64977818541E+01  0.80952377277E+01  0.51100000000E-03 0.  1.
        -12    1    3    3    0    0  0.30474162204E+02 -0.64851809491E+01 -0.13027822656E+02  0.33770642534E+02  0.00000000000E+00 0.  1.
</event>
<event>
 7    1  0.2684545E-013  0.7246157E+02  0.7816164E-02  0.1226708E+00
        -11   -1    0    0    0    0  0.00000000000E+00  0.00000000000E+00  0.45593999997E+02  0.45594000000E+02  0.51100000000E-03 0.  1.
         11   -1    0    0    0    0 -0.00000000000E+00 -0.00000000000E+00 -0.45593999997E+02  0.45594000000E+02  0.51100000000E-03 0. -1.
    9900012    2    1    2    0    0 -0.96104585793E+01 -0.16044740775E+02 -0.94060420259E+00  0.72461565291E+02  0.69999993482E+02 0.  0.
         12    1    1    2    0    0  0.96104585793E+01  0.16044740775E+02  0.94060420259E+00  0.18726434709E+02  0.00000000000E+00 0. -1.
         11    1    3    3    0    0  0.17050508053E+02  0.62307629610E+01 -0.16081820032E+02  0.24252158002E+02  0.51100000000E-03 0. -1.
        -11    1    3    3    0    0 -0.12782695226E+02  0.43541432144E+01 -0.19707131324E+01  0.13646961966E+02  0.51100000000E-03 0.  1.
        -12    1    3    3    0    0 -0.13878271406E+02 -0.26629646950E+02  0.17111928962E+02  0.34562445323E+02  0.00000000000E+00 0.  1.
</event>
<event>
 7    1  0.2684545E-013  0.7246155E+02  0.7816164E-02  0.1226708E+00
        -11   -1    0    0    0    0  0.00000000000E+00  0.00000000000E+00  0.45593999997E+02  0.45594000000E+02  0.51100000000E-03 0.  1.
         11   -1    0    0    0    0 -0.00000000000E+00 -0.00000000000E+00 -0.45593999997E+02  0.45594000000E+02  0.51100000000E-03 0. -1.
    9900012    2    1    2    0    0  0.15503022003E+02  0.86762844062E+01  0.59210105611E+01  0.72461548964E+02  0.69999972214E+02 0.  0.
         12    1    1    2    0    0 -0.15503022003E+02 -0.86762844062E+01 -0.59210105611E+01  0.18726451036E+02  0.00000000000E+00 0. -1.
         11    1    3    3    0    0  0.95019974252E+01  0.55237240135E+01 -0.15794857635E+02  0.19242583247E+02  0.51100000000E-03 0. -1.
        -11    1    3    3    0    0  0.59047311881E+01  0.19142969324E+02 -0.62662140553E+01  0.20990106331E+02  0.51100000000E-03 0.  1.
        -12    1    3    3    0    0  0.96293389623E-01 -0.15990408931E+02  0.27982082251E+02  0.32228859386E+02  0.00000000000E+00 0.  1.
</event>
<event>
 7    1  0.2684545E-013  0.7246163E+02  0.7816164E-02  0.1226708E+00
        -11   -1    0    0    0    0  0.00000000000E+00  0.00000000000E+00  0.45593999997E+02  0.45594000000E+02  0.51100000000E-03 0. -1.
         11   -1    0    0    0    0 -0.00000000000E+00 -0.00000000000E+00 -0.45593999997E+02  0.45594000000E+02  0.51100000000E-03 0.  1.
    9900012    2    1    2    0    0  0.16503930045E+02 -0.82986526693E+01  0.30707380758E+01  0.72461634218E+02  0.70000083273E+02 0.  0.
         12    1    1    2    0    0 -0.16503930045E+02  0.82986526693E+01 -0.30707380758E+01  0.18726365782E+02  0.00000000000E+00 0. -1.
         11    1    3    3    0    0  0.15958234665E+02 -0.15685493985E+02 -0.20141563817E+02  0.30106188208E+02  0.51100000000E-03 0. -1.
        -11    1    3    3    0    0  0.87865493001E+01  0.15501074207E+02  0.16588650814E+01  0.17895211197E+02  0.51100000000E-03 0.  1.
         12    1    3    3    0    0 -0.82408539201E+01 -0.81142328920E+01  0.21553436811E+02  0.24460234813E+02  0.00000000000E+00 0. -1.
</event>
<event>
 7    1  0.2684545E-013  0.7246164E+02  0.7816164E-02  0.1226708E+00
        -11   -1    0    0    0    0  0.00000000000E+00  0.00000000000E+00  0.45593999997E+02  0.45594000000E+02  0.51100000000E-03 0.  1.
         11   -1    0    0    0    0 -0.00000000000E+00 -0.00000000000E+00 -0.45593999997E+02  0.45594000000E+02  0.51100000000E-03 0. -1.
    9900012    2    1    2    0    0  0.12979803114E+02 -0.78005629787E+01 -0.11016014511E+02  0.72461637636E+02  0.70000087725E+02 0.  0.
         12    1    1    2    0    0 -0.12979803114E+02  0.78005629787E+01  0.11016014511E+02  0.18726362364E+02  0.00000000000E+00 0. -1.
         11    1    3    3    0    0  0.11753666956E+02  0.76985970416E+00 -0.61443876511E+01  0.13285137212E+02  0.51100000000E-03 0. -1.
        -11    1    3    3    0    0  0.11162257137E+02 -0.16914500241E+02  0.21647632630E+02  0.29653267974E+02  0.51100000000E-03 0.  1.
         12    1    3    3    0    0 -0.99361209789E+01  0.83440775581E+01 -0.26519259490E+02  0.29523232450E+02  0.00000000000E+00 0. -1.
</event>
<event>
 7    1  0.2684545E-013  0.7246162E+02  0.7816164E-02  0.1226708E+00
        -11   -1    0    0    0    0  0.00000000000E+00  0.00000000000E+00  0.45593999997E+02  0.45594000000E+02  0.51100000000E-03 0. -1.
         11   -1    0    0    0    0 -0.00000000000E+00 -0.00000000000E+00 -0.45593999997E+02  0.45594000000E+02  0.51100000000E-03 0.  1.
    9900012    2    1    2    0    0 -0.83170751474E+01  0.15814770425E+02 -0.56032777795E+01  0.72461616888E+02  0.70000060697E+02 0.  0.
         12    1    1    2    0    0  0.83170751474E+01 -0.15814770425E+02  0.56032777795E+01  0.18726383112E+02  0.00000000000E+00 0. -1.
         11    1    3    3    0    0 -0.65914713450E+01  0.12737321914E+01  0.15456399552E+02  0.16851414646E+02  0.51100000000E-03 0. -1.
        -11    1    3    3    0    0 -0.70469302721E+01  0.25667521921E+02  0.47195890316E+01  0.27032488393E+02  0.51100000000E-03 0.  1.
         12    1    3    3    0    0  0.53213264698E+01 -0.11126483688E+02 -0.25779266363E+02  0.28577713850E+02  0.00000000000E+00 0. -1.
</event>
<event>
 7    1  0.2684545E-013  0.7246151E+02  0.7816164E-02  0.1226708E+00
        -11   -1    0    0    0    0  0.00000000000E+00  0.00000000000E+00  0.45593999997E+02  0.45594000000E+02  0.51100000000E-03 0.  1.
         11   -1    0    0    0    0 -0.00000000000E+00 -0.00000000000E+00 -0.45593999997E+02  0.45594000000E+02  0.51100000000E-03 0. -1.
    9900012    2    1    2    0    0  0.40272574518E+01  0.18215126943E+02  0.16345232055E+01  0.72461512923E+02  0.69999925263E+02 0.  0.
         12    1    1    2    0    0 -0.40272574518E+01 -0.18215126943E+02 -0.16345232055E+01  0.18726487077E+02  0.00000000000E+00 0. -1.
         11    1    3    3    0    0  0.66273201889E+01  0.43950982374E+01 -0.19069609607E+02  0.20661274700E+02  0.51100000000E-03 0. -1.
        -11    1    3    3    0    0  0.11384630681E+02  0.19680847738E+02 -0.37331369808E+01  0.23040874449E+02  0.51100000000E-03 0.  1.
        -12    1    3    3    0    0 -0.13984693418E+02 -0.58608190317E+01  0.24437269793E+02  0.28759363773E+02  0.00000000000E+00 0.  1.
</event>
<event>
 7    1  0.2684545E-013  0.7246170E+02  0.7816164E-02  0.1226708E+00
        -11   -1    0    0    0    0  0.00000000000E+00  0.00000000000E+00  0.45593999997E+02  0.45594000000E+02  0.51100000000E-03 0. -1.
         11   -1    0    0    0    0 -0.00000000000E+00 -0.00000000000E+00 -0.45593999997E+02  0.45594000000E+02  0.51100000000E-03 0.  1.
    9900012    2    1    2    0    0 -0.42146041643E+01  0.18150967729E+02 -0.18583934703E+01  0.72461704476E+02  0.70000174796E+02 0.  0.
         12    1    1    2    0    0  0.42146041643E+01 -0.18150967729E+02  0.18583934703E+01  0.18726295524E+02  0.00000000000E+00 0. -1.
         11    1    3    3    0    0  0.14999186922E+02 -0.87086493142E+01 -0.17260824357E+02  0.24469414357E+02  0.51100000000E-03 0. -1.
        -11    1    3    3    0    0  0.63288401610E+01  0.16774874189E+02  0.48524089440E+01  0.18574081260E+02  0.51100000000E-03 0.  1.
        -12    1    3    3    0    0 -0.25542631248E+02  0.10084742854E+02  0.10550021943E+02  0.29418208859E+02  0.00000000000E+00 0.  1.
</event>
<event>
 7    1  0.2684545E-013  0.7246160E+02  0.7816164E-02  0.1226708E+00
        -11   -1    0    0    0    0  0.00000000000E+00  0.00000000000E+00  0.45593999997E+02  0.45594000000E+02  0.51100000000E-03 0.  1.
         11   -1    0    0    0    0 -0.00000000000E+00 -0.00000000000E+00 -0.45593999997E+02  0.45594000000E+02  0.51100000000E-03 0. -1.
    9900012    2    1    2    0    0  0.83674519052E+01  0.22317121027E+01  0.16603711903E+02  0.72461600473E+02  0.70000039313E+02 0.  0.
         12    1    1    2    0    0 -0.83674519052E+01 -0.22317121027E+01 -0.16603711903E+02  0.18726399527E+02  0.00000000000E+00 0. -1.
         11    1    3    3    0    0  0.10857074777E+02  0.67759850640E+01 -0.13579921168E+02  0.18660233265E+02  0.51100000000E-03 0. -1.
        -11    1    3    3    0    0  0.50374047315E+01  0.14885761974E+02 -0.16001063660E+01  0.15796255778E+02  0.51100000000E-03 0.  1.
        -12    1    3    3    0    0 -0.75270276032E+01 -0.19430034935E+02  0.31783739438E+02  0.38005111429E+02  0.00000000000E+00 0.  1.
</event>
<event>
 7    1  0.2684545E-013  0.7246155E+02  0.7816164E-02  0.1226708E+00
        -11   -1    0    0    0    0  0.00000000000E+00  0.00000000000E+00  0.45593999997E+02  0.45594000000E+02  0.51100000000E-03 0.  1.
         11   -1    0    0    0    0 -0.00000000000E+00 -0.00000000000E+00 -0.45593999997E+02  0.45594000000E+02  0.51100000000E-03 0. -1.
    9900012    2    1    2    0    0  0.13466571286E+02  0.11266044137E+02  0.65121248683E+01  0.72461546438E+02  0.69999968923E+02 0.  0.
         12    1    1    2    0    0 -0.13466571286E+02 -0.11266044137E+02 -0.65121248683E+01  0.18726453562E+02  0.00000000000E+00 0. -1.
         11    1    3    3    0    0  0.88937940651E+01  0.14899916311E+02 -0.27728757974E+02  0.32710718396E+02  0.51100000000E-03 0. -1.
        -11    1    3    3    0    0 -0.71561721306E+01  0.44667193475E+00  0.17457465555E+02  0.18872557305E+02  0.51100000000E-03 0.  1.
        -12    1    3    3    0    0  0.11728949352E+02 -0.40805441093E+01  0.16783417287E+02  0.20878270737E+02  0.00000000000E+00 0.  1.
</event>
<event>
 7    1  0.2684545E-013  0.7246160E+02  0.7816164E-02  0.1226708E+00
        -11   -1    0    0    0    0  0.00000000000E+00  0.00000000000E+00  0.45593999997E+02  0.45594000000E+02  0.51100000000E-03 0.  1.
         11   -1    0    0    0    0 -0.00000000000E+00 -0.00000000000E+00 -0.45593999997E+02  0.45594000000E+02  0.51100000000E-03 0. -1.
    9900012    2    1    2    0    0 -0.34447035056E+01  0.96448935575E+01  0.15677626241E+02  0.72461603696E+02  0.70000043512E+02 0.  0.
         12    1    1    2    0    0  0.34447035056E+01 -0.96448935575E+01 -0.15677626241E+02  0.18726396304E+02  0.00000000000E+00 0. -1.
         11    1    3    3    0    0  0.45199810671E+01  0.63910368646E+01  0.35637627287E+00  0.78359801787E+01  0.51100000000E-03 0. -1.
        -11    1    3    3    0    0  0.14541062810E+02  0.21408154843E+02  0.23092334160E+02  0.34684398491E+02  0.51100000000E-03 0.  1.
         12    1    3    3    0    0 -0.22505747383E+02 -0.18154298150E+02 -0.77710841925E+01  0.29941225027E+02  0.00000000000E+00 0. -1.
</event>
<event>
 7    1  0.2684545E-013  0.7246174E+02  0.7816164E-02  0.1226708E+00
        -11   -1    0    0    0    0  0.00000000000E+00  0.00000000000E+00  0.45593999997E+02  0.45594000000E+02  0.51100000000E-03 0. -1.
         11   -1    0    0    0    0 -0.00000000000E+00 -0.00000000000E+00 -0.45593999997E+02  0.45594000000E+02  0.51100000000E-03 0.  1.
    9900012    2    1    2    0    0 -0.83066844923E+01 -0.12035832158E+02 -0.11696609599E+02  0.72461736649E+02  0.70000216707E+02 0.  0.
         12    1    1    2    0    0  0.83066844923E+01  0.12035832158E+02  0.11696609599E+02  0.18726263351E+02  0.00000000000E+00 0. -1.
         11    1    3    3    0    0 -0.52247057794E+01 -0.46355280332E+01 -0.16038681508E+01  0.71664540698E+01  0.51100000000E-03 0. -1.
        -11    1    3    3    0    0 -0.22034490578E+02 -0.25095948751E+02 -0.18320817684E+02  0.38091702240E+02  0.51100000000E-03 0.  1.
         12    1    3    3    0    0  0.18952511865E+02  0.17695644626E+02  0.82280762356E+01  0.27203580339E+02  0.00000000000E+00 0. -1.
</event>
<event>
 7    1  0.2684545E-013  0.7246140E+02  0.7816164E-02  0.1226708E+00
        -11   -1    0    0    0    0  0.00000000000E+00  0.00000000000E+00  0.45593999997E+02  0.45594000000E+02  0.51100000000E-03 0. -1.
         11   -1    0    0    0    0 -0.00000000000E+00 -0.00000000000E+00 -0.45593999997E+02  0.45594000000E+02  0.51100000000E-03 0.  1.
    9900012    2    1    2    0    0 -0.15529547496E+02 -0.97824924854E+01 -0.37177505353E+01  0.72461396632E+02  0.69999773772E+02 0.  0.
         12    1    1    2    0    0  0.15529547496E+02  0.97824924854E+01  0.37177505353E+01  0.18726603368E+02  0.00000000000E+00 0. -1.
         11    1    3    3    0    0  0.21156671499E+02 -0.10825042481E+02  0.29788131263E+01  0.23951192487E+02  0.51100000000E-03 0. -1.
        -11    1    3    3    0    0  0.46069610279E+01  0.43861161029E+01 -0.26283513986E+01  0.68826111118E+01  0.51100000000E-03 0.  1.
        -12    1    3    3    0    0 -0.41293180023E+02 -0.33435661077E+01 -0.40682122630E+01  0.41627593033E+02  0.00000000000E+00 0.  1.
</event>
<event>
 7    1  0.2684545E-013  0.7246162E+02  0.7816164E-02  0.1226708E+00
        -11   -1    0    0    0    0  0.00000000000E+00  0.00000000000E+00  0.45593999997E+02  0.45594000000E+02  0.51100000000E-03 0.  1.
         11   -1    0    0    0    0 -0.00000000000E+00 -0.00000000000E+00 -0.45593999997E+02  0.45594000000E+02  0.51100000000E-03 0. -1.
    9900012    2    1    2    0    0 -0.12944175865E+02  0.10372920805E+02  0.86907014736E+01  0.72461615753E+02  0.70000059219E+02 0.  0.
         12    1    1    2    0    0  0.12944175865E+02 -0.10372920805E+02 -0.86907014736E+01  0.18726384247E+02  0.00000000000E+00 0. -1.
         11    1    3    3    0    0 -0.10692887792E+02 -0.87495060260E+01 -0.12622742182E+02  0.18714308042E+02  0.51100000000E-03 0. -1.
        -11    1    3    3    0    0  0.83152937542E+00 -0.12324191810E+02  0.18201475457E+02  0.21997064667E+02  0.51100000000E-03 0.  1.
         12    1    3    3    0    0 -0.30828174485E+01  0.31446618641E+02  0.31119681982E+01  0.31750243045E+02  0.00000000000E+00 0. -1.
</event>
<event>
 7    1  0.2684545E-013  0.7246154E+02  0.7816164E-02  0.1226708E+00
        -11   -1    0    0    0    0  0.00000000000E+00  0.00000000000E+00  0.45593999997E+02  0.45594000000E+02  0.51100000000E-03 0.  1.
         11   -1    0    0    0    0 -0.00000000000E+00 -0.00000000000E+00 -0.45593999997E+02  0.45594000000E+02  0.51100000000E-03 0. -1.
    9900012    2    1    2    0    0 -0.64185216596E+01  0.79288547531E+01  0.15704019216E+02  0.72461538040E+02  0.69999957983E+02 0.  0.
         12    1    1    2    0    0  0.64185216596E+01 -0.79288547531E+01 -0.15704019216E+02  0.18726461960E+02  0.00000000000E+00 0. -1.
         11    1    3    3    0    0 -0.75768878594E+01 -0.14684192792E+02  0.30175152268E+02  0.34403118496E+02  0.51100000000E-03 0.  1.
        -11    1    3    3    0    0 -0.40888440026E+01  0.21564372367E+01 -0.16221352962E+02  0.16867162150E+02  0.51100000000E-03 0. -1.
        -12    1    3    3    0    0  0.52472102024E+01  0.20456610308E+02  0.17502199099E+01  0.21191257394E+02  0.00000000000E+00 0.  1.
</event>
<event>
 7    1  0.2684545E-013  0.7246159E+02  0.7816164E-02  0.1226708E+00
        -11   -1    0    0    0    0  0.00000000000E+00  0.00000000000E+00  0.45593999997E+02  0.45594000000E+02  0.51100000000E-03 0.  1.
         11   -1    0    0    0    0 -0.00000000000E+00 -0.00000000000E+00 -0.45593999997E+02  0.45594000000E+02  0.51100000000E-03 0. -1.
    9900012    2    1    2    0    0  0.79748660129E+01  0.12913996740E+02  0.10968526520E+02  0.72461591542E+02  0.70000027679E+02 0.  0.
         12    1    1    2    0    0 -0.79748660129E+01 -0.12913996740E+02 -0.10968526520E+02  0.18726408458E+02  0.00000000000E+00 0. -1.
         11    1    3    3    0    0  0.24689171747E+02  0.56227090827E+01  0.30320626496E+02  0.39503296702E+02  0.51100000000E-03 0.  1.
        -11    1    3    3    0    0 -0.66206058547E+01 -0.54580504915E+01 -0.13274342363E+01  0.86824431449E+01  0.51100000000E-03 0. -1.
        -12    1    3    3    0    0 -0.10093699879E+02  0.12749338148E+02 -0.18024665740E+02  0.24275851695E+02  0.00000000000E+00 0.  1.
</event>
<event>
 7    1  0.2684545E-013  0.7246168E+02  0.7816164E-02  0.1226708E+00
        -11   -1    0    0    0    0  0.00000000000E+00  0.00000000000E+00  0.45593999997E+02  0.45594000000E+02  0.51100000000E-03 0. -1.
         11   -1    0    0    0    0 -0.00000000000E+00 -0.00000000000E+00 -0.45593999997E+02  0.45594000000E+02  0.51100000000E-03 0.  1.
    9900012    2    1    2    0    0  0.78343078184E+01 -0.12456761447E+02 -0.11581355348E+02  0.72461679581E+02  0.70000142366E+02 0.  0.
         12    1    1    2    0    0 -0.78343078184E+01  0.12456761447E+02  0.11581355348E+02  0.18726320419E+02  0.00000000000E+00 0. -1.
         11    1    3    3    0    0 -0.97901583342E+01  0.13338470077E+02 -0.33996501695E+01  0.16891406269E+02  0.51100000000E-03 0. -1.
        -11    1    3    3    0    0  0.57072041322E+01  0.10737294908E+02 -0.11836736338E+02  0.16969679088E+02  0.51100000000E-03 0.  1.
        -12    1    3    3    0    0  0.11917262020E+02 -0.36532526433E+02  0.36550311599E+01  0.38600594223E+02  0.00000000000E+00 0.  1.
</event>
<event>
 7    1  0.2684545E-013  0.7246163E+02  0.7816164E-02  0.1226708E+00
        -11   -1    0    0    0    0  0.00000000000E+00  0.00000000000E+00  0.45593999997E+02  0.45594000000E+02  0.51100000000E-03 0.  1.
         11   -1    0    0    0    0 -0.00000000000E+00 -0.00000000000E+00 -0.45593999997E+02  0.45594000000E+02  0.51100000000E-03 0. -1.
    9900012    2    1    2    0    0  0.62438200246E+01 -0.17453787594E+02 -0.26564917045E+01  0.72461629876E+02  0.70000077616E+02 0.  0.
         12    1    1    2    0    0 -0.62438200246E+01  0.17453787594E+02  0.26564917045E+01  0.18726370124E+02  0.00000000000E+00 0. -1.
         11    1    3    3    0    0 -0.44379457426E+01 -0.94899506498E+01 -0.24336653383E+02  0.26495796344E+02  0.51100000000E-03 0. -1.
        -11    1    3    3    0    0 -0.83192758543E+01 -0.76819403940E+01 -0.56685330913E+01  0.12663128627E+02  0.51100000000E-03 0.  1.
        -12    1    3    3    0    0  0.19001041621E+02 -0.28189654975E+00  0.27348694770E+02  0.33302704905E+02  0.00000000000E+00 0.  1.
</event>
<event>
 7    1  0.2684545E-013  0.7246149E+02  0.7816164E-02  0.1226708E+00
        -11   -1    0    0    0    0  0.00000000000E+00  0.00000000000E+00  0.45593999997E+02  0.45594000000E+02  0.51100000000E-03 0.  1.
         11   -1    0    0    0    0 -0.00000000000E+00 -0.00000000000E+00 -0.45593999997E+02  0.45594000000E+02  0.51100000000E-03 0. -1.
    9900012    2    1    2    0    0  0.68293802939E+01 -0.40868064905E+01  0.16951097894E+02  0.72461490920E+02  0.69999896600E+02 0.  0.
         12    1    1    2    0    0 -0.68293802939E+01  0.40868064905E+01 -0.16951097894E+02  0.18726509080E+02  0.00000000000E+00 0. -1.
         11    1    3    3    0    0  0.21893783980E+02  0.50664222219E+01  0.23263629719E+02  0.32345059578E+02  0.51100000000E-03 0. -1.
        -11    1    3    3    0    0  0.73516657745E+01  0.12370658715E+01 -0.12583416912E+02  0.14625994089E+02  0.51100000000E-03 0.  1.
         12    1    3    3    0    0 -0.22416069461E+02 -0.10390294584E+02  0.62708850875E+01  0.25490437254E+02  0.00000000000E+00 0. -1.
</event>
<event>
 7    1  0.2684545E-013  0.7246148E+02  0.7816164E-02  0.1226708E+00
        -11   -1    0    0    0    0  0.00000000000E+00  0.00000000000E+00  0.45593999997E+02  0.45594000000E+02  0.51100000000E-03 0.  1.
         11   -1    0    0    0    0 -0.00000000000E+00 -0.00000000000E+00 -0.45593999997E+02  0.45594000000E+02  0.51100000000E-03 0. -1.
    9900012    2    1    2    0    0  0.17022319523E+02 -0.53301660780E+01  0.57019733185E+01  0.72461480514E+02  0.69999883044E+02 0.  0.
         12    1    1    2    0    0 -0.17022319523E+02  0.53301660780E+01 -0.57019733185E+01  0.18726519486E+02  0.00000000000E+00 0. -1.
         11    1    3    3    0    0  0.89698774504E-01 -0.15209211699E+01 -0.36403587098E+01  0.39463221957E+01  0.51100000000E-03 0. -1.
        -11    1    3    3    0    0  0.41816085265E+02 -0.12804951998E+01  0.11565564891E+02  0.43404918458E+02  0.51100000000E-03 0.  1.
         12    1    3    3    0    0 -0.24883464517E+02 -0.25287497083E+01 -0.22232328623E+01  0.25110239860E+02  0.00000000000E+00 0. -1.
</event>
<event>
 7    1  0.2684545E-013  0.7246171E+02  0.7816164E-02  0.1226708E+00
        -11   -1    0    0    0    0  0.00000000000E+00  0.00000000000E+00  0.45593999997E+02  0.45594000000E+02  0.51100000000E-03 0. -1.
         11   -1    0    0    0    0 -0.00000000000E+00 -0.00000000000E+00 -0.45593999997E+02  0.45594000000E+02  0.51100000000E-03 0.  1.
    9900012    2    1    2    0    0 -0.93666474246E+01  0.18822476069E+01 -0.16105808000E+02  0.72461708553E+02  0.70000180107E+02 0.  0.
         12    1    1    2    0    0  0.93666474246E+01 -0.18822476069E+01  0.16105808000E+02  0.18726291447E+02  0.00000000000E+00 0. -1.
         11    1    3    3    0    0 -0.87877218415E+01 -0.98481005324E+01 -0.33143245358E+02  0.35674694846E+02  0.51100000000E-03 0.  1.
        -11    1    3    3    0    0 -0.81855883572E+00 -0.62483625327E+01 -0.52139274827E+01  0.81790655312E+01  0.51100000000E-03 0. -1.
         12    1    3    3    0    0  0.23963325261E+00  0.17978710672E+02  0.22251364841E+02  0.28607948175E+02  0.00000000000E+00 0. -1.
</event>
<event>
 7    1  0.2684545E-013  0.7246147E+02  0.7816164E-02  0.1226708E+00
        -11   -1    0    0    0    0  0.00000000000E+00  0.00000000000E+00  0.45593999997E+02  0.45594000000E+02  0.51100000000E-03 0.  1.
         11   -1    0    0    0    0 -0.00000000000E+00 -0.00000000000E+00 -0.45593999997E+02  0.45594000000E+02  0.51100000000E-03 0. -1.
    9900012    2    1    2    0    0 -0.63890321209E+01  0.48219377342E+01  0.16929623003E+02  0.72461469355E+02  0.69999868508E+02 0.  0.
         12    1    1    2    0    0  0.63890321209E+01 -0.48219377342E+01 -0.16929623003E+02  0.18726530645E+02  0.00000000000E+00 0. -1.
         11    1    3    3    0    0 -0.19155745667E+02  0.86090397218E+01  0.13867577952E+02  0.25166801058E+02  0.51100000000E-03 0. -1.
        -11    1    3    3    0    0 -0.50965318579E+01 -0.49180257770E+01  0.20874192483E+02  0.22042992687E+02  0.51100000000E-03 0.  1.
         12    1    3    3    0    0  0.17863245404E+02  0.11309237894E+01 -0.17812147432E+02  0.25251675610E+02  0.00000000000E+00 0. -1.
</event>
<event>
 7    1  0.2684545E-013  0.7246159E+02  0.7816164E-02  0.1226708E+00
        -11   -1    0    0    0    0  0.00000000000E+00  0.00000000000E+00  0.45593999997E+02  0.45594000000E+02  0.51100000000E-03 0. -1.
         11   -1    0    0    0    0 -0.00000000000E+00 -0.00000000000E+00 -0.45593999997E+02  0.45594000000E+02  0.51100000000E-03 0.  1.
    9900012    2    1    2    0    0 -0.18475658698E+02 -0.66795756083E+00 -0.29803013272E+01  0.72461592773E+02  0.70000029282E+02 0.  0.
         12    1    1    2    0    0  0.18475658698E+02  0.66795756083E+00  0.29803013272E+01  0.18726407227E+02  0.00000000000E+00 0. -1.
         11    1    3    3    0    0  0.84795643396E+01 -0.15661361014E+02  0.79118860904E+00  0.17827148395E+02  0.51100000000E-03 0. -1.
        -11    1    3    3    0    0 -0.78345104739E+00 -0.81582307472E+01  0.13394787336E+02  0.15703211535E+02  0.51100000000E-03 0.  1.
        -12    1    3    3    0    0 -0.26171771991E+02  0.23151634201E+02 -0.17166277272E+02  0.38931232843E+02  0.00000000000E+00 0.  1.
</event>
<event>
 7    1  0.2684545E-013  0.7246162E+02  0.7816164E-02  0.1226708E+00
        -11   -1    0    0    0    0  0.00000000000E+00  0.00000000000E+00  0.45593999997E+02  0.45594000000E+02  0.51100000000E-03 0. -1.
         11   -1    0    0    0    0 -0.00000000000E+00 -0.00000000000E+00 -0.45593999997E+02  0.45594000000E+02  0.51100000000E-03 0.  1.
    9900012    2    1    2    0    0  0.54852534257E+01 -0.65777107656E+01 -0.16653017881E+02  0.72461620515E+02  0.70000065422E+02 0.  0.
         12    1    1    2    0    0 -0.54852534257E+01  0.65777107656E+01  0.16653017881E+02  0.18726379485E+02  0.00000000000E+00 0. -1.
         11    1    3    3    0    0  0.87558383342E+01 -0.13087656720E+02  0.11805355838E+02  0.19680393545E+02  0.51100000000E-03 0. -1.
        -11    1    3    3    0    0  0.19937130690E+02  0.56408954135E+01 -0.17409714278E+02  0.27063019653E+02  0.51100000000E-03 0.  1.
         12    1    3    3    0    0 -0.23207715599E+02  0.86905054071E+00 -0.11048659441E+02  0.25718207317E+02  0.00000000000E+00 0. -1.
</event>
<event>
 7    1  0.2684545E-013  0.7246153E+02  0.7816164E-02  0.1226708E+00
        -11   -1    0    0    0    0  0.00000000000E+00  0.00000000000E+00  0.45593999997E+02  0.45594000000E+02  0.51100000000E-03 0.  1.
         11   -1    0    0    0    0 -0.00000000000E+00 -0.00000000000E+00 -0.45593999997E+02  0.45594000000E+02  0.51100000000E-03 0. -1.
    9900012    2    1    2    0    0  0.89361781338E+01 -0.16401765585E+02 -0.13443688191E+01  0.72461534197E+02  0.69999952977E+02 0.  0.
         12    1    1    2    0    0 -0.89361781338E+01  0.16401765585E+02  0.13443688191E+01  0.18726465803E+02  0.00000000000E+00 0. -1.
         11    1    3    3    0    0  0.55651071276E+01  0.84660411118E+01 -0.35296997305E+00  0.10137497596E+02  0.51100000000E-03 0. -1.
        -11    1    3    3    0    0 -0.19672971372E+02 -0.12310054986E+02  0.18463477426E+02  0.29655745738E+02  0.51100000000E-03 0.  1.
        -12    1    3    3    0    0  0.23044042378E+02 -0.12557751711E+02 -0.19454876272E+02  0.32668290863E+02  0.00000000000E+00 0.  1.
</event>
<event>
 7    1  0.2684545E-013  0.7246155E+02  0.7816164E-02  0.1226708E+00
        -11   -1    0    0    0    0  0.00000000000E+00  0.00000000000E+00  0.45593999997E+02  0.45594000000E+02  0.51100000000E-03 0.  1.
         11   -1    0    0    0    0 -0.00000000000E+00 -0.00000000000E+00 -0.45593999997E+02  0.45594000000E+02  0.51100000000E-03 0. -1.
    9900012    2    1    2    0    0  0.17007936565E+02 -0.57389859916E+01 -0.53361088018E+01  0.72461550161E+02  0.69999973773E+02 0.  0.
         12    1    1    2    0    0 -0.17007936565E+02  0.57389859916E+01  0.53361088018E+01  0.18726449839E+02  0.00000000000E+00 0. -1.
         11    1    3    3    0    0  0.39637122896E+02 -0.85818130760E-01  0.39283047058E+01  0.39831400357E+02  0.51100000000E-03 0. -1.
        -11    1    3    3    0    0  0.30435210467E+01 -0.34317023907E+01 -0.44981897197E+01  0.64244309223E+01  0.51100000000E-03 0.  1.
        -12    1    3    3    0    0 -0.25672707378E+02 -0.22214654701E+01 -0.47662237879E+01  0.26205718882E+02  0.00000000000E+00 0.  1.
</event>
<event>
 7    1  0.2684545E-013  0.7246155E+02  0.7816164E-02  0.1226708E+00
        -11   -1    0    0    0    0  0.00000000000E+00  0.00000000000E+00  0.45593999997E+02  0.45594000000E+02  0.51100000000E-03 0.  1.
         11   -1    0    0    0    0 -0.00000000000E+00 -0.00000000000E+00 -0.45593999997E+02  0.45594000000E+02  0.51100000000E-03 0. -1.
    9900012    2    1    2    0    0 -0.25692568795E+01 -0.42283783874E+01  0.18060999194E+02  0.72461549279E+02  0.69999972624E+02 0.  0.
         12    1    1    2    0    0  0.25692568795E+01  0.42283783874E+01 -0.18060999194E+02  0.18726450721E+02  0.00000000000E+00 0. -1.
         11    1    3    3    0    0 -0.30014949959E+01  0.72701133136E+01  0.30248688910E+01  0.84269420237E+01  0.51100000000E-03 0. -1.
        -11    1    3    3    0    0 -0.27727075148E+02  0.22830689341E+01  0.17031701506E+02  0.32620269105E+02  0.51100000000E-03 0.  1.
         12    1    3    3    0    0  0.28159313264E+02 -0.13781560635E+02 -0.19955712032E+01  0.31414338151E+02  0.00000000000E+00 0. -1.
</event>
<event>
 7    1  0.2684545E-013  0.7246158E+02  0.7816164E-02  0.1226708E+00
        -11   -1    0    0    0    0  0.00000000000E+00  0.00000000000E+00  0.45593999997E+02  0.45594000000E+02  0.51100000000E-03 0.  1.
         11   -1    0    0    0    0 -0.00000000000E+00 -0.00000000000E+00 -0.45593999997E+02  0.45594000000E+02  0.51100000000E-03 0. -1.
    9900012    2    1    2    0    0 -0.45555667250E+01 -0.77137692366E+01 -0.16444559785E+02  0.72461575607E+02  0.70000006921E+02 0.  0.
         12    1    1    2    0    0  0.45555667250E+01  0.77137692366E+01  0.16444559785E+02  0.18726424393E+02  0.00000000000E+00 0. -1.
         11    1    3    3    0    0 -0.10937514419E+02 -0.12234855055E+02  0.10688134695E+02  0.19584614457E+02  0.51100000000E-03 0. -1.
        -11    1    3    3    0    0 -0.11203224044E+02  0.56289703109E+01  0.70762239144E+01  0.14396891362E+02  0.51100000000E-03 0.  1.
         12    1    3    3    0    0  0.17585171739E+02 -0.11078844922E+01 -0.34208918395E+02  0.38480069788E+02  0.00000000000E+00 0. -1.
</event>
<event>
 7    1  0.2684545E-013  0.7246121E+02  0.7816164E-02  0.1226709E+00
        -11   -1    0    0    0    0  0.00000000000E+00  0.00000000000E+00  0.45593999997E+02  0.45594000000E+02  0.51100000000E-03 0.  1.
         11   -1    0    0    0    0 -0.00000000000E+00 -0.00000000000E+00 -0.45593999997E+02  0.45594000000E+02  0.51100000000E-03 0. -1.
    9900012    2    1    2    0    0 -0.17624652623E+02 -0.33452238739E+01  0.53734151045E+01  0.72461214565E+02  0.69999536595E+02 0.  0.
         12    1    1    2    0    0  0.17624652623E+02  0.33452238739E+01 -0.53734151045E+01  0.18726785435E+02  0.00000000000E+00 0. -1.
         11    1    3    3    0    0  0.25102454170E+01  0.30869640587E+01  0.14149818558E+01  0.42228962888E+01  0.51100000000E-03 0. -1.
        -11    1    3    3    0    0 -0.67639313766E+01  0.27102696169E+02 -0.98001882580E+01  0.29603219377E+02  0.51100000000E-03 0.  1.
        -12    1    3    3    0    0 -0.13370966663E+02 -0.33534884102E+02  0.13758621507E+02  0.38635098900E+02  0.00000000000E+00 0.  1.
</event>
<event>
 7    1  0.2684545E-013  0.7246143E+02  0.7816164E-02  0.1226708E+00
        -11   -1    0    0    0    0  0.00000000000E+00  0.00000000000E+00  0.45593999997E+02  0.45594000000E+02  0.51100000000E-03 0.  1.
         11   -1    0    0    0    0 -0.00000000000E+00 -0.00000000000E+00 -0.45593999997E+02  0.45594000000E+02  0.51100000000E-03 0. -1.
    9900012    2    1    2    0    0  0.63297905650E+01 -0.69835827208E+01  0.16181711959E+02  0.72461428553E+02  0.69999815356E+02 0.  0.
         12    1    1    2    0    0 -0.63297905650E+01  0.69835827208E+01 -0.16181711959E+02  0.18726571447E+02  0.00000000000E+00 0. -1.
         11    1    3    3    0    0  0.17688652310E+02  0.16149011596E+01 -0.71898294410E+01  0.19162201699E+02  0.51100000000E-03 0. -1.
        -11    1    3    3    0    0  0.36905877885E+01  0.43062599831E+01 -0.11705803378E+02  0.13007311261E+02  0.51100000000E-03 0.  1.
        -12    1    3    3    0    0 -0.15049449534E+02 -0.12904743863E+02  0.35077344778E+02  0.40291915593E+02  0.00000000000E+00 0.  1.
</event>
<event>
 7    1  0.2684545E-013  0.7246157E+02  0.7816164E-02  0.1226708E+00
        -11   -1    0    0    0    0  0.00000000000E+00  0.00000000000E+00  0.45593999997E+02  0.45594000000E+02  0.51100000000E-03 0.  1.
         11   -1    0    0    0    0 -0.00000000000E+00 -0.00000000000E+00 -0.45593999997E+02  0.45594000000E+02  0.51100000000E-03 0. -1.
    9900012    2    1    2    0    0  0.99719305514E+01 -0.14723156507E+02 -0.58709970847E+01  0.72461565656E+02  0.69999993958E+02 0.  0.
         12    1    1    2    0    0 -0.99719305514E+01  0.14723156507E+02  0.58709970847E+01  0.18726434344E+02  0.00000000000E+00 0. -1.
         11    1    3    3    0    0  0.19000336698E+02  0.15855480895E+02 -0.14173780316E+02  0.28518504830E+02  0.51100000000E-03 0. -1.
        -11    1    3    3    0    0  0.86194176875E+01 -0.19146705410E+02 -0.84038564063E+00  0.21014207994E+02  0.51100000000E-03 0.  1.
        -12    1    3    3    0    0 -0.17647823834E+02 -0.11431931993E+02  0.91431688719E+01  0.22928852832E+02  0.00000000000E+00 0.  1.
</event>
<event>
 7    1  0.2684545E-013  0.7246182E+02  0.7816164E-02  0.1226707E+00
        -11   -1    0    0    0    0  0.00000000000E+00  0.00000000000E+00  0.45593999997E+02  0.45594000000E+02  0.51100000000E-03 0.  1.
         11   -1    0    0    0    0 -0.00000000000E+00 -0.00000000000E+00 -0.45593999997E+02  0.45594000000E+02  0.51100000000E-03 0. -1.
    9900012    2    1    2    0    0  0.16872248327E+02  0.70545561709E+01 -0.40286997576E+01  0.72461816510E+02  0.70000320741E+02 0.  0.
         12    1    1    2    0    0 -0.16872248327E+02 -0.70545561709E+01  0.40286997576E+01  0.18726183490E+02  0.00000000000E+00 0. -1.
         11    1    3    3    0    0  0.26261614302E+01  0.48249419708E+01  0.47528490187E+01  0.72640459067E+01  0.51100000000E-03 0. -1.
        -11    1    3    3    0    0 -0.23037221327E+02 -0.73392358317E+00  0.77351174729E+01  0.24312224351E+02  0.51100000000E-03 0.  1.
         12    1    3    3    0    0  0.37283308224E+02  0.29635377833E+01 -0.16516666249E+02  0.40885546252E+02  0.00000000000E+00 0. -1.
</event>
<event>
 7    1  0.2684545E-013  0.7246153E+02  0.7816164E-02  0.1226708E+00
        -11   -1    0    0    0    0  0.00000000000E+00  0.00000000000E+00  0.45593999997E+02  0.45594000000E+02  0.51100000000E-03 0.  1.
         11   -1    0    0    0    0 -0.00000000000E+00 -0.00000000000E+00 -0.45593999997E+02  0.45594000000E+02  0.51100000000E-03 0. -1.
    9900012    2    1    2    0    0 -0.41436996664E+01 -0.84298383988E+01  0.16200258010E+02  0.72461527243E+02  0.69999943917E+02 0.  0.
         12    1    1    2    0    0  0.41436996664E+01  0.84298383988E+01 -0.16200258010E+02  0.18726472757E+02  0.00000000000E+00 0. -1.
         11    1    3    3    0    0 -0.11096667812E+02  0.21677899473E+02  0.91668684487E+00  0.24370221114E+02  0.51100000000E-03 0. -1.
        -11    1    3    3    0    0 -0.76615053711E+01  0.38504672993E+01  0.38037213226E+01  0.93804615631E+01  0.51100000000E-03 0.  1.
        -12    1    3    3    0    0  0.14614473517E+02 -0.33958205171E+02  0.11479849842E+02  0.38710844566E+02  0.00000000000E+00 0.  1.
</event>
<event>
 7    1  0.2684545E-013  0.7246189E+02  0.7816164E-02  0.1226707E+00
        -11   -1    0    0    0    0  0.00000000000E+00  0.00000000000E+00  0.45593999997E+02  0.45594000000E+02  0.51100000000E-03 0. -1.
         11   -1    0    0    0    0 -0.00000000000E+00 -0.00000000000E+00 -0.45593999997E+02  0.45594000000E+02  0.51100000000E-03 0.  1.
    9900012    2    1    2    0    0 -0.80148241769E+00  0.18626878741E+01 -0.18615991563E+02  0.72461891967E+02  0.70000419037E+02 0.  0.
         12    1    1    2    0    0  0.80148241769E+00 -0.18626878741E+01  0.18615991563E+02  0.18726108033E+02  0.00000000000E+00 0. -1.
         11    1    3    3    0    0  0.10507375775E+02 -0.82867560011E+00  0.11983603900E+02  0.15959273530E+02  0.51100000000E-03 0. -1.
        -11    1    3    3    0    0  0.12042000806E+02  0.16298179975E+02 -0.15753343696E+02  0.25667261088E+02  0.51100000000E-03 0.  1.
         12    1    3    3    0    0 -0.23350858999E+02 -0.13606816500E+02 -0.14846251767E+02  0.30835357348E+02  0.00000000000E+00 0. -1.
</event>
<event>
 7    1  0.2684545E-013  0.7246172E+02  0.7816164E-02  0.1226708E+00
        -11   -1    0    0    0    0  0.00000000000E+00  0.00000000000E+00  0.45593999997E+02  0.45594000000E+02  0.51100000000E-03 0. -1.
         11   -1    0    0    0    0 -0.00000000000E+00 -0.00000000000E+00 -0.45593999997E+02  0.45594000000E+02  0.51100000000E-03 0.  1.
    9900012    2    1    2    0    0 -0.13399160975E+02  0.13030767712E+02 -0.11554740327E+01  0.72461720545E+02  0.70000195729E+02 0.  0.
         12    1    1    2    0    0  0.13399160975E+02 -0.13030767712E+02  0.11554740327E+01  0.18726279455E+02  0.00000000000E+00 0. -1.
         11    1    3    3    0    0  0.86631624352E+01  0.61320142716E+01  0.12540478661E+02  0.16429107941E+02  0.51100000000E-03 0. -1.
        -11    1    3    3    0    0  0.39100685759E+01 -0.13201080403E+02  0.86955691933E+01  0.16284043845E+02  0.51100000000E-03 0.  1.
        -12    1    3    3    0    0 -0.25972391986E+02  0.20099833844E+02 -0.22391521887E+02  0.39748568760E+02  0.00000000000E+00 0.  1.
</event>
<event>
 7    1  0.2684545E-013  0.7246160E+02  0.7816164E-02  0.1226708E+00
        -11   -1    0    0    0    0  0.00000000000E+00  0.00000000000E+00  0.45593999997E+02  0.45594000000E+02  0.51100000000E-03 0. -1.
         11   -1    0    0    0    0 -0.00000000000E+00 -0.00000000000E+00 -0.45593999997E+02  0.45594000000E+02  0.51100000000E-03 0.  1.
    9900012    2    1    2    0    0 -0.10717023359E+02  0.71919300151E+01  0.13568333176E+02  0.72461598525E+02  0.70000036776E+02 0.  0.
         12    1    1    2    0    0  0.10717023359E+02 -0.71919300151E+01 -0.13568333176E+02  0.18726401475E+02  0.00000000000E+00 0. -1.
         11    1    3    3    0    0  0.13106377915E+02  0.80155077993E+01  0.77519920149E+01  0.17208105293E+02  0.51100000000E-03 0. -1.
        -11    1    3    3    0    0 -0.29662464846E+02 -0.16083532245E+02  0.14528247466E+02  0.36737063096E+02  0.51100000000E-03 0.  1.
         12    1    3    3    0    0  0.58390635720E+01  0.15259954460E+02 -0.87119063047E+01  0.18516430136E+02  0.00000000000E+00 0. -1.
</event>
<event>
 7    1  0.2684545E-013  0.7246148E+02  0.7816164E-02  0.1226708E+00
        -11   -1    0    0    0    0  0.00000000000E+00  0.00000000000E+00  0.45593999997E+02  0.45594000000E+02  0.51100000000E-03 0. -1.
         11   -1    0    0    0    0 -0.00000000000E+00 -0.00000000000E+00 -0.45593999997E+02  0.45594000000E+02  0.51100000000E-03 0.  1.
    9900012    2    1    2    0    0 -0.17086720507E+02 -0.59219590637E+01 -0.48638211338E+01  0.72461484765E+02  0.69999888582E+02 0.  0.
         12    1    1    2    0    0  0.17086720507E+02  0.59219590637E+01  0.48638211338E+01  0.18726515235E+02  0.00000000000E+00 0. -1.
         11    1    3    3    0    0 -0.23654326428E+02  0.16753409233E+02  0.14947471358E+02  0.32613352786E+02  0.51100000000E-03 0. -1.
        -11    1    3    3    0    0 -0.76065990424E+01 -0.78503920906E+01  0.55286021937E+00  0.10945074675E+02  0.51100000000E-03 0.  1.
         12    1    3    3    0    0  0.14174204963E+02 -0.14824976206E+02 -0.20364152711E+02  0.28903057304E+02  0.00000000000E+00 0. -1.
</event>
<event>
 7    1  0.2684545E-013  0.7246156E+02  0.7816164E-02  0.1226708E+00
        -11   -1    0    0    0    0  0.00000000000E+00  0.00000000000E+00  0.45593999997E+02  0.45594000000E+02  0.51100000000E-03 0.  1.
         11   -1    0    0    0    0 -0.00000000000E+00 -0.00000000000E+00 -0.45593999997E+02  0.45594000000E+02  0.51100000000E-03 0. -1.
    9900012    2    1    2    0    0  0.80864815754E+01  0.13378134013E+02 -0.10310857765E+02  0.72461563024E+02  0.69999990530E+02 0.  0.
         12    1    1    2    0    0 -0.80864815754E+01 -0.13378134013E+02  0.10310857765E+02  0.18726436976E+02  0.00000000000E+00 0. -1.
         11    1    3    3    0    0 -0.26807827130E+02 -0.12677707551E+01 -0.13029054530E+02  0.29833254940E+02  0.51100000000E-03 0. -1.
        -11    1    3    3    0    0 -0.12563179756E+00 -0.23075139707E+01  0.29151813055E+01  0.37200384915E+01  0.51100000000E-03 0.  1.
        -12    1    3    3    0    0  0.35019940503E+02  0.16953418739E+02 -0.19698454013E+00  0.38908269593E+02  0.00000000000E+00 0.  1.
</event>
<event>
 7    1  0.2684545E-013  0.7246164E+02  0.7816164E-02  0.1226708E+00
        -11   -1    0    0    0    0  0.00000000000E+00  0.00000000000E+00  0.45593999997E+02  0.45594000000E+02  0.51100000000E-03 0.  1.
         11   -1    0    0    0    0 -0.00000000000E+00 -0.00000000000E+00 -0.45593999997E+02  0.45594000000E+02  0.51100000000E-03 0. -1.
    9900012    2    1    2    0    0 -0.10320996244E+02 -0.81449671569E+01  0.13334662701E+02  0.72461636690E+02  0.70000086493E+02 0.  0.
         12    1    1    2    0    0  0.10320996244E+02  0.81449671569E+01 -0.13334662701E+02  0.18726363310E+02  0.00000000000E+00 0. -1.
         11    1    3    3    0    0  0.10810203137E+02 -0.20629530492E+02 -0.36760030168E+01  0.23578613586E+02  0.51100000000E-03 0. -1.
        -11    1    3    3    0    0  0.10108944745E+01 -0.31515246574E+01  0.21198209247E+02  0.21455024839E+02  0.51100000000E-03 0.  1.
         12    1    3    3    0    0 -0.22142093856E+02  0.15636087993E+02 -0.41875435286E+01  0.27427998265E+02  0.00000000000E+00 0. -1.
</event>
<event>
 7    1  0.2684545E-013  0.7246159E+02  0.7816164E-02  0.1226708E+00
        -11   -1    0    0    0    0  0.00000000000E+00  0.00000000000E+00  0.45593999997E+02  0.45594000000E+02  0.51100000000E-03 0.  1.
         11   -1    0    0    0    0 -0.00000000000E+00 -0.00000000000E+00 -0.45593999997E+02  0.45594000000E+02  0.51100000000E-03 0. -1.
    9900012    2    1    2    0    0 -0.60656408984E+01  0.17576584039E+02 -0.22248744537E+01  0.72461591580E+02  0.70000027728E+02 0.  0.
         12    1    1    2    0    0  0.60656408984E+01 -0.17576584039E+02  0.22248744537E+01  0.18726408420E+02  0.00000000000E+00 0. -1.
         11    1    3    3    0    0 -0.22530617161E+01  0.34387908712E+02  0.85740185092E+01  0.35512228124E+02  0.51100000000E-03 0. -1.
        -11    1    3    3    0    0  0.55306211408E+01  0.72781975509E+01 -0.56523951061E+00  0.91585711636E+01  0.51100000000E-03 0.  1.
         12    1    3    3    0    0 -0.93432003231E+01 -0.24089522224E+02 -0.10233653452E+02  0.27790792292E+02  0.00000000000E+00 0. -1.
</event>
<event>
 7    1  0.2684545E-013  0.7246163E+02  0.7816164E-02  0.1226708E+00
        -11   -1    0    0    0    0  0.00000000000E+00  0.00000000000E+00  0.45593999997E+02  0.45594000000E+02  0.51100000000E-03 0.  1.
         11   -1    0    0    0    0 -0.00000000000E+00 -0.00000000000E+00 -0.45593999997E+02  0.45594000000E+02  0.51100000000E-03 0. -1.
    9900012    2    1    2    0    0  0.17069053424E+02 -0.47874852168E+01  0.60335888123E+01  0.72461633736E+02  0.70000082644E+02 0.  0.
         12    1    1    2    0    0 -0.17069053424E+02  0.47874852168E+01 -0.60335888123E+01  0.18726366264E+02  0.00000000000E+00 0. -1.
         11    1    3    3    0    0  0.23694041855E+02  0.87030375123E+01 -0.11385721660E+02  0.27690885493E+02  0.51100000000E-03 0.  1.
        -11    1    3    3    0    0  0.84018092739E+01 -0.14325712802E+02 -0.53753252903E+01  0.17455960832E+02  0.51100000000E-03 0. -1.
         12    1    3    3    0    0 -0.15026797705E+02  0.83519007239E+00  0.22794635763E+02  0.27314787411E+02  0.00000000000E+00 0. -1.
</event>
<event>
 7    1  0.2684545E-013  0.7246128E+02  0.7816164E-02  0.1226709E+00
        -11   -1    0    0    0    0  0.00000000000E+00  0.00000000000E+00  0.45593999997E+02  0.45594000000E+02  0.51100000000E-03 0.  1.
         11   -1    0    0    0    0 -0.00000000000E+00 -0.00000000000E+00 -0.45593999997E+02  0.45594000000E+02  0.51100000000E-03 0. -1.
    9900012    2    1    2    0    0  0.71292367288E+01  0.31901331229E+01  0.17020197631E+02  0.72461278635E+02  0.69999620059E+02 0.  0.
         12    1    1    2    0    0 -0.71292367288E+01 -0.31901331229E+01 -0.17020197631E+02  0.18726721365E+02  0.00000000000E+00 0. -1.
         11    1    3    3    0    0  0.83578787208E+01 -0.20236219736E+02  0.16937798268E+02  0.27681180183E+02  0.51100000000E-03 0. -1.
        -11    1    3    3    0    0  0.12865304625E+02  0.92856739637E+01  0.13411031967E+02  0.20774878645E+02  0.51100000000E-03 0.  1.
         12    1    3    3    0    0 -0.14093946617E+02  0.14140678895E+02 -0.13328632604E+02  0.24005219806E+02  0.00000000000E+00 0. -1.
</event>
<event>
 7    1  0.2684545E-013  0.7246159E+02  0.7816164E-02  0.1226708E+00
        -11   -1    0    0    0    0  0.00000000000E+00  0.00000000000E+00  0.45593999997E+02  0.45594000000E+02  0.51100000000E-03 0.  1.
         11   -1    0    0    0    0 -0.00000000000E+00 -0.00000000000E+00 -0.45593999997E+02  0.45594000000E+02  0.51100000000E-03 0. -1.
    9900012    2    1    2    0    0  0.15587716426E+02 -0.31167430470E+01  0.98988629974E+01  0.72461588725E+02  0.70000024009E+02 0.  0.
         12    1    1    2    0    0 -0.15587716426E+02  0.31167430470E+01 -0.98988629974E+01  0.18726411275E+02  0.00000000000E+00 0. -1.
         11    1    3    3    0    0  0.30478224794E+01 -0.12948497723E+02  0.66210119656E+01  0.14859024694E+02  0.51100000000E-03 0. -1.
        -11    1    3    3    0    0  0.25096789971E+02 -0.12482402446E+02 -0.86806189957E+01  0.29343012526E+02  0.51100000000E-03 0.  1.
         12    1    3    3    0    0 -0.12556896025E+02  0.22314157122E+02  0.11958470028E+02  0.28259551505E+02  0.00000000000E+00 0. -1.
</event>
<event>
 7    1  0.2684545E-013  0.7246153E+02  0.7816164E-02  0.1226708E+00
        -11   -1    0    0    0    0  0.00000000000E+00  0.00000000000E+00  0.45593999997E+02  0.45594000000E+02  0.51100000000E-03 0. -1.
         11   -1    0    0    0    0 -0.00000000000E+00 -0.00000000000E+00 -0.45593999997E+02  0.45594000000E+02  0.51100000000E-03 0.  1.
    9900012    2    1    2    0    0  0.83590186055E+01 -0.15474591359E+02 -0.64299808127E+01  0.72461526146E+02  0.69999942488E+02 0.  0.
         12    1    1    2    0    0 -0.83590186055E+01  0.15474591359E+02  0.64299808127E+01  0.18726473854E+02  0.00000000000E+00 0. -1.
         11    1    3    3    0    0  0.21617016530E+02 -0.31447008490E+01 -0.75086355688E+01  0.23099007672E+02  0.51100000000E-03 0. -1.
        -11    1    3    3    0    0 -0.21087134062E+02 -0.15486317476E+02 -0.15748283711E+02  0.30536890674E+02  0.51100000000E-03 0.  1.
         12    1    3    3    0    0  0.78291361377E+01  0.31564269666E+01  0.16826938468E+02  0.18825627800E+02  0.00000000000E+00 0. -1.
</event>
<event>
 7    1  0.2684545E-013  0.7246151E+02  0.7816164E-02  0.1226708E+00
        -11   -1    0    0    0    0  0.00000000000E+00  0.00000000000E+00  0.45593999997E+02  0.45594000000E+02  0.51100000000E-03 0.  1.
         11   -1    0    0    0    0 -0.00000000000E+00 -0.00000000000E+00 -0.45593999997E+02  0.45594000000E+02  0.51100000000E-03 0. -1.
    9900012    2    1    2    0    0  0.15557949055E+02 -0.99796038640E+01 -0.30065000830E+01  0.72461513014E+02  0.69999925382E+02 0.  0.
         12    1    1    2    0    0 -0.15557949055E+02  0.99796038640E+01  0.30065000830E+01  0.18726486986E+02  0.00000000000E+00 0. -1.
         11    1    3    3    0    0 -0.61616127798E+01 -0.63256352861E+01 -0.46948594787E+01  0.10001041926E+02  0.51100000000E-03 0. -1.
        -11    1    3    3    0    0  0.12436690789E+02 -0.79434568555E+01 -0.27677087083E+02  0.31365441720E+02  0.51100000000E-03 0.  1.
        -12    1    3    3    0    0  0.92828710460E+01  0.42894882775E+01  0.29365446479E+02  0.31095029369E+02  0.00000000000E+00 0.  1.
</event>
<event>
 7    1  0.2684545E-013  0.7246150E+02  0.7816164E-02  0.1226708E+00
        -11   -1    0    0    0    0  0.00000000000E+00  0.00000000000E+00  0.45593999997E+02  0.45594000000E+02  0.51100000000E-03 0.  1.
         11   -1    0    0    0    0 -0.00000000000E+00 -0.00000000000E+00 -0.45593999997E+02  0.45594000000E+02  0.51100000000E-03 0. -1.
    9900012    2    1    2    0    0  0.72048408395E+01 -0.12110620921E+02  0.12333081287E+02  0.72461501004E+02  0.69999909736E+02 0.  0.
         12    1    1    2    0    0 -0.72048408395E+01  0.12110620921E+02 -0.12333081287E+02  0.18726498996E+02  0.00000000000E+00 0. -1.
         11    1    3    3    0    0  0.17757832746E+02 -0.81210168450E+00 -0.16520714451E+02  0.24267965287E+02  0.51100000000E-03 0. -1.
        -11    1    3    3    0    0 -0.65848158272E+01 -0.75040222549E+01 -0.68258684396E+01  0.12093908785E+02  0.51100000000E-03 0.  1.
        -12    1    3    3    0    0 -0.39681760789E+01 -0.37944969818E+01  0.35679664178E+02  0.36099626931E+02  0.00000000000E+00 0.  1.
</event>
<event>
 7    1  0.2684545E-013  0.7246158E+02  0.7816164E-02  0.1226708E+00
        -11   -1    0    0    0    0  0.00000000000E+00  0.00000000000E+00  0.45593999997E+02  0.45594000000E+02  0.51100000000E-03 0. -1.
         11   -1    0    0    0    0 -0.00000000000E+00 -0.00000000000E+00 -0.45593999997E+02  0.45594000000E+02  0.51100000000E-03 0.  1.
    9900012    2    1    2    0    0  0.19245107545E+01 -0.18211011427E+02  0.39158638340E+01  0.72461583674E+02  0.70000017430E+02 0.  0.
         12    1    1    2    0    0 -0.19245107545E+01  0.18211011427E+02 -0.39158638340E+01  0.18726416326E+02  0.00000000000E+00 0. -1.
         11    1    3    3    0    0 -0.22738884336E+02 -0.11340170502E+02 -0.13329031776E+02  0.28693543110E+02  0.51100000000E-03 0. -1.
        -11    1    3    3    0    0 -0.18489454553E+01 -0.27686643593E+01 -0.69087821390E+01  0.76691181068E+01  0.51100000000E-03 0.  1.
        -12    1    3    3    0    0  0.26512340546E+02 -0.41021765652E+01  0.24153677749E+02  0.36098922457E+02  0.00000000000E+00 0.  1.
</event>
<event>
 7    1  0.2684545E-013  0.7246158E+02  0.7816164E-02  0.1226708E+00
        -11   -1    0    0    0    0  0.00000000000E+00  0.00000000000E+00  0.45593999997E+02  0.45594000000E+02  0.51100000000E-03 0. -1.
         11   -1    0    0    0    0 -0.00000000000E+00 -0.00000000000E+00 -0.45593999997E+02  0.45594000000E+02  0.51100000000E-03 0.  1.
    9900012    2    1    2    0    0  0.11147023235E+02 -0.14208319349E+02 -0.49544140393E+01  0.72461583253E+02  0.70000016881E+02 0.  0.
         12    1    1    2    0    0 -0.11147023235E+02  0.14208319349E+02  0.49544140393E+01  0.18726416747E+02  0.00000000000E+00 0. -1.
         11    1    3    3    0    0 -0.16018926321E+02  0.43166184630E+01  0.88340070629E+01  0.18795714311E+02  0.51100000000E-03 0. -1.
        -11    1    3    3    0    0 -0.70568662594E+01 -0.11499243693E+02 -0.12977024329E+02  0.18719912596E+02  0.51100000000E-03 0.  1.
         12    1    3    3    0    0  0.34222815815E+02 -0.70256941186E+01 -0.81139677334E+00  0.34945956345E+02  0.00000000000E+00 0. -1.
</event>
<event>
 7    1  0.2684545E-013  0.7246157E+02  0.7816164E-02  0.1226708E+00
        -11   -1    0    0    0    0  0.00000000000E+00  0.00000000000E+00  0.45593999997E+02  0.45594000000E+02  0.51100000000E-03 0.  1.
         11   -1    0    0    0    0 -0.00000000000E+00 -0.00000000000E+00 -0.45593999997E+02  0.45594000000E+02  0.51100000000E-03 0. -1.
    9900012    2    1    2    0    0  0.15901718960E+02  0.85485384667E+01  0.49736175726E+01  0.72461573550E+02  0.70000004242E+02 0.  0.
         12    1    1    2    0    0 -0.15901718960E+02 -0.85485384667E+01 -0.49736175726E+01  0.18726426450E+02  0.00000000000E+00 0. -1.
         11    1    3    3    0    0 -0.11581175358E+02  0.15651565509E+01  0.38667174410E+01  0.12309542710E+02  0.51100000000E-03 0. -1.
        -11    1    3    3    0    0  0.65957686833E+01  0.15432817326E+02  0.23174854889E+02  0.28613806362E+02  0.51100000000E-03 0.  1.
         12    1    3    3    0    0  0.20887125635E+02 -0.84494354107E+01 -0.22067954757E+02  0.31538224478E+02  0.00000000000E+00 0. -1.
</event>
<event>
 7    1  0.2684545E-013  0.7246159E+02  0.7816164E-02  0.1226708E+00
        -11   -1    0    0    0    0  0.00000000000E+00  0.00000000000E+00  0.45593999997E+02  0.45594000000E+02  0.51100000000E-03 0.  1.
         11   -1    0    0    0    0 -0.00000000000E+00 -0.00000000000E+00 -0.45593999997E+02  0.45594000000E+02  0.51100000000E-03 0. -1.
    9900012    2    1    2    0    0 -0.21316677907E+01 -0.17313020164E+02  0.68112894485E+01  0.72461592477E+02  0.70000028897E+02 0.  0.
         12    1    1    2    0    0  0.21316677907E+01  0.17313020164E+02 -0.68112894485E+01  0.18726407523E+02  0.00000000000E+00 0. -1.
         11    1    3    3    0    0  0.12981982309E+02 -0.11544010701E+02  0.15111737369E+01  0.17437881008E+02  0.51100000000E-03 0. -1.
        -11    1    3    3    0    0  0.18364292656E+02  0.54110775287E+01  0.47439920800E+01  0.19723905949E+02  0.51100000000E-03 0.  1.
         12    1    3    3    0    0 -0.33477942755E+02 -0.11180086991E+02  0.55612363159E+00  0.35299805520E+02  0.00000000000E+00 0. -1.
</event>
<event>
 7    1  0.2684545E-013  0.7246161E+02  0.7816164E-02  0.1226708E+00
        -11   -1    0    0    0    0  0.00000000000E+00  0.00000000000E+00  0.45593999997E+02  0.45594000000E+02  0.51100000000E-03 0.  1.
         11   -1    0    0    0    0 -0.00000000000E+00 -0.00000000000E+00 -0.45593999997E+02  0.45594000000E+02  0.51100000000E-03 0. -1.
    9900012    2    1    2    0    0  0.18569958958E+02  0.90262677738E+00  0.22404680994E+01  0.72461606644E+02  0.70000047352E+02 0.  0.
         12    1    1    2    0    0 -0.18569958958E+02 -0.90262677738E+00 -0.22404680994E+01  0.18726393356E+02  0.00000000000E+00 0. -1.
         11    1    3    3    0    0 -0.58855918864E+01 -0.51037021307E+01 -0.85401388269E+01  0.11559495609E+02  0.51100000000E-03 0. -1.
        -11    1    3    3    0    0 -0.56570769304E+00  0.14825656599E+02 -0.16949046999E+02  0.22525326040E+02  0.51100000000E-03 0.  1.
        -12    1    3    3    0    0  0.25021258538E+02 -0.88193276906E+01  0.27729653925E+02  0.38376784995E+02  0.00000000000E+00 0.  1.
</event>
<event>
 7    1  0.2684545E-013  0.7246157E+02  0.7816164E-02  0.1226708E+00
        -11   -1    0    0    0    0  0.00000000000E+00  0.00000000000E+00  0.45593999997E+02  0.45594000000E+02  0.51100000000E-03 0.  1.
         11   -1    0    0    0    0 -0.00000000000E+00 -0.00000000000E+00 -0.45593999997E+02  0.45594000000E+02  0.51100000000E-03 0. -1.
    9900012    2    1    2    0    0  0.16760522706E+02 -0.52869456043E+01 -0.64662358370E+01  0.72461571587E+02  0.70000001684E+02 0.  0.
         12    1    1    2    0    0 -0.16760522706E+02  0.52869456043E+01  0.64662358370E+01  0.18726428413E+02  0.00000000000E+00 0. -1.
         11    1    3    3    0    0  0.13325104113E+02  0.93573588921E+01  0.86166561812E+00  0.16305245565E+02  0.51100000000E-03 0. -1.
        -11    1    3    3    0    0 -0.16861095988E+02  0.70836839519E+01  0.10890516203E+02  0.21285640222E+02  0.51100000000E-03 0.  1.
         12    1    3    3    0    0  0.20296514581E+02 -0.21727988448E+02 -0.18218417658E+02  0.34870685799E+02  0.00000000000E+00 0. -1.
</event>
<event>
 7    1  0.2684545E-013  0.7246150E+02  0.7816164E-02  0.1226708E+00
        -11   -1    0    0    0    0  0.00000000000E+00  0.00000000000E+00  0.45593999997E+02  0.45594000000E+02  0.51100000000E-03 0.  1.
         11   -1    0    0    0    0 -0.00000000000E+00 -0.00000000000E+00 -0.45593999997E+02  0.45594000000E+02  0.51100000000E-03 0. -1.
    9900012    2    1    2    0    0 -0.15206547305E+02 -0.10679457684E+02 -0.23220365314E+01  0.72461501368E+02  0.69999910210E+02 0.  0.
         12    1    1    2    0    0  0.15206547305E+02  0.10679457684E+02  0.23220365314E+01  0.18726498632E+02  0.00000000000E+00 0. -1.
         11    1    3    3    0    0 -0.34971038713E+01  0.48266851511E+01 -0.10451947373E+02  0.12032033460E+02  0.51100000000E-03 0. -1.
        -11    1    3    3    0    0  0.15377952435E+02 -0.26504655931E+02  0.39025749663E+01  0.30890262200E+02  0.51100000000E-03 0.  1.
         12    1    3    3    0    0 -0.27087395869E+02  0.10998513096E+02  0.42273358754E+01  0.29539205708E+02  0.00000000000E+00 0. -1.
</event>
<event>
 7    1  0.2684545E-013  0.7246157E+02  0.7816164E-02  0.1226708E+00
        -11   -1    0    0    0    0  0.00000000000E+00  0.00000000000E+00  0.45593999997E+02  0.45594000000E+02  0.51100000000E-03 0.  1.
         11   -1    0    0    0    0 -0.00000000000E+00 -0.00000000000E+00 -0.45593999997E+02  0.45594000000E+02  0.51100000000E-03 0. -1.
    9900012    2    1    2    0    0  0.89230653881E+01 -0.68124440303E+01  0.14988283086E+02  0.72461571631E+02  0.70000001741E+02 0.  0.
         12    1    1    2    0    0 -0.89230653881E+01  0.68124440303E+01 -0.14988283086E+02  0.18726428369E+02  0.00000000000E+00 0. -1.
         11    1    3    3    0    0 -0.42699283878E+01 -0.30201574813E+01 -0.70716473473E+00  0.52776625387E+01  0.51100000000E-03 0. -1.
        -11    1    3    3    0    0 -0.25807415757E+02 -0.47160846199E+01  0.79309498498E+01  0.27407373606E+02  0.51100000000E-03 0.  1.
         12    1    3    3    0    0  0.39000409533E+02  0.92379807089E+00  0.77644979711E+01  0.39776535487E+02  0.00000000000E+00 0. -1.
</event>
<event>
 7    1  0.2684545E-013  0.7246158E+02  0.7816164E-02  0.1226708E+00
        -11   -1    0    0    0    0  0.00000000000E+00  0.00000000000E+00  0.45593999997E+02  0.45594000000E+02  0.51100000000E-03 0. -1.
         11   -1    0    0    0    0 -0.00000000000E+00 -0.00000000000E+00 -0.45593999997E+02  0.45594000000E+02  0.51100000000E-03 0.  1.
    9900012    2    1    2    0    0 -0.14366266614E+00 -0.16251694168E+01 -0.18655208545E+02  0.72461584955E+02  0.70000019098E+02 0.  0.
         12    1    1    2    0    0  0.14366266614E+00  0.16251694168E+01  0.18655208545E+02  0.18726415045E+02  0.00000000000E+00 0. -1.
         11    1    3    3    0    0  0.90866338834E+01  0.10369746004E+00  0.14004962189E+02  0.16694808615E+02  0.51100000000E-03 0. -1.
        -11    1    3    3    0    0  0.11626857761E+01 -0.16575345154E+02  0.19188793957E+01  0.16726506019E+02  0.51100000000E-03 0.  1.
        -12    1    3    3    0    0 -0.10392982326E+02  0.14846478278E+02 -0.34579050130E+02  0.39040270321E+02  0.00000000000E+00 0.  1.
</event>
<event>
 7    1  0.2684545E-013  0.7246168E+02  0.7816164E-02  0.1226708E+00
        -11   -1    0    0    0    0  0.00000000000E+00  0.00000000000E+00  0.45593999997E+02  0.45594000000E+02  0.51100000000E-03 0.  1.
         11   -1    0    0    0    0 -0.00000000000E+00 -0.00000000000E+00 -0.45593999997E+02  0.45594000000E+02  0.51100000000E-03 0. -1.
    9900012    2    1    2    0    0  0.75560693063E+01 -0.15727950182E+02 -0.67979753565E+01  0.72461679774E+02  0.70000142617E+02 0.  0.
         12    1    1    2    0    0 -0.75560693063E+01  0.15727950182E+02  0.67979753565E+01  0.18726320226E+02  0.00000000000E+00 0. -1.
         11    1    3    3    0    0 -0.21219604220E+02  0.83154357794E+01  0.54706237631E+01  0.23438127060E+02  0.51100000000E-03 0. -1.
        -11    1    3    3    0    0  0.23593491322E+01 -0.12193090051E+02 -0.15533046439E+02  0.19887521345E+02  0.51100000000E-03 0.  1.
        -12    1    3    3    0    0  0.26416324394E+02 -0.11850295910E+02  0.32644473189E+01  0.29136031369E+02  0.00000000000E+00 0.  1.
</event>
<event>
 7    1  0.2684545E-013  0.7246152E+02  0.7816164E-02  0.1226708E+00
        -11   -1    0    0    0    0  0.00000000000E+00  0.00000000000E+00  0.45593999997E+02  0.45594000000E+02  0.51100000000E-03 0. -1.
         11   -1    0    0    0    0 -0.00000000000E+00 -0.00000000000E+00 -0.45593999997E+02  0.45594000000E+02  0.51100000000E-03 0.  1.
    9900012    2    1    2    0    0  0.15297966838E+02  0.18919399551E+01 -0.10633624981E+02  0.72461515909E+02  0.69999929153E+02 0.  0.
         12    1    1    2    0    0 -0.15297966838E+02 -0.18919399551E+01  0.10633624981E+02  0.18726484091E+02  0.00000000000E+00 0. -1.
         11    1    3    3    0    0  0.17147960802E+02  0.21392427638E+02 -0.10102600734E+02  0.29219018836E+02  0.51100000000E-03 0. -1.
        -11    1    3    3    0    0  0.14586952962E+02  0.34302452194E+01 -0.10812093176E+01  0.15023807534E+02  0.51100000000E-03 0.  1.
        -12    1    3    3    0    0 -0.16436946925E+02 -0.22930732902E+02  0.55018507093E+00  0.28218689538E+02  0.00000000000E+00 0.  1.
</event>
<event>
 7    1  0.2684545E-013  0.7246155E+02  0.7816164E-02  0.1226708E+00
        -11   -1    0    0    0    0  0.00000000000E+00  0.00000000000E+00  0.45593999997E+02  0.45594000000E+02  0.51100000000E-03 0.  1.
         11   -1    0    0    0    0 -0.00000000000E+00 -0.00000000000E+00 -0.45593999997E+02  0.45594000000E+02  0.51100000000E-03 0. -1.
    9900012    2    1    2    0    0 -0.82150320384E+01  0.11713315802E+02  0.12082685665E+02  0.72461553158E+02  0.69999977676E+02 0.  0.
         12    1    1    2    0    0  0.82150320384E+01 -0.11713315802E+02 -0.12082685665E+02  0.18726446842E+02  0.00000000000E+00 0. -1.
         11    1    3    3    0    0  0.75546081866E+01  0.23282306731E+02  0.64772961586E+01  0.25319819853E+02  0.51100000000E-03 0. -1.
        -11    1    3    3    0    0  0.99072777833E+01  0.59086935464E+01 -0.71414210417E+01  0.13567118606E+02  0.51100000000E-03 0.  1.
        -12    1    3    3    0    0 -0.25676918008E+02 -0.17477684476E+02  0.12746810548E+02  0.33574614699E+02  0.00000000000E+00 0.  1.
</event>
<event>
 7    1  0.2684545E-013  0.7246159E+02  0.7816164E-02  0.1226708E+00
        -11   -1    0    0    0    0  0.00000000000E+00  0.00000000000E+00  0.45593999997E+02  0.45594000000E+02  0.51100000000E-03 0.  1.
         11   -1    0    0    0    0 -0.00000000000E+00 -0.00000000000E+00 -0.45593999997E+02  0.45594000000E+02  0.51100000000E-03 0. -1.
    9900012    2    1    2    0    0  0.10870648414E+01 -0.16871548351E+02  0.80527906703E+01  0.72461593743E+02  0.70000030546E+02 0.  0.
         12    1    1    2    0    0 -0.10870648414E+01  0.16871548351E+02 -0.80527906703E+01  0.18726406257E+02  0.00000000000E+00 0. -1.
         11    1    3    3    0    0  0.35770386683E+01 -0.18744064805E+02 -0.66499059670E+01  0.20207830677E+02  0.51100000000E-03 0. -1.
        -11    1    3    3    0    0  0.15240175210E+02 -0.55015853556E+01  0.25508685026E+02  0.30219586262E+02  0.51100000000E-03 0.  1.
         12    1    3    3    0    0 -0.17730149037E+02  0.73741018090E+01 -0.10805988388E+02  0.22034176804E+02  0.00000000000E+00 0. -1.
</event>
<event>
 7    1  0.2684545E-013  0.7246160E+02  0.7816164E-02  0.1226708E+00
        -11   -1    0    0    0    0  0.00000000000E+00  0.00000000000E+00  0.45593999997E+02  0.45594000000E+02  0.51100000000E-03 0.  1.
         11   -1    0    0    0    0 -0.00000000000E+00 -0.00000000000E+00 -0.45593999997E+02  0.45594000000E+02  0.51100000000E-03 0. -1.
    9900012    2    1    2    0    0 -0.12012235423E+02 -0.20169004756E+01  0.14223794157E+02  0.72461601317E+02  0.70000040413E+02 0.  0.
         12    1    1    2    0    0  0.12012235423E+02  0.20169004756E+01 -0.14223794157E+02  0.18726398683E+02  0.00000000000E+00 0. -1.
         11    1    3    3    0    0 -0.58299145368E+01 -0.25525055080E+02 -0.15424769313E+02  0.30388153102E+02  0.51100000000E-03 0. -1.
        -11    1    3    3    0    0  0.35757715339E+00  0.75698950597E+00 -0.22211965172E+01  0.23737330857E+01  0.51100000000E-03 0.  1.
        -12    1    3    3    0    0 -0.65398980399E+01  0.22751165099E+02  0.31869759987E+02  0.39699715129E+02  0.00000000000E+00 0.  1.
</event>
<event>
 7    1  0.2684545E-013  0.7246154E+02  0.7816164E-02  0.1226708E+00
        -11   -1    0    0    0    0  0.00000000000E+00  0.00000000000E+00  0.45593999997E+02  0.45594000000E+02  0.51100000000E-03 0. -1.
         11   -1    0    0    0    0 -0.00000000000E+00 -0.00000000000E+00 -0.45593999997E+02  0.45594000000E+02  0.51100000000E-03 0.  1.
    9900012    2    1    2    0    0  0.16683083562E+02 -0.32704827584E+01 -0.78523248832E+01  0.72461539025E+02  0.69999959265E+02 0.  0.
         12    1    1    2    0    0 -0.16683083562E+02  0.32704827584E+01  0.78523248832E+01  0.18726460975E+02  0.00000000000E+00 0. -1.
         11    1    3    3    0    0 -0.14432123049E+02  0.52898288699E+01  0.57504689320E+01  0.16411470329E+02  0.51100000000E-03 0. -1.
        -11    1    3    3    0    0  0.58188634081E+00  0.10857649624E+02  0.83652848340E+01  0.13718787763E+02  0.51100000000E-03 0.  1.
         12    1    3    3    0    0  0.30533320269E+02 -0.19417961252E+02 -0.21968078649E+02  0.42331280933E+02  0.00000000000E+00 0. -1.
</event>
<event>
 7    1  0.2684545E-013  0.7246158E+02  0.7816164E-02  0.1226708E+00
        -11   -1    0    0    0    0  0.00000000000E+00  0.00000000000E+00  0.45593999997E+02  0.45594000000E+02  0.51100000000E-03 0.  1.
         11   -1    0    0    0    0 -0.00000000000E+00 -0.00000000000E+00 -0.45593999997E+02  0.45594000000E+02  0.51100000000E-03 0. -1.
    9900012    2    1    2    0    0 -0.68014378187E+01  0.20487254995E+01  0.17326910575E+02  0.72461583828E+02  0.70000017630E+02 0.  0.
         12    1    1    2    0    0  0.68014378187E+01 -0.20487254995E+01 -0.17326910575E+02  0.18726416172E+02  0.00000000000E+00 0. -1.
         11    1    3    3    0    0  0.72334797654E+01 -0.13731121112E+02  0.32868952454E+01  0.15864129259E+02  0.51100000000E-03 0. -1.
        -11    1    3    3    0    0  0.18002103806E+02  0.48513996664E+00  0.10681789053E+02  0.20938283594E+02  0.51100000000E-03 0.  1.
        -12    1    3    3    0    0 -0.32037021390E+02  0.15294706645E+02  0.33582262768E+01  0.35659170975E+02  0.00000000000E+00 0.  1.
</event>
<event>
 7    1  0.2684545E-013  0.7246162E+02  0.7816164E-02  0.1226708E+00
        -11   -1    0    0    0    0  0.00000000000E+00  0.00000000000E+00  0.45593999997E+02  0.45594000000E+02  0.51100000000E-03 0.  1.
         11   -1    0    0    0    0 -0.00000000000E+00 -0.00000000000E+00 -0.45593999997E+02  0.45594000000E+02  0.51100000000E-03 0. -1.
    9900012    2    1    2    0    0  0.27688196285E+01  0.89218820325E+01  0.16229936275E+02  0.72461623612E+02  0.70000069456E+02 0.  0.
         12    1    1    2    0    0 -0.27688196285E+01 -0.89218820325E+01 -0.16229936275E+02  0.18726376388E+02  0.00000000000E+00 0. -1.
         11    1    3    3    0    0 -0.46682259917E+01 -0.19570648436E+01  0.14461646335E+02  0.15321933680E+02  0.51100000000E-03 0.  1.
        -11    1    3    3    0    0  0.15612014879E+02 -0.13949403583E+02  0.16926838070E+02  0.26922828905E+02  0.51100000000E-03 0. -1.
         12    1    3    3    0    0 -0.81749692586E+01  0.24828350459E+02 -0.15158548131E+02  0.30216861027E+02  0.00000000000E+00 0. -1.
</event>
<event>
 7    1  0.2684545E-013  0.7246156E+02  0.7816164E-02  0.1226708E+00
        -11   -1    0    0    0    0  0.00000000000E+00  0.00000000000E+00  0.45593999997E+02  0.45594000000E+02  0.51100000000E-03 0. -1.
         11   -1    0    0    0    0 -0.00000000000E+00 -0.00000000000E+00 -0.45593999997E+02  0.45594000000E+02  0.51100000000E-03 0.  1.
    9900012    2    1    2    0    0  0.77421967922E+01  0.14571293715E+02 -0.88552451544E+01  0.72461559376E+02  0.69999985777E+02 0.  0.
         12    1    1    2    0    0 -0.77421967922E+01 -0.14571293715E+02  0.88552451544E+01  0.18726440624E+02  0.00000000000E+00 0. -1.
         11    1    3    3    0    0  0.59517462456E+01 -0.10013582903E+02 -0.85214520833E+01  0.14432957832E+02  0.51100000000E-03 0. -1.
        -11    1    3    3    0    0 -0.19299941776E+02 -0.48389790200E+01 -0.72407170770E+01  0.21173838919E+02  0.51100000000E-03 0.  1.
         12    1    3    3    0    0  0.21090392322E+02  0.29423855638E+02  0.69069240058E+01  0.36854762625E+02  0.00000000000E+00 0. -1.
</event>
<event>
 7    1  0.2684545E-013  0.7246157E+02  0.7816164E-02  0.1226708E+00
        -11   -1    0    0    0    0  0.00000000000E+00  0.00000000000E+00  0.45593999997E+02  0.45594000000E+02  0.51100000000E-03 0. -1.
         11   -1    0    0    0    0 -0.00000000000E+00 -0.00000000000E+00 -0.45593999997E+02  0.45594000000E+02  0.51100000000E-03 0.  1.
    9900012    2    1    2    0    0  0.81783285797E+01 -0.62658362970E+01 -0.15637567460E+02  0.72461567374E+02  0.69999996195E+02 0.  0.
         12    1    1    2    0    0 -0.81783285797E+01  0.62658362970E+01  0.15637567460E+02  0.18726432626E+02  0.00000000000E+00 0. -1.
         11    1    3    3    0    0  0.11990370568E+00 -0.99025226980E+01 -0.71521101987E+01  0.12215850901E+02  0.51100000000E-03 0. -1.
        -11    1    3    3    0    0 -0.22004008137E+02 -0.10566206752E+02  0.39904217851E+01  0.24733470551E+02  0.51100000000E-03 0.  1.
         12    1    3    3    0    0  0.30062433011E+02  0.14202893153E+02 -0.12475879046E+02  0.35512245922E+02  0.00000000000E+00 0. -1.
</event>
<event>
 7    1  0.2684545E-013  0.7246158E+02  0.7816164E-02  0.1226708E+00
        -11   -1    0    0    0    0  0.00000000000E+00  0.00000000000E+00  0.45593999997E+02  0.45594000000E+02  0.51100000000E-03 0.  1.
         11   -1    0    0    0    0 -0.00000000000E+00 -0.00000000000E+00 -0.45593999997E+02  0.45594000000E+02  0.51100000000E-03 0. -1.
    9900012    2    1    2    0    0  0.17933776983E+01 -0.29771449206E+01  0.18401068327E+02  0.72461577196E+02  0.70000008991E+02 0.  0.
         12    1    1    2    0    0 -0.17933776983E+01  0.29771449206E+01 -0.18401068327E+02  0.18726422804E+02  0.00000000000E+00 0. -1.
         11    1    3    3    0    0 -0.10286040494E+01 -0.73545351802E+01  0.97007577550E+01  0.12216870110E+02  0.51100000000E-03 0.  1.
        -11    1    3    3    0    0 -0.41886761324E+01 -0.26584131303E+02 -0.13514579589E+01  0.26946010535E+02  0.51100000000E-03 0. -1.
         12    1    3    3    0    0  0.70106578801E+01  0.30961521563E+02  0.10051768531E+02  0.33298696551E+02  0.00000000000E+00 0. -1.
</event>
<event>
 7    1  0.2684545E-013  0.7246164E+02  0.7816164E-02  0.1226708E+00
        -11   -1    0    0    0    0  0.00000000000E+00  0.00000000000E+00  0.45593999997E+02  0.45594000000E+02  0.51100000000E-03 0.  1.
         11   -1    0    0    0    0 -0.00000000000E+00 -0.00000000000E+00 -0.45593999997E+02  0.45594000000E+02  0.51100000000E-03 0. -1.
    9900012    2    1    2    0    0  0.13849168132E+00 -0.10934903497E+01  0.18693895069E+02  0.72461638529E+02  0.70000088888E+02 0.  0.
         12    1    1    2    0    0 -0.13849168132E+00  0.10934903497E+01 -0.18693895069E+02  0.18726361471E+02  0.00000000000E+00 0. -1.
         11    1    3    3    0    0 -0.14260609629E+02 -0.25617526813E+02  0.11411398740E+02  0.31461765501E+02  0.51100000000E-03 0. -1.
        -11    1    3    3    0    0 -0.19255895013E+01  0.52645458001E+01 -0.92537699032E+01  0.10819223405E+02  0.51100000000E-03 0.  1.
        -12    1    3    3    0    0  0.16324690812E+02  0.19259490663E+02  0.16536266233E+02  0.30180649622E+02  0.00000000000E+00 0.  1.
</event>
<event>
 7    1  0.2684545E-013  0.7246153E+02  0.7816164E-02  0.1226708E+00
        -11   -1    0    0    0    0  0.00000000000E+00  0.00000000000E+00  0.45593999997E+02  0.45594000000E+02  0.51100000000E-03 0.  1.
         11   -1    0    0    0    0 -0.00000000000E+00 -0.00000000000E+00 -0.45593999997E+02  0.45594000000E+02  0.51100000000E-03 0. -1.
    9900012    2    1    2    0    0  0.64881828999E+01  0.37447137924E+01  0.17162788661E+02  0.72461529074E+02  0.69999946302E+02 0.  0.
         12    1    1    2    0    0 -0.64881828999E+01 -0.37447137924E+01 -0.17162788661E+02  0.18726470926E+02  0.00000000000E+00 0. -1.
         11    1    3    3    0    0 -0.84678641095E+01  0.12389219261E+02 -0.51523094792E+01  0.15866435318E+02  0.51100000000E-03 0. -1.
        -11    1    3    3    0    0  0.18174515350E+02  0.15869532486E+02  0.13281447182E+01  0.24164416777E+02  0.51100000000E-03 0.  1.
         12    1    3    3    0    0 -0.32184683408E+01 -0.24514037955E+02  0.20986953422E+02  0.32430676978E+02  0.00000000000E+00 0. -1.
</event>
<event>
 7    1  0.2684545E-013  0.7246157E+02  0.7816164E-02  0.1226708E+00
        -11   -1    0    0    0    0  0.00000000000E+00  0.00000000000E+00  0.45593999997E+02  0.45594000000E+02  0.51100000000E-03 0.  1.
         11   -1    0    0    0    0 -0.00000000000E+00 -0.00000000000E+00 -0.45593999997E+02  0.45594000000E+02  0.51100000000E-03 0. -1.
    9900012    2    1    2    0    0 -0.10625123475E+02 -0.15302669729E+02  0.19011325881E+01  0.72461568017E+02  0.69999997034E+02 0.  0.
         12    1    1    2    0    0  0.10625123475E+02  0.15302669729E+02 -0.19011325881E+01  0.18726431983E+02  0.00000000000E+00 0. -1.
         11    1    3    3    0    0 -0.13362614272E+02 -0.28981247534E+01  0.50613422132E+01  0.14579978481E+02  0.51100000000E-03 0.  1.
        -11    1    3    3    0    0  0.13144802842E+02 -0.42408448909E+01 -0.27164474010E+02  0.30474239213E+02  0.51100000000E-03 0. -1.
         12    1    3    3    0    0 -0.10407312045E+02 -0.81637000847E+01  0.24004264384E+02  0.27407350323E+02  0.00000000000E+00 0. -1.
</event>
<event>
 7    1  0.2684545E-013  0.7246157E+02  0.7816164E-02  0.1226708E+00
        -11   -1    0    0    0    0  0.00000000000E+00  0.00000000000E+00  0.45593999997E+02  0.45594000000E+02  0.51100000000E-03 0. -1.
         11   -1    0    0    0    0 -0.00000000000E+00 -0.00000000000E+00 -0.45593999997E+02  0.45594000000E+02  0.51100000000E-03 0.  1.
    9900012    2    1    2    0    0 -0.78375338069E+01 -0.11759385521E+02 -0.12286947917E+02  0.72461570198E+02  0.69999999875E+02 0.  0.
         12    1    1    2    0    0  0.78375338069E+01  0.11759385521E+02  0.12286947917E+02  0.18726429802E+02  0.00000000000E+00 0. -1.
         11    1    3    3    0    0  0.99520897326E+01 -0.15574766679E+02  0.18547779358E+01  0.18575727404E+02  0.51100000000E-03 0. -1.
        -11    1    3    3    0    0 -0.13032737166E+02 -0.18286052695E+02 -0.20495653608E+02  0.30402364682E+02  0.51100000000E-03 0.  1.
         12    1    3    3    0    0 -0.47568863738E+01  0.22101433852E+02  0.63539277558E+01  0.23483478111E+02  0.00000000000E+00 0. -1.
</event>
<event>
 7    1  0.2684545E-013  0.7246152E+02  0.7816164E-02  0.1226708E+00
        -11   -1    0    0    0    0  0.00000000000E+00  0.00000000000E+00  0.45593999997E+02  0.45594000000E+02  0.51100000000E-03 0.  1.
         11   -1    0    0    0    0 -0.00000000000E+00 -0.00000000000E+00 -0.45593999997E+02  0.45594000000E+02  0.51100000000E-03 0. -1.
    9900012    2    1    2    0    0 -0.25570227092E+01 -0.14387002323E+02  0.11711391663E+02  0.72461524206E+02  0.69999939962E+02 0.  0.
         12    1    1    2    0    0  0.25570227092E+01  0.14387002323E+02 -0.11711391663E+02  0.18726475794E+02  0.00000000000E+00 0. -1.
         11    1    3    3    0    0 -0.11666311797E+02 -0.99249680900E+01 -0.13984763397E+02  0.20740815559E+02  0.51100000000E-03 0. -1.
        -11    1    3    3    0    0  0.17044550562E+02 -0.17020746663E+02  0.25568552506E+01  0.24223130059E+02  0.51100000000E-03 0.  1.
        -12    1    3    3    0    0 -0.79352614743E+01  0.12558712430E+02  0.23139299809E+02  0.27497578588E+02  0.00000000000E+00 0.  1.
</event>
<event>
 7    1  0.2684545E-013  0.7246156E+02  0.7816164E-02  0.1226708E+00
        -11   -1    0    0    0    0  0.00000000000E+00  0.00000000000E+00  0.45593999997E+02  0.45594000000E+02  0.51100000000E-03 0.  1.
         11   -1    0    0    0    0 -0.00000000000E+00 -0.00000000000E+00 -0.45593999997E+02  0.45594000000E+02  0.51100000000E-03 0. -1.
    9900012    2    1    2    0    0  0.14332872660E+02 -0.93642843359E+01  0.75867294199E+01  0.72461560853E+02  0.69999987701E+02 0.  0.
         12    1    1    2    0    0 -0.14332872660E+02  0.93642843359E+01 -0.75867294199E+01  0.18726439147E+02  0.00000000000E+00 0. -1.
         11    1    3    3    0    0  0.66108484160E+01 -0.79626847787E+01  0.76432498269E+00  0.10377468796E+02  0.51100000000E-03 0. -1.
        -11    1    3    3    0    0  0.34092212049E+02 -0.13794979216E+01 -0.22568421441E+01  0.34194667327E+02  0.51100000000E-03 0.  1.
         12    1    3    3    0    0 -0.26370187804E+02 -0.22101635631E-01  0.90792465812E+01  0.27889424731E+02  0.00000000000E+00 0. -1.
</event>
<event>
 7    1  0.2684545E-013  0.7246159E+02  0.7816164E-02  0.1226708E+00
        -11   -1    0    0    0    0  0.00000000000E+00  0.00000000000E+00  0.45593999997E+02  0.45594000000E+02  0.51100000000E-03 0. -1.
         11   -1    0    0    0    0 -0.00000000000E+00 -0.00000000000E+00 -0.45593999997E+02  0.45594000000E+02  0.51100000000E-03 0.  1.
    9900012    2    1    2    0    0  0.10442108064E+02  0.11493384256E+02  0.10466281396E+02  0.72461586869E+02  0.70000021592E+02 0.  0.
         12    1    1    2    0    0 -0.10442108064E+02 -0.11493384256E+02 -0.10466281396E+02  0.18726413131E+02  0.00000000000E+00 0. -1.
         11    1    3    3    0    0 -0.75772891734E+00 -0.21729507773E+02 -0.90301034207E+01  0.23543330887E+02  0.51100000000E-03 0. -1.
        -11    1    3    3    0    0  0.38740543019E+01 -0.21890442355E+01 -0.38423473653E+01  0.58791023920E+01  0.51100000000E-03 0.  1.
        -12    1    3    3    0    0  0.73257826798E+01  0.35411936265E+02  0.23338732182E+02  0.43039153590E+02  0.00000000000E+00 0.  1.
</event>
<event>
 7    1  0.2684545E-013  0.7246160E+02  0.7816164E-02  0.1226708E+00
        -11   -1    0    0    0    0  0.00000000000E+00  0.00000000000E+00  0.45593999997E+02  0.45594000000E+02  0.51100000000E-03 0.  1.
         11   -1    0    0    0    0 -0.00000000000E+00 -0.00000000000E+00 -0.45593999997E+02  0.45594000000E+02  0.51100000000E-03 0. -1.
    9900012    2    1    2    0    0  0.59615729581E+01 -0.17749939300E+02 -0.27813388785E+00  0.72461600032E+02  0.70000038739E+02 0.  0.
         12    1    1    2    0    0 -0.59615729581E+01  0.17749939300E+02  0.27813388785E+00  0.18726399968E+02  0.00000000000E+00 0. -1.
         11    1    3    3    0    0  0.15277481308E+01 -0.19581536325E+02 -0.24619832933E+02  0.31494551165E+02  0.51100000000E-03 0. -1.
        -11    1    3    3    0    0  0.10729267531E+02  0.31016340272E+01 -0.40331379865E+01  0.11874490207E+02  0.51100000000E-03 0.  1.
        -12    1    3    3    0    0 -0.62954427037E+01 -0.12700370028E+01  0.28374837032E+02  0.29092558660E+02  0.00000000000E+00 0.  1.
</event>
<event>
 7    1  0.2684545E-013  0.7246171E+02  0.7816164E-02  0.1226708E+00
        -11   -1    0    0    0    0  0.00000000000E+00  0.00000000000E+00  0.45593999997E+02  0.45594000000E+02  0.51100000000E-03 0.  1.
         11   -1    0    0    0    0 -0.00000000000E+00 -0.00000000000E+00 -0.45593999997E+02  0.45594000000E+02  0.51100000000E-03 0. -1.
    9900012    2    1    2    0    0  0.27922818359E+01 -0.97923935392E+01  0.15715790877E+02  0.72461711207E+02  0.70000183564E+02 0.  0.
         12    1    1    2    0    0 -0.27922818359E+01  0.97923935392E+01 -0.15715790877E+02  0.18726288793E+02  0.00000000000E+00 0. -1.
         11    1    3    3    0    0  0.92168671029E+01 -0.31256252227E+02  0.10956332462E+02  0.34379429370E+02  0.51100000000E-03 0. -1.
        -11    1    3    3    0    0  0.11003918862E+02  0.28093472056E+01  0.53327242851E+01  0.12546577645E+02  0.51100000000E-03 0.  1.
        -12    1    3    3    0    0 -0.17428504129E+02  0.18654511483E+02 -0.57326586965E+00  0.25535704192E+02  0.00000000000E+00 0.  1.
</event>
<event>
 7    1  0.2684545E-013  0.7246154E+02  0.7816164E-02  0.1226708E+00
        -11   -1    0    0    0    0  0.00000000000E+00  0.00000000000E+00  0.45593999997E+02  0.45594000000E+02  0.51100000000E-03 0. -1.
         11   -1    0    0    0    0 -0.00000000000E+00 -0.00000000000E+00 -0.45593999997E+02  0.45594000000E+02  0.51100000000E-03 0.  1.
    9900012    2    1    2    0    0  0.24107173073E+01 -0.92066630761E+01 -0.16127807119E+02  0.72461538364E+02  0.69999958405E+02 0.  0.
         12    1    1    2    0    0 -0.24107173073E+01  0.92066630761E+01  0.16127807119E+02  0.18726461636E+02  0.00000000000E+00 0. -1.
         11    1    3    3    0    0 -0.20249767970E+02 -0.19841805013E+02 -0.38303300710E+01  0.28608071548E+02  0.51100000000E-03 0. -1.
        -11    1    3    3    0    0 -0.12063090824E+01 -0.92658158967E+01 -0.83448191845E+01  0.12527830352E+02  0.51100000000E-03 0.  1.
        -12    1    3    3    0    0  0.23866794360E+02  0.19900957834E+02 -0.39526578634E+01  0.31325636464E+02  0.00000000000E+00 0.  1.
</event>
<event>
 7    1  0.2684545E-013  0.7246155E+02  0.7816164E-02  0.1226708E+00
        -11   -1    0    0    0    0  0.00000000000E+00  0.00000000000E+00  0.45593999997E+02  0.45594000000E+02  0.51100000000E-03 0. -1.
         11   -1    0    0    0    0 -0.00000000000E+00 -0.00000000000E+00 -0.45593999997E+02  0.45594000000E+02  0.51100000000E-03 0.  1.
    9900012    2    1    2    0    0  0.17773842090E+02  0.91391910463E+00  0.58253947323E+01  0.72461549868E+02  0.69999973391E+02 0.  0.
         12    1    1    2    0    0 -0.17773842090E+02 -0.91391910463E+00 -0.58253947323E+01  0.18726450132E+02  0.00000000000E+00 0. -1.
         11    1    3    3    0    0  0.26638113468E+02 -0.57102484934E+01  0.19325802183E+02  0.33401836136E+02  0.51100000000E-03 0. -1.
        -11    1    3    3    0    0 -0.10154137488E+02 -0.66966866679E+01  0.74029047522E+01  0.14239210635E+02  0.51100000000E-03 0.  1.
        -12    1    3    3    0    0  0.12898661097E+01  0.13320854266E+02 -0.20903312203E+02  0.24820503097E+02  0.00000000000E+00 0.  1.
</event>
<event>
 7    1  0.2684545E-013  0.7246156E+02  0.7816164E-02  0.1226708E+00
        -11   -1    0    0    0    0  0.00000000000E+00  0.00000000000E+00  0.45593999997E+02  0.45594000000E+02  0.51100000000E-03 0.  1.
         11   -1    0    0    0    0 -0.00000000000E+00 -0.00000000000E+00 -0.45593999997E+02  0.45594000000E+02  0.51100000000E-03 0. -1.
    9900012    2    1    2    0    0 -0.78860661933E+01  0.16226059646E+02  0.50203925983E+01  0.72461564315E+02  0.69999992211E+02 0.  0.
         12    1    1    2    0    0  0.78860661933E+01 -0.16226059646E+02 -0.50203925983E+01  0.18726435685E+02  0.00000000000E+00 0. -1.
         11    1    3    3    0    0  0.20584059907E+02 -0.11785287530E+02  0.81598909944E+01  0.25083467577E+02  0.51100000000E-03 0. -1.
        -11    1    3    3    0    0 -0.12314703023E+02  0.33483133716E+01 -0.11018373878E+02  0.16860239505E+02  0.51100000000E-03 0.  1.
        -12    1    3    3    0    0 -0.16155423077E+02  0.24663033804E+02  0.78788754824E+01  0.30517857232E+02  0.00000000000E+00 0.  1.
</event>
<event>
 7    1  0.2684545E-013  0.7246140E+02  0.7816164E-02  0.1226708E+00
        -11   -1    0    0    0    0  0.00000000000E+00  0.00000000000E+00  0.45593999997E+02  0.45594000000E+02  0.51100000000E-03 0.  1.
         11   -1    0    0    0    0 -0.00000000000E+00 -0.00000000000E+00 -0.45593999997E+02  0.45594000000E+02  0.51100000000E-03 0. -1.
    9900012    2    1    2    0    0  0.85042849529E+01 -0.66384870227E+01  0.15306636498E+02  0.72461401446E+02  0.69999780044E+02 0.  0.
         12    1    1    2    0    0 -0.85042849529E+01  0.66384870227E+01 -0.15306636498E+02  0.18726598554E+02  0.00000000000E+00 0. -1.
         11    1    3    3    0    0 -0.10019775137E+01  0.72544883590E+00  0.32573967230E+02  0.32597447389E+02  0.51100000000E-03 0. -1.
        -11    1    3    3    0    0 -0.21843711403E+01 -0.82874099668E+01  0.81780700281E+01  0.11846242902E+02  0.51100000000E-03 0.  1.
        -12    1    3    3    0    0  0.11690633607E+02  0.92347410821E+00 -0.25445400760E+02  0.28017711156E+02  0.00000000000E+00 0.  1.
</event>
<event>
 7    1  0.2684545E-013  0.7246157E+02  0.7816164E-02  0.1226708E+00
        -11   -1    0    0    0    0  0.00000000000E+00  0.00000000000E+00  0.45593999997E+02  0.45594000000E+02  0.51100000000E-03 0.  1.
         11   -1    0    0    0    0 -0.00000000000E+00 -0.00000000000E+00 -0.45593999997E+02  0.45594000000E+02  0.51100000000E-03 0. -1.
    9900012    2    1    2    0    0  0.76098028441E+01 -0.14606544873E+02  0.89117365385E+01  0.72461566795E+02  0.69999995441E+02 0.  0.
         12    1    1    2    0    0 -0.76098028441E+01  0.14606544873E+02 -0.89117365385E+01  0.18726433205E+02  0.00000000000E+00 0. -1.
         11    1    3    3    0    0  0.97922368441E+00 -0.16778857009E+02 -0.12429104479E+02  0.20903864713E+02  0.51100000000E-03 0. -1.
        -11    1    3    3    0    0  0.71180324508E+01 -0.59877393343E+01 -0.13152332314E+02  0.16109104688E+02  0.51100000000E-03 0.  1.
        -12    1    3    3    0    0 -0.48745329115E+00  0.81600514700E+01  0.34493173331E+02  0.35448597393E+02  0.00000000000E+00 0.  1.
</event>
<event>
 7    1  0.2684545E-013  0.7246161E+02  0.7816164E-02  0.1226708E+00
        -11   -1    0    0    0    0  0.00000000000E+00  0.00000000000E+00  0.45593999997E+02  0.45594000000E+02  0.51100000000E-03 0.  1.
         11   -1    0    0    0    0 -0.00000000000E+00 -0.00000000000E+00 -0.45593999997E+02  0.45594000000E+02  0.51100000000E-03 0. -1.
    9900012    2    1    2    0    0  0.13205545460E+02  0.11660618019E+02  0.63498941108E+01  0.72461612235E+02  0.70000054636E+02 0.  0.
         12    1    1    2    0    0 -0.13205545460E+02 -0.11660618019E+02 -0.63498941108E+01  0.18726387765E+02  0.00000000000E+00 0. -1.
         11    1    3    3    0    0 -0.99993338662E-01 -0.22747060083E+02  0.16257244749E+02  0.27959555579E+02  0.51100000000E-03 0. -1.
        -11    1    3    3    0    0  0.43922606653E+01  0.23878754262E+02  0.43470173676E+01  0.24665429636E+02  0.51100000000E-03 0.  1.
        -12    1    3    3    0    0  0.89132781336E+01  0.10528923840E+02 -0.14254368006E+02  0.19836627021E+02  0.00000000000E+00 0.  1.
</event>
<event>
 7    1  0.2684545E-013  0.7246155E+02  0.7816164E-02  0.1226708E+00
        -11   -1    0    0    0    0  0.00000000000E+00  0.00000000000E+00  0.45593999997E+02  0.45594000000E+02  0.51100000000E-03 0.  1.
         11   -1    0    0    0    0 -0.00000000000E+00 -0.00000000000E+00 -0.45593999997E+02  0.45594000000E+02  0.51100000000E-03 0. -1.
    9900012    2    1    2    0    0 -0.15476634449E+02 -0.10524541480E+02 -0.62266065726E+00  0.72461550964E+02  0.69999974818E+02 0.  0.
         12    1    1    2    0    0  0.15476634449E+02  0.10524541480E+02  0.62266065726E+00  0.18726449036E+02  0.00000000000E+00 0. -1.
         11    1    3    3    0    0 -0.10479660032E+02  0.23384976875E+02 -0.38354543409E+01  0.25911216261E+02  0.51100000000E-03 0. -1.
        -11    1    3    3    0    0 -0.54485208685E+01  0.38534446090E+01  0.55964590143E+01  0.87095217302E+01  0.51100000000E-03 0.  1.
        -12    1    3    3    0    0  0.45154645181E+00 -0.37762962964E+02 -0.23836653307E+01  0.37840812973E+02  0.00000000000E+00 0.  1.
</event>
<event>
 7    1  0.2684545E-013  0.7246157E+02  0.7816164E-02  0.1226708E+00
        -11   -1    0    0    0    0  0.00000000000E+00  0.00000000000E+00  0.45593999997E+02  0.45594000000E+02  0.51100000000E-03 0. -1.
         11   -1    0    0    0    0 -0.00000000000E+00 -0.00000000000E+00 -0.45593999997E+02  0.45594000000E+02  0.51100000000E-03 0.  1.
    9900012    2    1    2    0    0 -0.26590856343E+01 -0.16378983524E+02 -0.86797105595E+01  0.72461569131E+02  0.69999998484E+02 0.  0.
         12    1    1    2    0    0  0.26590856343E+01  0.16378983524E+02  0.86797105595E+01  0.18726430869E+02  0.00000000000E+00 0. -1.
         11    1    3    3    0    0 -0.22676387388E+01 -0.20495332409E+02 -0.94151223142E+01  0.22668157500E+02  0.51100000000E-03 0. -1.
        -11    1    3    3    0    0 -0.36337514764E+01 -0.41254297421E+01 -0.23424677823E+02  0.24061148179E+02  0.51100000000E-03 0.  1.
        -12    1    3    3    0    0  0.32423045809E+01  0.82417786268E+01  0.24160089577E+02  0.25732263451E+02  0.00000000000E+00 0.  1.
</event>
<event>
 7    1  0.2684545E-013  0.7246157E+02  0.7816164E-02  0.1226708E+00
        -11   -1    0    0    0    0  0.00000000000E+00  0.00000000000E+00  0.45593999997E+02  0.45594000000E+02  0.51100000000E-03 0. -1.
         11   -1    0    0    0    0 -0.00000000000E+00 -0.00000000000E+00 -0.45593999997E+02  0.45594000000E+02  0.51100000000E-03 0.  1.
    9900012    2    1    2    0    0 -0.14895384093E+02  0.17949199367E+01 -0.11206465067E+02  0.72461573108E+02  0.70000003665E+02 0.  0.
         12    1    1    2    0    0  0.14895384093E+02 -0.17949199367E+01  0.11206465067E+02  0.18726426892E+02  0.00000000000E+00 0. -1.
         11    1    3    3    0    0 -0.51937510902E+01  0.12003295526E+02  0.16426300126E+02  0.20997082891E+02  0.51100000000E-03 0. -1.
        -11    1    3    3    0    0 -0.15655134500E+02  0.41594168108E+01  0.35822453750E+01  0.16589649381E+02  0.51100000000E-03 0.  1.
        -12    1    3    3    0    0  0.59535014973E+01 -0.14367792400E+02 -0.31215010568E+02  0.34874840835E+02  0.00000000000E+00 0.  1.
</event>
<event>
 7    1  0.2684545E-013  0.7246158E+02  0.7816164E-02  0.1226708E+00
        -11   -1    0    0    0    0  0.00000000000E+00  0.00000000000E+00  0.45593999997E+02  0.45594000000E+02  0.51100000000E-03 0.  1.
         11   -1    0    0    0    0 -0.00000000000E+00 -0.00000000000E+00 -0.45593999997E+02  0.45594000000E+02  0.51100000000E-03 0. -1.
    9900012    2    1    2    0    0  0.23247130477E+01 -0.18833243785E+01  0.18485873598E+02  0.72461582186E+02  0.70000015491E+02 0.  0.
         12    1    1    2    0    0 -0.23247130477E+01  0.18833243785E+01 -0.18485873598E+02  0.18726417814E+02  0.00000000000E+00 0. -1.
         11    1    3    3    0    0  0.15245311957E+02 -0.83907170350E+00  0.21225477535E+02  0.26146595856E+02  0.51100000000E-03 0. -1.
        -11    1    3    3    0    0 -0.16717990261E+02 -0.11328434734E+02  0.15210369709E+02  0.25282008995E+02  0.51100000000E-03 0.  1.
         12    1    3    3    0    0  0.37973913511E+01  0.10284182059E+02 -0.17949973646E+02  0.21032977335E+02  0.00000000000E+00 0. -1.
</event>
<event>
 7    1  0.2684545E-013  0.7246154E+02  0.7816164E-02  0.1226708E+00
        -11   -1    0    0    0    0  0.00000000000E+00  0.00000000000E+00  0.45593999997E+02  0.45594000000E+02  0.51100000000E-03 0.  1.
         11   -1    0    0    0    0 -0.00000000000E+00 -0.00000000000E+00 -0.45593999997E+02  0.45594000000E+02  0.51100000000E-03 0. -1.
    9900012    2    1    2    0    0 -0.57925219180E+01 -0.14367712094E+02  0.10521203542E+02  0.72461543182E+02  0.69999964681E+02 0.  0.
         12    1    1    2    0    0  0.57925219180E+01  0.14367712094E+02 -0.10521203542E+02  0.18726456818E+02  0.00000000000E+00 0. -1.
         11    1    3    3    0    0  0.10619252572E+02  0.15197958196E+02  0.81092714139E+00  0.18558126565E+02  0.51100000000E-03 0. -1.
        -11    1    3    3    0    0 -0.10525904584E+02 -0.20615085636E+01  0.21011662099E+02  0.23590981949E+02  0.51100000000E-03 0.  1.
        -12    1    3    3    0    0 -0.58858699056E+01 -0.27504161726E+02 -0.11301385699E+02  0.30312434668E+02  0.00000000000E+00 0.  1.
</event>
<event>
 7    1  0.2684545E-013  0.7246163E+02  0.7816164E-02  0.1226708E+00
        -11   -1    0    0    0    0  0.00000000000E+00  0.00000000000E+00  0.45593999997E+02  0.45594000000E+02  0.51100000000E-03 0. -1.
         11   -1    0    0    0    0 -0.00000000000E+00 -0.00000000000E+00 -0.45593999997E+02  0.45594000000E+02  0.51100000000E-03 0.  1.
    9900012    2    1    2    0    0  0.11897421501E+02 -0.78221573648E+01 -0.12163144440E+02  0.72461631775E+02  0.70000080090E+02 0.  0.
         12    1    1    2    0    0 -0.11897421501E+02  0.78221573648E+01  0.12163144440E+02  0.18726368225E+02  0.00000000000E+00 0. -1.
         11    1    3    3    0    0  0.50446283074E+01 -0.10591605284E+02  0.15349308431E+01  0.11831584433E+02  0.51100000000E-03 0. -1.
        -11    1    3    3    0    0  0.10976736823E+02  0.26813904868E+02 -0.20275454168E+02  0.35363374945E+02  0.51100000000E-03 0.  1.
         12    1    3    3    0    0 -0.41239436291E+01 -0.24044456949E+02  0.65773788851E+01  0.25266672397E+02  0.00000000000E+00 0. -1.
</event>
<event>
 7    1  0.2684545E-013  0.7246158E+02  0.7816164E-02  0.1226708E+00
        -11   -1    0    0    0    0  0.00000000000E+00  0.00000000000E+00  0.45593999997E+02  0.45594000000E+02  0.51100000000E-03 0. -1.
         11   -1    0    0    0    0 -0.00000000000E+00 -0.00000000000E+00 -0.45593999997E+02  0.45594000000E+02  0.51100000000E-03 0.  1.
    9900012    2    1    2    0    0 -0.13289899098E+02 -0.84474658268E+01 -0.10133980228E+02  0.72461584107E+02  0.70000017993E+02 0.  0.
         12    1    1    2    0    0  0.13289899098E+02  0.84474658268E+01  0.10133980228E+02  0.18726415893E+02  0.00000000000E+00 0. -1.
         11    1    3    3    0    0  0.19811641056E+01  0.10535482542E+02  0.68415088282E+01  0.12717218521E+02  0.51100000000E-03 0. -1.
        -11    1    3    3    0    0  0.15606233444E+02 -0.20922668760E+02 -0.50419854116E+01  0.26584473053E+02  0.51100000000E-03 0.  1.
         12    1    3    3    0    0 -0.30877296648E+02  0.19397203909E+01 -0.11933503645E+02  0.33159892532E+02  0.00000000000E+00 0. -1.
</event>
<event>
 7    1  0.2684545E-013  0.7246152E+02  0.7816164E-02  0.1226708E+00
        -11   -1    0    0    0    0  0.00000000000E+00  0.00000000000E+00  0.45593999997E+02  0.45594000000E+02  0.51100000000E-03 0. -1.
         11   -1    0    0    0    0 -0.00000000000E+00 -0.00000000000E+00 -0.45593999997E+02  0.45594000000E+02  0.51100000000E-03 0.  1.
    9900012    2    1    2    0    0 -0.18261230850E+02  0.32720848471E+01 -0.25498950105E+01  0.72461519926E+02  0.69999934385E+02 0.  0.
         12    1    1    2    0    0  0.18261230850E+02 -0.32720848471E+01  0.25498950105E+01  0.18726480074E+02  0.00000000000E+00 0. -1.
         11    1    3    3    0    0 -0.23848059825E+02 -0.25290742612E+02  0.10844162610E+02  0.36413561790E+02  0.51100000000E-03 0. -1.
        -11    1    3    3    0    0  0.61315024698E+00 -0.22100435948E+01 -0.10040107215E+01  0.25036540709E+01  0.51100000000E-03 0.  1.
        -12    1    3    3    0    0  0.49736787273E+01  0.30772871054E+02 -0.12390046899E+02  0.33544304064E+02  0.00000000000E+00 0.  1.
</event>
<event>
 7    1  0.2684545E-013  0.7246164E+02  0.7816164E-02  0.1226708E+00
        -11   -1    0    0    0    0  0.00000000000E+00  0.00000000000E+00  0.45593999997E+02  0.45594000000E+02  0.51100000000E-03 0. -1.
         11   -1    0    0    0    0 -0.00000000000E+00 -0.00000000000E+00 -0.45593999997E+02  0.45594000000E+02  0.51100000000E-03 0.  1.
    9900012    2    1    2    0    0  0.93654437480E+01 -0.40104335039E+01  0.15712457074E+02  0.72461643686E+02  0.70000095607E+02 0.  0.
         12    1    1    2    0    0 -0.93654437480E+01  0.40104335039E+01 -0.15712457074E+02  0.18726356314E+02  0.00000000000E+00 0. -1.
         11    1    3    3    0    0  0.32206171457E+01 -0.99710702681E-02  0.28477293639E+02  0.28658833324E+02  0.51100000000E-03 0. -1.
        -11    1    3    3    0    0  0.11020160481E+02  0.15240379854E+01  0.12938794623E+02  0.17063968922E+02  0.51100000000E-03 0.  1.
        -12    1    3    3    0    0 -0.48753338786E+01 -0.55245004191E+01 -0.25703631188E+02  0.26738841441E+02  0.00000000000E+00 0.  1.
</event>
<event>
 7    1  0.2684545E-013  0.7246169E+02  0.7816164E-02  0.1226708E+00
        -11   -1    0    0    0    0  0.00000000000E+00  0.00000000000E+00  0.45593999997E+02  0.45594000000E+02  0.51100000000E-03 0. -1.
         11   -1    0    0    0    0 -0.00000000000E+00 -0.00000000000E+00 -0.45593999997E+02  0.45594000000E+02  0.51100000000E-03 0.  1.
    9900012    2    1    2    0    0  0.26532750736E+00  0.17498377803E+02 -0.66641674658E+01  0.72461688232E+02  0.70000153636E+02 0.  0.
         12    1    1    2    0    0 -0.26532750736E+00 -0.17498377803E+02  0.66641674658E+01  0.18726311768E+02  0.00000000000E+00 0. -1.
         11    1    3    3    0    0 -0.94969609632E+01  0.17478905830E+01  0.19273937470E+02  0.21557644929E+02  0.51100000000E-03 0. -1.
        -11    1    3    3    0    0 -0.14550760117E+02  0.10917710306E+02 -0.62061066879E+01  0.19220738248E+02  0.51100000000E-03 0.  1.
        -12    1    3    3    0    0  0.24313048588E+02  0.48327769134E+01 -0.19731998248E+02  0.31683305055E+02  0.00000000000E+00 0.  1.
</event>
<event>
 7    1  0.2684545E-013  0.7246158E+02  0.7816164E-02  0.1226708E+00
        -11   -1    0    0    0    0  0.00000000000E+00  0.00000000000E+00  0.45593999997E+02  0.45594000000E+02  0.51100000000E-03 0. -1.
         11   -1    0    0    0    0 -0.00000000000E+00 -0.00000000000E+00 -0.45593999997E+02  0.45594000000E+02  0.51100000000E-03 0.  1.
    9900012    2    1    2    0    0  0.45523648921E+00  0.16468440918E+02 -0.89029167260E+01  0.72461582490E+02  0.70000015887E+02 0.  0.
         12    1    1    2    0    0 -0.45523648921E+00 -0.16468440918E+02  0.89029167260E+01  0.18726417510E+02  0.00000000000E+00 0. -1.
         11    1    3    3    0    0  0.13797947398E+02 -0.80315016603E+01  0.58936522426E+00  0.15976098489E+02  0.51100000000E-03 0. -1.
        -11    1    3    3    0    0  0.16657185066E+02  0.13540735485E+02  0.39606682268E+01  0.21828885104E+02  0.51100000000E-03 0.  1.
         12    1    3    3    0    0 -0.29999895975E+02  0.10959207094E+02 -0.13452950177E+02  0.34656598897E+02  0.00000000000E+00 0. -1.
</event>
<event>
 7    1  0.2684545E-013  0.7246157E+02  0.7816164E-02  0.1226708E+00
        -11   -1    0    0    0    0  0.00000000000E+00  0.00000000000E+00  0.45593999997E+02  0.45594000000E+02  0.51100000000E-03 0. -1.
         11   -1    0    0    0    0 -0.00000000000E+00 -0.00000000000E+00 -0.45593999997E+02  0.45594000000E+02  0.51100000000E-03 0.  1.
    9900012    2    1    2    0    0 -0.10568876264E+02 -0.14446081048E+02 -0.55035078347E+01  0.72461574778E+02  0.70000005840E+02 0.  0.
         12    1    1    2    0    0  0.10568876264E+02  0.14446081048E+02  0.55035078347E+01  0.18726425222E+02  0.00000000000E+00 0. -1.
         11    1    3    3    0    0  0.47660480700E+01 -0.16962343034E+02  0.22721182112E+02  0.28752189694E+02  0.51100000000E-03 0.  1.
        -11    1    3    3    0    0 -0.42697100389E+01  0.12968331779E+02 -0.25905310435E+01  0.13896722790E+02  0.51100000000E-03 0. -1.
        -12    1    3    3    0    0 -0.11065214295E+02 -0.10452069793E+02 -0.25634158903E+02  0.29812662293E+02  0.00000000000E+00 0.  1.
</event>
<event>
 7    1  0.2684545E-013  0.7246156E+02  0.7816164E-02  0.1226708E+00
        -11   -1    0    0    0    0  0.00000000000E+00  0.00000000000E+00  0.45593999997E+02  0.45594000000E+02  0.51100000000E-03 0.  1.
         11   -1    0    0    0    0 -0.00000000000E+00 -0.00000000000E+00 -0.45593999997E+02  0.45594000000E+02  0.51100000000E-03 0. -1.
    9900012    2    1    2    0    0  0.15776431766E+02  0.99533700619E+00  0.10039576914E+02  0.72461558810E+02  0.69999985039E+02 0.  0.
         12    1    1    2    0    0 -0.15776431766E+02 -0.99533700619E+00 -0.10039576914E+02  0.18726441190E+02  0.00000000000E+00 0. -1.
         11    1    3    3    0    0  0.48309906457E+01 -0.91950441782E+01 -0.22356131402E+02  0.24651245801E+02  0.51100000000E-03 0. -1.
        -11    1    3    3    0    0 -0.90230922417E+01  0.31019966706E+01  0.54730240517E+00  0.95570977357E+01  0.51100000000E-03 0.  1.
        -12    1    3    3    0    0  0.19968533362E+02  0.70883845138E+01  0.31848405911E+02  0.38253215273E+02  0.00000000000E+00 0.  1.
</event>
<event>
 7    1  0.2684545E-013  0.7246160E+02  0.7816164E-02  0.1226708E+00
        -11   -1    0    0    0    0  0.00000000000E+00  0.00000000000E+00  0.45593999997E+02  0.45594000000E+02  0.51100000000E-03 0.  1.
         11   -1    0    0    0    0 -0.00000000000E+00 -0.00000000000E+00 -0.45593999997E+02  0.45594000000E+02  0.51100000000E-03 0. -1.
    9900012    2    1    2    0    0  0.59541171300E+01 -0.17737810966E+02  0.77229151540E+00  0.72461604649E+02  0.70000044754E+02 0.  0.
         12    1    1    2    0    0 -0.59541171300E+01  0.17737810966E+02 -0.77229151540E+00  0.18726395351E+02  0.00000000000E+00 0. -1.
         11    1    3    3    0    0 -0.22601120551E+02 -0.85591834752E+01  0.91231971546E+01  0.25832208549E+02  0.51100000000E-03 0. -1.
        -11    1    3    3    0    0  0.98358532426E+01  0.12605331589E+02  0.19693054169E+01  0.16109517608E+02  0.51100000000E-03 0.  1.
         12    1    3    3    0    0  0.18719384438E+02 -0.21783959080E+02 -0.10320211056E+02  0.30519878492E+02  0.00000000000E+00 0. -1.
</event>
<event>
 7    1  0.2684545E-013  0.7246161E+02  0.7816164E-02  0.1226708E+00
        -11   -1    0    0    0    0  0.00000000000E+00  0.00000000000E+00  0.45593999997E+02  0.45594000000E+02  0.51100000000E-03 0.  1.
         11   -1    0    0    0    0 -0.00000000000E+00 -0.00000000000E+00 -0.45593999997E+02  0.45594000000E+02  0.51100000000E-03 0. -1.
    9900012    2    1    2    0    0  0.84234831389E+01  0.16723499427E+02 -0.21748168595E+00  0.72461606872E+02  0.70000047650E+02 0.  0.
         12    1    1    2    0    0 -0.84234831389E+01 -0.16723499427E+02  0.21748168595E+00  0.18726393128E+02  0.00000000000E+00 0. -1.
         11    1    3    3    0    0 -0.32801912663E+01  0.96196653172E+01 -0.91571708542E+01  0.13680328719E+02  0.51100000000E-03 0. -1.
        -11    1    3    3    0    0  0.29913203130E+02  0.17223119297E+02  0.14153711884E+02  0.37306341554E+02  0.51100000000E-03 0.  1.
         12    1    3    3    0    0 -0.18209528724E+02 -0.10119285187E+02 -0.52140227153E+01  0.21474936599E+02  0.00000000000E+00 0. -1.
</event>
<event>
 7    1  0.2684545E-013  0.7246156E+02  0.7816164E-02  0.1226708E+00
        -11   -1    0    0    0    0  0.00000000000E+00  0.00000000000E+00  0.45593999997E+02  0.45594000000E+02  0.51100000000E-03 0.  1.
         11   -1    0    0    0    0 -0.00000000000E+00 -0.00000000000E+00 -0.45593999997E+02  0.45594000000E+02  0.51100000000E-03 0. -1.
    9900012    2    1    2    0    0  0.11729650138E+02 -0.48336640912E+00  0.14589763954E+02  0.72461560197E+02  0.69999986847E+02 0.  0.
         12    1    1    2    0    0 -0.11729650138E+02  0.48336640912E+00 -0.14589763954E+02  0.18726439803E+02  0.00000000000E+00 0. -1.
         11    1    3    3    0    0  0.98178335220E+01 -0.23371532107E+02  0.16410980872E+01  0.25402983512E+02  0.51100000000E-03 0. -1.
        -11    1    3    3    0    0 -0.53843653886E+01 -0.68548773037E+00 -0.11253561223E+02  0.12494155615E+02  0.51100000000E-03 0.  1.
        -12    1    3    3    0    0  0.72961820051E+01  0.23573653429E+02  0.24202227090E+02  0.34564421070E+02  0.00000000000E+00 0.  1.
</event>
<event>
 7    1  0.2684545E-013  0.7246159E+02  0.7816164E-02  0.1226708E+00
        -11   -1    0    0    0    0  0.00000000000E+00  0.00000000000E+00  0.45593999997E+02  0.45594000000E+02  0.51100000000E-03 0.  1.
         11   -1    0    0    0    0 -0.00000000000E+00 -0.00000000000E+00 -0.45593999997E+02  0.45594000000E+02  0.51100000000E-03 0. -1.
    9900012    2    1    2    0    0 -0.16619324816E+02  0.85074863093E+01 -0.14488151021E+01  0.72461592286E+02  0.70000028649E+02 0.  0.
         12    1    1    2    0    0  0.16619324816E+02 -0.85074863093E+01  0.14488151021E+01  0.18726407714E+02  0.00000000000E+00 0. -1.
         11    1    3    3    0    0 -0.56850713274E+01 -0.49083130939E+01 -0.10368108286E+02  0.12802704523E+02  0.51100000000E-03 0. -1.
        -11    1    3    3    0    0 -0.22416011470E+02  0.22444333550E+02 -0.12195289032E+02  0.33984566402E+02  0.51100000000E-03 0.  1.
        -12    1    3    3    0    0  0.11481757981E+02 -0.90285341464E+01  0.21114582216E+02  0.25674321361E+02  0.00000000000E+00 0.  1.
</event>
<event>
 7    1  0.2684545E-013  0.7246175E+02  0.7816164E-02  0.1226708E+00
        -11   -1    0    0    0    0  0.00000000000E+00  0.00000000000E+00  0.45593999997E+02  0.45594000000E+02  0.51100000000E-03 0. -1.
         11   -1    0    0    0    0 -0.00000000000E+00 -0.00000000000E+00 -0.45593999997E+02  0.45594000000E+02  0.51100000000E-03 0.  1.
    9900012    2    1    2    0    0  0.37221419999E+01 -0.11507623407E+02 -0.14296597506E+02  0.72461750033E+02  0.70000234143E+02 0.  0.
         12    1    1    2    0    0 -0.37221419999E+01  0.11507623407E+02  0.14296597506E+02  0.18726249967E+02  0.00000000000E+00 0. -1.
         11    1    3    3    0    0  0.11668948907E+01  0.16624903333E+02 -0.21615946181E+02  0.27294654862E+02  0.51100000000E-03 0. -1.
        -11    1    3    3    0    0 -0.87370259959E+01 -0.17395873703E+02 -0.99875878799E+01  0.21879304309E+02  0.51100000000E-03 0.  1.
         12    1    3    3    0    0  0.11292273105E+02 -0.10736653037E+02  0.17306936555E+02  0.23287790862E+02  0.00000000000E+00 0. -1.
</event>
<event>
 7    1  0.2684545E-013  0.7246156E+02  0.7816164E-02  0.1226708E+00
        -11   -1    0    0    0    0  0.00000000000E+00  0.00000000000E+00  0.45593999997E+02  0.45594000000E+02  0.51100000000E-03 0.  1.
         11   -1    0    0    0    0 -0.00000000000E+00 -0.00000000000E+00 -0.45593999997E+02  0.45594000000E+02  0.51100000000E-03 0. -1.
    9900012    2    1    2    0    0 -0.10141236475E+02 -0.60603002639E+01  0.14529544771E+02  0.72461559127E+02  0.69999985452E+02 0.  0.
         12    1    1    2    0    0  0.10141236475E+02  0.60603002639E+01 -0.14529544771E+02  0.18726440873E+02  0.00000000000E+00 0. -1.
         11    1    3    3    0    0 -0.40368933873E+01 -0.23042922097E+01  0.67623887385E+01  0.82058620827E+01  0.51100000000E-03 0. -1.
        -11    1    3    3    0    0  0.15496211565E+01  0.33563198062E+01  0.34944292194E+02  0.35139290909E+02  0.51100000000E-03 0.  1.
         12    1    3    3    0    0 -0.76539642446E+01 -0.71123278604E+01 -0.27177136162E+02  0.29116406135E+02  0.00000000000E+00 0. -1.
</event>
<event>
 7    1  0.2684545E-013  0.7246164E+02  0.7816164E-02  0.1226708E+00
        -11   -1    0    0    0    0  0.00000000000E+00  0.00000000000E+00  0.45593999997E+02  0.45594000000E+02  0.51100000000E-03 0. -1.
         11   -1    0    0    0    0 -0.00000000000E+00 -0.00000000000E+00 -0.45593999997E+02  0.45594000000E+02  0.51100000000E-03 0.  1.
    9900012    2    1    2    0    0 -0.17940802923E+02  0.20961020559E+01  0.49406904621E+01  0.72461642223E+02  0.70000093700E+02 0.  0.
         12    1    1    2    0    0  0.17940802923E+02 -0.20961020559E+01 -0.49406904621E+01  0.18726357777E+02  0.00000000000E+00 0. -1.
         11    1    3    3    0    0 -0.18291900233E+02 -0.18705864719E+02 -0.13200697737E+01  0.26196289308E+02  0.51100000000E-03 0.  1.
        -11    1    3    3    0    0  0.36731213050E+01  0.31163882189E+02  0.12435762522E+02  0.33753926630E+02  0.51100000000E-03 0. -1.
         12    1    3    3    0    0 -0.33220239947E+01 -0.10361915413E+02 -0.61750022858E+01  0.12511426285E+02  0.00000000000E+00 0. -1.
</event>
<event>
 7    1  0.2684545E-013  0.7246149E+02  0.7816164E-02  0.1226708E+00
        -11   -1    0    0    0    0  0.00000000000E+00  0.00000000000E+00  0.45593999997E+02  0.45594000000E+02  0.51100000000E-03 0. -1.
         11   -1    0    0    0    0 -0.00000000000E+00 -0.00000000000E+00 -0.45593999997E+02  0.45594000000E+02  0.51100000000E-03 0.  1.
    9900012    2    1    2    0    0 -0.78090594127E+01  0.14241065543E+02 -0.93216319533E+01  0.72461489941E+02  0.69999895325E+02 0.  0.
         12    1    1    2    0    0  0.78090594127E+01 -0.14241065543E+02  0.93216319533E+01  0.18726510059E+02  0.00000000000E+00 0. -1.
         11    1    3    3    0    0 -0.33060418380E+01  0.43769842573E+01  0.58364053558E+01  0.80094651233E+01  0.51100000000E-03 0. -1.
        -11    1    3    3    0    0  0.10818346673E+02  0.37119295212E+00  0.21238054152E+02  0.23837561816E+02  0.51100000000E-03 0.  1.
        -12    1    3    3    0    0 -0.15321364247E+02  0.94928883332E+01 -0.36396091461E+02  0.40614463002E+02  0.00000000000E+00 0.  1.
</event>
<event>
 7    1  0.2684545E-013  0.7246159E+02  0.7816164E-02  0.1226708E+00
        -11   -1    0    0    0    0  0.00000000000E+00  0.00000000000E+00  0.45593999997E+02  0.45594000000E+02  0.51100000000E-03 0. -1.
         11   -1    0    0    0    0 -0.00000000000E+00 -0.00000000000E+00 -0.45593999997E+02  0.45594000000E+02  0.51100000000E-03 0.  1.
    9900012    2    1    2    0    0 -0.67928552761E+00  0.95892334070E+01 -0.16070578545E+02  0.72461592952E+02  0.70000029515E+02 0.  0.
         12    1    1    2    0    0  0.67928552761E+00 -0.95892334070E+01  0.16070578545E+02  0.18726407048E+02  0.00000000000E+00 0. -1.
         11    1    3    3    0    0 -0.16090491670E-01  0.33840304223E+02 -0.17315917502E+02  0.38013253584E+02  0.51100000000E-03 0.  1.
        -11    1    3    3    0    0 -0.93505448736E+01 -0.18058035390E+01 -0.30508842479E+01  0.10000075540E+02  0.51100000000E-03 0. -1.
        -12    1    3    3    0    0  0.86873498376E+01 -0.22445267277E+02  0.42962232052E+01  0.24448263828E+02  0.00000000000E+00 0.  1.
</event>
<event>
 7    1  0.2684545E-013  0.7246158E+02  0.7816164E-02  0.1226708E+00
        -11   -1    0    0    0    0  0.00000000000E+00  0.00000000000E+00  0.45593999997E+02  0.45594000000E+02  0.51100000000E-03 0. -1.
         11   -1    0    0    0    0 -0.00000000000E+00 -0.00000000000E+00 -0.45593999997E+02  0.45594000000E+02  0.51100000000E-03 0.  1.
    9900012    2    1    2    0    0  0.75365908859E+01  0.11690248869E+02 -0.12538602602E+02  0.72461583471E+02  0.70000017165E+02 0.  0.
         12    1    1    2    0    0 -0.75365908859E+01 -0.11690248869E+02  0.12538602602E+02  0.18726416529E+02  0.00000000000E+00 0. -1.
         11    1    3    3    0    0 -0.93989246182E+01 -0.50077659427E+01  0.66054668496E+01  0.12531947027E+02  0.51100000000E-03 0. -1.
        -11    1    3    3    0    0  0.19724448072E+02  0.29371111621E+01  0.13710656105E+02  0.24200466211E+02  0.51100000000E-03 0.  1.
        -12    1    3    3    0    0 -0.27889325679E+01  0.13760903649E+02 -0.32854725557E+02  0.35729170233E+02  0.00000000000E+00 0.  1.
</event>
<event>
 7    1  0.2684545E-013  0.7246155E+02  0.7816164E-02  0.1226708E+00
        -11   -1    0    0    0    0  0.00000000000E+00  0.00000000000E+00  0.45593999997E+02  0.45594000000E+02  0.51100000000E-03 0.  1.
         11   -1    0    0    0    0 -0.00000000000E+00 -0.00000000000E+00 -0.45593999997E+02  0.45594000000E+02  0.51100000000E-03 0. -1.
    9900012    2    1    2    0    0  0.17471751101E+02 -0.33606553530E+01 -0.58415730621E+01  0.72461546337E+02  0.69999968791E+02 0.  0.
         12    1    1    2    0    0 -0.17471751101E+02  0.33606553530E+01  0.58415730621E+01  0.18726453663E+02  0.00000000000E+00 0. -1.
         11    1    3    3    0    0 -0.24824354349E+01  0.17515062554E+01  0.94869905451E+01  0.99615887145E+01  0.51100000000E-03 0. -1.
        -11    1    3    3    0    0 -0.55428698403E+00 -0.22196196622E+02  0.11199268156E+02  0.24867689600E+02  0.51100000000E-03 0.  1.
         12    1    3    3    0    0  0.20508473520E+02  0.17084035014E+02 -0.26527831763E+02  0.37632268023E+02  0.00000000000E+00 0. -1.
</event>
<event>
 7    1  0.2684545E-013  0.7246158E+02  0.7816164E-02  0.1226708E+00
        -11   -1    0    0    0    0  0.00000000000E+00  0.00000000000E+00  0.45593999997E+02  0.45594000000E+02  0.51100000000E-03 0.  1.
         11   -1    0    0    0    0 -0.00000000000E+00 -0.00000000000E+00 -0.45593999997E+02  0.45594000000E+02  0.51100000000E-03 0. -1.
    9900012    2    1    2    0    0  0.16248524553E+02  0.20728571444E+01 -0.90756471780E+01  0.72461583937E+02  0.70000017772E+02 0.  0.
         12    1    1    2    0    0 -0.16248524553E+02 -0.20728571444E+01  0.90756471780E+01  0.18726416063E+02  0.00000000000E+00 0. -1.
         11    1    3    3    0    0 -0.57646622493E+01  0.13180330738E+02 -0.15523140985E+02  0.21164128980E+02  0.51100000000E-03 0. -1.
        -11    1    3    3    0    0  0.10584153902E+02  0.16266312108E+02 -0.40614635464E+01  0.19827070127E+02  0.51100000000E-03 0.  1.
        -12    1    3    3    0    0  0.11429032900E+02 -0.27373785702E+02  0.10508957353E+02  0.31470384830E+02  0.00000000000E+00 0.  1.
</event>
<event>
 7    1  0.2684545E-013  0.7246139E+02  0.7816164E-02  0.1226708E+00
        -11   -1    0    0    0    0  0.00000000000E+00  0.00000000000E+00  0.45593999997E+02  0.45594000000E+02  0.51100000000E-03 0.  1.
         11   -1    0    0    0    0 -0.00000000000E+00 -0.00000000000E+00 -0.45593999997E+02  0.45594000000E+02  0.51100000000E-03 0. -1.
    9900012    2    1    2    0    0 -0.13036039913E+02 -0.12899533451E+02  0.37880978103E+01  0.72461388323E+02  0.69999762949E+02 0.  0.
         12    1    1    2    0    0  0.13036039913E+02  0.12899533451E+02 -0.37880978103E+01  0.18726611677E+02  0.00000000000E+00 0. -1.
         11    1    3    3    0    0  0.60938476340E+01 -0.14010818697E+02 -0.75539547183E+01  0.17044067933E+02  0.51100000000E-03 0. -1.
        -11    1    3    3    0    0  0.14045064432E+02  0.11428718503E+02  0.99182849225E+01  0.20645866840E+02  0.51100000000E-03 0.  1.
         12    1    3    3    0    0 -0.33174951979E+02 -0.10317433258E+02  0.14237676061E+01  0.34771453550E+02  0.00000000000E+00 0. -1.
</event>
<event>
 7    1  0.2684545E-013  0.7246153E+02  0.7816164E-02  0.1226708E+00
        -11   -1    0    0    0    0  0.00000000000E+00  0.00000000000E+00  0.45593999997E+02  0.45594000000E+02  0.51100000000E-03 0.  1.
         11   -1    0    0    0    0 -0.00000000000E+00 -0.00000000000E+00 -0.45593999997E+02  0.45594000000E+02  0.51100000000E-03 0. -1.
    9900012    2    1    2    0    0  0.62784041966E+01  0.82091175886E+01  0.15616427171E+02  0.72461527603E+02  0.69999944387E+02 0.  0.
         12    1    1    2    0    0 -0.62784041966E+01 -0.82091175886E+01 -0.15616427171E+02  0.18726472397E+02  0.00000000000E+00 0. -1.
         11    1    3    3    0    0  0.27661053308E+02  0.95518616199E+01  0.63255422111E+01  0.29939679609E+02  0.51100000000E-03 0. -1.
        -11    1    3    3    0    0 -0.22468535455E+01  0.12311538058E+02 -0.65983520995E+01  0.14147811523E+02  0.51100000000E-03 0.  1.
        -12    1    3    3    0    0 -0.19135795566E+02 -0.13654282089E+02  0.15889237060E+02  0.28374036471E+02  0.00000000000E+00 0.  1.
</event>
<event>
 7    1  0.2684545E-013  0.7246152E+02  0.7816164E-02  0.1226708E+00
        -11   -1    0    0    0    0  0.00000000000E+00  0.00000000000E+00  0.45593999997E+02  0.45594000000E+02  0.51100000000E-03 0.  1.
         11   -1    0    0    0    0 -0.00000000000E+00 -0.00000000000E+00 -0.45593999997E+02  0.45594000000E+02  0.51100000000E-03 0. -1.
    9900012    2    1    2    0    0 -0.13435974040E+02  0.11372115235E+02  0.63898922123E+01  0.72461518062E+02  0.69999931957E+02 0.  0.
         12    1    1    2    0    0  0.13435974040E+02 -0.11372115235E+02 -0.63898922123E+01  0.18726481938E+02  0.00000000000E+00 0. -1.
         11    1    3    3    0    0 -0.14362631027E+02  0.46982735007E+00 -0.92452943335E+01  0.17087462519E+02  0.51100000000E-03 0. -1.
        -11    1    3    3    0    0 -0.11345380285E+02 -0.17995950029E+02  0.98751763429E+01  0.23454018405E+02  0.51100000000E-03 0.  1.
        -12    1    3    3    0    0  0.12272037273E+02  0.28898237914E+02  0.57600102029E+01  0.31920037138E+02  0.00000000000E+00 0.  1.
</event>
<event>
 7    1  0.2684545E-013  0.7246152E+02  0.7816164E-02  0.1226708E+00
        -11   -1    0    0    0    0  0.00000000000E+00  0.00000000000E+00  0.45593999997E+02  0.45594000000E+02  0.51100000000E-03 0.  1.
         11   -1    0    0    0    0 -0.00000000000E+00 -0.00000000000E+00 -0.45593999997E+02  0.45594000000E+02  0.51100000000E-03 0. -1.
    9900012    2    1    2    0    0  0.14610907915E+01 -0.14606861428E+02  0.11626948711E+02  0.72461518125E+02  0.69999932040E+02 0.  0.
         12    1    1    2    0    0 -0.14610907915E+01  0.14606861428E+02 -0.11626948711E+02  0.18726481875E+02  0.00000000000E+00 0. -1.
         11    1    3    3    0    0  0.12213257473E+02  0.63698620695E+01  0.48191674559E+01  0.14593257900E+02  0.51100000000E-03 0. -1.
        -11    1    3    3    0    0  0.41713106801E+01  0.75884296468E+01  0.20953242831E+02  0.22672063926E+02  0.51100000000E-03 0.  1.
         12    1    3    3    0    0 -0.14923477362E+02 -0.28565153145E+02 -0.14145461576E+02  0.35196196299E+02  0.00000000000E+00 0. -1.
</event>
<event>
 7    1  0.2684545E-013  0.7246157E+02  0.7816164E-02  0.1226708E+00
        -11   -1    0    0    0    0  0.00000000000E+00  0.00000000000E+00  0.45593999997E+02  0.45594000000E+02  0.51100000000E-03 0.  1.
         11   -1    0    0    0    0 -0.00000000000E+00 -0.00000000000E+00 -0.45593999997E+02  0.45594000000E+02  0.51100000000E-03 0. -1.
    9900012    2    1    2    0    0 -0.12780545564E+02 -0.58408361769E+01 -0.12378265364E+02  0.72461570400E+02  0.70000000137E+02 0.  0.
         12    1    1    2    0    0  0.12780545564E+02  0.58408361769E+01  0.12378265364E+02  0.18726429600E+02  0.00000000000E+00 0. -1.
         11    1    3    3    0    0  0.66995141740E+01 -0.19045401224E+01  0.28876242591E+01  0.75398366937E+01  0.51100000000E-03 0. -1.
        -11    1    3    3    0    0 -0.15219411865E+02 -0.31857472703E+01  0.22256832123E+02  0.27150433875E+02  0.51100000000E-03 0.  1.
        -12    1    3    3    0    0 -0.42606478733E+01 -0.75054878415E+00 -0.37522721745E+02  0.37771299831E+02  0.00000000000E+00 0.  1.
</event>
<event>
 7    1  0.2684545E-013  0.7246162E+02  0.7816164E-02  0.1226708E+00
        -11   -1    0    0    0    0  0.00000000000E+00  0.00000000000E+00  0.45593999997E+02  0.45594000000E+02  0.51100000000E-03 0. -1.
         11   -1    0    0    0    0 -0.00000000000E+00 -0.00000000000E+00 -0.45593999997E+02  0.45594000000E+02  0.51100000000E-03 0.  1.
    9900012    2    1    2    0    0  0.17211710207E+02 -0.86963755318E+00 -0.73265312422E+01  0.72461620271E+02  0.70000065104E+02 0.  0.
         12    1    1    2    0    0 -0.17211710207E+02  0.86963755318E+00  0.73265312422E+01  0.18726379729E+02  0.00000000000E+00 0. -1.
         11    1    3    3    0    0 -0.12407542311E+02 -0.44308887308E+01 -0.13018299070E+01  0.13239132997E+02  0.51100000000E-03 0. -1.
        -11    1    3    3    0    0  0.23344125353E+02  0.26374691942E+02 -0.45711130514E+01  0.35517145695E+02  0.51100000000E-03 0.  1.
         12    1    3    3    0    0  0.62751271651E+01 -0.22813440764E+02 -0.14535882838E+01  0.23705341578E+02  0.00000000000E+00 0. -1.
</event>
<event>
 7    1  0.2684545E-013  0.7246160E+02  0.7816164E-02  0.1226708E+00
        -11   -1    0    0    0    0  0.00000000000E+00  0.00000000000E+00  0.45593999997E+02  0.45594000000E+02  0.51100000000E-03 0. -1.
         11   -1    0    0    0    0 -0.00000000000E+00 -0.00000000000E+00 -0.45593999997E+02  0.45594000000E+02  0.51100000000E-03 0.  1.
    9900012    2    1    2    0    0  0.24175252531E+01  0.39687809495E+01 -0.18140625543E+02  0.72461602972E+02  0.70000042568E+02 0.  0.
         12    1    1    2    0    0 -0.24175252531E+01 -0.39687809495E+01  0.18140625543E+02  0.18726397028E+02  0.00000000000E+00 0. -1.
         11    1    3    3    0    0 -0.10270862761E+02  0.20145960892E+02  0.88906301756E+01  0.24298017765E+02  0.51100000000E-03 0. -1.
        -11    1    3    3    0    0  0.37119237877E+01 -0.62266863100E+01  0.79167498248E+01  0.10734287525E+02  0.51100000000E-03 0.  1.
        -12    1    3    3    0    0  0.89764642261E+01 -0.99504936327E+01 -0.34948005543E+02  0.37429297682E+02  0.00000000000E+00 0.  1.
</event>
<event>
 7    1  0.2684545E-013  0.7246158E+02  0.7816164E-02  0.1226708E+00
        -11   -1    0    0    0    0  0.00000000000E+00  0.00000000000E+00  0.45593999997E+02  0.45594000000E+02  0.51100000000E-03 0.  1.
         11   -1    0    0    0    0 -0.00000000000E+00 -0.00000000000E+00 -0.45593999997E+02  0.45594000000E+02  0.51100000000E-03 0. -1.
    9900012    2    1    2    0    0 -0.33877280579E+01 -0.18200085870E+02 -0.28211489086E+01  0.72461582611E+02  0.70000016045E+02 0.  0.
         12    1    1    2    0    0  0.33877280579E+01  0.18200085870E+02  0.28211489086E+01  0.18726417389E+02  0.00000000000E+00 0. -1.
         11    1    3    3    0    0 -0.22317577585E+02 -0.15276178860E+01 -0.26516281056E+02  0.34691800861E+02  0.51100000000E-03 0. -1.
        -11    1    3    3    0    0  0.78514317619E+01 -0.31488885829E+00  0.14009419117E+01  0.79816523482E+01  0.51100000000E-03 0.  1.
        -12    1    3    3    0    0  0.11078417765E+02 -0.16357579125E+02  0.22294190236E+02  0.29788129402E+02  0.00000000000E+00 0.  1.
</event>
<event>
 7    1  0.2684545E-013  0.7246124E+02  0.7816164E-02  0.1226709E+00
        -11   -1    0    0    0    0  0.00000000000E+00  0.00000000000E+00  0.45593999997E+02  0.45594000000E+02  0.51100000000E-03 0.  1.
         11   -1    0    0    0    0 -0.00000000000E+00 -0.00000000000E+00 -0.45593999997E+02  0.45594000000E+02  0.51100000000E-03 0. -1.
    9900012    2    1    2    0    0  0.12639628264E+02 -0.12391576112E+02  0.61139291794E+01  0.72461241305E+02  0.69999571429E+02 0.  0.
         12    1    1    2    0    0 -0.12639628264E+02  0.12391576112E+02 -0.61139291794E+01  0.18726758695E+02  0.00000000000E+00 0. -1.
         11    1    3    3    0    0 -0.10112793433E+02 -0.10302724224E+02 -0.16303880804E+01  0.14528347567E+02  0.51100000000E-03 0. -1.
        -11    1    3    3    0    0  0.11598125476E+02 -0.26177374494E+02  0.12006502174E+02  0.31047182556E+02  0.51100000000E-03 0.  1.
         12    1    3    3    0    0  0.11154296221E+02  0.24088522606E+02 -0.42621849140E+01  0.26885711182E+02  0.00000000000E+00 0. -1.
</event>
<event>
 7    1  0.2684545E-013  0.7246156E+02  0.7816164E-02  0.1226708E+00
        -11   -1    0    0    0    0  0.00000000000E+00  0.00000000000E+00  0.45593999997E+02  0.45594000000E+02  0.51100000000E-03 0.  1.
         11   -1    0    0    0    0 -0.00000000000E+00 -0.00000000000E+00 -0.45593999997E+02  0.45594000000E+02  0.51100000000E-03 0. -1.
    9900012    2    1    2    0    0  0.97608946054E+01 -0.13392744554E+01  0.15925159072E+02  0.72461563846E+02  0.69999991600E+02 0.  0.
         12    1    1    2    0    0 -0.97608946054E+01  0.13392744554E+01 -0.15925159072E+02  0.18726436154E+02  0.00000000000E+00 0. -1.
         11    1    3    3    0    0 -0.12464923213E+02 -0.12533606188E+02  0.27154465321E+01  0.17884050014E+02  0.51100000000E-03 0. -1.
        -11    1    3    3    0    0  0.12499844920E+02 -0.18088055269E+02  0.37481636674E+01  0.22304093740E+02  0.51100000000E-03 0.  1.
        -12    1    3    3    0    0  0.97259728980E+01  0.29282387002E+02  0.94615488725E+01  0.32273420091E+02  0.00000000000E+00 0.  1.
</event>
<event>
 7    1  0.2684545E-013  0.7246143E+02  0.7816164E-02  0.1226708E+00
        -11   -1    0    0    0    0  0.00000000000E+00  0.00000000000E+00  0.45593999997E+02  0.45594000000E+02  0.51100000000E-03 0.  1.
         11   -1    0    0    0    0 -0.00000000000E+00 -0.00000000000E+00 -0.45593999997E+02  0.45594000000E+02  0.51100000000E-03 0. -1.
    9900012    2    1    2    0    0 -0.38987303830E+01 -0.17701496315E+02  0.47054450978E+01  0.72461433738E+02  0.69999822110E+02 0.  0.
         12    1    1    2    0    0  0.38987303830E+01  0.17701496315E+02 -0.47054450978E+01  0.18726566262E+02  0.00000000000E+00 0. -1.
         11    1    3    3    0    0 -0.14168357027E+02 -0.65934569723E+01  0.11956439583E+01  0.15673084586E+02  0.51100000000E-03 0. -1.
        -11    1    3    3    0    0  0.72346224673E+01 -0.23800184301E+01  0.28838204716E+02  0.29826939190E+02  0.51100000000E-03 0.  1.
         12    1    3    3    0    0  0.30350041767E+01 -0.87280209129E+01 -0.25328403576E+02  0.26961409962E+02  0.00000000000E+00 0. -1.
</event>
<event>
 7    1  0.2684545E-013  0.7246159E+02  0.7816164E-02  0.1226708E+00
        -11   -1    0    0    0    0  0.00000000000E+00  0.00000000000E+00  0.45593999997E+02  0.45594000000E+02  0.51100000000E-03 0. -1.
         11   -1    0    0    0    0 -0.00000000000E+00 -0.00000000000E+00 -0.45593999997E+02  0.45594000000E+02  0.51100000000E-03 0.  1.
    9900012    2    1    2    0    0  0.15679772687E+01  0.14292321592E+02 -0.11997897090E+02  0.72461587001E+02  0.70000021764E+02 0.  0.
         12    1    1    2    0    0 -0.15679772687E+01 -0.14292321592E+02  0.11997897090E+02  0.18726412999E+02  0.00000000000E+00 0. -1.
         11    1    3    3    0    0 -0.89683813747E+01 -0.53070154966E+00  0.20466269107E+01  0.92142384704E+01  0.51100000000E-03 0. -1.
        -11    1    3    3    0    0  0.13131669596E+02  0.35537983941E+02 -0.18087294834E+02  0.41982606918E+02  0.51100000000E-03 0.  1.
         12    1    3    3    0    0 -0.25953109523E+01 -0.20714960799E+02  0.40427708326E+01  0.21264741613E+02  0.00000000000E+00 0. -1.
</event>
<event>
 7    1  0.2684545E-013  0.7246157E+02  0.7816164E-02  0.1226708E+00
        -11   -1    0    0    0    0  0.00000000000E+00  0.00000000000E+00  0.45593999997E+02  0.45594000000E+02  0.51100000000E-03 0.  1.
         11   -1    0    0    0    0 -0.00000000000E+00 -0.00000000000E+00 -0.45593999997E+02  0.45594000000E+02  0.51100000000E-03 0. -1.
    9900012    2    1    2    0    0  0.36569093089E+01  0.10223047051E-01  0.18365897607E+02  0.72461567208E+02  0.69999995979E+02 0.  0.
         12    1    1    2    0    0 -0.36569093089E+01 -0.10223047051E-01 -0.18365897607E+02  0.18726432792E+02  0.00000000000E+00 0. -1.
         11    1    3    3    0    0  0.59591381192E+01  0.39210872105E+01 -0.23680136026E+01  0.75162318165E+01  0.51100000000E-03 0. -1.
        -11    1    3    3    0    0  0.73679033454E+01  0.14940031438E+01 -0.20717379152E+02  0.22039234203E+02  0.51100000000E-03 0.  1.
         12    1    3    3    0    0 -0.96701321558E+01 -0.54048673073E+01  0.41451290361E+02  0.42906101188E+02  0.00000000000E+00 0. -1.
</event>
<event>
 7    1  0.2684545E-013  0.7246152E+02  0.7816164E-02  0.1226708E+00
        -11   -1    0    0    0    0  0.00000000000E+00  0.00000000000E+00  0.45593999997E+02  0.45594000000E+02  0.51100000000E-03 0. -1.
         11   -1    0    0    0    0 -0.00000000000E+00 -0.00000000000E+00 -0.45593999997E+02  0.45594000000E+02  0.51100000000E-03 0.  1.
    9900012    2    1    2    0    0 -0.15551010682E+02  0.71513233571E+01 -0.75964220748E+01  0.72461521759E+02  0.69999936773E+02 0.  0.
         12    1    1    2    0    0  0.15551010682E+02 -0.71513233571E+01  0.75964220748E+01  0.18726478241E+02  0.00000000000E+00 0. -1.
         11    1    3    3    0    0 -0.59175244418E+01  0.24137152868E+02 -0.28465222664E+01  0.25014434500E+02  0.51100000000E-03 0. -1.
        -11    1    3    3    0    0  0.13683166611E+02  0.43316489262E+01 -0.66062958609E+01  0.15799853676E+02  0.51100000000E-03 0.  1.
         12    1    3    3    0    0 -0.23316652851E+02 -0.21317478437E+02  0.18563960525E+01  0.31647233582E+02  0.00000000000E+00 0. -1.
</event>
<event>
 7    1  0.2684545E-013  0.7246155E+02  0.7816164E-02  0.1226708E+00
        -11   -1    0    0    0    0  0.00000000000E+00  0.00000000000E+00  0.45593999997E+02  0.45594000000E+02  0.51100000000E-03 0.  1.
         11   -1    0    0    0    0 -0.00000000000E+00 -0.00000000000E+00 -0.45593999997E+02  0.45594000000E+02  0.51100000000E-03 0. -1.
    9900012    2    1    2    0    0  0.23400717401E+01  0.12129425987E+02  0.14074131686E+02  0.72461545631E+02  0.69999967871E+02 0.  0.
         12    1    1    2    0    0 -0.23400717401E+01 -0.12129425987E+02 -0.14074131686E+02  0.18726454369E+02  0.00000000000E+00 0. -1.
         11    1    3    3    0    0 -0.10407087772E+00  0.14796293405E+02  0.10520203585E+02  0.18155324646E+02  0.51100000000E-03 0. -1.
        -11    1    3    3    0    0 -0.97072411142E+01 -0.32816137575E+01  0.26456970930E+02  0.28372007859E+02  0.51100000000E-03 0.  1.
         12    1    3    3    0    0  0.12151383732E+02  0.61474633967E+00 -0.22903042829E+02  0.25934213126E+02  0.00000000000E+00 0. -1.
</event>
<event>
 7    1  0.2684545E-013  0.7246162E+02  0.7816164E-02  0.1226708E+00
        -11   -1    0    0    0    0  0.00000000000E+00  0.00000000000E+00  0.45593999997E+02  0.45594000000E+02  0.51100000000E-03 0.  1.
         11   -1    0    0    0    0 -0.00000000000E+00 -0.00000000000E+00 -0.45593999997E+02  0.45594000000E+02  0.51100000000E-03 0. -1.
    9900012    2    1    2    0    0  0.62327152002E+00 -0.10487530997E+02  0.15501626533E+02  0.72461622908E+02  0.70000068539E+02 0.  0.
         12    1    1    2    0    0 -0.62327152002E+00  0.10487530997E+02 -0.15501626533E+02  0.18726377092E+02  0.00000000000E+00 0. -1.
         11    1    3    3    0    0  0.22530427543E+02 -0.11903692676E+02 -0.24832079546E+01  0.25602429311E+02  0.51100000000E-03 0. -1.
        -11    1    3    3    0    0 -0.12838329967E+01 -0.79982636578E+01 -0.86712227644E+01  0.11866362256E+02  0.51100000000E-03 0.  1.
        -12    1    3    3    0    0 -0.20623323026E+02  0.94144253369E+01  0.26656057252E+02  0.34992831342E+02  0.00000000000E+00 0.  1.
</event>
<event>
 7    1  0.2684545E-013  0.7246159E+02  0.7816164E-02  0.1226708E+00
        -11   -1    0    0    0    0  0.00000000000E+00  0.00000000000E+00  0.45593999997E+02  0.45594000000E+02  0.51100000000E-03 0. -1.
         11   -1    0    0    0    0 -0.00000000000E+00 -0.00000000000E+00 -0.45593999997E+02  0.45594000000E+02  0.51100000000E-03 0.  1.
    9900012    2    1    2    0    0 -0.43840018380E+01 -0.67402016371E+01 -0.16912385129E+02  0.72461586543E+02  0.70000021167E+02 0.  0.
         12    1    1    2    0    0  0.43840018380E+01  0.67402016371E+01  0.16912385129E+02  0.18726413457E+02  0.00000000000E+00 0. -1.
         11    1    3    3    0    0 -0.12620719066E+02 -0.34264645203E+01  0.77637697852E+01  0.15208528212E+02  0.51100000000E-03 0. -1.
        -11    1    3    3    0    0  0.45735214407E+01 -0.30328455830E+01 -0.40570327045E+02  0.40939793447E+02  0.51100000000E-03 0.  1.
         12    1    3    3    0    0  0.36631957869E+01 -0.28089153389E+00  0.15894172131E+02  0.16313264884E+02  0.00000000000E+00 0. -1.
</event>
<event>
 7    1  0.2684545E-013  0.7246150E+02  0.7816164E-02  0.1226708E+00
        -11   -1    0    0    0    0  0.00000000000E+00  0.00000000000E+00  0.45593999997E+02  0.45594000000E+02  0.51100000000E-03 0. -1.
         11   -1    0    0    0    0 -0.00000000000E+00 -0.00000000000E+00 -0.45593999997E+02  0.45594000000E+02  0.51100000000E-03 0.  1.
    9900012    2    1    2    0    0 -0.39321267159E+01  0.11472185470E+02 -0.14269161382E+02  0.72461504692E+02  0.69999914541E+02 0.  0.
         12    1    1    2    0    0  0.39321267159E+01 -0.11472185470E+02  0.14269161382E+02  0.18726495308E+02  0.00000000000E+00 0. -1.
         11    1    3    3    0    0  0.48702880601E+01  0.21120206280E+02  0.15997442541E+02  0.26938837897E+02  0.51100000000E-03 0. -1.
        -11    1    3    3    0    0 -0.19249382958E+02  0.46138910897E+00 -0.14711370879E+02  0.24231715944E+02  0.51100000000E-03 0.  1.
        -12    1    3    3    0    0  0.10446968182E+02 -0.10109409919E+02 -0.15555233044E+02  0.21290950852E+02  0.00000000000E+00 0.  1.
</event>
<event>
 7    1  0.2684545E-013  0.7246155E+02  0.7816164E-02  0.1226708E+00
        -11   -1    0    0    0    0  0.00000000000E+00  0.00000000000E+00  0.45593999997E+02  0.45594000000E+02  0.51100000000E-03 0.  1.
         11   -1    0    0    0    0 -0.00000000000E+00 -0.00000000000E+00 -0.45593999997E+02  0.45594000000E+02  0.51100000000E-03 0. -1.
    9900012    2    1    2    0    0 -0.16238514007E+02  0.93163829135E+01  0.44210554682E+00  0.72461553860E+02  0.69999978591E+02 0.  0.
         12    1    1    2    0    0  0.16238514007E+02 -0.93163829135E+01 -0.44210554682E+00  0.18726446140E+02  0.00000000000E+00 0. -1.
         11    1    3    3    0    0  0.12282525757E+02 -0.53151951711E+01 -0.13515005343E+02  0.19020176350E+02  0.51100000000E-03 0. -1.
        -11    1    3    3    0    0 -0.94399749424E+01 -0.14157973136E+02  0.37332519610E+01  0.17421208360E+02  0.51100000000E-03 0.  1.
        -12    1    3    3    0    0 -0.19081064821E+02  0.28789551221E+02  0.10223858929E+02  0.36020169150E+02  0.00000000000E+00 0.  1.
</event>
<event>
 7    1  0.2684545E-013  0.7246153E+02  0.7816164E-02  0.1226708E+00
        -11   -1    0    0    0    0  0.00000000000E+00  0.00000000000E+00  0.45593999997E+02  0.45594000000E+02  0.51100000000E-03 0. -1.
         11   -1    0    0    0    0 -0.00000000000E+00 -0.00000000000E+00 -0.45593999997E+02  0.45594000000E+02  0.51100000000E-03 0.  1.
    9900012    2    1    2    0    0  0.20442560331E+01  0.14199983874E+02 -0.12035872281E+02  0.72461528194E+02  0.69999945156E+02 0.  0.
         12    1    1    2    0    0 -0.20442560331E+01 -0.14199983874E+02  0.12035872281E+02  0.18726471806E+02  0.00000000000E+00 0. -1.
         11    1    3    3    0    0  0.60528649459E+00  0.16961380812E+01  0.10494810835E+02  0.10648206931E+02  0.51100000000E-03 0. -1.
        -11    1    3    3    0    0  0.19019995203E+02  0.30852101715E+00 -0.32925282124E+02  0.38025381076E+02  0.51100000000E-03 0.  1.
         12    1    3    3    0    0 -0.17581025665E+02  0.12195324775E+02  0.10394599008E+02  0.23787940187E+02  0.00000000000E+00 0. -1.
</event>
<event>
 7    1  0.2684545E-013  0.7246158E+02  0.7816164E-02  0.1226708E+00
        -11   -1    0    0    0    0  0.00000000000E+00  0.00000000000E+00  0.45593999997E+02  0.45594000000E+02  0.51100000000E-03 0. -1.
         11   -1    0    0    0    0 -0.00000000000E+00 -0.00000000000E+00 -0.45593999997E+02  0.45594000000E+02  0.51100000000E-03 0.  1.
    9900012    2    1    2    0    0 -0.20808519142E+01  0.77440295997E+01 -0.16922737645E+02  0.72461575127E+02  0.70000006295E+02 0.  0.
         12    1    1    2    0    0  0.20808519142E+01 -0.77440295997E+01  0.16922737645E+02  0.18726424873E+02  0.00000000000E+00 0. -1.
         11    1    3    3    0    0  0.95360280918E+01 -0.46717752616E+01 -0.11110351768E+02  0.15368839661E+02  0.51100000000E-03 0. -1.
        -11    1    3    3    0    0  0.14004317149E+02  0.10469436154E+02 -0.20936103476E+02  0.27277287644E+02  0.51100000000E-03 0.  1.
         12    1    3    3    0    0 -0.25621197156E+02  0.19463687075E+01  0.15123717598E+02  0.29815447822E+02  0.00000000000E+00 0. -1.
</event>
<event>
 7    1  0.2684545E-013  0.7246159E+02  0.7816164E-02  0.1226708E+00
        -11   -1    0    0    0    0  0.00000000000E+00  0.00000000000E+00  0.45593999997E+02  0.45594000000E+02  0.51100000000E-03 0.  1.
         11   -1    0    0    0    0 -0.00000000000E+00 -0.00000000000E+00 -0.45593999997E+02  0.45594000000E+02  0.51100000000E-03 0. -1.
    9900012    2    1    2    0    0 -0.22263271311E+01 -0.17426555434E+02  0.64836113486E+01  0.72461585957E+02  0.70000020404E+02 0.  0.
         12    1    1    2    0    0  0.22263271311E+01  0.17426555434E+02 -0.64836113486E+01  0.18726414043E+02  0.00000000000E+00 0. -1.
         11    1    3    3    0    0 -0.17644227698E+01 -0.16373566255E+02  0.17562839545E+02  0.24076133260E+02  0.51100000000E-03 0. -1.
        -11    1    3    3    0    0  0.11895979719E+02  0.12350541961E+01  0.15149285707E+02  0.19301309542E+02  0.51100000000E-03 0.  1.
         12    1    3    3    0    0 -0.12357884081E+02 -0.22880433745E+01 -0.26228513904E+02  0.29084143155E+02  0.00000000000E+00 0. -1.
</event>
<event>
 7    1  0.2684545E-013  0.7246157E+02  0.7816164E-02  0.1226708E+00
        -11   -1    0    0    0    0  0.00000000000E+00  0.00000000000E+00  0.45593999997E+02  0.45594000000E+02  0.51100000000E-03 0. -1.
         11   -1    0    0    0    0 -0.00000000000E+00 -0.00000000000E+00 -0.45593999997E+02  0.45594000000E+02  0.51100000000E-03 0.  1.
    9900012    2    1    2    0    0  0.74504566276E+01 -0.57446081651E+01 -0.16191645559E+02  0.72461569138E+02  0.69999998493E+02 0.  0.
         12    1    1    2    0    0 -0.74504566276E+01  0.57446081651E+01  0.16191645559E+02  0.18726430862E+02  0.00000000000E+00 0. -1.
         11    1    3    3    0    0  0.32360374379E+02  0.50698622903E+01 -0.84906003630E+01  0.33837665824E+02  0.51100000000E-03 0. -1.
        -11    1    3    3    0    0  0.13428148546E+01  0.45304610859E+01 -0.67004125520E+01  0.81990095751E+01  0.51100000000E-03 0.  1.
        -12    1    3    3    0    0 -0.26252732606E+02 -0.15344931541E+02 -0.10006326443E+01  0.30424893739E+02  0.00000000000E+00 0.  1.
</event>
<event>
 7    1  0.2684545E-013  0.7246164E+02  0.7816164E-02  0.1226708E+00
        -11   -1    0    0    0    0  0.00000000000E+00  0.00000000000E+00  0.45593999997E+02  0.45594000000E+02  0.51100000000E-03 0. -1.
         11   -1    0    0    0    0 -0.00000000000E+00 -0.00000000000E+00 -0.45593999997E+02  0.45594000000E+02  0.51100000000E-03 0.  1.
    9900012    2    1    2    0    0  0.18183169856E+02  0.28823106081E+01  0.34265640235E+01  0.72461635658E+02  0.70000085148E+02 0.  0.
         12    1    1    2    0    0 -0.18183169856E+02 -0.28823106081E+01 -0.34265640235E+01  0.18726364342E+02  0.00000000000E+00 0. -1.
         11    1    3    3    0    0 -0.52872658235E+01 -0.15351086075E+01  0.14725465287E+02  0.15721038977E+02  0.51100000000E-03 0. -1.
        -11    1    3    3    0    0 -0.14872663644E+02  0.32011397127E+01  0.35205714219E+01  0.15615307962E+02  0.51100000000E-03 0.  1.
        -12    1    3    3    0    0  0.38343099324E+02  0.12162795029E+01 -0.14819472685E+02  0.41125288720E+02  0.00000000000E+00 0.  1.
</event>
<event>
 7    1  0.2684545E-013  0.7246159E+02  0.7816164E-02  0.1226708E+00
        -11   -1    0    0    0    0  0.00000000000E+00  0.00000000000E+00  0.45593999997E+02  0.45594000000E+02  0.51100000000E-03 0.  1.
         11   -1    0    0    0    0 -0.00000000000E+00 -0.00000000000E+00 -0.45593999997E+02  0.45594000000E+02  0.51100000000E-03 0. -1.
    9900012    2    1    2    0    0  0.11158465577E+01 -0.16142541044E+02  0.94261186629E+01  0.72461589293E+02  0.70000024750E+02 0.  0.
         12    1    1    2    0    0 -0.11158465577E+01  0.16142541044E+02 -0.94261186629E+01  0.18726410707E+02  0.00000000000E+00 0. -1.
         11    1    3    3    0    0  0.16754176257E+02  0.86446106959E+01  0.40602434458E+01  0.19285157330E+02  0.51100000000E-03 0. -1.
        -11    1    3    3    0    0  0.86939390202E+01  0.37251180048E+01  0.11823062822E+02  0.15140868357E+02  0.51100000000E-03 0.  1.
        -12    1    3    3    0    0 -0.24332268720E+02 -0.28512269745E+02 -0.64571876052E+01  0.38035563606E+02  0.00000000000E+00 0.  1.
</event>
<event>
 7    1  0.2684545E-013  0.7246154E+02  0.7816164E-02  0.1226708E+00
        -11   -1    0    0    0    0  0.00000000000E+00  0.00000000000E+00  0.45593999997E+02  0.45594000000E+02  0.51100000000E-03 0. -1.
         11   -1    0    0    0    0 -0.00000000000E+00 -0.00000000000E+00 -0.45593999997E+02  0.45594000000E+02  0.51100000000E-03 0.  1.
    9900012    2    1    2    0    0 -0.64582425237E+01  0.56514696523E+01 -0.16644291343E+02  0.72461536371E+02  0.69999955809E+02 0.  0.
         12    1    1    2    0    0  0.64582425237E+01 -0.56514696523E+01  0.16644291343E+02  0.18726463629E+02  0.00000000000E+00 0. -1.
         11    1    3    3    0    0 -0.48492836675E+00  0.24314684000E+02 -0.90911312531E+01  0.25963198595E+02  0.51100000000E-03 0. -1.
        -11    1    3    3    0    0  0.16397661923E+01 -0.21673327752E+01 -0.22689269913E+02  0.22851458028E+02  0.51100000000E-03 0.  1.
        -12    1    3    3    0    0 -0.76130803493E+01 -0.16495881573E+02  0.15136109823E+02  0.23646879749E+02  0.00000000000E+00 0.  1.
</event>
<event>
 7    1  0.2684545E-013  0.7246152E+02  0.7816164E-02  0.1226708E+00
        -11   -1    0    0    0    0  0.00000000000E+00  0.00000000000E+00  0.45593999997E+02  0.45594000000E+02  0.51100000000E-03 0.  1.
         11   -1    0    0    0    0 -0.00000000000E+00 -0.00000000000E+00 -0.45593999997E+02  0.45594000000E+02  0.51100000000E-03 0. -1.
    9900012    2    1    2    0    0  0.13712131071E+02  0.10493155565E+02  0.72492973648E+01  0.72461517028E+02  0.69999930611E+02 0.  0.
         12    1    1    2    0    0 -0.13712131071E+02 -0.10493155565E+02 -0.72492973648E+01  0.18726482972E+02  0.00000000000E+00 0. -1.
         11    1    3    3    0    0  0.56725843685E+01 -0.12637786430E+02  0.19426406182E+02  0.23859528844E+02  0.51100000000E-03 0. -1.
        -11    1    3    3    0    0 -0.66635596676E+01  0.21488776920E+01  0.11664281657E+02  0.13604270271E+02  0.51100000000E-03 0.  1.
         12    1    3    3    0    0  0.14703106370E+02  0.20982064302E+02 -0.23841390474E+02  0.34997717912E+02  0.00000000000E+00 0. -1.
</event>
<event>
 7    1  0.2684545E-013  0.7246151E+02  0.7816164E-02  0.1226708E+00
        -11   -1    0    0    0    0  0.00000000000E+00  0.00000000000E+00  0.45593999997E+02  0.45594000000E+02  0.51100000000E-03 0. -1.
         11   -1    0    0    0    0 -0.00000000000E+00 -0.00000000000E+00 -0.45593999997E+02  0.45594000000E+02  0.51100000000E-03 0.  1.
    9900012    2    1    2    0    0 -0.52819708097E+01 -0.20913312103E+01 -0.17844002703E+02  0.72461513027E+02  0.69999925399E+02 0.  0.
         12    1    1    2    0    0  0.52819708097E+01  0.20913312103E+01  0.17844002703E+02  0.18726486973E+02  0.00000000000E+00 0. -1.
         11    1    3    3    0    0 -0.97190057866E+01 -0.32969746610E+00  0.17907424553E+02  0.20377527531E+02  0.51100000000E-03 0. -1.
        -11    1    3    3    0    0 -0.34323977748E+01 -0.11746249197E+02 -0.37319457586E+02  0.39274643722E+02  0.51100000000E-03 0.  1.
         12    1    3    3    0    0  0.78694327517E+01  0.99846154529E+01  0.15680303301E+01  0.12809341774E+02  0.00000000000E+00 0. -1.
</event>
<event>
 7    1  0.2684545E-013  0.7246155E+02  0.7816164E-02  0.1226708E+00
        -11   -1    0    0    0    0  0.00000000000E+00  0.00000000000E+00  0.45593999997E+02  0.45594000000E+02  0.51100000000E-03 0.  1.
         11   -1    0    0    0    0 -0.00000000000E+00 -0.00000000000E+00 -0.45593999997E+02  0.45594000000E+02  0.51100000000E-03 0. -1.
    9900012    2    1    2    0    0  0.46673913805E+01  0.18061510406E+02  0.16362759232E+01  0.72461545468E+02  0.69999967659E+02 0.  0.
         12    1    1    2    0    0 -0.46673913805E+01 -0.18061510406E+02 -0.16362759232E+01  0.18726454532E+02  0.00000000000E+00 0. -1.
         11    1    3    3    0    0  0.10697206797E+02  0.20326338847E+02 -0.19696472280E+01  0.23053628666E+02  0.51100000000E-03 0. -1.
        -11    1    3    3    0    0 -0.23462978161E+02  0.12347607313E+02  0.13287327748E+01  0.26546944864E+02  0.51100000000E-03 0.  1.
         12    1    3    3    0    0  0.17433162745E+02 -0.14612435755E+02  0.22771903765E+01  0.22860971939E+02  0.00000000000E+00 0. -1.
</event>
<event>
 7    1  0.2684545E-013  0.7246151E+02  0.7816164E-02  0.1226708E+00
        -11   -1    0    0    0    0  0.00000000000E+00  0.00000000000E+00  0.45593999997E+02  0.45594000000E+02  0.51100000000E-03 0. -1.
         11   -1    0    0    0    0 -0.00000000000E+00 -0.00000000000E+00 -0.45593999997E+02  0.45594000000E+02  0.51100000000E-03 0.  1.
    9900012    2    1    2    0    0 -0.13215729177E+02 -0.49899472059E+01 -0.12293353302E+02  0.72461505235E+02  0.69999915248E+02 0.  0.
         12    1    1    2    0    0  0.13215729177E+02  0.49899472059E+01  0.12293353302E+02  0.18726494765E+02  0.00000000000E+00 0. -1.
         11    1    3    3    0    0 -0.14596951589E+02  0.57659585213E+01  0.53443451108E+01  0.16579484258E+02  0.51100000000E-03 0. -1.
        -11    1    3    3    0    0  0.14149609553E+02  0.14003499673E+02 -0.19623638013E+02  0.27953472463E+02  0.51100000000E-03 0.  1.
         12    1    3    3    0    0 -0.12768387141E+02 -0.24759405400E+02  0.19859396004E+01  0.27928548514E+02  0.00000000000E+00 0. -1.
</event>
<event>
 7    1  0.2684545E-013  0.7246159E+02  0.7816164E-02  0.1226708E+00
        -11   -1    0    0    0    0  0.00000000000E+00  0.00000000000E+00  0.45593999997E+02  0.45594000000E+02  0.51100000000E-03 0.  1.
         11   -1    0    0    0    0 -0.00000000000E+00 -0.00000000000E+00 -0.45593999997E+02  0.45594000000E+02  0.51100000000E-03 0. -1.
    9900012    2    1    2    0    0  0.93078469638E+01 -0.15021667927E+01  0.16179803109E+02  0.72461586867E+02  0.70000021589E+02 0.  0.
         12    1    1    2    0    0 -0.93078469638E+01  0.15021667927E+01 -0.16179803109E+02  0.18726413133E+02  0.00000000000E+00 0. -1.
         11    1    3    3    0    0 -0.13222362287E+02 -0.29053020660E+01  0.14787391084E+01  0.13618308050E+02  0.51100000000E-03 0. -1.
        -11    1    3    3    0    0  0.23924457711E+02 -0.59241633540E+01 -0.14573648530E+02  0.28633313115E+02  0.51100000000E-03 0.  1.
         12    1    3    3    0    0 -0.13942484610E+01  0.73272986272E+01  0.29274712531E+02  0.30209965702E+02  0.00000000000E+00 0. -1.
</event>
<event>
 7    1  0.2684545E-013  0.7246159E+02  0.7816164E-02  0.1226708E+00
        -11   -1    0    0    0    0  0.00000000000E+00  0.00000000000E+00  0.45593999997E+02  0.45594000000E+02  0.51100000000E-03 0.  1.
         11   -1    0    0    0    0 -0.00000000000E+00 -0.00000000000E+00 -0.45593999997E+02  0.45594000000E+02  0.51100000000E-03 0. -1.
    9900012    2    1    2    0    0 -0.92410242689E+01 -0.14036089600E+02  0.82625794316E+01  0.72461586577E+02  0.70000021212E+02 0.  0.
         12    1    1    2    0    0  0.92410242689E+01  0.14036089600E+02 -0.82625794316E+01  0.18726413423E+02  0.00000000000E+00 0. -1.
         11    1    3    3    0    0 -0.10408440687E+02  0.22531936205E+01  0.15618126525E+02  0.18903396399E+02  0.51100000000E-03 0. -1.
        -11    1    3    3    0    0 -0.17593032337E+02  0.79151331784E+01 -0.11799181925E+02  0.22613819103E+02  0.51100000000E-03 0.  1.
         12    1    3    3    0    0  0.18760448755E+02 -0.24204416399E+02  0.44436348318E+01  0.30944371075E+02  0.00000000000E+00 0. -1.
</event>
<event>
 7    1  0.2684545E-013  0.7246146E+02  0.7816164E-02  0.1226708E+00
        -11   -1    0    0    0    0  0.00000000000E+00  0.00000000000E+00  0.45593999997E+02  0.45594000000E+02  0.51100000000E-03 0. -1.
         11   -1    0    0    0    0 -0.00000000000E+00 -0.00000000000E+00 -0.45593999997E+02  0.45594000000E+02  0.51100000000E-03 0.  1.
    9900012    2    1    2    0    0 -0.14499973185E+02 -0.94736315148E+01 -0.71193028156E+01  0.72461457633E+02  0.69999853238E+02 0.  0.
         12    1    1    2    0    0  0.14499973185E+02  0.94736315148E+01  0.71193028156E+01  0.18726542367E+02  0.00000000000E+00 0. -1.
         11    1    3    3    0    0  0.20765680919E+02  0.25721744842E+01 -0.19367019341E+02  0.28511594554E+02  0.51100000000E-03 0. -1.
        -11    1    3    3    0    0 -0.49217123517E+01  0.37471073813E+01 -0.25343852613E+01  0.66848466784E+01  0.51100000000E-03 0.  1.
        -12    1    3    3    0    0 -0.30343941752E+02 -0.15792913380E+02  0.14782101787E+02  0.37265016400E+02  0.00000000000E+00 0.  1.
</event>
<event>
 7    1  0.2684545E-013  0.7246155E+02  0.7816164E-02  0.1226708E+00
        -11   -1    0    0    0    0  0.00000000000E+00  0.00000000000E+00  0.45593999997E+02  0.45594000000E+02  0.51100000000E-03 0.  1.
         11   -1    0    0    0    0 -0.00000000000E+00 -0.00000000000E+00 -0.45593999997E+02  0.45594000000E+02  0.51100000000E-03 0. -1.
    9900012    2    1    2    0    0  0.54713455217E+00 -0.16646217718E+02  0.85606184922E+01  0.72461545197E+02  0.69999967306E+02 0.  0.
         12    1    1    2    0    0 -0.54713455217E+00  0.16646217718E+02 -0.85606184922E+01  0.18726454803E+02  0.00000000000E+00 0. -1.
         11    1    3    3    0    0  0.14480575613E+02 -0.25678576441E+02 -0.17755200096E+01  0.29533520442E+02  0.51100000000E-03 0. -1.
        -11    1    3    3    0    0  0.61684306823E+01 -0.65463032723E+01  0.14593029291E+02  0.17142348957E+02  0.51100000000E-03 0.  1.
        -12    1    3    3    0    0 -0.20101871743E+02  0.15578661996E+02 -0.42568907893E+01  0.25785675798E+02  0.00000000000E+00 0.  1.
</event>
<event>
 7    1  0.2684545E-013  0.7246160E+02  0.7816164E-02  0.1226708E+00
        -11   -1    0    0    0    0  0.00000000000E+00  0.00000000000E+00  0.45593999997E+02  0.45594000000E+02  0.51100000000E-03 0. -1.
         11   -1    0    0    0    0 -0.00000000000E+00 -0.00000000000E+00 -0.45593999997E+02  0.45594000000E+02  0.51100000000E-03 0.  1.
    9900012    2    1    2    0    0 -0.16011322779E+02  0.69969895113E+01 -0.67348151507E+01  0.72461600066E+02  0.70000038784E+02 0.  0.
         12    1    1    2    0    0  0.16011322779E+02 -0.69969895113E+01  0.67348151507E+01  0.18726399934E+02  0.00000000000E+00 0. -1.
         11    1    3    3    0    0 -0.13108456556E+02 -0.27418771256E+01 -0.86484356851E+00  0.13420040168E+02  0.51100000000E-03 0. -1.
        -11    1    3    3    0    0 -0.23324151377E+02  0.85671444630E+01 -0.21847122768E+02  0.33086383532E+02  0.51100000000E-03 0.  1.
         12    1    3    3    0    0  0.20421285154E+02  0.11717221739E+01  0.15977151186E+02  0.25955176366E+02  0.00000000000E+00 0. -1.
</event>
<event>
 7    1  0.2684545E-013  0.7246158E+02  0.7816164E-02  0.1226708E+00
        -11   -1    0    0    0    0  0.00000000000E+00  0.00000000000E+00  0.45593999997E+02  0.45594000000E+02  0.51100000000E-03 0.  1.
         11   -1    0    0    0    0 -0.00000000000E+00 -0.00000000000E+00 -0.45593999997E+02  0.45594000000E+02  0.51100000000E-03 0. -1.
    9900012    2    1    2    0    0 -0.17514356608E+02 -0.60899273234E+01  0.26151369559E+01  0.72461578999E+02  0.70000011339E+02 0.  0.
         12    1    1    2    0    0  0.17514356608E+02  0.60899273234E+01 -0.26151369559E+01  0.18726421001E+02  0.00000000000E+00 0. -1.
         11    1    3    3    0    0  0.64061580633E+01 -0.21022541057E+02  0.77447626376E+01  0.23301661791E+02  0.51100000000E-03 0. -1.
        -11    1    3    3    0    0 -0.16538925936E+02 -0.44596294604E+01  0.13080449251E+02  0.21552784482E+02  0.51100000000E-03 0.  1.
        -12    1    3    3    0    0 -0.73815887354E+01  0.19392243194E+02 -0.18210074932E+02  0.27607132727E+02  0.00000000000E+00 0.  1.
</event>
<event>
 7    1  0.2684545E-013  0.7246150E+02  0.7816164E-02  0.1226708E+00
        -11   -1    0    0    0    0  0.00000000000E+00  0.00000000000E+00  0.45593999997E+02  0.45594000000E+02  0.51100000000E-03 0. -1.
         11   -1    0    0    0    0 -0.00000000000E+00 -0.00000000000E+00 -0.45593999997E+02  0.45594000000E+02  0.51100000000E-03 0.  1.
    9900012    2    1    2    0    0 -0.16082427105E+02  0.88204430276E+01 -0.37732134348E+01  0.72461499621E+02  0.69999907935E+02 0.  0.
         12    1    1    2    0    0  0.16082427105E+02 -0.88204430276E+01  0.37732134348E+01  0.18726500379E+02  0.00000000000E+00 0. -1.
         11    1    3    3    0    0 -0.63486419353E+01  0.25667614288E+01  0.12296141955E+01  0.69574039689E+01  0.51100000000E-03 0. -1.
        -11    1    3    3    0    0  0.60131275456E+01 -0.21641903573E+02 -0.20053749509E+02  0.30111170066E+02  0.51100000000E-03 0.  1.
         12    1    3    3    0    0 -0.15746912716E+02  0.27895585172E+02  0.15050921879E+02  0.35392925586E+02  0.00000000000E+00 0. -1.
</event>
<event>
 7    1  0.2684545E-013  0.7246165E+02  0.7816164E-02  0.1226708E+00
        -11   -1    0    0    0    0  0.00000000000E+00  0.00000000000E+00  0.45593999997E+02  0.45594000000E+02  0.51100000000E-03 0.  1.
         11   -1    0    0    0    0 -0.00000000000E+00 -0.00000000000E+00 -0.45593999997E+02  0.45594000000E+02  0.51100000000E-03 0. -1.
    9900012    2    1    2    0    0  0.18655517496E+02  0.20207433452E+00  0.16146565311E+01  0.72461647371E+02  0.70000100406E+02 0.  0.
         12    1    1    2    0    0 -0.18655517496E+02 -0.20207433452E+00 -0.16146565311E+01  0.18726352629E+02  0.00000000000E+00 0. -1.
         11    1    3    3    0    0 -0.16377834387E+02 -0.51541690284E+01 -0.75501749641E+01  0.18756440490E+02  0.51100000000E-03 0. -1.
        -11    1    3    3    0    0  0.12474684111E+02  0.21526930436E+02  0.15732823848E+01  0.24929935727E+02  0.51100000000E-03 0.  1.
         12    1    3    3    0    0  0.22558667773E+02 -0.16170687073E+02  0.75915491104E+01  0.28775271154E+02  0.00000000000E+00 0. -1.
</event>
<event>
 7    1  0.2684545E-013  0.7246158E+02  0.7816164E-02  0.1226708E+00
        -11   -1    0    0    0    0  0.00000000000E+00  0.00000000000E+00  0.45593999997E+02  0.45594000000E+02  0.51100000000E-03 0.  1.
         11   -1    0    0    0    0 -0.00000000000E+00 -0.00000000000E+00 -0.45593999997E+02  0.45594000000E+02  0.51100000000E-03 0. -1.
    9900012    2    1    2    0    0 -0.13580079195E+02  0.86647561891E+01  0.95489409519E+01  0.72461579518E+02  0.70000012016E+02 0.  0.
         12    1    1    2    0    0  0.13580079195E+02 -0.86647561891E+01 -0.95489409519E+01  0.18726420482E+02  0.00000000000E+00 0. -1.
         11    1    3    3    0    0  0.23803039502E+01  0.24778856867E+01  0.34933053549E+00  0.34536642072E+01  0.51100000000E-03 0. -1.
        -11    1    3    3    0    0  0.99927277780E+00 -0.14804577288E+02  0.30965885317E+02  0.34337444700E+02  0.51100000000E-03 0.  1.
         12    1    3    3    0    0 -0.16959655923E+02  0.20991447790E+02 -0.21766274901E+02  0.34670470611E+02  0.00000000000E+00 0. -1.
</event>
<event>
 7    1  0.2684545E-013  0.7246143E+02  0.7816164E-02  0.1226708E+00
        -11   -1    0    0    0    0  0.00000000000E+00  0.00000000000E+00  0.45593999997E+02  0.45594000000E+02  0.51100000000E-03 0. -1.
         11   -1    0    0    0    0 -0.00000000000E+00 -0.00000000000E+00 -0.45593999997E+02  0.45594000000E+02  0.51100000000E-03 0.  1.
    9900012    2    1    2    0    0  0.29156194136E+01 -0.55396735406E+01 -0.17649241641E+02  0.72461426635E+02  0.69999812857E+02 0.  0.
         12    1    1    2    0    0 -0.29156194136E+01  0.55396735406E+01  0.17649241641E+02  0.18726573365E+02  0.00000000000E+00 0. -1.
         11    1    3    3    0    0  0.24300824917E+01 -0.23351693404E+01 -0.10671372622E+02  0.11190911967E+02  0.51100000000E-03 0. -1.
        -11    1    3    3    0    0 -0.65209918081E+00  0.18663713684E+02 -0.26171725337E+02  0.32151495287E+02  0.51100000000E-03 0.  1.
         12    1    3    3    0    0  0.11376361027E+01 -0.21868217884E+02  0.19193856318E+02  0.29119019381E+02  0.00000000000E+00 0. -1.
</event>
<event>
 7    1  0.2684545E-013  0.7246157E+02  0.7816164E-02  0.1226708E+00
        -11   -1    0    0    0    0  0.00000000000E+00  0.00000000000E+00  0.45593999997E+02  0.45594000000E+02  0.51100000000E-03 0.  1.
         11   -1    0    0    0    0 -0.00000000000E+00 -0.00000000000E+00 -0.45593999997E+02  0.45594000000E+02  0.51100000000E-03 0. -1.
    9900012    2    1    2    0    0  0.15096258467E+02  0.10719350872E+02  0.28067027197E+01  0.72461572605E+02  0.70000003010E+02 0.  0.
         12    1    1    2    0    0 -0.15096258467E+02 -0.10719350872E+02 -0.28067027197E+01  0.18726427395E+02  0.00000000000E+00 0. -1.
         11    1    3    3    0    0  0.12656634478E+02  0.10393060934E+02 -0.14204554542E+02  0.21678917913E+02  0.51100000000E-03 0. -1.
        -11    1    3    3    0    0 -0.12788502798E+02  0.18714960508E+02  0.14186938165E+02  0.26740694931E+02  0.51100000000E-03 0.  1.
         12    1    3    3    0    0  0.15228126787E+02 -0.18388670570E+02  0.28243190966E+01  0.24041959761E+02  0.00000000000E+00 0. -1.
</event>
<event>
 7    1  0.2684545E-013  0.7246176E+02  0.7816164E-02  0.1226707E+00
        -11   -1    0    0    0    0  0.00000000000E+00  0.00000000000E+00  0.45593999997E+02  0.45594000000E+02  0.51100000000E-03 0. -1.
         11   -1    0    0    0    0 -0.00000000000E+00 -0.00000000000E+00 -0.45593999997E+02  0.45594000000E+02  0.51100000000E-03 0.  1.
    9900012    2    1    2    0    0  0.12151137491E+02  0.38824327278E+01 -0.13709429450E+02  0.72461764872E+02  0.70000253473E+02 0.  0.
         12    1    1    2    0    0 -0.12151137491E+02 -0.38824327278E+01  0.13709429450E+02  0.18726235128E+02  0.00000000000E+00 0. -1.
         11    1    3    3    0    0  0.27351164836E+02  0.11706027184E+02 -0.30833924240E+02  0.42846798884E+02  0.51100000000E-03 0. -1.
        -11    1    3    3    0    0 -0.71979465442E+01 -0.12358962912E+02  0.69575886403E+01  0.15904792947E+02  0.51100000000E-03 0.  1.
        -12    1    3    3    0    0 -0.80020808010E+01  0.45353684562E+01  0.10166906149E+02  0.13710173042E+02  0.00000000000E+00 0.  1.
</event>
<event>
 7    1  0.2684545E-013  0.7246140E+02  0.7816164E-02  0.1226708E+00
        -11   -1    0    0    0    0  0.00000000000E+00  0.00000000000E+00  0.45593999997E+02  0.45594000000E+02  0.51100000000E-03 0. -1.
         11   -1    0    0    0    0 -0.00000000000E+00 -0.00000000000E+00 -0.45593999997E+02  0.45594000000E+02  0.51100000000E-03 0.  1.
    9900012    2    1    2    0    0 -0.16661268215E+02  0.27671916269E+01  0.80889056057E+01  0.72461398549E+02  0.69999776269E+02 0.  0.
         12    1    1    2    0    0  0.16661268215E+02 -0.27671916269E+01 -0.80889056057E+01  0.18726601451E+02  0.00000000000E+00 0. -1.
         11    1    3    3    0    0  0.25486480751E+00 -0.17581426560E+02  0.14731914381E+00  0.17583890899E+02  0.51100000000E-03 0. -1.
        -11    1    3    3    0    0  0.90664445680E+01 -0.78800716386E+01 -0.67686280875E+01  0.13788048179E+02  0.51100000000E-03 0.  1.
         12    1    3    3    0    0 -0.25982577590E+02  0.28228689826E+02  0.14710214549E+02  0.41089459471E+02  0.00000000000E+00 0. -1.
</event>
<event>
 7    1  0.2684545E-013  0.7246159E+02  0.7816164E-02  0.1226708E+00
        -11   -1    0    0    0    0  0.00000000000E+00  0.00000000000E+00  0.45593999997E+02  0.45594000000E+02  0.51100000000E-03 0.  1.
         11   -1    0    0    0    0 -0.00000000000E+00 -0.00000000000E+00 -0.45593999997E+02  0.45594000000E+02  0.51100000000E-03 0. -1.
    9900012    2    1    2    0    0  0.13894275555E+02  0.38696587982E+01  0.11943749396E+02  0.72461593456E+02  0.70000030172E+02 0.  0.
         12    1    1    2    0    0 -0.13894275555E+02 -0.38696587982E+01 -0.11943749396E+02  0.18726406544E+02  0.00000000000E+00 0. -1.
         11    1    3    3    0    0 -0.15018895568E+02 -0.12382327474E+02 -0.26180803521E+01  0.19640356483E+02  0.51100000000E-03 0. -1.
        -11    1    3    3    0    0  0.18053212956E+02 -0.42488645146E+01  0.21702362749E+02  0.28547572521E+02  0.51100000000E-03 0.  1.
         12    1    3    3    0    0  0.10859958167E+02  0.20500850787E+02 -0.71405330004E+01  0.24273664452E+02  0.00000000000E+00 0. -1.
</event>
<event>
 7    1  0.2684545E-013  0.7246160E+02  0.7816164E-02  0.1226708E+00
        -11   -1    0    0    0    0  0.00000000000E+00  0.00000000000E+00  0.45593999997E+02  0.45594000000E+02  0.51100000000E-03 0.  1.
         11   -1    0    0    0    0 -0.00000000000E+00 -0.00000000000E+00 -0.45593999997E+02  0.45594000000E+02  0.51100000000E-03 0. -1.
    9900012    2    1    2    0    0 -0.18907444421E+00 -0.14749376801E+02 -0.11536826692E+02  0.72461595239E+02  0.70000032494E+02 0.  0.
         12    1    1    2    0    0  0.18907444421E+00  0.14749376801E+02  0.11536826692E+02  0.18726404761E+02  0.00000000000E+00 0. -1.
         11    1    3    3    0    0  0.22683518570E+02  0.99963138771E+01 -0.94891602213E+01  0.26542653745E+02  0.51100000000E-03 0. -1.
        -11    1    3    3    0    0  0.15665042660E+01  0.26141997505E+01  0.74283847182E+01  0.80292512561E+01  0.51100000000E-03 0.  1.
        -12    1    3    3    0    0 -0.24439097280E+02 -0.27359890429E+02 -0.94760511888E+01  0.37889690238E+02  0.00000000000E+00 0.  1.
</event>
<event>
 7    1  0.2684545E-013  0.7246164E+02  0.7816164E-02  0.1226708E+00
        -11   -1    0    0    0    0  0.00000000000E+00  0.00000000000E+00  0.45593999997E+02  0.45594000000E+02  0.51100000000E-03 0.  1.
         11   -1    0    0    0    0 -0.00000000000E+00 -0.00000000000E+00 -0.45593999997E+02  0.45594000000E+02  0.51100000000E-03 0. -1.
    9900012    2    1    2    0    0 -0.61160732960E+01  0.10780933763E+02  0.14037152296E+02  0.72461640772E+02  0.70000091810E+02 0.  0.
         12    1    1    2    0    0  0.61160732960E+01 -0.10780933763E+02 -0.14037152296E+02  0.18726359228E+02  0.00000000000E+00 0. -1.
         11    1    3    3    0    0  0.82090577715E+01  0.83053213960E+01 -0.88385956802E+01  0.14645400877E+02  0.51100000000E-03 0. -1.
        -11    1    3    3    0    0  0.13192558985E+02  0.98910279274E+01 -0.57115359000E+01  0.17449862138E+02  0.51100000000E-03 0.  1.
        -12    1    3    3    0    0 -0.27517690053E+02 -0.74154155608E+01  0.28587283877E+02  0.40366377757E+02  0.00000000000E+00 0.  1.
</event>
<event>
 7    1  0.2684545E-013  0.7246160E+02  0.7816164E-02  0.1226708E+00
        -11   -1    0    0    0    0  0.00000000000E+00  0.00000000000E+00  0.45593999997E+02  0.45594000000E+02  0.51100000000E-03 0. -1.
         11   -1    0    0    0    0 -0.00000000000E+00 -0.00000000000E+00 -0.45593999997E+02  0.45594000000E+02  0.51100000000E-03 0.  1.
    9900012    2    1    2    0    0  0.11429089081E+02  0.14813470337E+02  0.78427086548E+00  0.72461599881E+02  0.70000038542E+02 0.  0.
         12    1    1    2    0    0 -0.11429089081E+02 -0.14813470337E+02 -0.78427086548E+00  0.18726400119E+02  0.00000000000E+00 0. -1.
         11    1    3    3    0    0  0.16183389062E+02 -0.58379269412E+01  0.16132521325E+02  0.23584777231E+02  0.51100000000E-03 0. -1.
        -11    1    3    3    0    0 -0.17402397669E+02  0.60049160749E+01  0.66541198506E+01  0.19574978236E+02  0.51100000000E-03 0.  1.
        -12    1    3    3    0    0  0.12648097688E+02  0.14646481203E+02 -0.22002370310E+02  0.29301844413E+02  0.00000000000E+00 0.  1.
</event>
<event>
 7    1  0.2684545E-013  0.7246152E+02  0.7816164E-02  0.1226708E+00
        -11   -1    0    0    0    0  0.00000000000E+00  0.00000000000E+00  0.45593999997E+02  0.45594000000E+02  0.51100000000E-03 0. -1.
         11   -1    0    0    0    0 -0.00000000000E+00 -0.00000000000E+00 -0.45593999997E+02  0.45594000000E+02  0.51100000000E-03 0.  1.
    9900012    2    1    2    0    0  0.13939970220E+02  0.36954426075E+01 -0.11945795358E+02  0.72461518949E+02  0.69999933113E+02 0.  0.
         12    1    1    2    0    0 -0.13939970220E+02 -0.36954426075E+01  0.11945795358E+02  0.18726481051E+02  0.00000000000E+00 0. -1.
         11    1    3    3    0    0 -0.16419984001E+02  0.52820153589E+01  0.63646770301E+01  0.18385447364E+02  0.51100000000E-03 0. -1.
        -11    1    3    3    0    0  0.42031147273E+01  0.14333417487E+02  0.48261732945E+01  0.15697292097E+02  0.51100000000E-03 0.  1.
        -12    1    3    3    0    0  0.26156839494E+02 -0.15919990238E+02 -0.23136645683E+02  0.38378779487E+02  0.00000000000E+00 0.  1.
</event>
<event>
 7    1  0.2684545E-013  0.7246157E+02  0.7816164E-02  0.1226708E+00
        -11   -1    0    0    0    0  0.00000000000E+00  0.00000000000E+00  0.45593999997E+02  0.45594000000E+02  0.51100000000E-03 0. -1.
         11   -1    0    0    0    0 -0.00000000000E+00 -0.00000000000E+00 -0.45593999997E+02  0.45594000000E+02  0.51100000000E-03 0.  1.
    9900012    2    1    2    0    0 -0.16589198659E+01  0.69465235680E+01 -0.17311069120E+02  0.72461566307E+02  0.69999994806E+02 0.  0.
         12    1    1    2    0    0  0.16589198659E+01 -0.69465235680E+01  0.17311069120E+02  0.18726433693E+02  0.00000000000E+00 0. -1.
         11    1    3    3    0    0  0.17919584489E+02  0.18374571650E+02 -0.13510717390E+01  0.25701396590E+02  0.51100000000E-03 0. -1.
        -11    1    3    3    0    0 -0.89433749388E+01  0.78556136116E+01  0.79032632203E+01  0.14288323565E+02  0.51100000000E-03 0.  1.
        -12    1    3    3    0    0 -0.10635129416E+02 -0.19283661693E+02 -0.23863260601E+02  0.32471846152E+02  0.00000000000E+00 0.  1.
</event>
<event>
 7    1  0.2684545E-013  0.7246159E+02  0.7816164E-02  0.1226708E+00
        -11   -1    0    0    0    0  0.00000000000E+00  0.00000000000E+00  0.45593999997E+02  0.45594000000E+02  0.51100000000E-03 0.  1.
         11   -1    0    0    0    0 -0.00000000000E+00 -0.00000000000E+00 -0.45593999997E+02  0.45594000000E+02  0.51100000000E-03 0. -1.
    9900012    2    1    2    0    0  0.80729324072E+01 -0.16781264673E+02 -0.19736510290E+01  0.72461591373E+02  0.70000027459E+02 0.  0.
         12    1    1    2    0    0 -0.80729324072E+01  0.16781264673E+02  0.19736510290E+01  0.18726408627E+02  0.00000000000E+00 0. -1.
         11    1    3    3    0    0 -0.18152861820E+02 -0.21943749385E+02  0.12471834664E+02  0.31090210508E+02  0.51100000000E-03 0. -1.
        -11    1    3    3    0    0  0.43705082509E+01 -0.10834721959E+02 -0.43983246027E+01  0.12483501186E+02  0.51100000000E-03 0.  1.
        -12    1    3    3    0    0  0.21855285976E+02  0.15997206670E+02 -0.10047161090E+02  0.28887879679E+02  0.00000000000E+00 0.  1.
</event>
<event>
 7    1  0.2684545E-013  0.7246157E+02  0.7816164E-02  0.1226708E+00
        -11   -1    0    0    0    0  0.00000000000E+00  0.00000000000E+00  0.45593999997E+02  0.45594000000E+02  0.51100000000E-03 0. -1.
         11   -1    0    0    0    0 -0.00000000000E+00 -0.00000000000E+00 -0.45593999997E+02  0.45594000000E+02  0.51100000000E-03 0.  1.
    9900012    2    1    2    0    0 -0.16267491499E+02  0.60146740566E+01 -0.70619891476E+01  0.72461567494E+02  0.69999996352E+02 0.  0.
         12    1    1    2    0    0  0.16267491499E+02 -0.60146740566E+01  0.70619891476E+01  0.18726432506E+02  0.00000000000E+00 0. -1.
         11    1    3    3    0    0  0.15531931293E+02 -0.98872392520E+01  0.13336211547E+02  0.22734399671E+02  0.51100000000E-03 0. -1.
        -11    1    3    3    0    0 -0.77906893842E+01 -0.66980261113E+01 -0.11812214026E+02  0.15655248172E+02  0.51100000000E-03 0.  1.
        -12    1    3    3    0    0 -0.24008733408E+02  0.22599939420E+02 -0.85859866681E+01  0.34071919651E+02  0.00000000000E+00 0.  1.
</event>
<event>
 7    1  0.2684545E-013  0.7246173E+02  0.7816164E-02  0.1226708E+00
        -11   -1    0    0    0    0  0.00000000000E+00  0.00000000000E+00  0.45593999997E+02  0.45594000000E+02  0.51100000000E-03 0. -1.
         11   -1    0    0    0    0 -0.00000000000E+00 -0.00000000000E+00 -0.45593999997E+02  0.45594000000E+02  0.51100000000E-03 0.  1.
    9900012    2    1    2    0    0  0.13883016498E+02  0.16577484743E+01 -0.12457396808E+02  0.72461734694E+02  0.70000214160E+02 0.  0.
         12    1    1    2    0    0 -0.13883016498E+02 -0.16577484743E+01  0.12457396808E+02  0.18726265306E+02  0.00000000000E+00 0. -1.
         11    1    3    3    0    0  0.15315041206E+02 -0.14114016676E+02 -0.61525994719E+01  0.21716593526E+02  0.51100000000E-03 0. -1.
        -11    1    3    3    0    0  0.16698122383E+02 -0.25945794562E+00 -0.17403703924E+02  0.24120189056E+02  0.51100000000E-03 0.  1.
         12    1    3    3    0    0 -0.18130147091E+02  0.16031223096E+02  0.11098906588E+02  0.26624952111E+02  0.00000000000E+00 0. -1.
</event>
<event>
 7    1  0.2684545E-013  0.7246158E+02  0.7816164E-02  0.1226708E+00
        -11   -1    0    0    0    0  0.00000000000E+00  0.00000000000E+00  0.45593999997E+02  0.45594000000E+02  0.51100000000E-03 0. -1.
         11   -1    0    0    0    0 -0.00000000000E+00 -0.00000000000E+00 -0.45593999997E+02  0.45594000000E+02  0.51100000000E-03 0.  1.
    9900012    2    1    2    0    0  0.15904882851E+02 -0.57746904917E+00 -0.98681389418E+01  0.72461576551E+02  0.70000008151E+02 0.  0.
         12    1    1    2    0    0 -0.15904882851E+02  0.57746904917E+00  0.98681389418E+01  0.18726423449E+02  0.00000000000E+00 0. -1.
         11    1    3    3    0    0 -0.44882325886E+00  0.12369274529E+02  0.18166156502E+02  0.21982029865E+02  0.51100000000E-03 0. -1.
        -11    1    3    3    0    0  0.58434816628E+01  0.47826334673E+00  0.84054978975E+01  0.10248288098E+02  0.51100000000E-03 0.  1.
        -12    1    3    3    0    0  0.10510224447E+02 -0.13425006925E+02 -0.36439793341E+02  0.40231258588E+02  0.00000000000E+00 0.  1.
</event>
<event>
 7    1  0.2684545E-013  0.7246165E+02  0.7816164E-02  0.1226708E+00
        -11   -1    0    0    0    0  0.00000000000E+00  0.00000000000E+00  0.45593999997E+02  0.45594000000E+02  0.51100000000E-03 0. -1.
         11   -1    0    0    0    0 -0.00000000000E+00 -0.00000000000E+00 -0.45593999997E+02  0.45594000000E+02  0.51100000000E-03 0.  1.
    9900012    2    1    2    0    0  0.15217744202E+02 -0.76132176649E+01  0.78189000654E+01  0.72461654386E+02  0.70000109545E+02 0.  0.
         12    1    1    2    0    0 -0.15217744202E+02  0.76132176649E+01 -0.78189000654E+01  0.18726345614E+02  0.00000000000E+00 0. -1.
         11    1    3    3    0    0  0.60024114108E+01 -0.10814024812E+02  0.93681327318E+01  0.15515604614E+02  0.51100000000E-03 0. -1.
        -11    1    3    3    0    0  0.26315284400E+02  0.19780836588E+02 -0.31685909536E+01  0.33072884030E+02  0.51100000000E-03 0.  1.
         12    1    3    3    0    0 -0.17099951609E+02 -0.16580029441E+02  0.16193582872E+01  0.23873165742E+02  0.00000000000E+00 0. -1.
</event>
<event>
 7    1  0.2684545E-013  0.7246160E+02  0.7816164E-02  0.1226708E+00
        -11   -1    0    0    0    0  0.00000000000E+00  0.00000000000E+00  0.45593999997E+02  0.45594000000E+02  0.51100000000E-03 0. -1.
         11   -1    0    0    0    0 -0.00000000000E+00 -0.00000000000E+00 -0.45593999997E+02  0.45594000000E+02  0.51100000000E-03 0.  1.
    9900012    2    1    2    0    0  0.89102929576E+01  0.86882102491E+01 -0.13992842617E+02  0.72461602524E+02  0.70000041985E+02 0.  0.
         12    1    1    2    0    0 -0.89102929576E+01 -0.86882102491E+01  0.13992842617E+02  0.18726397476E+02  0.00000000000E+00 0. -1.
         11    1    3    3    0    0 -0.11556178773E+02 -0.93963771825E+01  0.90903867178E+00  0.14921914205E+02  0.51100000000E-03 0. -1.
        -11    1    3    3    0    0  0.88970897058E+01  0.76152415586E+01 -0.32188466172E+02  0.34252700098E+02  0.51100000000E-03 0.  1.
         12    1    3    3    0    0  0.11569382025E+02  0.10469345873E+02  0.17286584884E+02  0.23286988220E+02  0.00000000000E+00 0. -1.
</event>
<event>
 7    1  0.2684545E-013  0.7246158E+02  0.7816164E-02  0.1226708E+00
        -11   -1    0    0    0    0  0.00000000000E+00  0.00000000000E+00  0.45593999997E+02  0.45594000000E+02  0.51100000000E-03 0. -1.
         11   -1    0    0    0    0 -0.00000000000E+00 -0.00000000000E+00 -0.45593999997E+02  0.45594000000E+02  0.51100000000E-03 0.  1.
    9900012    2    1    2    0    0  0.12050768882E+02  0.12050258486E+02 -0.77620207504E+01  0.72461582127E+02  0.70000015414E+02 0.  0.
         12    1    1    2    0    0 -0.12050768882E+02 -0.12050258486E+02  0.77620207504E+01  0.18726417873E+02  0.00000000000E+00 0. -1.
         11    1    3    3    0    0  0.13111458287E+02  0.76168383285E+00  0.33879303352E+01  0.13563501498E+02  0.51100000000E-03 0. -1.
        -11    1    3    3    0    0  0.10025541242E+02  0.29836183129E+02 -0.17963748579E+02  0.36240937684E+02  0.51100000000E-03 0.  1.
         12    1    3    3    0    0 -0.11086230647E+02 -0.18547608476E+02  0.68137974934E+01  0.22657142945E+02  0.00000000000E+00 0. -1.
</event>
<event>
 7    1  0.2684545E-013  0.7246156E+02  0.7816164E-02  0.1226708E+00
        -11   -1    0    0    0    0  0.00000000000E+00  0.00000000000E+00  0.45593999997E+02  0.45594000000E+02  0.51100000000E-03 0. -1.
         11   -1    0    0    0    0 -0.00000000000E+00 -0.00000000000E+00 -0.45593999997E+02  0.45594000000E+02  0.51100000000E-03 0.  1.
    9900012    2    1    2    0    0  0.17303184619E+02 -0.47141828626E+01  0.53903439813E+01  0.72461560769E+02  0.69999987592E+02 0.  0.
         12    1    1    2    0    0 -0.17303184619E+02  0.47141828626E+01 -0.53903439813E+01  0.18726439231E+02  0.00000000000E+00 0. -1.
         11    1    3    3    0    0  0.17945511025E+02  0.71447180433E+01  0.12196266231E+02  0.22843757837E+02  0.51100000000E-03 0. -1.
        -11    1    3    3    0    0 -0.18119923239E+02  0.40413846318E+01 -0.15757567227E+02  0.24350879514E+02  0.51100000000E-03 0.  1.
         12    1    3    3    0    0  0.17477596834E+02 -0.15900285538E+02  0.89516449769E+01  0.25266923419E+02  0.00000000000E+00 0. -1.
</event>
<event>
 7    1  0.2684545E-013  0.7246155E+02  0.7816164E-02  0.1226708E+00
        -11   -1    0    0    0    0  0.00000000000E+00  0.00000000000E+00  0.45593999997E+02  0.45594000000E+02  0.51100000000E-03 0. -1.
         11   -1    0    0    0    0 -0.00000000000E+00 -0.00000000000E+00 -0.45593999997E+02  0.45594000000E+02  0.51100000000E-03 0.  1.
    9900012    2    1    2    0    0 -0.63580919981E+01 -0.10554186912E+02 -0.14101903205E+02  0.72461551612E+02  0.69999975662E+02 0.  0.
         12    1    1    2    0    0  0.63580919981E+01  0.10554186912E+02  0.14101903205E+02  0.18726448388E+02  0.00000000000E+00 0. -1.
         11    1    3    3    0    0 -0.81098665624E+01  0.48219612337E+01  0.23451589120E+01  0.97221919536E+01  0.51100000000E-03 0. -1.
        -11    1    3    3    0    0  0.40953022292E+00 -0.26694587214E+02  0.14059261474E+02  0.30173358033E+02  0.51100000000E-03 0.  1.
        -12    1    3    3    0    0  0.13422443414E+01  0.11318439068E+02 -0.30506323591E+02  0.32566001625E+02  0.00000000000E+00 0.  1.
</event>
<event>
 7    1  0.2684545E-013  0.7246168E+02  0.7816164E-02  0.1226708E+00
        -11   -1    0    0    0    0  0.00000000000E+00  0.00000000000E+00  0.45593999997E+02  0.45594000000E+02  0.51100000000E-03 0.  1.
         11   -1    0    0    0    0 -0.00000000000E+00 -0.00000000000E+00 -0.45593999997E+02  0.45594000000E+02  0.51100000000E-03 0. -1.
    9900012    2    1    2    0    0 -0.10049886847E+02  0.11518398562E+02  0.10816718587E+02  0.72461678096E+02  0.70000140431E+02 0.  0.
         12    1    1    2    0    0  0.10049886847E+02 -0.11518398562E+02 -0.10816718587E+02  0.18726321904E+02  0.00000000000E+00 0. -1.
         11    1    3    3    0    0 -0.26477436159E+02  0.23710645522E+02  0.19013489374E+00  0.35542727641E+02  0.51100000000E-03 0. -1.
        -11    1    3    3    0    0 -0.10210743643E+01 -0.44148052975E+01 -0.86593026807E+01  0.97732605536E+01  0.51100000000E-03 0.  1.
        -12    1    3    3    0    0  0.17448623676E+02 -0.77774416619E+01  0.19285886374E+02  0.27145689901E+02  0.00000000000E+00 0.  1.
</event>
<event>
 7    1  0.2684545E-013  0.7246158E+02  0.7816164E-02  0.1226708E+00
        -11   -1    0    0    0    0  0.00000000000E+00  0.00000000000E+00  0.45593999997E+02  0.45594000000E+02  0.51100000000E-03 0.  1.
         11   -1    0    0    0    0 -0.00000000000E+00 -0.00000000000E+00 -0.45593999997E+02  0.45594000000E+02  0.51100000000E-03 0. -1.
    9900012    2    1    2    0    0  0.10853577949E+02  0.14887776479E+02  0.33515044605E+01  0.72461584835E+02  0.70000018942E+02 0.  0.
         12    1    1    2    0    0 -0.10853577949E+02 -0.14887776479E+02 -0.33515044605E+01  0.18726415165E+02  0.00000000000E+00 0. -1.
         11    1    3    3    0    0  0.20851648449E+01  0.24429036541E+02  0.25632869562E+01  0.24651494458E+02  0.51100000000E-03 0. -1.
        -11    1    3    3    0    0  0.28030542415E-03  0.14937201078E+01  0.22159424066E+02  0.22209711278E+02  0.51100000000E-03 0.  1.
         12    1    3    3    0    0  0.87681327986E+01 -0.11034980170E+02 -0.21371206562E+02  0.25600379099E+02  0.00000000000E+00 0. -1.
</event>
<event>
 7    1  0.2684545E-013  0.7246156E+02  0.7816164E-02  0.1226708E+00
        -11   -1    0    0    0    0  0.00000000000E+00  0.00000000000E+00  0.45593999997E+02  0.45594000000E+02  0.51100000000E-03 0. -1.
         11   -1    0    0    0    0 -0.00000000000E+00 -0.00000000000E+00 -0.45593999997E+02  0.45594000000E+02  0.51100000000E-03 0.  1.
    9900012    2    1    2    0    0  0.17973664304E+02  0.52270822510E+01 -0.55199680386E+00  0.72461556188E+02  0.69999981623E+02 0.  0.
         12    1    1    2    0    0 -0.17973664304E+02 -0.52270822510E+01  0.55199680386E+00  0.18726443812E+02  0.00000000000E+00 0. -1.
         11    1    3    3    0    0  0.33441336291E+02 -0.15522034456E+02  0.70241173705E+01  0.37531250334E+02  0.51100000000E-03 0. -1.
        -11    1    3    3    0    0  0.39749974591E+01  0.13091057239E+01  0.33338545535E+01  0.53506026802E+01  0.51100000000E-03 0.  1.
        -12    1    3    3    0    0 -0.19442669445E+02  0.19440010983E+02 -0.10909968728E+02  0.29579703173E+02  0.00000000000E+00 0.  1.
</event>
<event>
 7    1  0.2684545E-013  0.7246160E+02  0.7816164E-02  0.1226708E+00
        -11   -1    0    0    0    0  0.00000000000E+00  0.00000000000E+00  0.45593999997E+02  0.45594000000E+02  0.51100000000E-03 0.  1.
         11   -1    0    0    0    0 -0.00000000000E+00 -0.00000000000E+00 -0.45593999997E+02  0.45594000000E+02  0.51100000000E-03 0. -1.
    9900012    2    1    2    0    0  0.14775928531E+02 -0.11449150026E+02 -0.11255503513E+01  0.72461602485E+02  0.70000041935E+02 0.  0.
         12    1    1    2    0    0 -0.14775928531E+02  0.11449150026E+02  0.11255503513E+01  0.18726397515E+02  0.00000000000E+00 0. -1.
         11    1    3    3    0    0  0.12251508578E+02 -0.10682926485E+02 -0.23998418237E+02  0.28985314538E+02  0.51100000000E-03 0. -1.
        -11    1    3    3    0    0  0.12771371316E+02  0.17719549824E+01 -0.48777935927E+01  0.13785522128E+02  0.51100000000E-03 0.  1.
        -12    1    3    3    0    0 -0.10246951363E+02 -0.25381785231E+01  0.27750661478E+02  0.29690765819E+02  0.00000000000E+00 0.  1.
</event>
<event>
 7    1  0.2684545E-013  0.7246157E+02  0.7816164E-02  0.1226708E+00
        -11   -1    0    0    0    0  0.00000000000E+00  0.00000000000E+00  0.45593999997E+02  0.45594000000E+02  0.51100000000E-03 0.  1.
         11   -1    0    0    0    0 -0.00000000000E+00 -0.00000000000E+00 -0.45593999997E+02  0.45594000000E+02  0.51100000000E-03 0. -1.
    9900012    2    1    2    0    0  0.12065048711E+02  0.12318349202E+02  0.73056240928E+01  0.72461567589E+02  0.69999996476E+02 0.  0.
         12    1    1    2    0    0 -0.12065048711E+02 -0.12318349202E+02 -0.73056240928E+01  0.18726432411E+02  0.00000000000E+00 0. -1.
         11    1    3    3    0    0  0.29171132030E+02 -0.10908500671E+02 -0.10755309059E+02  0.32948854366E+02  0.51100000000E-03 0. -1.
        -11    1    3    3    0    0 -0.89894730080E+01 -0.31900954137E+00  0.97297090188E+01  0.13250646396E+02  0.51100000000E-03 0.  1.
        -12    1    3    3    0    0 -0.81166103114E+01  0.23545859414E+02  0.83312241329E+01  0.26262066828E+02  0.00000000000E+00 0.  1.
</event>
<event>
 7    1  0.2684545E-013  0.7246161E+02  0.7816164E-02  0.1226708E+00
        -11   -1    0    0    0    0  0.00000000000E+00  0.00000000000E+00  0.45593999997E+02  0.45594000000E+02  0.51100000000E-03 0.  1.
         11   -1    0    0    0    0 -0.00000000000E+00 -0.00000000000E+00 -0.45593999997E+02  0.45594000000E+02  0.51100000000E-03 0. -1.
    9900012    2    1    2    0    0  0.18415507956E+02 -0.25902998249E+01  0.21993094143E+01  0.72461613580E+02  0.70000056388E+02 0.  0.
         12    1    1    2    0    0 -0.18415507956E+02  0.25902998249E+01 -0.21993094143E+01  0.18726386420E+02  0.00000000000E+00 0. -1.
         11    1    3    3    0    0  0.32012929470E+02 -0.33260016536E+01 -0.13791224798E+02  0.35015536865E+02  0.51100000000E-03 0. -1.
        -11    1    3    3    0    0  0.71224586094E+01  0.38999918423E+01  0.14265953692E+02  0.16415138989E+02  0.51100000000E-03 0.  1.
         12    1    3    3    0    0 -0.20719880124E+02 -0.31642900136E+01  0.17245805204E+01  0.21030937726E+02  0.00000000000E+00 0. -1.
</event>
<event>
 7    1  0.2684545E-013  0.7246132E+02  0.7816164E-02  0.1226709E+00
        -11   -1    0    0    0    0  0.00000000000E+00  0.00000000000E+00  0.45593999997E+02  0.45594000000E+02  0.51100000000E-03 0.  1.
         11   -1    0    0    0    0 -0.00000000000E+00 -0.00000000000E+00 -0.45593999997E+02  0.45594000000E+02  0.51100000000E-03 0. -1.
    9900012    2    1    2    0    0 -0.11705755072E+01 -0.36765431809E+01  0.18324883259E+02  0.72461319482E+02  0.69999673269E+02 0.  0.
         12    1    1    2    0    0  0.11705755072E+01  0.36765431809E+01 -0.18324883259E+02  0.18726680518E+02  0.00000000000E+00 0. -1.
         11    1    3    3    0    0  0.78052952869E+01 -0.17386824254E+02 -0.17295897879E+02  0.25736596043E+02  0.51100000000E-03 0. -1.
        -11    1    3    3    0    0  0.47570401898E+01  0.28263627000E+01 -0.14508288666E+01  0.57203725526E+01  0.51100000000E-03 0.  1.
        -12    1    3    3    0    0 -0.13732910984E+02  0.10883918373E+02  0.37071610005E+02  0.41004350886E+02  0.00000000000E+00 0.  1.
</event>
<event>
 7    1  0.2684545E-013  0.7246168E+02  0.7816164E-02  0.1226708E+00
        -11   -1    0    0    0    0  0.00000000000E+00  0.00000000000E+00  0.45593999997E+02  0.45594000000E+02  0.51100000000E-03 0.  1.
         11   -1    0    0    0    0 -0.00000000000E+00 -0.00000000000E+00 -0.45593999997E+02  0.45594000000E+02  0.51100000000E-03 0. -1.
    9900012    2    1    2    0    0  0.80185410657E+01  0.79058621738E+01  0.14962466794E+02  0.72461679750E+02  0.70000142586E+02 0.  0.
         12    1    1    2    0    0 -0.80185410657E+01 -0.79058621738E+01 -0.14962466794E+02  0.18726320250E+02  0.00000000000E+00 0. -1.
         11    1    3    3    0    0 -0.15502932863E+02  0.84375506428E+01 -0.13460699100E+02  0.22197378420E+02  0.51100000000E-03 0. -1.
        -11    1    3    3    0    0  0.51358327183E+01  0.13187993077E+02  0.54813293568E+00  0.14163346677E+02  0.51100000000E-03 0.  1.
        -12    1    3    3    0    0  0.18385641210E+02 -0.13719681546E+02  0.27875032959E+02  0.36100954653E+02  0.00000000000E+00 0.  1.
</event>
<event>
 7    1  0.2684545E-013  0.7246159E+02  0.7816164E-02  0.1226708E+00
        -11   -1    0    0    0    0  0.00000000000E+00  0.00000000000E+00  0.45593999997E+02  0.45594000000E+02  0.51100000000E-03 0.  1.
         11   -1    0    0    0    0 -0.00000000000E+00 -0.00000000000E+00 -0.45593999997E+02  0.45594000000E+02  0.51100000000E-03 0. -1.
    9900012    2    1    2    0    0  0.85520618073E+01 -0.16342088140E+02  0.32368033193E+01  0.72461588126E+02  0.70000023229E+02 0.  0.
         12    1    1    2    0    0 -0.85520618073E+01  0.16342088140E+02 -0.32368033193E+01  0.18726411874E+02  0.00000000000E+00 0. -1.
         11    1    3    3    0    0 -0.22860665597E+01 -0.15798501085E+02  0.74707859334E+00  0.15980515121E+02  0.51100000000E-03 0. -1.
        -11    1    3    3    0    0  0.33192279500E+02  0.36009968549E+01 -0.13963276309E+01  0.33416228510E+02  0.51100000000E-03 0.  1.
         12    1    3    3    0    0 -0.22354151133E+02 -0.41445839100E+01  0.38860523568E+01  0.23064844495E+02  0.00000000000E+00 0. -1.
</event>
<event>
 7    1  0.2684545E-013  0.7246157E+02  0.7816164E-02  0.1226708E+00
        -11   -1    0    0    0    0  0.00000000000E+00  0.00000000000E+00  0.45593999997E+02  0.45594000000E+02  0.51100000000E-03 0. -1.
         11   -1    0    0    0    0 -0.00000000000E+00 -0.00000000000E+00 -0.45593999997E+02  0.45594000000E+02  0.51100000000E-03 0.  1.
    9900012    2    1    2    0    0  0.14478738644E+01 -0.17561502599E+02  0.63384866998E+01  0.72461571459E+02  0.70000001518E+02 0.  0.
         12    1    1    2    0    0 -0.14478738644E+01  0.17561502599E+02 -0.63384866998E+01  0.18726428541E+02  0.00000000000E+00 0. -1.
         11    1    3    3    0    0 -0.32741825479E+01  0.20166738141E+02  0.16821572252E+02  0.26464748098E+02  0.51100000000E-03 0. -1.
        -11    1    3    3    0    0 -0.67974767927E+01 -0.17696808608E+01 -0.18557421932E+01  0.72650698857E+01  0.51100000000E-03 0.  1.
        -12    1    3    3    0    0  0.11519533205E+02 -0.35958559879E+02 -0.86273433589E+01  0.38731753475E+02  0.00000000000E+00 0.  1.
</event>
<event>
 7    1  0.2684545E-013  0.7246146E+02  0.7816164E-02  0.1226708E+00
        -11   -1    0    0    0    0  0.00000000000E+00  0.00000000000E+00  0.45593999997E+02  0.45594000000E+02  0.51100000000E-03 0.  1.
         11   -1    0    0    0    0 -0.00000000000E+00 -0.00000000000E+00 -0.45593999997E+02  0.45594000000E+02  0.51100000000E-03 0. -1.
    9900012    2    1    2    0    0  0.24071923755E+01 -0.12227786645E+02  0.13977474721E+02  0.72461464256E+02  0.69999861865E+02 0.  0.
         12    1    1    2    0    0 -0.24071923755E+01  0.12227786645E+02 -0.13977474721E+02  0.18726535744E+02  0.00000000000E+00 0. -1.
         11    1    3    3    0    0  0.95648317037E+01  0.72072597258E+01  0.56984248060E+01  0.13262829404E+02  0.51100000000E-03 0. -1.
        -11    1    3    3    0    0 -0.44743288809E+01  0.19280427348E+02  0.34453056803E+01  0.20090411374E+02  0.51100000000E-03 0.  1.
         12    1    3    3    0    0 -0.26833104472E+01 -0.38715473720E+02  0.48337442352E+01  0.39108223478E+02  0.00000000000E+00 0. -1.
</event>
<event>
 7    1  0.2684545E-013  0.7246157E+02  0.7816164E-02  0.1226708E+00
        -11   -1    0    0    0    0  0.00000000000E+00  0.00000000000E+00  0.45593999997E+02  0.45594000000E+02  0.51100000000E-03 0. -1.
         11   -1    0    0    0    0 -0.00000000000E+00 -0.00000000000E+00 -0.45593999997E+02  0.45594000000E+02  0.51100000000E-03 0.  1.
    9900012    2    1    2    0    0  0.81624027029E+01 -0.16853910199E+02  0.12885259820E-01  0.72461567534E+02  0.69999996404E+02 0.  0.
         12    1    1    2    0    0 -0.81624027029E+01  0.16853910199E+02 -0.12885259820E-01  0.18726432466E+02  0.00000000000E+00 0. -1.
         11    1    3    3    0    0  0.96506842669E+01 -0.10360857590E+01  0.10750379165E+02  0.14483778270E+02  0.51100000000E-03 0. -1.
        -11    1    3    3    0    0  0.17856017558E+02  0.12615433222E+02  0.28514956866E+00  0.21864762266E+02  0.51100000000E-03 0.  1.
        -12    1    3    3    0    0 -0.19344299122E+02 -0.28433257662E+02 -0.11022643474E+02  0.36113026998E+02  0.00000000000E+00 0.  1.
</event>
<event>
 7    1  0.2684545E-013  0.7246159E+02  0.7816164E-02  0.1226708E+00
        -11   -1    0    0    0    0  0.00000000000E+00  0.00000000000E+00  0.45593999997E+02  0.45594000000E+02  0.51100000000E-03 0. -1.
         11   -1    0    0    0    0 -0.00000000000E+00 -0.00000000000E+00 -0.45593999997E+02  0.45594000000E+02  0.51100000000E-03 0.  1.
    9900012    2    1    2    0    0  0.16259354802E+02  0.87252703804E+01 -0.31908288472E+01  0.72461592162E+02  0.70000028487E+02 0.  0.
         12    1    1    2    0    0 -0.16259354802E+02 -0.87252703804E+01  0.31908288472E+01  0.18726407838E+02  0.00000000000E+00 0. -1.
         11    1    3    3    0    0  0.15633702590E+02 -0.21550388582E+02 -0.98536633077E+01  0.28388846147E+02  0.51100000000E-03 0. -1.
        -11    1    3    3    0    0  0.13423293673E+02  0.11535257223E+02 -0.52255420320E+01  0.18454085240E+02  0.51100000000E-03 0.  1.
        -12    1    3    3    0    0 -0.12797641461E+02  0.18740401739E+02  0.11888376492E+02  0.25618660776E+02  0.00000000000E+00 0.  1.
</event>
<event>
 7    1  0.2684545E-013  0.7246155E+02  0.7816164E-02  0.1226708E+00
        -11   -1    0    0    0    0  0.00000000000E+00  0.00000000000E+00  0.45593999997E+02  0.45594000000E+02  0.51100000000E-03 0. -1.
         11   -1    0    0    0    0 -0.00000000000E+00 -0.00000000000E+00 -0.45593999997E+02  0.45594000000E+02  0.51100000000E-03 0.  1.
    9900012    2    1    2    0    0 -0.11737044602E+02 -0.11051594553E+02  0.95280627588E+01  0.72461549774E+02  0.69999973268E+02 0.  0.
         12    1    1    2    0    0  0.11737044602E+02  0.11051594553E+02 -0.95280627588E+01  0.18726450226E+02  0.00000000000E+00 0. -1.
         11    1    3    3    0    0 -0.17815798484E+01 -0.10128705044E+02  0.28157517288E+02  0.29976832266E+02  0.51100000000E-03 0. -1.
        -11    1    3    3    0    0  0.27253946167E+01 -0.12254284957E+02  0.48803222006E+01  0.13468957668E+02  0.51100000000E-03 0.  1.
        -12    1    3    3    0    0 -0.12680859370E+02  0.11331395448E+02 -0.23509776730E+02  0.29015759839E+02  0.00000000000E+00 0.  1.
</event>
<event>
 7    1  0.2684545E-013  0.7246157E+02  0.7816164E-02  0.1226708E+00
        -11   -1    0    0    0    0  0.00000000000E+00  0.00000000000E+00  0.45593999997E+02  0.45594000000E+02  0.51100000000E-03 0.  1.
         11   -1    0    0    0    0 -0.00000000000E+00 -0.00000000000E+00 -0.45593999997E+02  0.45594000000E+02  0.51100000000E-03 0. -1.
    9900012    2    1    2    0    0  0.31325433628E+01 -0.11307764095E+02  0.14594546152E+02  0.72461571239E+02  0.70000001231E+02 0.  0.
         12    1    1    2    0    0 -0.31325433628E+01  0.11307764095E+02 -0.14594546152E+02  0.18726428761E+02  0.00000000000E+00 0. -1.
         11    1    3    3    0    0 -0.56171092029E+01 -0.11783905898E+02 -0.79396433364E+01  0.15279080162E+02  0.51100000000E-03 0. -1.
        -11    1    3    3    0    0  0.23565405623E+02 -0.17188756975E+02  0.93846155860E+01  0.30640703622E+02  0.51100000000E-03 0.  1.
        -12    1    3    3    0    0 -0.14815753057E+02  0.17664898778E+02  0.13149573903E+02  0.26541787455E+02  0.00000000000E+00 0.  1.
</event>
<event>
 7    1  0.2684545E-013  0.7246155E+02  0.7816164E-02  0.1226708E+00
        -11   -1    0    0    0    0  0.00000000000E+00  0.00000000000E+00  0.45593999997E+02  0.45594000000E+02  0.51100000000E-03 0. -1.
         11   -1    0    0    0    0 -0.00000000000E+00 -0.00000000000E+00 -0.45593999997E+02  0.45594000000E+02  0.51100000000E-03 0.  1.
    9900012    2    1    2    0    0 -0.46344726067E+01 -0.75167076037E+01 -0.16513651635E+02  0.72461550260E+02  0.69999973901E+02 0.  0.
         12    1    1    2    0    0  0.46344726067E+01  0.75167076037E+01  0.16513651635E+02  0.18726449740E+02  0.00000000000E+00 0. -1.
         11    1    3    3    0    0  0.25333829327E+01  0.35543524114E+01  0.14006074801E+02  0.14670432228E+02  0.51100000000E-03 0. -1.
        -11    1    3    3    0    0  0.20055336337E+02 -0.49105014226E+01 -0.88927615802E+01  0.22481342233E+02  0.51100000000E-03 0.  1.
        -12    1    3    3    0    0 -0.27223191876E+02 -0.61605585925E+01 -0.21626964856E+02  0.35309775799E+02  0.00000000000E+00 0.  1.
</event>
<event>
 7    1  0.2684545E-013  0.7246160E+02  0.7816164E-02  0.1226708E+00
        -11   -1    0    0    0    0  0.00000000000E+00  0.00000000000E+00  0.45593999997E+02  0.45594000000E+02  0.51100000000E-03 0.  1.
         11   -1    0    0    0    0 -0.00000000000E+00 -0.00000000000E+00 -0.45593999997E+02  0.45594000000E+02  0.51100000000E-03 0. -1.
    9900012    2    1    2    0    0  0.57552988681E+01 -0.10271546937E+02  0.14561933605E+02  0.72461600136E+02  0.70000038875E+02 0.  0.
         12    1    1    2    0    0 -0.57552988681E+01  0.10271546937E+02 -0.14561933605E+02  0.18726399864E+02  0.00000000000E+00 0. -1.
         11    1    3    3    0    0 -0.52563362681E+01 -0.52637869149E+01 -0.31882860583E+01  0.80933115533E+01  0.51100000000E-03 0. -1.
        -11    1    3    3    0    0 -0.24231669007E+02  0.34760634537E+01  0.11734148694E+01  0.24507829417E+02  0.51100000000E-03 0.  1.
         12    1    3    3    0    0  0.35243304144E+02 -0.84838234762E+01  0.16576804794E+02  0.39860459166E+02  0.00000000000E+00 0. -1.
</event>
<event>
 7    1  0.2684545E-013  0.7246184E+02  0.7816164E-02  0.1226707E+00
        -11   -1    0    0    0    0  0.00000000000E+00  0.00000000000E+00  0.45593999997E+02  0.45594000000E+02  0.51100000000E-03 0.  1.
         11   -1    0    0    0    0 -0.00000000000E+00 -0.00000000000E+00 -0.45593999997E+02  0.45594000000E+02  0.51100000000E-03 0. -1.
    9900012    2    1    2    0    0 -0.16808841088E+02  0.52282930758E+01  0.63872519959E+01  0.72461837146E+02  0.70000347622E+02 0.  0.
         12    1    1    2    0    0  0.16808841088E+02 -0.52282930758E+01 -0.63872519959E+01  0.18726162854E+02  0.00000000000E+00 0. -1.
         11    1    3    3    0    0 -0.17029576547E+01 -0.59525539775E+01 -0.16327253607E+01  0.64030270961E+01  0.51100000000E-03 0. -1.
        -11    1    3    3    0    0  0.41706708255E+01 -0.14144047766E+02  0.25715595064E+02  0.29643555996E+02  0.51100000000E-03 0.  1.
         12    1    3    3    0    0 -0.19276554258E+02  0.25324894819E+02 -0.17695617708E+02  0.36415254053E+02  0.00000000000E+00 0. -1.
</event>
<event>
 7    1  0.2684545E-013  0.7246157E+02  0.7816164E-02  0.1226708E+00
        -11   -1    0    0    0    0  0.00000000000E+00  0.00000000000E+00  0.45593999997E+02  0.45594000000E+02  0.51100000000E-03 0. -1.
         11   -1    0    0    0    0 -0.00000000000E+00 -0.00000000000E+00 -0.45593999997E+02  0.45594000000E+02  0.51100000000E-03 0.  1.
    9900012    2    1    2    0    0  0.58180092519E+01 -0.71476997873E+01 -0.16301538921E+02  0.72461574418E+02  0.70000005372E+02 0.  0.
         12    1    1    2    0    0 -0.58180092519E+01  0.71476997873E+01  0.16301538921E+02  0.18726425582E+02  0.00000000000E+00 0. -1.
         11    1    3    3    0    0  0.14271708981E+02 -0.38463776764E+01 -0.60323728649E+01  0.15964517566E+02  0.51100000000E-03 0. -1.
        -11    1    3    3    0    0 -0.65628746524E+01  0.12127095905E+02  0.18929181806E+02  0.23419045730E+02  0.51100000000E-03 0.  1.
         12    1    3    3    0    0 -0.18908250767E+01 -0.15428418016E+02 -0.29198347862E+02  0.33078011122E+02  0.00000000000E+00 0. -1.
</event>
<event>
 7    1  0.2684545E-013  0.7246153E+02  0.7816164E-02  0.1226708E+00
        -11   -1    0    0    0    0  0.00000000000E+00  0.00000000000E+00  0.45593999997E+02  0.45594000000E+02  0.51100000000E-03 0. -1.
         11   -1    0    0    0    0 -0.00000000000E+00 -0.00000000000E+00 -0.45593999997E+02  0.45594000000E+02  0.51100000000E-03 0.  1.
    9900012    2    1    2    0    0 -0.80871546854E+01  0.17843945827E+01 -0.16795665972E+02  0.72461533959E+02  0.69999952667E+02 0.  0.
         12    1    1    2    0    0  0.80871546854E+01 -0.17843945827E+01  0.16795665972E+02  0.18726466041E+02  0.00000000000E+00 0. -1.
         11    1    3    3    0    0 -0.16190546001E+02  0.57605095245E+01 -0.94476584081E+01  0.19610596612E+02  0.51100000000E-03 0. -1.
        -11    1    3    3    0    0  0.74001522386E+01 -0.19828363371E+02 -0.22514810733E+02  0.30900533163E+02  0.51100000000E-03 0.  1.
        -12    1    3    3    0    0  0.70323907746E+00  0.15852248430E+02  0.15166803170E+02  0.21950404185E+02  0.00000000000E+00 0.  1.
</event>
<event>
 7    1  0.2684545E-013  0.7246157E+02  0.7816164E-02  0.1226708E+00
        -11   -1    0    0    0    0  0.00000000000E+00  0.00000000000E+00  0.45593999997E+02  0.45594000000E+02  0.51100000000E-03 0. -1.
         11   -1    0    0    0    0 -0.00000000000E+00 -0.00000000000E+00 -0.45593999997E+02  0.45594000000E+02  0.51100000000E-03 0.  1.
    9900012    2    1    2    0    0 -0.16653283212E+02 -0.43754366839E+01 -0.73622708207E+01  0.72461566288E+02  0.69999994782E+02 0.  0.
         12    1    1    2    0    0  0.16653283212E+02  0.43754366839E+01  0.73622708207E+01  0.18726433712E+02  0.00000000000E+00 0. -1.
         11    1    3    3    0    0 -0.10855659791E+02  0.18614663498E+02  0.68887971360E+01  0.22623142418E+02  0.51100000000E-03 0. -1.
        -11    1    3    3    0    0  0.21209235974E+01  0.11811012055E+02 -0.47407180819E+01  0.12902431200E+02  0.51100000000E-03 0.  1.
        -12    1    3    3    0    0 -0.79185470189E+01 -0.34801112237E+02 -0.95103498749E+01  0.36935992671E+02  0.00000000000E+00 0.  1.
</event>
<event>
 7    1  0.2684545E-013  0.7246157E+02  0.7816164E-02  0.1226708E+00
        -11   -1    0    0    0    0  0.00000000000E+00  0.00000000000E+00  0.45593999997E+02  0.45594000000E+02  0.51100000000E-03 0. -1.
         11   -1    0    0    0    0 -0.00000000000E+00 -0.00000000000E+00 -0.45593999997E+02  0.45594000000E+02  0.51100000000E-03 0.  1.
    9900012    2    1    2    0    0  0.17071353469E+02  0.73272597161E+01  0.23578172270E+01  0.72461570915E+02  0.70000000809E+02 0.  0.
         12    1    1    2    0    0 -0.17071353469E+02 -0.73272597161E+01 -0.23578172270E+01  0.18726429085E+02  0.00000000000E+00 0. -1.
         11    1    3    3    0    0 -0.50630111093E+01 -0.12530421397E+02  0.23203582382E+02  0.26852407294E+02  0.51100000000E-03 0. -1.
        -11    1    3    3    0    0  0.15003051885E+02  0.39815192239E+01  0.32758150025E+01  0.15864268826E+02  0.51100000000E-03 0.  1.
        -12    1    3    3    0    0  0.71313126930E+01  0.15876161889E+02 -0.24121580157E+02  0.29744894795E+02  0.00000000000E+00 0.  1.
</event>
<event>
 7    1  0.2684545E-013  0.7246091E+02  0.7816164E-02  0.1226710E+00
        -11   -1    0    0    0    0  0.00000000000E+00  0.00000000000E+00  0.45593999997E+02  0.45594000000E+02  0.51100000000E-03 0. -1.
         11   -1    0    0    0    0 -0.00000000000E+00 -0.00000000000E+00 -0.45593999997E+02  0.45594000000E+02  0.51100000000E-03 0.  1.
    9900012    2    1    2    0    0  0.90604312483E+01  0.12625420281E+02 -0.10450419571E+02  0.72460909439E+02  0.69999139108E+02 0.  0.
         12    1    1    2    0    0 -0.90604312483E+01 -0.12625420281E+02  0.10450419571E+02  0.18727090561E+02  0.00000000000E+00 0. -1.
         11    1    3    3    0    0 -0.24379821233E+01  0.11476198570E+02  0.22028139655E+02  0.24957680729E+02  0.51100000000E-03 0. -1.
        -11    1    3    3    0    0  0.88597408320E+00  0.97630724073E+01  0.23566339673E+01  0.10082472753E+02  0.51100000000E-03 0.  1.
        -12    1    3    3    0    0  0.10612439288E+02 -0.86138506970E+01 -0.34835193194E+02  0.37420755956E+02  0.00000000000E+00 0.  1.
</event>
<event>
 7    1  0.2684545E-013  0.7246154E+02  0.7816164E-02  0.1226708E+00
        -11   -1    0    0    0    0  0.00000000000E+00  0.00000000000E+00  0.45593999997E+02  0.45594000000E+02  0.51100000000E-03 0.  1.
         11   -1    0    0    0    0 -0.00000000000E+00 -0.00000000000E+00 -0.45593999997E+02  0.45594000000E+02  0.51100000000E-03 0. -1.
    9900012    2    1    2    0    0 -0.46187764250E+01 -0.17633734595E+02  0.42893688995E+01  0.72461538055E+02  0.69999958002E+02 0.  0.
         12    1    1    2    0    0  0.46187764250E+01  0.17633734595E+02 -0.42893688995E+01  0.18726461945E+02  0.00000000000E+00 0. -1.
         11    1    3    3    0    0 -0.10212080204E+01  0.33341235933E+01  0.30648534100E+01  0.46424748402E+01  0.51100000000E-03 0. -1.
        -11    1    3    3    0    0  0.67012042012E+01 -0.88046039554E+01  0.31619215803E+02  0.33499283526E+02  0.51100000000E-03 0.  1.
        -12    1    3    3    0    0 -0.10298772606E+02 -0.12163254233E+02 -0.30394700313E+02  0.34319779688E+02  0.00000000000E+00 0.  1.
</event>
<event>
 7    1  0.2684545E-013  0.7246156E+02  0.7816164E-02  0.1226708E+00
        -11   -1    0    0    0    0  0.00000000000E+00  0.00000000000E+00  0.45593999997E+02  0.45594000000E+02  0.51100000000E-03 0.  1.
         11   -1    0    0    0    0 -0.00000000000E+00 -0.00000000000E+00 -0.45593999997E+02  0.45594000000E+02  0.51100000000E-03 0. -1.
    9900012    2    1    2    0    0 -0.76856525460E+01 -0.63882637161E+01  0.15836682656E+02  0.72461556507E+02  0.69999982039E+02 0.  0.
         12    1    1    2    0    0  0.76856525460E+01  0.63882637161E+01 -0.15836682656E+02  0.18726443493E+02  0.00000000000E+00 0. -1.
         11    1    3    3    0    0  0.24765762248E+01  0.34204481804E+01  0.14336165248E+01  0.44596134533E+01  0.51100000000E-03 0. -1.
        -11    1    3    3    0    0 -0.10945799850E+02  0.23391521604E+02  0.22009876457E+02  0.33932410455E+02  0.51100000000E-03 0.  1.
         12    1    3    3    0    0  0.78357107933E+00 -0.33200233501E+02 -0.76068103260E+01  0.34069532599E+02  0.00000000000E+00 0. -1.
</event>
<event>
 7    1  0.2684545E-013  0.7246157E+02  0.7816164E-02  0.1226708E+00
        -11   -1    0    0    0    0  0.00000000000E+00  0.00000000000E+00  0.45593999997E+02  0.45594000000E+02  0.51100000000E-03 0. -1.
         11   -1    0    0    0    0 -0.00000000000E+00 -0.00000000000E+00 -0.45593999997E+02  0.45594000000E+02  0.51100000000E-03 0.  1.
    9900012    2    1    2    0    0 -0.13538165875E+02  0.10568546465E+02 -0.74634376719E+01  0.72461574513E+02  0.70000005495E+02 0.  0.
         12    1    1    2    0    0  0.13538165875E+02 -0.10568546465E+02  0.74634376719E+01  0.18726425487E+02  0.00000000000E+00 0. -1.
         11    1    3    3    0    0 -0.42868262506E+01 -0.94733406449E+01  0.14204209455E+01  0.10494696670E+02  0.51100000000E-03 0. -1.
        -11    1    3    3    0    0 -0.18967777048E+02  0.29974814787E+01  0.19561361393E+02  0.27411828125E+02  0.51100000000E-03 0.  1.
        -12    1    3    3    0    0  0.97164374236E+01  0.17044405632E+02 -0.28445220010E+02  0.34555049717E+02  0.00000000000E+00 0.  1.
</event>
<event>
 7    1  0.2684545E-013  0.7246168E+02  0.7816164E-02  0.1226708E+00
        -11   -1    0    0    0    0  0.00000000000E+00  0.00000000000E+00  0.45593999997E+02  0.45594000000E+02  0.51100000000E-03 0.  1.
         11   -1    0    0    0    0 -0.00000000000E+00 -0.00000000000E+00 -0.45593999997E+02  0.45594000000E+02  0.51100000000E-03 0. -1.
    9900012    2    1    2    0    0 -0.18244313193E+02  0.22599612134E+01  0.35654963464E+01  0.72461677543E+02  0.70000139711E+02 0.  0.
         12    1    1    2    0    0  0.18244313193E+02 -0.22599612134E+01 -0.35654963464E+01  0.18726322457E+02  0.00000000000E+00 0. -1.
         11    1    3    3    0    0 -0.89839733028E+01 -0.16994094154E+02  0.16978412770E+00  0.19223419034E+02  0.51100000000E-03 0. -1.
        -11    1    3    3    0    0 -0.17305239420E+02 -0.10470814326E+02 -0.59037535827E+01  0.21070443058E+02  0.51100000000E-03 0.  1.
        -12    1    3    3    0    0  0.80448995297E+01  0.29724869693E+02  0.92994658014E+01  0.32167815451E+02  0.00000000000E+00 0.  1.
</event>
<event>
 7    1  0.2684545E-013  0.7246161E+02  0.7816164E-02  0.1226708E+00
        -11   -1    0    0    0    0  0.00000000000E+00  0.00000000000E+00  0.45593999997E+02  0.45594000000E+02  0.51100000000E-03 0.  1.
         11   -1    0    0    0    0 -0.00000000000E+00 -0.00000000000E+00 -0.45593999997E+02  0.45594000000E+02  0.51100000000E-03 0. -1.
    9900012    2    1    2    0    0 -0.10116046470E+02 -0.11915568140E+02  0.10313221689E+02  0.72461609481E+02  0.70000051048E+02 0.  0.
         12    1    1    2    0    0  0.10116046470E+02  0.11915568140E+02 -0.10313221689E+02  0.18726390519E+02  0.00000000000E+00 0. -1.
         11    1    3    3    0    0 -0.15905721396E+02  0.38271041016E+01  0.22077493803E+02  0.27478253798E+02  0.51100000000E-03 0. -1.
        -11    1    3    3    0    0  0.19928192086E+02 -0.65376453417E+01  0.46088425800E+01  0.21473590212E+02  0.51100000000E-03 0.  1.
         12    1    3    3    0    0 -0.14138517160E+02 -0.92050268995E+01 -0.16373114694E+02  0.23509765471E+02  0.00000000000E+00 0. -1.
</event>
<event>
 7    1  0.2684545E-013  0.7246158E+02  0.7816164E-02  0.1226708E+00
        -11   -1    0    0    0    0  0.00000000000E+00  0.00000000000E+00  0.45593999997E+02  0.45594000000E+02  0.51100000000E-03 0.  1.
         11   -1    0    0    0    0 -0.00000000000E+00 -0.00000000000E+00 -0.45593999997E+02  0.45594000000E+02  0.51100000000E-03 0. -1.
    9900012    2    1    2    0    0  0.67218618475E+01  0.20742778146E+01  0.17354909758E+02  0.72461576212E+02  0.70000007709E+02 0.  0.
         12    1    1    2    0    0 -0.67218618475E+01 -0.20742778146E+01 -0.17354909758E+02  0.18726423788E+02  0.00000000000E+00 0. -1.
         11    1    3    3    0    0 -0.14375387534E+02 -0.18556421510E+02  0.18224019964E+02  0.29717123850E+02  0.51100000000E-03 0. -1.
        -11    1    3    3    0    0 -0.65704497610E+01  0.55565619348E+01  0.60081943865E+01  0.10494979306E+02  0.51100000000E-03 0.  1.
        -12    1    3    3    0    0  0.27667699143E+02  0.15074137390E+02 -0.68773045925E+01  0.32249473056E+02  0.00000000000E+00 0.  1.
</event>
<event>
 7    1  0.2684545E-013  0.7246159E+02  0.7816164E-02  0.1226708E+00
        -11   -1    0    0    0    0  0.00000000000E+00  0.00000000000E+00  0.45593999997E+02  0.45594000000E+02  0.51100000000E-03 0.  1.
         11   -1    0    0    0    0 -0.00000000000E+00 -0.00000000000E+00 -0.45593999997E+02  0.45594000000E+02  0.51100000000E-03 0. -1.
    9900012    2    1    2    0    0 -0.42991881621E+01  0.32127242535E+01  0.17940847250E+02  0.72461585073E+02  0.70000019252E+02 0.  0.
         12    1    1    2    0    0  0.42991881621E+01 -0.32127242535E+01 -0.17940847250E+02  0.18726414927E+02  0.00000000000E+00 0. -1.
         11    1    3    3    0    0 -0.19055826723E+02 -0.21909241277E+02 -0.43524764193E+01  0.29361257410E+02  0.51100000000E-03 0. -1.
        -11    1    3    3    0    0  0.37335312419E+00 -0.10641926598E+01 -0.34707158231E+01  0.36493516079E+01  0.51100000000E-03 0.  1.
        -12    1    3    3    0    0  0.14383285437E+02  0.26186158190E+02  0.25764039492E+02  0.39450976055E+02  0.00000000000E+00 0.  1.
</event>
<event>
 7    1  0.2684545E-013  0.7246156E+02  0.7816164E-02  0.1226708E+00
        -11   -1    0    0    0    0  0.00000000000E+00  0.00000000000E+00  0.45593999997E+02  0.45594000000E+02  0.51100000000E-03 0.  1.
         11   -1    0    0    0    0 -0.00000000000E+00 -0.00000000000E+00 -0.45593999997E+02  0.45594000000E+02  0.51100000000E-03 0. -1.
    9900012    2    1    2    0    0 -0.11545781407E+02 -0.91274028273E+01  0.11578650299E+02  0.72461556306E+02  0.69999981778E+02 0.  0.
         12    1    1    2    0    0  0.11545781407E+02  0.91274028273E+01 -0.11578650299E+02  0.18726443694E+02  0.00000000000E+00 0. -1.
         11    1    3    3    0    0 -0.14843329524E+02 -0.80639183942E+01 -0.13287997473E+02  0.21492372794E+02  0.51100000000E-03 0. -1.
        -11    1    3    3    0    0  0.67571185823E+01 -0.14646080628E+02 -0.58883515413E+01  0.17170876898E+02  0.51100000000E-03 0.  1.
        -12    1    3    3    0    0 -0.34595704652E+01  0.13582596195E+02  0.30754999313E+02  0.33798306614E+02  0.00000000000E+00 0.  1.
</event>
<event>
 7    1  0.2684545E-013  0.7246156E+02  0.7816164E-02  0.1226708E+00
        -11   -1    0    0    0    0  0.00000000000E+00  0.00000000000E+00  0.45593999997E+02  0.45594000000E+02  0.51100000000E-03 0.  1.
         11   -1    0    0    0    0 -0.00000000000E+00 -0.00000000000E+00 -0.45593999997E+02  0.45594000000E+02  0.51100000000E-03 0. -1.
    9900012    2    1    2    0    0  0.13432394926E+02  0.21507836301E+01  0.12869511006E+02  0.72461563681E+02  0.69999991384E+02 0.  0.
         12    1    1    2    0    0 -0.13432394926E+02 -0.21507836301E+01 -0.12869511006E+02  0.18726436319E+02  0.00000000000E+00 0. -1.
         11    1    3    3    0    0  0.74391467472E+01 -0.11733923791E+02 -0.15090160710E+02  0.20511919032E+02  0.51100000000E-03 0. -1.
        -11    1    3    3    0    0  0.16999607656E+02 -0.59502351756E+00  0.29120634840E+02  0.33724651031E+02  0.51100000000E-03 0.  1.
         12    1    3    3    0    0 -0.11006359477E+02  0.14479730938E+02 -0.11609631236E+01  0.18224993617E+02  0.00000000000E+00 0. -1.
</event>
<event>
 7    1  0.2684545E-013  0.7246157E+02  0.7816164E-02  0.1226708E+00
        -11   -1    0    0    0    0  0.00000000000E+00  0.00000000000E+00  0.45593999997E+02  0.45594000000E+02  0.51100000000E-03 0. -1.
         11   -1    0    0    0    0 -0.00000000000E+00 -0.00000000000E+00 -0.45593999997E+02  0.45594000000E+02  0.51100000000E-03 0.  1.
    9900012    2    1    2    0    0  0.65017409010E+01 -0.14164362845E+02 -0.10381588876E+02  0.72461569557E+02  0.69999999039E+02 0.  0.
         12    1    1    2    0    0 -0.65017409010E+01  0.14164362845E+02  0.10381588876E+02  0.18726430443E+02  0.00000000000E+00 0. -1.
         11    1    3    3    0    0 -0.85924117607E+01  0.86609364150E+01  0.18975718776E+01  0.12346746079E+02  0.51100000000E-03 0. -1.
        -11    1    3    3    0    0 -0.36292378301E+01  0.12088097581E+02 -0.15936935443E+02  0.20329274013E+02  0.51100000000E-03 0.  1.
         12    1    3    3    0    0  0.18723390492E+02 -0.34913396841E+02  0.36577746888E+01  0.39785549464E+02  0.00000000000E+00 0. -1.
</event>
<event>
 7    1  0.2684545E-013  0.7246144E+02  0.7816164E-02  0.1226708E+00
        -11   -1    0    0    0    0  0.00000000000E+00  0.00000000000E+00  0.45593999997E+02  0.45594000000E+02  0.51100000000E-03 0. -1.
         11   -1    0    0    0    0 -0.00000000000E+00 -0.00000000000E+00 -0.45593999997E+02  0.45594000000E+02  0.51100000000E-03 0.  1.
    9900012    2    1    2    0    0 -0.49615524052E+01 -0.11457166053E+02 -0.13957093342E+02  0.72461438362E+02  0.69999828133E+02 0.  0.
         12    1    1    2    0    0  0.49615524052E+01  0.11457166053E+02  0.13957093342E+02  0.18726561638E+02  0.00000000000E+00 0. -1.
         11    1    3    3    0    0 -0.27730060123E+01 -0.61274199599E+01  0.27854246342E+00  0.67314503544E+01  0.51100000000E-03 0. -1.
        -11    1    3    3    0    0  0.36501331018E+01 -0.33355619015E+02  0.44485808430E+00  0.33557691973E+02  0.51100000000E-03 0.  1.
         12    1    3    3    0    0 -0.58386794947E+01  0.28025872923E+02 -0.14680493890E+02  0.32172296035E+02  0.00000000000E+00 0. -1.
</event>
<event>
 7    1  0.2684545E-013  0.7246155E+02  0.7816164E-02  0.1226708E+00
        -11   -1    0    0    0    0  0.00000000000E+00  0.00000000000E+00  0.45593999997E+02  0.45594000000E+02  0.51100000000E-03 0. -1.
         11   -1    0    0    0    0 -0.00000000000E+00 -0.00000000000E+00 -0.45593999997E+02  0.45594000000E+02  0.51100000000E-03 0.  1.
    9900012    2    1    2    0    0 -0.93713468362E+01 -0.16199632374E+02 -0.65541503142E+00  0.72461553475E+02  0.69999978090E+02 0.  0.
         12    1    1    2    0    0  0.93713468362E+01  0.16199632374E+02  0.65541503142E+00  0.18726446525E+02  0.00000000000E+00 0. -1.
         11    1    3    3    0    0 -0.25390045246E+01  0.94093080122E+01  0.21807570429E+02  0.23886225100E+02  0.51100000000E-03 0. -1.
        -11    1    3    3    0    0 -0.73413179774E+00  0.82938693562E+01 -0.22056166989E+01  0.86134757025E+01  0.51100000000E-03 0.  1.
        -12    1    3    3    0    0 -0.60982105138E+01 -0.33902809742E+02 -0.20257368762E+02  0.39961852673E+02  0.00000000000E+00 0.  1.
</event>
<event>
 7    1  0.2684545E-013  0.7246153E+02  0.7816164E-02  0.1226708E+00
        -11   -1    0    0    0    0  0.00000000000E+00  0.00000000000E+00  0.45593999997E+02  0.45594000000E+02  0.51100000000E-03 0.  1.
         11   -1    0    0    0    0 -0.00000000000E+00 -0.00000000000E+00 -0.45593999997E+02  0.45594000000E+02  0.51100000000E-03 0. -1.
    9900012    2    1    2    0    0  0.10408286602E+01 -0.18657461668E+02  0.12232795355E+01  0.72461531752E+02  0.69999949792E+02 0.  0.
         12    1    1    2    0    0 -0.10408286602E+01  0.18657461668E+02 -0.12232795355E+01  0.18726468248E+02  0.00000000000E+00 0. -1.
         11    1    3    3    0    0  0.77026417547E+01 -0.12363443934E+02 -0.20053972060E+02  0.24786028959E+02  0.51100000000E-03 0. -1.
        -11    1    3    3    0    0  0.14246835018E+02 -0.12824153164E+02  0.35459579084E+01  0.19493717710E+02  0.51100000000E-03 0.  1.
        -12    1    3    3    0    0 -0.20908648113E+02  0.65301354301E+01  0.17731293687E+02  0.28181785083E+02  0.00000000000E+00 0.  1.
</event>
<event>
 7    1  0.2684545E-013  0.7246162E+02  0.7816164E-02  0.1226708E+00
        -11   -1    0    0    0    0  0.00000000000E+00  0.00000000000E+00  0.45593999997E+02  0.45594000000E+02  0.51100000000E-03 0. -1.
         11   -1    0    0    0    0 -0.00000000000E+00 -0.00000000000E+00 -0.45593999997E+02  0.45594000000E+02  0.51100000000E-03 0.  1.
    9900012    2    1    2    0    0 -0.67878674623E+01  0.11047960518E+02 -0.13510904970E+02  0.72461624766E+02  0.70000070960E+02 0.  0.
         12    1    1    2    0    0  0.67878674623E+01 -0.11047960518E+02  0.13510904970E+02  0.18726375234E+02  0.00000000000E+00 0. -1.
         11    1    3    3    0    0 -0.28540538392E+02 -0.21369181728E+01 -0.75257985723E+01  0.29593350526E+02  0.51100000000E-03 0. -1.
        -11    1    3    3    0    0 -0.51536418158E+01  0.14336131331E+02 -0.45493580009E+01  0.15899098842E+02  0.51100000000E-03 0.  1.
        -12    1    3    3    0    0  0.26906312745E+02 -0.11512526405E+01 -0.14357483970E+01  0.26969175398E+02  0.00000000000E+00 0.  1.
</event>
<event>
 7    1  0.2684545E-013  0.7246155E+02  0.7816164E-02  0.1226708E+00
        -11   -1    0    0    0    0  0.00000000000E+00  0.00000000000E+00  0.45593999997E+02  0.45594000000E+02  0.51100000000E-03 0.  1.
         11   -1    0    0    0    0 -0.00000000000E+00 -0.00000000000E+00 -0.45593999997E+02  0.45594000000E+02  0.51100000000E-03 0. -1.
    9900012    2    1    2    0    0 -0.26647329620E+01  0.15791040053E+02 -0.97068077495E+01  0.72461551741E+02  0.69999975831E+02 0.  0.
         12    1    1    2    0    0  0.26647329620E+01 -0.15791040053E+02  0.97068077495E+01  0.18726448259E+02  0.00000000000E+00 0. -1.
         11    1    3    3    0    0  0.89764220954E+01  0.14304844615E+02 -0.18241327654E+02  0.24858615567E+02  0.51100000000E-03 0. -1.
        -11    1    3    3    0    0 -0.19846495745E+01 -0.60876850734E+01 -0.17600985914E+02  0.18729480743E+02  0.51100000000E-03 0.  1.
        -12    1    3    3    0    0 -0.96565054829E+01  0.75738805116E+01  0.26135505819E+02  0.28873455431E+02  0.00000000000E+00 0.  1.
</event>
<event>
 7    1  0.2684545E-013  0.7246159E+02  0.7816164E-02  0.1226708E+00
        -11   -1    0    0    0    0  0.00000000000E+00  0.00000000000E+00  0.45593999997E+02  0.45594000000E+02  0.51100000000E-03 0. -1.
         11   -1    0    0    0    0 -0.00000000000E+00 -0.00000000000E+00 -0.45593999997E+02  0.45594000000E+02  0.51100000000E-03 0.  1.
    9900012    2    1    2    0    0 -0.64122362514E+01  0.43821505179E+01 -0.17039906313E+02  0.72461590198E+02  0.70000025928E+02 0.  0.
         12    1    1    2    0    0  0.64122362514E+01 -0.43821505179E+01  0.17039906313E+02  0.18726409802E+02  0.00000000000E+00 0. -1.
         11    1    3    3    0    0  0.29416704923E+01  0.15011386112E+02  0.40157987753E+01  0.15815238802E+02  0.51100000000E-03 0. -1.
        -11    1    3    3    0    0  0.11103464052E+02  0.84987814402E+01 -0.24720174202E+02  0.28400760778E+02  0.51100000000E-03 0.  1.
         12    1    3    3    0    0 -0.20457370795E+02 -0.19128017034E+02  0.36644691134E+01  0.28245590619E+02  0.00000000000E+00 0. -1.
</event>
<event>
 7    1  0.2684545E-013  0.7246157E+02  0.7816164E-02  0.1226708E+00
        -11   -1    0    0    0    0  0.00000000000E+00  0.00000000000E+00  0.45593999997E+02  0.45594000000E+02  0.51100000000E-03 0.  1.
         11   -1    0    0    0    0 -0.00000000000E+00 -0.00000000000E+00 -0.45593999997E+02  0.45594000000E+02  0.51100000000E-03 0. -1.
    9900012    2    1    2    0    0  0.14711229198E+02 -0.11219241490E+01  0.11532566408E+02  0.72461573051E+02  0.70000003591E+02 0.  0.
         12    1    1    2    0    0 -0.14711229198E+02  0.11219241490E+01 -0.11532566408E+02  0.18726426949E+02  0.00000000000E+00 0. -1.
         11    1    3    3    0    0  0.43805220262E+01  0.15142694023E+02 -0.66785935018E+00  0.15777711870E+02  0.51100000000E-03 0. -1.
        -11    1    3    3    0    0 -0.11252713034E+02  0.21082482957E+01 -0.14000011695E+02  0.18085037717E+02  0.51100000000E-03 0.  1.
        -12    1    3    3    0    0  0.21583420205E+02 -0.18372866468E+02  0.26200437454E+02  0.38598823464E+02  0.00000000000E+00 0.  1.
</event>
<event>
 7    1  0.2684545E-013  0.7246159E+02  0.7816164E-02  0.1226708E+00
        -11   -1    0    0    0    0  0.00000000000E+00  0.00000000000E+00  0.45593999997E+02  0.45594000000E+02  0.51100000000E-03 0.  1.
         11   -1    0    0    0    0 -0.00000000000E+00 -0.00000000000E+00 -0.45593999997E+02  0.45594000000E+02  0.51100000000E-03 0. -1.
    9900012    2    1    2    0    0 -0.41119574703E+01 -0.17988530806E+02 -0.31910945492E+01  0.72461587657E+02  0.70000022618E+02 0.  0.
         12    1    1    2    0    0  0.41119574703E+01  0.17988530806E+02  0.31910945492E+01  0.18726412343E+02  0.00000000000E+00 0. -1.
         11    1    3    3    0    0  0.88363530610E+01  0.89465009268E+01 -0.51827299865E+01  0.13600797941E+02  0.51100000000E-03 0. -1.
        -11    1    3    3    0    0 -0.48384069907E+01 -0.12536992042E+02 -0.24322624702E+02  0.27788062623E+02  0.51100000000E-03 0.  1.
        -12    1    3    3    0    0 -0.81099035405E+01 -0.14398039691E+02  0.26314260139E+02  0.31072727094E+02  0.00000000000E+00 0.  1.
</event>
<event>
 7    1  0.2684545E-013  0.7246153E+02  0.7816164E-02  0.1226708E+00
        -11   -1    0    0    0    0  0.00000000000E+00  0.00000000000E+00  0.45593999997E+02  0.45594000000E+02  0.51100000000E-03 0.  1.
         11   -1    0    0    0    0 -0.00000000000E+00 -0.00000000000E+00 -0.45593999997E+02  0.45594000000E+02  0.51100000000E-03 0. -1.
    9900012    2    1    2    0    0 -0.16818985681E+02  0.48869261498E+01 -0.66272511410E+01  0.72461527182E+02  0.69999943838E+02 0.  0.
         12    1    1    2    0    0  0.16818985681E+02 -0.48869261498E+01  0.66272511410E+01  0.18726472818E+02  0.00000000000E+00 0. -1.
         11    1    3    3    0    0  0.10703713022E+02  0.50880930700E+01  0.61659859384E+00  0.11867533763E+02  0.51100000000E-03 0. -1.
        -11    1    3    3    0    0  0.11513558541E+02  0.61777767184E+01 -0.15412031755E+02  0.20205387364E+02  0.51100000000E-03 0.  1.
         12    1    3    3    0    0 -0.39036257243E+02 -0.63789436386E+01  0.81681820197E+01  0.40388606054E+02  0.00000000000E+00 0. -1.
</event>
<event>
 7    1  0.2684545E-013  0.7246155E+02  0.7816164E-02  0.1226708E+00
        -11   -1    0    0    0    0  0.00000000000E+00  0.00000000000E+00  0.45593999997E+02  0.45594000000E+02  0.51100000000E-03 0. -1.
         11   -1    0    0    0    0 -0.00000000000E+00 -0.00000000000E+00 -0.45593999997E+02  0.45594000000E+02  0.51100000000E-03 0.  1.
    9900012    2    1    2    0    0 -0.14647429827E+02  0.15906949099E+01 -0.11558648915E+02  0.72461551442E+02  0.69999975442E+02 0.  0.
         12    1    1    2    0    0  0.14647429827E+02 -0.15906949099E+01  0.11558648915E+02  0.18726448558E+02  0.00000000000E+00 0. -1.
         11    1    3    3    0    0 -0.35051185312E+01 -0.16141929086E+02 -0.13974641783E+02  0.21636504887E+02  0.51100000000E-03 0. -1.
        -11    1    3    3    0    0 -0.35607299979E+01 -0.47147862898E+01 -0.18375992155E+02  0.19302463465E+02  0.51100000000E-03 0.  1.
         12    1    3    3    0    0 -0.75815812983E+01  0.22447410285E+02  0.20791985023E+02  0.31522583090E+02  0.00000000000E+00 0. -1.
</event>
<event>
 7    1  0.2684545E-013  0.7246160E+02  0.7816164E-02  0.1226708E+00
        -11   -1    0    0    0    0  0.00000000000E+00  0.00000000000E+00  0.45593999997E+02  0.45594000000E+02  0.51100000000E-03 0.  1.
         11   -1    0    0    0    0 -0.00000000000E+00 -0.00000000000E+00 -0.45593999997E+02  0.45594000000E+02  0.51100000000E-03 0. -1.
    9900012    2    1    2    0    0  0.10480729255E+02 -0.15428027485E+02 -0.16757563584E+01  0.72461604801E+02  0.70000044951E+02 0.  0.
         12    1    1    2    0    0 -0.10480729255E+02  0.15428027485E+02  0.16757563584E+01  0.18726395199E+02  0.00000000000E+00 0. -1.
         11    1    3    3    0    0  0.23417247888E+00 -0.93998497807E+01  0.61073721181E+01  0.11212136598E+02  0.51100000000E-03 0. -1.
        -11    1    3    3    0    0  0.31884144461E+02 -0.75271496984E+01  0.88287515048E+01  0.33929389974E+02  0.51100000000E-03 0.  1.
         12    1    3    3    0    0 -0.21637587685E+02  0.14989719943E+01 -0.16611879981E+02  0.27320078228E+02  0.00000000000E+00 0. -1.
</event>
<event>
 7    1  0.2684545E-013  0.7246174E+02  0.7816164E-02  0.1226708E+00
        -11   -1    0    0    0    0  0.00000000000E+00  0.00000000000E+00  0.45593999997E+02  0.45594000000E+02  0.51100000000E-03 0.  1.
         11   -1    0    0    0    0 -0.00000000000E+00 -0.00000000000E+00 -0.45593999997E+02  0.45594000000E+02  0.51100000000E-03 0. -1.
    9900012    2    1    2    0    0  0.15555809221E+02  0.10245186600E+02 -0.19302661923E+01  0.72461735649E+02  0.70000215405E+02 0.  0.
         12    1    1    2    0    0 -0.15555809221E+02 -0.10245186600E+02  0.19302661923E+01  0.18726264351E+02  0.00000000000E+00 0. -1.
         11    1    3    3    0    0  0.81593140480E+01  0.67149262171E+01 -0.19989456549E+02  0.22610683608E+02  0.51100000000E-03 0. -1.
        -11    1    3    3    0    0  0.24667577644E+02  0.10996365383E+02  0.65362812154E+01  0.27787270662E+02  0.51100000000E-03 0.  1.
         12    1    3    3    0    0 -0.17271082472E+02 -0.74661050006E+01  0.11522909142E+02  0.22063781378E+02  0.00000000000E+00 0. -1.
</event>
<event>
 7    1  0.2684545E-013  0.7246131E+02  0.7816164E-02  0.1226709E+00
        -11   -1    0    0    0    0  0.00000000000E+00  0.00000000000E+00  0.45593999997E+02  0.45594000000E+02  0.51100000000E-03 0. -1.
         11   -1    0    0    0    0 -0.00000000000E+00 -0.00000000000E+00 -0.45593999997E+02  0.45594000000E+02  0.51100000000E-03 0.  1.
    9900012    2    1    2    0    0 -0.18635138979E+02  0.93473308665E+00  0.15958176909E+01  0.72461314100E+02  0.69999666258E+02 0.  0.
         12    1    1    2    0    0  0.18635138979E+02 -0.93473308665E+00 -0.15958176909E+01  0.18726685900E+02  0.00000000000E+00 0. -1.
         11    1    3    3    0    0 -0.15907683439E+02 -0.36983304084E+01 -0.55005759262E+01  0.17233350689E+02  0.51100000000E-03 0. -1.
        -11    1    3    3    0    0  0.36650689697E+01 -0.19652508878E+02 -0.12321570650E+02  0.23483503557E+02  0.51100000000E-03 0.  1.
        -12    1    3    3    0    0 -0.63925245101E+01  0.24285572373E+02  0.19417964267E+02  0.31744459854E+02  0.00000000000E+00 0.  1.
</event>
<event>
 7    1  0.2684545E-013  0.7246158E+02  0.7816164E-02  0.1226708E+00
        -11   -1    0    0    0    0  0.00000000000E+00  0.00000000000E+00  0.45593999997E+02  0.45594000000E+02  0.51100000000E-03 0. -1.
         11   -1    0    0    0    0 -0.00000000000E+00 -0.00000000000E+00 -0.45593999997E+02  0.45594000000E+02  0.51100000000E-03 0.  1.
    9900012    2    1    2    0    0 -0.11792818578E+02  0.73814306240E+01  0.12534859548E+02  0.72461580375E+02  0.70000013132E+02 0.  0.
         12    1    1    2    0    0  0.11792818578E+02 -0.73814306240E+01 -0.12534859548E+02  0.18726419625E+02  0.00000000000E+00 0. -1.
         11    1    3    3    0    0  0.43283585015E+01  0.42114655077E+01  0.84908942102E+01  0.10419520804E+02  0.51100000000E-03 0. -1.
        -11    1    3    3    0    0  0.80477912733E+01  0.24251676669E+02 -0.94552542769E+01  0.27245414281E+02  0.51100000000E-03 0.  1.
         12    1    3    3    0    0 -0.24168968353E+02 -0.21081711553E+02  0.13499219614E+02  0.34796645290E+02  0.00000000000E+00 0. -1.
</event>
<event>
 7    1  0.2684545E-013  0.7246158E+02  0.7816164E-02  0.1226708E+00
        -11   -1    0    0    0    0  0.00000000000E+00  0.00000000000E+00  0.45593999997E+02  0.45594000000E+02  0.51100000000E-03 0. -1.
         11   -1    0    0    0    0 -0.00000000000E+00 -0.00000000000E+00 -0.45593999997E+02  0.45594000000E+02  0.51100000000E-03 0.  1.
    9900012    2    1    2    0    0  0.39231760736E+01  0.16060291387E+02 -0.87951407436E+01  0.72461580945E+02  0.70000013874E+02 0.  0.
         12    1    1    2    0    0 -0.39231760736E+01 -0.16060291387E+02  0.87951407436E+01  0.18726419055E+02  0.00000000000E+00 0. -1.
         11    1    3    3    0    0 -0.20498561590E+01  0.12053760537E+02 -0.17074932466E+01  0.12345468270E+02  0.51100000000E-03 0. -1.
        -11    1    3    3    0    0  0.20561195894E+02  0.25789478309E+02 -0.94637558004E-01  0.32982858041E+02  0.51100000000E-03 0.  1.
         12    1    3    3    0    0 -0.14588163662E+02 -0.21782947459E+02 -0.69930099389E+01  0.27133254634E+02  0.00000000000E+00 0. -1.
</event>
<event>
 7    1  0.2684545E-013  0.7246157E+02  0.7816164E-02  0.1226708E+00
        -11   -1    0    0    0    0  0.00000000000E+00  0.00000000000E+00  0.45593999997E+02  0.45594000000E+02  0.51100000000E-03 0.  1.
         11   -1    0    0    0    0 -0.00000000000E+00 -0.00000000000E+00 -0.45593999997E+02  0.45594000000E+02  0.51100000000E-03 0. -1.
    9900012    2    1    2    0    0  0.51306926444E+01 -0.17315264953E+02  0.49534457140E+01  0.72461573971E+02  0.70000004789E+02 0.  0.
         12    1    1    2    0    0 -0.51306926444E+01  0.17315264953E+02 -0.49534457140E+01  0.18726426029E+02  0.00000000000E+00 0. -1.
         11    1    3    3    0    0  0.12105758212E+02 -0.17125787980E+02 -0.13974698293E+02  0.25201868749E+02  0.51100000000E-03 0. -1.
        -11    1    3    3    0    0 -0.84409075421E+01 -0.14356969637E+02 -0.66903460559E+01  0.17948042453E+02  0.51100000000E-03 0.  1.
        -12    1    3    3    0    0  0.14658419749E+01  0.14167492665E+02  0.25618490063E+02  0.29311662768E+02  0.00000000000E+00 0.  1.
</event>
<event>
 7    1  0.2684545E-013  0.7246157E+02  0.7816164E-02  0.1226708E+00
        -11   -1    0    0    0    0  0.00000000000E+00  0.00000000000E+00  0.45593999997E+02  0.45594000000E+02  0.51100000000E-03 0.  1.
         11   -1    0    0    0    0 -0.00000000000E+00 -0.00000000000E+00 -0.45593999997E+02  0.45594000000E+02  0.51100000000E-03 0. -1.
    9900012    2    1    2    0    0  0.12855165524E+02  0.11404984369E+02 -0.74397785720E+01  0.72461568030E+02  0.69999997051E+02 0.  0.
         12    1    1    2    0    0 -0.12855165524E+02 -0.11404984369E+02  0.74397785720E+01  0.18726431970E+02  0.00000000000E+00 0. -1.
         11    1    3    3    0    0 -0.66671376653E+01  0.47750324757E+01 -0.52246716692E+01  0.97236235069E+01  0.51100000000E-03 0. -1.
        -11    1    3    3    0    0 -0.21347948320E+02  0.37643800268E+01  0.43584961114E+00  0.21681683966E+02  0.51100000000E-03 0.  1.
         12    1    3    3    0    0  0.40870251509E+02  0.28655718662E+01 -0.26509565140E+01  0.41056260558E+02  0.00000000000E+00 0. -1.
</event>
<event>
 7    1  0.2684545E-013  0.7246154E+02  0.7816164E-02  0.1226708E+00
        -11   -1    0    0    0    0  0.00000000000E+00  0.00000000000E+00  0.45593999997E+02  0.45594000000E+02  0.51100000000E-03 0.  1.
         11   -1    0    0    0    0 -0.00000000000E+00 -0.00000000000E+00 -0.45593999997E+02  0.45594000000E+02  0.51100000000E-03 0. -1.
    9900012    2    1    2    0    0 -0.18689341691E+02 -0.63290008546E+00 -0.99402890800E+00  0.72461544146E+02  0.69999965938E+02 0.  0.
         12    1    1    2    0    0  0.18689341691E+02  0.63290008546E+00  0.99402890800E+00  0.18726455854E+02  0.00000000000E+00 0. -1.
         11    1    3    3    0    0 -0.17470528173E+02 -0.17244680872E+02  0.26548273393E+02  0.36158113798E+02  0.51100000000E-03 0. -1.
        -11    1    3    3    0    0  0.34146802991E+01 -0.21248624495E+01 -0.26986415450E+01  0.48433199795E+01  0.51100000000E-03 0.  1.
        -12    1    3    3    0    0 -0.46334938167E+01  0.18736643236E+02 -0.24843660756E+02  0.31460110369E+02  0.00000000000E+00 0.  1.
</event>
<event>
 7    1  0.2684545E-013  0.7246154E+02  0.7816164E-02  0.1226708E+00
        -11   -1    0    0    0    0  0.00000000000E+00  0.00000000000E+00  0.45593999997E+02  0.45594000000E+02  0.51100000000E-03 0. -1.
         11   -1    0    0    0    0 -0.00000000000E+00 -0.00000000000E+00 -0.45593999997E+02  0.45594000000E+02  0.51100000000E-03 0.  1.
    9900012    2    1    2    0    0  0.10276015385E+02 -0.15553416804E+02 -0.17818114923E+01  0.72461544952E+02  0.69999966987E+02 0.  0.
         12    1    1    2    0    0 -0.10276015385E+02  0.15553416804E+02  0.17818114923E+01  0.18726455048E+02  0.00000000000E+00 0. -1.
         11    1    3    3    0    0 -0.20535833685E+02 -0.22673582520E+01  0.11553346295E+02  0.23671526978E+02  0.51100000000E-03 0. -1.
        -11    1    3    3    0    0 -0.75265543641E+00 -0.11287095461E+01  0.84490742063E+01  0.85572969243E+01  0.51100000000E-03 0.  1.
        -12    1    3    3    0    0  0.31564504506E+02 -0.12157349006E+02 -0.21784231993E+02  0.40232721050E+02  0.00000000000E+00 0.  1.
</event>
<event>
 7    1  0.2684545E-013  0.7246157E+02  0.7816164E-02  0.1226708E+00
        -11   -1    0    0    0    0  0.00000000000E+00  0.00000000000E+00  0.45593999997E+02  0.45594000000E+02  0.51100000000E-03 0. -1.
         11   -1    0    0    0    0 -0.00000000000E+00 -0.00000000000E+00 -0.45593999997E+02  0.45594000000E+02  0.51100000000E-03 0.  1.
    9900012    2    1    2    0    0  0.93879923635E+01 -0.15870045800E+02  0.32689946233E+01  0.72461572680E+02  0.70000003108E+02 0.  0.
         12    1    1    2    0    0 -0.93879923635E+01  0.15870045800E+02 -0.32689946233E+01  0.18726427320E+02  0.00000000000E+00 0. -1.
         11    1    3    3    0    0  0.16092492750E+02 -0.28317446513E+02 -0.13939405084E+02  0.35428140147E+02  0.51100000000E-03 0. -1.
        -11    1    3    3    0    0 -0.18956543399E+01 -0.85970622569E+01  0.11901685950E+02  0.14803820910E+02  0.51100000000E-03 0.  1.
        -12    1    3    3    0    0 -0.48088460468E+01  0.21044462970E+02  0.53067137571E+01  0.22229611623E+02  0.00000000000E+00 0.  1.
</event>
<event>
 7    1  0.2684545E-013  0.7246155E+02  0.7816164E-02  0.1226708E+00
        -11   -1    0    0    0    0  0.00000000000E+00  0.00000000000E+00  0.45593999997E+02  0.45594000000E+02  0.51100000000E-03 0.  1.
         11   -1    0    0    0    0 -0.00000000000E+00 -0.00000000000E+00 -0.45593999997E+02  0.45594000000E+02  0.51100000000E-03 0. -1.
    9900012    2    1    2    0    0  0.16734295011E+02 -0.83101458985E+01  0.12589332995E+01  0.72461546320E+02  0.69999968769E+02 0.  0.
         12    1    1    2    0    0 -0.16734295011E+02  0.83101458985E+01 -0.12589332995E+01  0.18726453680E+02  0.00000000000E+00 0. -1.
         11    1    3    3    0    0  0.34083752120E+02  0.14394764137E+02  0.39729886984E+01  0.37211504035E+02  0.51100000000E-03 0. -1.
        -11    1    3    3    0    0  0.42165640918E+01 -0.16676199053E+01  0.16146235170E+01  0.48132502794E+01  0.51100000000E-03 0.  1.
        -12    1    3    3    0    0 -0.21566021201E+02 -0.21037290130E+02 -0.43286789158E+01  0.30436792006E+02  0.00000000000E+00 0.  1.
</event>
<event>
 7    1  0.2684545E-013  0.7246173E+02  0.7816164E-02  0.1226708E+00
        -11   -1    0    0    0    0  0.00000000000E+00  0.00000000000E+00  0.45593999997E+02  0.45594000000E+02  0.51100000000E-03 0.  1.
         11   -1    0    0    0    0 -0.00000000000E+00 -0.00000000000E+00 -0.45593999997E+02  0.45594000000E+02  0.51100000000E-03 0. -1.
    9900012    2    1    2    0    0  0.10256410213E+02 -0.25056281283E+01  0.15466129490E+02  0.72461727436E+02  0.70000204705E+02 0.  0.
         12    1    1    2    0    0 -0.10256410213E+02  0.25056281283E+01 -0.15466129490E+02  0.18726272564E+02  0.00000000000E+00 0. -1.
         11    1    3    3    0    0 -0.14002493114E+02  0.15861896955E+02 -0.56626406575E+01  0.21902855702E+02  0.51100000000E-03 0. -1.
        -11    1    3    3    0    0  0.17152889907E+02  0.48847992964E+01  0.19143530524E+02  0.26164052773E+02  0.51100000000E-03 0.  1.
        -12    1    3    3    0    0  0.71060134190E+01 -0.23252324380E+02  0.19852396232E+01  0.24394818961E+02  0.00000000000E+00 0.  1.
</event>
<event>
 7    1  0.2684545E-013  0.7246158E+02  0.7816164E-02  0.1226708E+00
        -11   -1    0    0    0    0  0.00000000000E+00  0.00000000000E+00  0.45593999997E+02  0.45594000000E+02  0.51100000000E-03 0. -1.
         11   -1    0    0    0    0 -0.00000000000E+00 -0.00000000000E+00 -0.45593999997E+02  0.45594000000E+02  0.51100000000E-03 0.  1.
    9900012    2    1    2    0    0 -0.10680624527E+02  0.58443953032E+01 -0.14228353460E+02  0.72461581791E+02  0.70000014976E+02 0.  0.
         12    1    1    2    0    0  0.10680624527E+02 -0.58443953032E+01  0.14228353460E+02  0.18726418209E+02  0.00000000000E+00 0. -1.
         11    1    3    3    0    0  0.12777025447E+02  0.14703047835E+02 -0.25780514072E+02  0.32312024093E+02  0.51100000000E-03 0. -1.
        -11    1    3    3    0    0 -0.78562703001E+01  0.48366798931E+00 -0.94959420294E+01  0.12334011231E+02  0.51100000000E-03 0.  1.
        -12    1    3    3    0    0 -0.15601379674E+02 -0.93423205213E+01  0.21048102641E+02  0.27815546467E+02  0.00000000000E+00 0.  1.
</event>
<event>
 7    1  0.2684545E-013  0.7246133E+02  0.7816164E-02  0.1226709E+00
        -11   -1    0    0    0    0  0.00000000000E+00  0.00000000000E+00  0.45593999997E+02  0.45594000000E+02  0.51100000000E-03 0.  1.
         11   -1    0    0    0    0 -0.00000000000E+00 -0.00000000000E+00 -0.45593999997E+02  0.45594000000E+02  0.51100000000E-03 0. -1.
    9900012    2    1    2    0    0  0.67127561819E+01  0.16664640847E+02  0.52836397969E+01  0.72461329190E+02  0.69999685916E+02 0.  0.
         12    1    1    2    0    0 -0.67127561819E+01 -0.16664640847E+02 -0.52836397969E+01  0.18726670810E+02  0.00000000000E+00 0. -1.
         11    1    3    3    0    0 -0.24742730691E+02  0.12876714147E+02 -0.71509687489E+00  0.27902040303E+02  0.51100000000E-03 0. -1.
        -11    1    3    3    0    0  0.19785985110E+02  0.16191256623E+02  0.93130043142E+01  0.27209815277E+02  0.51100000000E-03 0.  1.
        -12    1    3    3    0    0  0.11669501763E+02 -0.12403329922E+02 -0.33142676423E+01  0.17349473610E+02  0.00000000000E+00 0.  1.
</event>
<event>
 7    1  0.2684545E-013  0.7246156E+02  0.7816164E-02  0.1226708E+00
        -11   -1    0    0    0    0  0.00000000000E+00  0.00000000000E+00  0.45593999997E+02  0.45594000000E+02  0.51100000000E-03 0.  1.
         11   -1    0    0    0    0 -0.00000000000E+00 -0.00000000000E+00 -0.45593999997E+02  0.45594000000E+02  0.51100000000E-03 0. -1.
    9900012    2    1    2    0    0 -0.12597961107E+02 -0.40190486837E+00  0.13849522082E+02  0.72461563780E+02  0.69999991514E+02 0.  0.
         12    1    1    2    0    0  0.12597961107E+02  0.40190486837E+00 -0.13849522082E+02  0.18726436220E+02  0.00000000000E+00 0. -1.
         11    1    3    3    0    0 -0.17522782159E+02 -0.66921313245E+01  0.12177574699E+02  0.22363493512E+02  0.51100000000E-03 0.  1.
        -11    1    3    3    0    0  0.60798025327E+01  0.14606868338E+02  0.22577517403E+02  0.27569346997E+02  0.51100000000E-03 0. -1.
         12    1    3    3    0    0 -0.11549814812E+01 -0.83166418818E+01 -0.20905570020E+02  0.22528723272E+02  0.00000000000E+00 0. -1.
</event>
<event>
 7    1  0.2684545E-013  0.7246162E+02  0.7816164E-02  0.1226708E+00
        -11   -1    0    0    0    0  0.00000000000E+00  0.00000000000E+00  0.45593999997E+02  0.45594000000E+02  0.51100000000E-03 0.  1.
         11   -1    0    0    0    0 -0.00000000000E+00 -0.00000000000E+00 -0.45593999997E+02  0.45594000000E+02  0.51100000000E-03 0. -1.
    9900012    2    1    2    0    0  0.36708359435E+01  0.67878932143E+01  0.17062441092E+02  0.72461616825E+02  0.70000060615E+02 0.  0.
         12    1    1    2    0    0 -0.36708359435E+01 -0.67878932143E+01 -0.17062441092E+02  0.18726383175E+02  0.00000000000E+00 0. -1.
         11    1    3    3    0    0  0.18299833767E+02  0.64267155848E+01 -0.89298999977E+01  0.21352510469E+02  0.51100000000E-03 0. -1.
        -11    1    3    3    0    0  0.97473598093E+01  0.46790081014E+01 -0.46042595586E+01  0.11751738017E+02  0.51100000000E-03 0.  1.
        -12    1    3    3    0    0 -0.24376357632E+02 -0.43178304719E+01  0.30596600648E+02  0.39357368340E+02  0.00000000000E+00 0.  1.
</event>
<event>
 7    1  0.2684545E-013  0.7246157E+02  0.7816164E-02  0.1226708E+00
        -11   -1    0    0    0    0  0.00000000000E+00  0.00000000000E+00  0.45593999997E+02  0.45594000000E+02  0.51100000000E-03 0. -1.
         11   -1    0    0    0    0 -0.00000000000E+00 -0.00000000000E+00 -0.45593999997E+02  0.45594000000E+02  0.51100000000E-03 0.  1.
    9900012    2    1    2    0    0 -0.21869556924E+01  0.10982783613E+02 -0.15009164819E+02  0.72461565752E+02  0.69999994082E+02 0.  0.
         12    1    1    2    0    0  0.21869556924E+01 -0.10982783613E+02  0.15009164819E+02  0.18726434248E+02  0.00000000000E+00 0. -1.
         11    1    3    3    0    0 -0.50278574442E+01 -0.26858490384E+01  0.12965444658E+02  0.14163187882E+02  0.51100000000E-03 0. -1.
        -11    1    3    3    0    0 -0.22092799761E+02  0.73944154590E+01 -0.21688294626E+02  0.31830037783E+02  0.51100000000E-03 0.  1.
         12    1    3    3    0    0  0.24933701513E+02  0.62742171923E+01 -0.62863148514E+01  0.26468340086E+02  0.00000000000E+00 0. -1.
</event>
<event>
 7    1  0.2749511E-013  0.7246154E+02  0.7816164E-02  0.1226708E+00
        -11   -1    0    0    0    0  0.00000000000E+00  0.00000000000E+00  0.45593999997E+02  0.45594000000E+02  0.51100000000E-03 0. -1.
         11   -1    0    0    0    0 -0.00000000000E+00 -0.00000000000E+00 -0.45593999997E+02  0.45594000000E+02  0.51100000000E-03 0.  1.
    9900012    2    1    2    0    0  0.87708286494E+01 -0.98266641310E+01 -0.13311251503E+02  0.72461543322E+02  0.69999964863E+02 0.  0.
         12    1    1    2    0    0 -0.87708286494E+01  0.98266641310E+01  0.13311251503E+02  0.18726456678E+02  0.00000000000E+00 0. -1.
         11    1    3    3    0    0 -0.81958476500E+01  0.11765386709E-01  0.63239387165E+01  0.10352017112E+02  0.51100000000E-03 0. -1.
        -11    1    3    3    0    0 -0.16545206935E+02  0.44729196711E+01 -0.19104560250E+02  0.25665835375E+02  0.51100000000E-03 0.  1.
         12    1    3    3    0    0  0.33511883234E+02 -0.14311349189E+02 -0.53062996999E+00  0.36443690835E+02  0.00000000000E+00 0. -1.
</event>
<event>
 7    1  0.2684545E-013  0.7246157E+02  0.7816164E-02  0.1226708E+00
        -11   -1    0    0    0    0  0.00000000000E+00  0.00000000000E+00  0.45593999997E+02  0.45594000000E+02  0.51100000000E-03 0.  1.
         11   -1    0    0    0    0 -0.00000000000E+00 -0.00000000000E+00 -0.45593999997E+02  0.45594000000E+02  0.51100000000E-03 0. -1.
    9900012    2    1    2    0    0 -0.38468343862E+01  0.49201811517E+01  0.17654257094E+02  0.72461571860E+02  0.70000002039E+02 0.  0.
         12    1    1    2    0    0  0.38468343862E+01 -0.49201811517E+01 -0.17654257094E+02  0.18726428140E+02  0.00000000000E+00 0. -1.
         11    1    3    3    0    0  0.93229259157E-01  0.30113684859E+01  0.15565827810E+01  0.33911623476E+01  0.51100000000E-03 0. -1.
        -11    1    3    3    0    0  0.14217532682E+02 -0.41149230002E+00  0.37971294362E+02  0.40547832953E+02  0.51100000000E-03 0.  1.
         12    1    3    3    0    0 -0.18157596327E+02  0.23203049658E+01 -0.21873620049E+02  0.28522576559E+02  0.00000000000E+00 0. -1.
</event>
<event>
 7    1  0.2684545E-013  0.7246145E+02  0.7816164E-02  0.1226708E+00
        -11   -1    0    0    0    0  0.00000000000E+00  0.00000000000E+00  0.45593999997E+02  0.45594000000E+02  0.51100000000E-03 0. -1.
         11   -1    0    0    0    0 -0.00000000000E+00 -0.00000000000E+00 -0.45593999997E+02  0.45594000000E+02  0.51100000000E-03 0.  1.
    9900012    2    1    2    0    0  0.11280522446E+02 -0.42517768380E+01 -0.14330239046E+02  0.72461453494E+02  0.69999847846E+02 0.  0.
         12    1    1    2    0    0 -0.11280522446E+02  0.42517768380E+01  0.14330239046E+02  0.18726546506E+02  0.00000000000E+00 0. -1.
         11    1    3    3    0    0 -0.14652146049E+01  0.73549327224E+01  0.22424136015E+02  0.23644952220E+02  0.51100000000E-03 0. -1.
        -11    1    3    3    0    0 -0.70570577362E+01 -0.77066744290E+01 -0.60563753133E+01  0.12077854811E+02  0.51100000000E-03 0.  1.
        -12    1    3    3    0    0  0.19802794787E+02 -0.39000351315E+01 -0.30697999748E+02  0.36738646463E+02  0.00000000000E+00 0.  1.
</event>
<event>
 7    1  0.2684545E-013  0.7246157E+02  0.7816164E-02  0.1226708E+00
        -11   -1    0    0    0    0  0.00000000000E+00  0.00000000000E+00  0.45593999997E+02  0.45594000000E+02  0.51100000000E-03 0.  1.
         11   -1    0    0    0    0 -0.00000000000E+00 -0.00000000000E+00 -0.45593999997E+02  0.45594000000E+02  0.51100000000E-03 0. -1.
    9900012    2    1    2    0    0  0.90228742471E+01 -0.87268489912E+01  0.13896368406E+02  0.72461569271E+02  0.69999998667E+02 0.  0.
         12    1    1    2    0    0 -0.90228742471E+01  0.87268489912E+01 -0.13896368406E+02  0.18726430729E+02  0.00000000000E+00 0. -1.
         11    1    3    3    0    0 -0.95935116839E+01  0.64045772001E+01 -0.13015205875E+02  0.17391079891E+02  0.51100000000E-03 0. -1.
        -11    1    3    3    0    0  0.58901988806E+01  0.11647706821E+02  0.21170181285E+02  0.24870466280E+02  0.51100000000E-03 0.  1.
        -12    1    3    3    0    0  0.12726187050E+02 -0.26779133013E+02  0.57413929950E+01  0.30200023101E+02  0.00000000000E+00 0.  1.
</event>
<event>
 7    1  0.2684545E-013  0.7246158E+02  0.7816164E-02  0.1226708E+00
        -11   -1    0    0    0    0  0.00000000000E+00  0.00000000000E+00  0.45593999997E+02  0.45594000000E+02  0.51100000000E-03 0.  1.
         11   -1    0    0    0    0 -0.00000000000E+00 -0.00000000000E+00 -0.45593999997E+02  0.45594000000E+02  0.51100000000E-03 0. -1.
    9900012    2    1    2    0    0  0.17282119514E+01 -0.17929577906E+02  0.51207845823E+01  0.72461577085E+02  0.70000008846E+02 0.  0.
         12    1    1    2    0    0 -0.17282119514E+01  0.17929577906E+02 -0.51207845823E+01  0.18726422915E+02  0.00000000000E+00 0. -1.
         11    1    3    3    0    0 -0.44244601749E+01  0.12738802688E+02  0.29243667632E+01  0.13798726861E+02  0.51100000000E-03 0. -1.
        -11    1    3    3    0    0 -0.92587261342E+01  0.77524868354E+01 -0.98122028306E+01  0.15559703931E+02  0.51100000000E-03 0.  1.
        -12    1    3    3    0    0  0.15411398261E+02 -0.38420867430E+02  0.12008620650E+02  0.43103146293E+02  0.00000000000E+00 0.  1.
</event>
<event>
 7    1  0.2684545E-013  0.7246152E+02  0.7816164E-02  0.1226708E+00
        -11   -1    0    0    0    0  0.00000000000E+00  0.00000000000E+00  0.45593999997E+02  0.45594000000E+02  0.51100000000E-03 0.  1.
         11   -1    0    0    0    0 -0.00000000000E+00 -0.00000000000E+00 -0.45593999997E+02  0.45594000000E+02  0.51100000000E-03 0. -1.
    9900012    2    1    2    0    0  0.10389447296E+02  0.13532283604E+02  0.77212512339E+01  0.72461520478E+02  0.69999935105E+02 0.  0.
         12    1    1    2    0    0 -0.10389447296E+02 -0.13532283604E+02 -0.77212512339E+01  0.18726479522E+02  0.00000000000E+00 0. -1.
         11    1    3    3    0    0  0.13236444263E+02 -0.10387243233E+02  0.48678002915E+01  0.17515529071E+02  0.51100000000E-03 0. -1.
        -11    1    3    3    0    0  0.10748482905E+02  0.11620736626E+02  0.22862857998E+02  0.27807942761E+02  0.51100000000E-03 0.  1.
         12    1    3    3    0    0 -0.13595479871E+02  0.12298790211E+02 -0.20009407056E+02  0.27138048646E+02  0.00000000000E+00 0. -1.
</event>
<event>
 7    1  0.2684545E-013  0.7246162E+02  0.7816164E-02  0.1226708E+00
        -11   -1    0    0    0    0  0.00000000000E+00  0.00000000000E+00  0.45593999997E+02  0.45594000000E+02  0.51100000000E-03 0. -1.
         11   -1    0    0    0    0 -0.00000000000E+00 -0.00000000000E+00 -0.45593999997E+02  0.45594000000E+02  0.51100000000E-03 0.  1.
    9900012    2    1    2    0    0  0.58892752259E+01 -0.16230650844E+02 -0.72498017511E+01  0.72461622482E+02  0.70000067984E+02 0.  0.
         12    1    1    2    0    0 -0.58892752259E+01  0.16230650844E+02  0.72498017511E+01  0.18726377518E+02  0.00000000000E+00 0. -1.
         11    1    3    3    0    0  0.26467750809E+02  0.70321121786E+01 -0.69893205732E+01  0.28263811437E+02  0.51100000000E-03 0. -1.
        -11    1    3    3    0    0 -0.18626445637E+01 -0.13694299194E+02 -0.13529283753E+02  0.19340237701E+02  0.51100000000E-03 0.  1.
        -12    1    3    3    0    0 -0.18715831020E+02 -0.95684638290E+01  0.13268802575E+02  0.24857573345E+02  0.00000000000E+00 0.  1.
</event>
<event>
 7    1  0.2684545E-013  0.7246150E+02  0.7816164E-02  0.1226708E+00
        -11   -1    0    0    0    0  0.00000000000E+00  0.00000000000E+00  0.45593999997E+02  0.45594000000E+02  0.51100000000E-03 0.  1.
         11   -1    0    0    0    0 -0.00000000000E+00 -0.00000000000E+00 -0.45593999997E+02  0.45594000000E+02  0.51100000000E-03 0. -1.
    9900012    2    1    2    0    0  0.11056986445E+02  0.23497577049E+00  0.15111906753E+02  0.72461497695E+02  0.69999905426E+02 0.  0.
         12    1    1    2    0    0 -0.11056986445E+02 -0.23497577049E+00 -0.15111906753E+02  0.18726502305E+02  0.00000000000E+00 0. -1.
         11    1    3    3    0    0 -0.79662411827E+01 -0.10251505298E+02  0.92015632010E+01  0.15912986051E+02  0.51100000000E-03 0. -1.
        -11    1    3    3    0    0  0.81796465426E+00  0.23221206367E+02  0.19646192789E+02  0.30428052562E+02  0.51100000000E-03 0.  1.
         12    1    3    3    0    0  0.18205262974E+02 -0.12734725299E+02 -0.13735849237E+02  0.26120459082E+02  0.00000000000E+00 0. -1.
</event>
<event>
 7    1  0.2684545E-013  0.7246157E+02  0.7816164E-02  0.1226708E+00
        -11   -1    0    0    0    0  0.00000000000E+00  0.00000000000E+00  0.45593999997E+02  0.45594000000E+02  0.51100000000E-03 0.  1.
         11   -1    0    0    0    0 -0.00000000000E+00 -0.00000000000E+00 -0.45593999997E+02  0.45594000000E+02  0.51100000000E-03 0. -1.
    9900012    2    1    2    0    0 -0.80120245605E+01  0.13990130085E+02 -0.95269614782E+01  0.72461567548E+02  0.69999996423E+02 0.  0.
         12    1    1    2    0    0  0.80120245605E+01 -0.13990130085E+02  0.95269614782E+01  0.18726432452E+02  0.00000000000E+00 0. -1.
         11    1    3    3    0    0  0.15053439931E+02 -0.10955924998E+01  0.64349941015E+01  0.16407788578E+02  0.51100000000E-03 0. -1.
        -11    1    3    3    0    0 -0.30275248800E+00  0.20941906472E+02  0.80641320180E+01  0.22442934995E+02  0.51100000000E-03 0.  1.
         12    1    3    3    0    0 -0.22762712003E+02 -0.58561838869E+01 -0.24026087598E+02  0.33610843975E+02  0.00000000000E+00 0. -1.
</event>
<event>
 7    1  0.2684545E-013  0.7246148E+02  0.7816164E-02  0.1226708E+00
        -11   -1    0    0    0    0  0.00000000000E+00  0.00000000000E+00  0.45593999997E+02  0.45594000000E+02  0.51100000000E-03 0.  1.
         11   -1    0    0    0    0 -0.00000000000E+00 -0.00000000000E+00 -0.45593999997E+02  0.45594000000E+02  0.51100000000E-03 0. -1.
    9900012    2    1    2    0    0 -0.16724629815E+02 -0.83524140964E+01  0.10984449468E+01  0.72461477499E+02  0.69999879116E+02 0.  0.
         12    1    1    2    0    0  0.16724629815E+02  0.83524140964E+01 -0.10984449468E+01  0.18726522501E+02  0.00000000000E+00 0. -1.
         11    1    3    3    0    0 -0.72582423952E+01 -0.25289990090E+01 -0.80104590313E+01  0.11101593255E+02  0.51100000000E-03 0. -1.
        -11    1    3    3    0    0 -0.21874671196E+02 -0.25909466472E+02 -0.43449698025E+01  0.34185968696E+02  0.51100000000E-03 0.  1.
         12    1    3    3    0    0  0.12408283776E+02  0.20086051385E+02  0.13453873781E+02  0.27173915548E+02  0.00000000000E+00 0. -1.
</event>
<event>
 7    1  0.2684545E-013  0.7246160E+02  0.7816164E-02  0.1226708E+00
        -11   -1    0    0    0    0  0.00000000000E+00  0.00000000000E+00  0.45593999997E+02  0.45594000000E+02  0.51100000000E-03 0.  1.
         11   -1    0    0    0    0 -0.00000000000E+00 -0.00000000000E+00 -0.45593999997E+02  0.45594000000E+02  0.51100000000E-03 0. -1.
    9900012    2    1    2    0    0  0.13098122157E+02  0.64983190465E+01  0.11699962079E+02  0.72461599729E+02  0.70000038344E+02 0.  0.
         12    1    1    2    0    0 -0.13098122157E+02 -0.64983190465E+01 -0.11699962079E+02  0.18726400271E+02  0.00000000000E+00 0. -1.
         11    1    3    3    0    0  0.25156211593E+02  0.18955448411E+02 -0.17867100229E+02  0.36212943501E+02  0.51100000000E-03 0. -1.
        -11    1    3    3    0    0  0.18142600308E+01 -0.90380271942E+00  0.59554040931E+00  0.21125973245E+01  0.51100000000E-03 0.  1.
        -12    1    3    3    0    0 -0.13872349467E+02 -0.11553326645E+02  0.28971521899E+02  0.34136058903E+02  0.00000000000E+00 0.  1.
</event>
<event>
 7    1  0.2684545E-013  0.7246160E+02  0.7816164E-02  0.1226708E+00
        -11   -1    0    0    0    0  0.00000000000E+00  0.00000000000E+00  0.45593999997E+02  0.45594000000E+02  0.51100000000E-03 0.  1.
         11   -1    0    0    0    0 -0.00000000000E+00 -0.00000000000E+00 -0.45593999997E+02  0.45594000000E+02  0.51100000000E-03 0. -1.
    9900012    2    1    2    0    0  0.17972973308E+02 -0.96364828582E+00  0.51692870126E+01  0.72461603770E+02  0.70000043609E+02 0.  0.
         12    1    1    2    0    0 -0.17972973308E+02  0.96364828582E+00 -0.51692870126E+01  0.18726396230E+02  0.00000000000E+00 0. -1.
         11    1    3    3    0    0  0.26086598269E+02  0.20785849178E+02 -0.90297494106E+01  0.34555730494E+02  0.51100000000E-03 0. -1.
        -11    1    3    3    0    0  0.33202326428E+01 -0.11703076675E+02 -0.52158909288E+01  0.13235991346E+02  0.51100000000E-03 0.  1.
        -12    1    3    3    0    0 -0.11433857604E+02 -0.10046420788E+02  0.19414927352E+02  0.24669881930E+02  0.00000000000E+00 0.  1.
</event>
<event>
 7    1  0.2684545E-013  0.7246145E+02  0.7816164E-02  0.1226708E+00
        -11   -1    0    0    0    0  0.00000000000E+00  0.00000000000E+00  0.45593999997E+02  0.45594000000E+02  0.51100000000E-03 0. -1.
         11   -1    0    0    0    0 -0.00000000000E+00 -0.00000000000E+00 -0.45593999997E+02  0.45594000000E+02  0.51100000000E-03 0.  1.
    9900012    2    1    2    0    0 -0.11271177584E+02  0.11330522025E+02 -0.97603116900E+01  0.72461445117E+02  0.69999836933E+02 0.  0.
         12    1    1    2    0    0  0.11271177584E+02 -0.11330522025E+02  0.97603116900E+01  0.18726554883E+02  0.00000000000E+00 0. -1.
         11    1    3    3    0    0  0.57249437036E+01 -0.62895796372E+01 -0.12081639837E+02  0.14774972549E+02  0.51100000000E-03 0. -1.
        -11    1    3    3    0    0 -0.12683292159E+02 -0.27454470177E+01 -0.22080451145E+02  0.25611515034E+02  0.51100000000E-03 0.  1.
         12    1    3    3    0    0 -0.43128291295E+01  0.20365548680E+02  0.24401779292E+02  0.32074957533E+02  0.00000000000E+00 0. -1.
</event>
<event>
 7    1  0.2684545E-013  0.7246155E+02  0.7816164E-02  0.1226708E+00
        -11   -1    0    0    0    0  0.00000000000E+00  0.00000000000E+00  0.45593999997E+02  0.45594000000E+02  0.51100000000E-03 0. -1.
         11   -1    0    0    0    0 -0.00000000000E+00 -0.00000000000E+00 -0.45593999997E+02  0.45594000000E+02  0.51100000000E-03 0.  1.
    9900012    2    1    2    0    0 -0.15416449568E+02  0.48729019590E+01 -0.94481663805E+01  0.72461549756E+02  0.69999973245E+02 0.  0.
         12    1    1    2    0    0  0.15416449568E+02 -0.48729019590E+01  0.94481663805E+01  0.18726450244E+02  0.00000000000E+00 0. -1.
         11    1    3    3    0    0  0.96985204822E+00  0.22843287269E+02  0.11538231992E+02  0.25610294492E+02  0.51100000000E-03 0. -1.
        -11    1    3    3    0    0 -0.75969199345E+01  0.94060133249E+01 -0.11193223974E+02  0.16476484527E+02  0.51100000000E-03 0.  1.
        -12    1    3    3    0    0 -0.87893816816E+01 -0.27376398634E+02 -0.97931743984E+01  0.30374770737E+02  0.00000000000E+00 0.  1.
</event>
<event>
 7    1  0.2684545E-013  0.7246158E+02  0.7816164E-02  0.1226708E+00
        -11   -1    0    0    0    0  0.00000000000E+00  0.00000000000E+00  0.45593999997E+02  0.45594000000E+02  0.51100000000E-03 0. -1.
         11   -1    0    0    0    0 -0.00000000000E+00 -0.00000000000E+00 -0.45593999997E+02  0.45594000000E+02  0.51100000000E-03 0.  1.
    9900012    2    1    2    0    0  0.17243083826E+02  0.16193812915E+01 -0.71226607086E+01  0.72461584668E+02  0.70000018725E+02 0.  0.
         12    1    1    2    0    0 -0.17243083826E+02 -0.16193812915E+01  0.71226607086E+01  0.18726415332E+02  0.00000000000E+00 0. -1.
         11    1    3    3    0    0  0.14687240181E+02  0.50393305752E+01  0.77903491087E+01  0.17372375090E+02  0.51100000000E-03 0. -1.
        -11    1    3    3    0    0 -0.24227833265E+01 -0.51727493465E+01  0.19476590935E+02  0.20296916258E+02  0.51100000000E-03 0.  1.
        -12    1    3    3    0    0  0.49786269713E+01  0.17528000627E+01 -0.34389600753E+02  0.34792293320E+02  0.00000000000E+00 0.  1.
</event>
<event>
 7    1  0.2684545E-013  0.7246157E+02  0.7816164E-02  0.1226708E+00
        -11   -1    0    0    0    0  0.00000000000E+00  0.00000000000E+00  0.45593999997E+02  0.45594000000E+02  0.51100000000E-03 0.  1.
         11   -1    0    0    0    0 -0.00000000000E+00 -0.00000000000E+00 -0.45593999997E+02  0.45594000000E+02  0.51100000000E-03 0. -1.
    9900012    2    1    2    0    0  0.14230499798E+02 -0.75084604719E+01 -0.95809684402E+01  0.72461573235E+02  0.70000003830E+02 0.  0.
         12    1    1    2    0    0 -0.14230499798E+02  0.75084604719E+01  0.95809684402E+01  0.18726426765E+02  0.00000000000E+00 0. -1.
         11    1    3    3    0    0 -0.10096302285E+02 -0.65425881321E+01 -0.22719991360E+02  0.25708729781E+02  0.51100000000E-03 0. -1.
        -11    1    3    3    0    0  0.12043955893E+02 -0.17862574874E+02 -0.93621432672E+00  0.21563973479E+02  0.51100000000E-03 0.  1.
        -12    1    3    3    0    0  0.12282846190E+02  0.16896702534E+02  0.14075237247E+02  0.25188869974E+02  0.00000000000E+00 0.  1.
</event>
<event>
 7    1  0.2684545E-013  0.7246154E+02  0.7816164E-02  0.1226708E+00
        -11   -1    0    0    0    0  0.00000000000E+00  0.00000000000E+00  0.45593999997E+02  0.45594000000E+02  0.51100000000E-03 0.  1.
         11   -1    0    0    0    0 -0.00000000000E+00 -0.00000000000E+00 -0.45593999997E+02  0.45594000000E+02  0.51100000000E-03 0. -1.
    9900012    2    1    2    0    0 -0.57281795635E+01 -0.17368288903E+02  0.40262637779E+01  0.72461540096E+02  0.69999960661E+02 0.  0.
         12    1    1    2    0    0  0.57281795635E+01  0.17368288903E+02 -0.40262637779E+01  0.18726459904E+02  0.00000000000E+00 0. -1.
         11    1    3    3    0    0 -0.71270225303E+01 -0.16573151997E+02  0.11316352972E+01  0.18076073024E+02  0.51100000000E-03 0. -1.
        -11    1    3    3    0    0 -0.14188850270E+02 -0.19789216618E+02  0.13249249747E+02  0.27721457131E+02  0.51100000000E-03 0.  1.
         12    1    3    3    0    0  0.15587693237E+02  0.18994079713E+02 -0.10354621266E+02  0.26664009941E+02  0.00000000000E+00 0. -1.
</event>
<event>
 7    1  0.2684545E-013  0.7246151E+02  0.7816164E-02  0.1226708E+00
        -11   -1    0    0    0    0  0.00000000000E+00  0.00000000000E+00  0.45593999997E+02  0.45594000000E+02  0.51100000000E-03 0. -1.
         11   -1    0    0    0    0 -0.00000000000E+00 -0.00000000000E+00 -0.45593999997E+02  0.45594000000E+02  0.51100000000E-03 0.  1.
    9900012    2    1    2    0    0 -0.50965245439E+01 -0.12587137646E+02 -0.12894605283E+02  0.72461509620E+02  0.69999920960E+02 0.  0.
         12    1    1    2    0    0  0.50965245439E+01  0.12587137646E+02  0.12894605283E+02  0.18726490380E+02  0.00000000000E+00 0. -1.
         11    1    3    3    0    0  0.67423377116E-01  0.10172257972E+02  0.12609317339E+02  0.16201057440E+02  0.51100000000E-03 0. -1.
        -11    1    3    3    0    0  0.79827583215E+01 -0.12331437226E+02 -0.34300900615E+02  0.37314079886E+02  0.51100000000E-03 0.  1.
         12    1    3    3    0    0 -0.13146706243E+02 -0.10427958392E+02  0.87969779929E+01  0.18946372293E+02  0.00000000000E+00 0. -1.
</event>
<event>
 7    1  0.2684545E-013  0.7246155E+02  0.7816164E-02  0.1226708E+00
        -11   -1    0    0    0    0  0.00000000000E+00  0.00000000000E+00  0.45593999997E+02  0.45594000000E+02  0.51100000000E-03 0. -1.
         11   -1    0    0    0    0 -0.00000000000E+00 -0.00000000000E+00 -0.45593999997E+02  0.45594000000E+02  0.51100000000E-03 0.  1.
    9900012    2    1    2    0    0  0.86050836099E+01 -0.16338381850E+02 -0.31128243145E+01  0.72461551842E+02  0.69999975962E+02 0.  0.
         12    1    1    2    0    0 -0.86050836099E+01  0.16338381850E+02  0.31128243145E+01  0.18726448158E+02  0.00000000000E+00 0. -1.
         11    1    3    3    0    0  0.17860947857E+02  0.14442731335E+02  0.87949297274E+01  0.24595868270E+02  0.51100000000E-03 0. -1.
        -11    1    3    3    0    0 -0.17801567919E+02 -0.11721345019E+02  0.39033505322E+01  0.21668453915E+02  0.51100000000E-03 0.  1.
        -12    1    3    3    0    0  0.85457036720E+01 -0.19059768166E+02 -0.15811104574E+02  0.26197229656E+02  0.00000000000E+00 0.  1.
</event>
<event>
 7    1  0.2684545E-013  0.7246162E+02  0.7816164E-02  0.1226708E+00
        -11   -1    0    0    0    0  0.00000000000E+00  0.00000000000E+00  0.45593999997E+02  0.45594000000E+02  0.51100000000E-03 0.  1.
         11   -1    0    0    0    0 -0.00000000000E+00 -0.00000000000E+00 -0.45593999997E+02  0.45594000000E+02  0.51100000000E-03 0. -1.
    9900012    2    1    2    0    0 -0.10726577486E+02  0.15233810231E+02 -0.18838619053E+01  0.72461618225E+02  0.70000062438E+02 0.  0.
         12    1    1    2    0    0  0.10726577486E+02 -0.15233810231E+02  0.18838619053E+01  0.18726381775E+02  0.00000000000E+00 0. -1.
         11    1    3    3    0    0 -0.35835753787E+00 -0.49322101077E+01 -0.66384787267E+01  0.82779536564E+01  0.51100000000E-03 0. -1.
        -11    1    3    3    0    0 -0.93025587296E+01 -0.20200561478E+02 -0.46541238776E+01  0.22721380950E+02  0.51100000000E-03 0.  1.
        -12    1    3    3    0    0 -0.10656612189E+01  0.40366581816E+02  0.94087406990E+01  0.41462283619E+02  0.00000000000E+00 0.  1.
</event>
<event>
 7    1  0.2684545E-013  0.7246157E+02  0.7816164E-02  0.1226708E+00
        -11   -1    0    0    0    0  0.00000000000E+00  0.00000000000E+00  0.45593999997E+02  0.45594000000E+02  0.51100000000E-03 0. -1.
         11   -1    0    0    0    0 -0.00000000000E+00 -0.00000000000E+00 -0.45593999997E+02  0.45594000000E+02  0.51100000000E-03 0.  1.
    9900012    2    1    2    0    0 -0.18799586872E+01 -0.15582145020E+02 -0.10214772744E+02  0.72461572943E+02  0.70000003451E+02 0.  0.
         12    1    1    2    0    0  0.18799586872E+01  0.15582145020E+02  0.10214772744E+02  0.18726427057E+02  0.00000000000E+00 0. -1.
         11    1    3    3    0    0 -0.11210200637E+02 -0.12353686902E+01  0.31084323735E+01  0.11698593343E+02  0.51100000000E-03 0. -1.
        -11    1    3    3    0    0 -0.59770518494E+01  0.16220915093E+02 -0.19460893920E+02  0.26030167646E+02  0.51100000000E-03 0.  1.
         12    1    3    3    0    0  0.15307293799E+02 -0.30567691423E+02  0.61376888027E+01  0.34732811954E+02  0.00000000000E+00 0. -1.
</event>
<event>
 7    1  0.2684545E-013  0.7246163E+02  0.7816164E-02  0.1226708E+00
        -11   -1    0    0    0    0  0.00000000000E+00  0.00000000000E+00  0.45593999997E+02  0.45594000000E+02  0.51100000000E-03 0.  1.
         11   -1    0    0    0    0 -0.00000000000E+00 -0.00000000000E+00 -0.45593999997E+02  0.45594000000E+02  0.51100000000E-03 0. -1.
    9900012    2    1    2    0    0 -0.48105936697E+01  0.10248235484E+02  0.14916725144E+02  0.72461632733E+02  0.70000081338E+02 0.  0.
         12    1    1    2    0    0  0.48105936697E+01 -0.10248235484E+02 -0.14916725144E+02  0.18726367267E+02  0.00000000000E+00 0. -1.
         11    1    3    3    0    0 -0.20685511186E+01 -0.20082787345E+01  0.12959890199E+00  0.28859804819E+01  0.51100000000E-03 0. -1.
        -11    1    3    3    0    0 -0.18857075556E+02  0.29260951594E+02  0.26149347855E+02  0.43538270294E+02  0.51100000000E-03 0.  1.
         12    1    3    3    0    0  0.16115033005E+02 -0.17004437376E+02 -0.11362221613E+02  0.26037381957E+02  0.00000000000E+00 0. -1.
</event>
<event>
 7    1  0.2684545E-013  0.7246149E+02  0.7816164E-02  0.1226708E+00
        -11   -1    0    0    0    0  0.00000000000E+00  0.00000000000E+00  0.45593999997E+02  0.45594000000E+02  0.51100000000E-03 0. -1.
         11   -1    0    0    0    0 -0.00000000000E+00 -0.00000000000E+00 -0.45593999997E+02  0.45594000000E+02  0.51100000000E-03 0.  1.
    9900012    2    1    2    0    0 -0.17637452801E+02 -0.56773476393E+01 -0.27148222279E+01  0.72461487317E+02  0.69999891907E+02 0.  0.
         12    1    1    2    0    0  0.17637452801E+02  0.56773476393E+01  0.27148222279E+01  0.18726512683E+02  0.00000000000E+00 0. -1.
         11    1    3    3    0    0  0.95300382930E+01 -0.12038797571E+02  0.10135362114E+02  0.18397821672E+02  0.51100000000E-03 0. -1.
        -11    1    3    3    0    0 -0.61378046402E+01 -0.14121187580E+02 -0.18603580640E+02  0.24148991642E+02  0.51100000000E-03 0.  1.
         12    1    3    3    0    0 -0.21029686454E+02  0.20482637511E+02  0.57533962980E+01  0.29914674003E+02  0.00000000000E+00 0. -1.
</event>
<event>
 7    1  0.2684545E-013  0.7246136E+02  0.7816164E-02  0.1226709E+00
        -11   -1    0    0    0    0  0.00000000000E+00  0.00000000000E+00  0.45593999997E+02  0.45594000000E+02  0.51100000000E-03 0.  1.
         11   -1    0    0    0    0 -0.00000000000E+00 -0.00000000000E+00 -0.45593999997E+02  0.45594000000E+02  0.51100000000E-03 0. -1.
    9900012    2    1    2    0    0  0.14250657187E+02  0.97364134345E+01  0.72669236014E+01  0.72461357069E+02  0.69999722234E+02 0.  0.
         12    1    1    2    0    0 -0.14250657187E+02 -0.97364134345E+01 -0.72669236014E+01  0.18726642931E+02  0.00000000000E+00 0. -1.
         11    1    3    3    0    0  0.29166020658E+01  0.50054880946E+01 -0.67100516594E+01  0.88648898588E+01  0.51100000000E-03 0. -1.
        -11    1    3    3    0    0 -0.15005640333E+02 -0.68701032256E+01 -0.15326521590E+02  0.22522651364E+02  0.51100000000E-03 0.  1.
         12    1    3    3    0    0  0.26339695455E+02  0.11601028565E+02  0.29303496851E+02  0.41073815846E+02  0.00000000000E+00 0. -1.
</event>
<event>
 7    1  0.2684545E-013  0.7246168E+02  0.7816164E-02  0.1226708E+00
        -11   -1    0    0    0    0  0.00000000000E+00  0.00000000000E+00  0.45593999997E+02  0.45594000000E+02  0.51100000000E-03 0. -1.
         11   -1    0    0    0    0 -0.00000000000E+00 -0.00000000000E+00 -0.45593999997E+02  0.45594000000E+02  0.51100000000E-03 0.  1.
    9900012    2    1    2    0    0  0.27121790725E+01  0.13781171558E+02 -0.12385410321E+02  0.72461681791E+02  0.70000145245E+02 0.  0.
         12    1    1    2    0    0 -0.27121790725E+01 -0.13781171558E+02  0.12385410321E+02  0.18726318209E+02  0.00000000000E+00 0. -1.
         11    1    3    3    0    0 -0.67303430593E+01  0.15683104855E+02  0.12614527038E+02  0.21222242771E+02  0.51100000000E-03 0. -1.
        -11    1    3    3    0    0 -0.13071019883E+02  0.12387206644E+02 -0.88570395960E+01  0.20068422955E+02  0.51100000000E-03 0.  1.
        -12    1    3    3    0    0  0.22513542015E+02 -0.14289139942E+02 -0.16142897763E+02  0.31171016065E+02  0.00000000000E+00 0.  1.
</event>
<event>
 7    1  0.2684545E-013  0.7246166E+02  0.7816164E-02  0.1226708E+00
        -11   -1    0    0    0    0  0.00000000000E+00  0.00000000000E+00  0.45593999997E+02  0.45594000000E+02  0.51100000000E-03 0. -1.
         11   -1    0    0    0    0 -0.00000000000E+00 -0.00000000000E+00 -0.45593999997E+02  0.45594000000E+02  0.51100000000E-03 0.  1.
    9900012    2    1    2    0    0  0.76488365232E+01  0.15757968500E+02 -0.66225111140E+01  0.72461656928E+02  0.70000112856E+02 0.  0.
         12    1    1    2    0    0 -0.76488365232E+01 -0.15757968500E+02  0.66225111140E+01  0.18726343072E+02  0.00000000000E+00 0. -1.
         11    1    3    3    0    0  0.99919389022E+01 -0.18679923605E+02 -0.65447280999E+00  0.21194497490E+02  0.51100000000E-03 0. -1.
        -11    1    3    3    0    0 -0.17799052983E+02  0.10795937567E+02  0.42188935718E+01  0.21240471235E+02  0.51100000000E-03 0.  1.
         12    1    3    3    0    0  0.15455950604E+02  0.23641954538E+02 -0.10186931876E+02  0.30026688204E+02  0.00000000000E+00 0. -1.
</event>
<event>
 7    1  0.2684545E-013  0.7246143E+02  0.7816164E-02  0.1226708E+00
        -11   -1    0    0    0    0  0.00000000000E+00  0.00000000000E+00  0.45593999997E+02  0.45594000000E+02  0.51100000000E-03 0.  1.
         11   -1    0    0    0    0 -0.00000000000E+00 -0.00000000000E+00 -0.45593999997E+02  0.45594000000E+02  0.51100000000E-03 0. -1.
    9900012    2    1    2    0    0 -0.87769442825E+01  0.16526830046E+02 -0.71657072477E+00  0.72461432351E+02  0.69999820303E+02 0.  0.
         12    1    1    2    0    0  0.87769442825E+01 -0.16526830046E+02  0.71657072477E+00  0.18726567649E+02  0.00000000000E+00 0. -1.
         11    1    3    3    0    0  0.26224616898E+00  0.32908873633E+02 -0.16288966997E+02  0.36720473621E+02  0.51100000000E-03 0. -1.
        -11    1    3    3    0    0 -0.11833104056E+02  0.22922087293E+01  0.10988931357E+02  0.16310523753E+02  0.51100000000E-03 0.  1.
        -12    1    3    3    0    0  0.27939136046E+01 -0.18674252316E+02  0.45834649157E+01  0.19430434978E+02  0.00000000000E+00 0.  1.
</event>
<event>
 7    1  0.2684545E-013  0.7246154E+02  0.7816164E-02  0.1226708E+00
        -11   -1    0    0    0    0  0.00000000000E+00  0.00000000000E+00  0.45593999997E+02  0.45594000000E+02  0.51100000000E-03 0. -1.
         11   -1    0    0    0    0 -0.00000000000E+00 -0.00000000000E+00 -0.45593999997E+02  0.45594000000E+02  0.51100000000E-03 0.  1.
    9900012    2    1    2    0    0  0.15473162428E+02  0.82325783354E+01  0.65944149480E+01  0.72461537171E+02  0.69999956850E+02 0.  0.
         12    1    1    2    0    0 -0.15473162428E+02 -0.82325783354E+01 -0.65944149480E+01  0.18726462829E+02  0.00000000000E+00 0. -1.
         11    1    3    3    0    0 -0.12762641701E+00  0.68212764773E+01  0.20123739924E+02  0.21248788437E+02  0.51100000000E-03 0. -1.
        -11    1    3    3    0    0 -0.16722402407E+02 -0.20119849202E+01 -0.35696413064E+01  0.17217118368E+02  0.51100000000E-03 0.  1.
        -12    1    3    3    0    0  0.32323191253E+02  0.34232867783E+01 -0.99596836693E+01  0.33995630365E+02  0.00000000000E+00 0.  1.
</event>
<event>
 7    1  0.2684545E-013  0.7246158E+02  0.7816164E-02  0.1226708E+00
        -11   -1    0    0    0    0  0.00000000000E+00  0.00000000000E+00  0.45593999997E+02  0.45594000000E+02  0.51100000000E-03 0.  1.
         11   -1    0    0    0    0 -0.00000000000E+00 -0.00000000000E+00 -0.45593999997E+02  0.45594000000E+02  0.51100000000E-03 0. -1.
    9900012    2    1    2    0    0 -0.43884235426E+01 -0.83035363581E+01 -0.16200977491E+02  0.72461584195E+02  0.70000018108E+02 0.  0.
         12    1    1    2    0    0  0.43884235426E+01  0.83035363581E+01  0.16200977491E+02  0.18726415805E+02  0.00000000000E+00 0. -1.
         11    1    3    3    0    0 -0.54151675016E+01  0.83221731233E+01 -0.34671016627E+02  0.36064691858E+02  0.51100000000E-03 0. -1.
        -11    1    3    3    0    0 -0.52092473985E+01  0.15941628576E+01 -0.40334295871E+01  0.67783602863E+01  0.51100000000E-03 0.  1.
        -12    1    3    3    0    0  0.62359913575E+01 -0.18219872339E+02  0.22503468723E+02  0.29618532050E+02  0.00000000000E+00 0.  1.
</event>
<event>
 7    1  0.2684545E-013  0.7246159E+02  0.7816164E-02  0.1226708E+00
        -11   -1    0    0    0    0  0.00000000000E+00  0.00000000000E+00  0.45593999997E+02  0.45594000000E+02  0.51100000000E-03 0. -1.
         11   -1    0    0    0    0 -0.00000000000E+00 -0.00000000000E+00 -0.45593999997E+02  0.45594000000E+02  0.51100000000E-03 0.  1.
    9900012    2    1    2    0    0  0.11305764051E+02 -0.20892490275E+01 -0.14781508604E+02  0.72461594609E+02  0.70000031674E+02 0.  0.
         12    1    1    2    0    0 -0.11305764051E+02  0.20892490275E+01  0.14781508604E+02  0.18726405391E+02  0.00000000000E+00 0. -1.
         11    1    3    3    0    0  0.21770153190E+01  0.97411148888E+01  0.56894702465E+01  0.11489072501E+02  0.51100000000E-03 0. -1.
        -11    1    3    3    0    0 -0.34131974683E+01  0.11397245191E+02 -0.30496794591E+02  0.32735326415E+02  0.51100000000E-03 0.  1.
         12    1    3    3    0    0  0.12541946200E+02 -0.23227609108E+02  0.10025815741E+02  0.28237195693E+02  0.00000000000E+00 0. -1.
</event>
<event>
 7    1  0.2684545E-013  0.7246153E+02  0.7816164E-02  0.1226708E+00
        -11   -1    0    0    0    0  0.00000000000E+00  0.00000000000E+00  0.45593999997E+02  0.45594000000E+02  0.51100000000E-03 0.  1.
         11   -1    0    0    0    0 -0.00000000000E+00 -0.00000000000E+00 -0.45593999997E+02  0.45594000000E+02  0.51100000000E-03 0. -1.
    9900012    2    1    2    0    0  0.11104478880E+01 -0.71957971141E+01  0.17253055129E+02  0.72461534719E+02  0.69999953657E+02 0.  0.
         12    1    1    2    0    0 -0.11104478880E+01  0.71957971141E+01 -0.17253055129E+02  0.18726465281E+02  0.00000000000E+00 0. -1.
         11    1    3    3    0    0 -0.74862853202E+00 -0.49018559530E+01  0.16940130324E+02  0.17650967456E+02  0.51100000000E-03 0. -1.
        -11    1    3    3    0    0 -0.48462294067E+01  0.21032285368E+02  0.15144633620E+02  0.26366700495E+02  0.51100000000E-03 0.  1.
         12    1    3    3    0    0  0.67053058268E+01 -0.23326226530E+02 -0.14831708815E+02  0.28443866768E+02  0.00000000000E+00 0. -1.
</event>
<event>
 7    1  0.2684545E-013  0.7246159E+02  0.7816164E-02  0.1226708E+00
        -11   -1    0    0    0    0  0.00000000000E+00  0.00000000000E+00  0.45593999997E+02  0.45594000000E+02  0.51100000000E-03 0. -1.
         11   -1    0    0    0    0 -0.00000000000E+00 -0.00000000000E+00 -0.45593999997E+02  0.45594000000E+02  0.51100000000E-03 0.  1.
    9900012    2    1    2    0    0 -0.43944912320E+01 -0.16125142577E+02 -0.84467001785E+01  0.72461587631E+02  0.70000022584E+02 0.  0.
         12    1    1    2    0    0  0.43944912320E+01  0.16125142577E+02  0.84467001785E+01  0.18726412369E+02  0.00000000000E+00 0. -1.
         11    1    3    3    0    0 -0.90081696023E+01  0.28344973495E+01  0.26644977425E+02  0.28268999222E+02  0.51100000000E-03 0. -1.
        -11    1    3    3    0    0 -0.28434990057E+01  0.26327232626E+01 -0.36099909504E+01  0.52961073720E+01  0.51100000000E-03 0.  1.
        -12    1    3    3    0    0  0.74571773760E+01 -0.21592363189E+02 -0.31481686653E+02  0.38896481036E+02  0.00000000000E+00 0.  1.
</event>
<event>
 7    1  0.2684545E-013  0.7246151E+02  0.7816164E-02  0.1226708E+00
        -11   -1    0    0    0    0  0.00000000000E+00  0.00000000000E+00  0.45593999997E+02  0.45594000000E+02  0.51100000000E-03 0.  1.
         11   -1    0    0    0    0 -0.00000000000E+00 -0.00000000000E+00 -0.45593999997E+02  0.45594000000E+02  0.51100000000E-03 0. -1.
    9900012    2    1    2    0    0  0.14423958837E+02 -0.10166726968E+01  0.11899461131E+02  0.72461511084E+02  0.69999922868E+02 0.  0.
         12    1    1    2    0    0 -0.14423958837E+02  0.10166726968E+01 -0.11899461131E+02  0.18726488916E+02  0.00000000000E+00 0. -1.
         11    1    3    3    0    0 -0.16742957274E+02  0.49702428857E+01 -0.14191187933E+02  0.22503771858E+02  0.51100000000E-03 0. -1.
        -11    1    3    3    0    0 -0.28558552870E+00 -0.21175888082E+01 -0.50776675822E+01  0.55089427109E+01  0.51100000000E-03 0.  1.
        -12    1    3    3    0    0  0.31452501640E+02 -0.38693267743E+01  0.31168316647E+02  0.44448796515E+02  0.00000000000E+00 0.  1.
</event>
<event>
 7    1  0.2684545E-013  0.7246152E+02  0.7816164E-02  0.1226708E+00
        -11   -1    0    0    0    0  0.00000000000E+00  0.00000000000E+00  0.45593999997E+02  0.45594000000E+02  0.51100000000E-03 0.  1.
         11   -1    0    0    0    0 -0.00000000000E+00 -0.00000000000E+00 -0.45593999997E+02  0.45594000000E+02  0.51100000000E-03 0. -1.
    9900012    2    1    2    0    0  0.99120300472E+01 -0.65397269825E+01  0.14479806535E+02  0.72461516989E+02  0.69999930560E+02 0.  0.
         12    1    1    2    0    0 -0.99120300472E+01  0.65397269825E+01 -0.14479806535E+02  0.18726483011E+02  0.00000000000E+00 0. -1.
         11    1    3    3    0    0  0.19968617081E+02 -0.53634462494E+01 -0.87417894537E+01  0.22448409897E+02  0.51100000000E-03 0. -1.
        -11    1    3    3    0    0  0.13773489230E+02 -0.61705576308E+01 -0.16806878671E+01  0.15185832180E+02  0.51100000000E-03 0.  1.
        -12    1    3    3    0    0 -0.23830076264E+02  0.49942768977E+01  0.24902283856E+02  0.34827274911E+02  0.00000000000E+00 0.  1.
</event>
<event>
 7    1  0.2684545E-013  0.7246167E+02  0.7816164E-02  0.1226708E+00
        -11   -1    0    0    0    0  0.00000000000E+00  0.00000000000E+00  0.45593999997E+02  0.45594000000E+02  0.51100000000E-03 0.  1.
         11   -1    0    0    0    0 -0.00000000000E+00 -0.00000000000E+00 -0.45593999997E+02  0.45594000000E+02  0.51100000000E-03 0. -1.
    9900012    2    1    2    0    0 -0.42642896591E+01 -0.18375095922E+01  0.18141523170E+02  0.72461669053E+02  0.70000128652E+02 0.  0.
         12    1    1    2    0    0  0.42642896591E+01  0.18375095922E+01 -0.18141523170E+02  0.18726330947E+02  0.00000000000E+00 0. -1.
         11    1    3    3    0    0  0.12733642012E+00  0.66489048181E+00  0.40661940860E+01  0.41221630879E+01  0.51100000000E-03 0. -1.
        -11    1    3    3    0    0  0.17638126291E+02 -0.23311183553E+02  0.22497688682E+02  0.36887135616E+02  0.51100000000E-03 0.  1.
         12    1    3    3    0    0 -0.22029752371E+02  0.20808783479E+02 -0.84223595978E+01  0.31452370349E+02  0.00000000000E+00 0. -1.
</event>
<event>
 7    1  0.2684545E-013  0.7246146E+02  0.7816164E-02  0.1226708E+00
        -11   -1    0    0    0    0  0.00000000000E+00  0.00000000000E+00  0.45593999997E+02  0.45594000000E+02  0.51100000000E-03 0. -1.
         11   -1    0    0    0    0 -0.00000000000E+00 -0.00000000000E+00 -0.45593999997E+02  0.45594000000E+02  0.51100000000E-03 0.  1.
    9900012    2    1    2    0    0 -0.69007445627E+01  0.16411902864E+02 -0.58062304642E+01  0.72461464193E+02  0.69999861783E+02 0.  0.
         12    1    1    2    0    0  0.69007445627E+01 -0.16411902864E+02  0.58062304642E+01  0.18726535807E+02  0.00000000000E+00 0. -1.
         11    1    3    3    0    0  0.86218430705E+01  0.12122375309E+02 -0.70732592560E+01  0.16471768510E+02  0.51100000000E-03 0. -1.
        -11    1    3    3    0    0 -0.27980739126E+02 -0.25237859025E+01 -0.17011900011E+02  0.32843507723E+02  0.51100000000E-03 0.  1.
         12    1    3    3    0    0  0.12458151493E+02  0.68133134573E+01  0.18278928803E+02  0.23146187960E+02  0.00000000000E+00 0. -1.
</event>
<event>
 7    1  0.2684545E-013  0.7246155E+02  0.7816164E-02  0.1226708E+00
        -11   -1    0    0    0    0  0.00000000000E+00  0.00000000000E+00  0.45593999997E+02  0.45594000000E+02  0.51100000000E-03 0.  1.
         11   -1    0    0    0    0 -0.00000000000E+00 -0.00000000000E+00 -0.45593999997E+02  0.45594000000E+02  0.51100000000E-03 0. -1.
    9900012    2    1    2    0    0  0.55941943387E+01 -0.97026365504E+01  0.15008127028E+02  0.72461546966E+02  0.69999969611E+02 0.  0.
         12    1    1    2    0    0 -0.55941943387E+01  0.97026365504E+01 -0.15008127028E+02  0.18726453034E+02  0.00000000000E+00 0. -1.
         11    1    3    3    0    0  0.80957587074E+01  0.16785117723E+02  0.30839004409E+01  0.18888936661E+02  0.51100000000E-03 0.  1.
        -11    1    3    3    0    0  0.19774946201E+02 -0.89107160352E+01 -0.23354066483E+01  0.21815212169E+02  0.51100000000E-03 0. -1.
        -12    1    3    3    0    0 -0.22276510569E+02 -0.17577038238E+02  0.14259633235E+02  0.31757398136E+02  0.00000000000E+00 0.  1.
</event>
<event>
 7    1  0.2684545E-013  0.7246156E+02  0.7816164E-02  0.1226708E+00
        -11   -1    0    0    0    0  0.00000000000E+00  0.00000000000E+00  0.45593999997E+02  0.45594000000E+02  0.51100000000E-03 0.  1.
         11   -1    0    0    0    0 -0.00000000000E+00 -0.00000000000E+00 -0.45593999997E+02  0.45594000000E+02  0.51100000000E-03 0. -1.
    9900012    2    1    2    0    0  0.88181056526E+01  0.16248921327E+02  0.29821054095E+01  0.72461564561E+02  0.69999992531E+02 0.  0.
         12    1    1    2    0    0 -0.88181056526E+01 -0.16248921327E+02 -0.29821054095E+01  0.18726435439E+02  0.00000000000E+00 0. -1.
         11    1    3    3    0    0  0.93235693774E+00 -0.15861512363E+02 -0.14501377196E+02  0.21511550496E+02  0.51100000000E-03 0. -1.
        -11    1    3    3    0    0 -0.11587775036E+02  0.84785410494E+01 -0.22315013974E+01  0.14530718748E+02  0.51100000000E-03 0.  1.
        -12    1    3    3    0    0  0.19473523750E+02  0.23631892641E+02  0.19714984003E+02  0.36419295316E+02  0.00000000000E+00 0.  1.
</event>
<event>
 7    1  0.2684545E-013  0.7246143E+02  0.7816164E-02  0.1226708E+00
        -11   -1    0    0    0    0  0.00000000000E+00  0.00000000000E+00  0.45593999997E+02  0.45594000000E+02  0.51100000000E-03 0. -1.
         11   -1    0    0    0    0 -0.00000000000E+00 -0.00000000000E+00 -0.45593999997E+02  0.45594000000E+02  0.51100000000E-03 0.  1.
    9900012    2    1    2    0    0  0.10264732381E+02 -0.26373266557E+00 -0.15660464301E+02  0.72461429895E+02  0.69999817104E+02 0.  0.
         12    1    1    2    0    0 -0.10264732381E+02  0.26373266557E+00  0.15660464301E+02  0.18726570105E+02  0.00000000000E+00 0. -1.
         11    1    3    3    0    0  0.74718312147E+01  0.16366795712E+01 -0.12845562370E+02  0.14950433257E+02  0.51100000000E-03 0. -1.
        -11    1    3    3    0    0  0.22094085916E+01 -0.22245292184E+02 -0.20662175861E+02  0.30441091016E+02  0.51100000000E-03 0.  1.
         12    1    3    3    0    0  0.58349257479E+00  0.20344879948E+02  0.17847273930E+02  0.27069905622E+02  0.00000000000E+00 0. -1.
</event>
<event>
 7    1  0.2684545E-013  0.7246149E+02  0.7816164E-02  0.1226708E+00
        -11   -1    0    0    0    0  0.00000000000E+00  0.00000000000E+00  0.45593999997E+02  0.45594000000E+02  0.51100000000E-03 0.  1.
         11   -1    0    0    0    0 -0.00000000000E+00 -0.00000000000E+00 -0.45593999997E+02  0.45594000000E+02  0.51100000000E-03 0. -1.
    9900012    2    1    2    0    0 -0.67004186750E+01  0.17460505010E+02  0.95781275175E+00  0.72461488021E+02  0.69999892824E+02 0.  0.
         12    1    1    2    0    0  0.67004186750E+01 -0.17460505010E+02 -0.95781275175E+00  0.18726511979E+02  0.00000000000E+00 0. -1.
         11    1    3    3    0    0 -0.16441382515E+02  0.21715598784E+02 -0.23558607348E+01  0.27339282537E+02  0.51100000000E-03 0. -1.
        -11    1    3    3    0    0 -0.14324947433E+02 -0.55553411142E+01 -0.92592831754E+01  0.17938792017E+02  0.51100000000E-03 0.  1.
        -12    1    3    3    0    0  0.24065911273E+02  0.13002473399E+01  0.12572956662E+02  0.27183413468E+02  0.00000000000E+00 0.  1.
</event>
<event>
 7    1  0.2684545E-013  0.7246169E+02  0.7816164E-02  0.1226708E+00
        -11   -1    0    0    0    0  0.00000000000E+00  0.00000000000E+00  0.45593999997E+02  0.45594000000E+02  0.51100000000E-03 0.  1.
         11   -1    0    0    0    0 -0.00000000000E+00 -0.00000000000E+00 -0.45593999997E+02  0.45594000000E+02  0.51100000000E-03 0. -1.
    9900012    2    1    2    0    0  0.67478334361E+00 -0.10541873415E+02  0.15462478416E+02  0.72461690528E+02  0.70000156627E+02 0.  0.
         12    1    1    2    0    0 -0.67478334361E+00  0.10541873415E+02 -0.15462478416E+02  0.18726309472E+02  0.00000000000E+00 0. -1.
         11    1    3    3    0    0  0.84154420451E+01 -0.15532050566E+02  0.23001134679E+02  0.29002007799E+02  0.51100000000E-03 0. -1.
        -11    1    3    3    0    0 -0.69238176689E-01  0.22216625681E+02  0.20377805380E+01  0.22309993284E+02  0.51100000000E-03 0.  1.
        -12    1    3    3    0    0 -0.76714205248E+01 -0.17226448530E+02 -0.95764368008E+01  0.21149689445E+02  0.00000000000E+00 0.  1.
</event>
<event>
 7    1  0.2684545E-013  0.7246143E+02  0.7816164E-02  0.1226708E+00
        -11   -1    0    0    0    0  0.00000000000E+00  0.00000000000E+00  0.45593999997E+02  0.45594000000E+02  0.51100000000E-03 0.  1.
         11   -1    0    0    0    0 -0.00000000000E+00 -0.00000000000E+00 -0.45593999997E+02  0.45594000000E+02  0.51100000000E-03 0. -1.
    9900012    2    1    2    0    0 -0.95977743533E+01 -0.10157030096E+02  0.12466031299E+02  0.72461428790E+02  0.69999815665E+02 0.  0.
         12    1    1    2    0    0  0.95977743533E+01  0.10157030096E+02 -0.12466031299E+02  0.18726571210E+02  0.00000000000E+00 0. -1.
         11    1    3    3    0    0  0.25297400197E+01  0.14211814168E+00  0.78844706493E+01  0.82815855858E+01  0.51100000000E-03 0. -1.
        -11    1    3    3    0    0  0.35975169665E+01  0.17993264034E+02  0.20998270856E+02  0.27885965253E+02  0.51100000000E-03 0.  1.
         12    1    3    3    0    0 -0.15725031340E+02 -0.28292412272E+02 -0.16416710205E+02  0.36293877951E+02  0.00000000000E+00 0. -1.
</event>
<event>
 7    1  0.2684545E-013  0.7246166E+02  0.7816164E-02  0.1226708E+00
        -11   -1    0    0    0    0  0.00000000000E+00  0.00000000000E+00  0.45593999997E+02  0.45594000000E+02  0.51100000000E-03 0.  1.
         11   -1    0    0    0    0 -0.00000000000E+00 -0.00000000000E+00 -0.45593999997E+02  0.45594000000E+02  0.51100000000E-03 0. -1.
    9900012    2    1    2    0    0  0.51722835126E+01 -0.12152391424E+02 -0.13275639521E+02  0.72461661897E+02  0.70000119330E+02 0.  0.
         12    1    1    2    0    0 -0.51722835126E+01  0.12152391424E+02  0.13275639521E+02  0.18726338103E+02  0.00000000000E+00 0. -1.
         11    1    3    3    0    0 -0.35093471892E+01  0.24718247323E+01 -0.51369258188E+01  0.66942843031E+01  0.51100000000E-03 0. -1.
        -11    1    3    3    0    0  0.10546055559E+01  0.18697916917E+02  0.15413928496E+02  0.24255174332E+02  0.51100000000E-03 0.  1.
         12    1    3    3    0    0  0.76270251459E+01 -0.33322133074E+02 -0.23552642198E+02  0.41512203262E+02  0.00000000000E+00 0. -1.
</event>
<event>
 7    1  0.2684545E-013  0.7246166E+02  0.7816164E-02  0.1226708E+00
        -11   -1    0    0    0    0  0.00000000000E+00  0.00000000000E+00  0.45593999997E+02  0.45594000000E+02  0.51100000000E-03 0.  1.
         11   -1    0    0    0    0 -0.00000000000E+00 -0.00000000000E+00 -0.45593999997E+02  0.45594000000E+02  0.51100000000E-03 0. -1.
    9900012    2    1    2    0    0 -0.14612470947E+02  0.26930396641E+01  0.11397327168E+02  0.72461659290E+02  0.70000115933E+02 0.  0.
         12    1    1    2    0    0  0.14612470947E+02 -0.26930396641E+01 -0.11397327168E+02  0.18726340710E+02  0.00000000000E+00 0. -1.
         11    1    3    3    0    0  0.89750732969E+00 -0.11707508106E+02 -0.20789970321E+01  0.11924491368E+02  0.51100000000E-03 0. -1.
        -11    1    3    3    0    0  0.10957848606E+02  0.86604157612E+01 -0.15506829871E+02  0.20869571633E+02  0.51100000000E-03 0.  1.
        -12    1    3    3    0    0 -0.26467826883E+02  0.57401320088E+01  0.28983154072E+02  0.39667596289E+02  0.00000000000E+00 0.  1.
</event>
<event>
 7    1  0.2684545E-013  0.7246157E+02  0.7816164E-02  0.1226708E+00
        -11   -1    0    0    0    0  0.00000000000E+00  0.00000000000E+00  0.45593999997E+02  0.45594000000E+02  0.51100000000E-03 0.  1.
         11   -1    0    0    0    0 -0.00000000000E+00 -0.00000000000E+00 -0.45593999997E+02  0.45594000000E+02  0.51100000000E-03 0. -1.
    9900012    2    1    2    0    0  0.16742616693E+02  0.69688555559E+01  0.46689276870E+01  0.72461573559E+02  0.70000004253E+02 0.  0.
         12    1    1    2    0    0 -0.16742616693E+02 -0.69688555559E+01 -0.46689276870E+01  0.18726426441E+02  0.00000000000E+00 0. -1.
         11    1    3    3    0    0 -0.12742460624E+02  0.35441575214E+01 -0.78200133325E+01  0.15365024051E+02  0.51100000000E-03 0. -1.
        -11    1    3    3    0    0  0.34868330424E+01 -0.19330437479E+02 -0.17653348752E+01  0.19721567516E+02  0.51100000000E-03 0.  1.
        -12    1    3    3    0    0  0.25998244275E+02  0.22755135514E+02  0.14254275895E+02  0.37374981992E+02  0.00000000000E+00 0.  1.
</event>
<event>
 7    1  0.2684545E-013  0.7246158E+02  0.7816164E-02  0.1226708E+00
        -11   -1    0    0    0    0  0.00000000000E+00  0.00000000000E+00  0.45593999997E+02  0.45594000000E+02  0.51100000000E-03 0. -1.
         11   -1    0    0    0    0 -0.00000000000E+00 -0.00000000000E+00 -0.45593999997E+02  0.45594000000E+02  0.51100000000E-03 0.  1.
    9900012    2    1    2    0    0 -0.95191164356E+01  0.13440340404E+02 -0.89119230339E+01  0.72461582829E+02  0.70000016329E+02 0.  0.
         12    1    1    2    0    0  0.95191164356E+01 -0.13440340404E+02  0.89119230339E+01  0.18726417171E+02  0.00000000000E+00 0. -1.
         11    1    3    3    0    0 -0.30050777844E+00  0.10415348057E+02  0.35436572544E+01  0.11005784255E+02  0.51100000000E-03 0. -1.
        -11    1    3    3    0    0  0.20302639362E+02  0.17785327651E+02 -0.32202320255E+01  0.27182438067E+02  0.51100000000E-03 0.  1.
         12    1    3    3    0    0 -0.29521248019E+02 -0.14760335304E+02 -0.92353482627E+01  0.34273360507E+02  0.00000000000E+00 0. -1.
</event>
<event>
 7    1  0.2684545E-013  0.7246150E+02  0.7816164E-02  0.1226708E+00
        -11   -1    0    0    0    0  0.00000000000E+00  0.00000000000E+00  0.45593999997E+02  0.45594000000E+02  0.51100000000E-03 0.  1.
         11   -1    0    0    0    0 -0.00000000000E+00 -0.00000000000E+00 -0.45593999997E+02  0.45594000000E+02  0.51100000000E-03 0. -1.
    9900012    2    1    2    0    0  0.12976049971E+02  0.96917115580E+01  0.94007711762E+01  0.72461504213E+02  0.69999913916E+02 0.  0.
         12    1    1    2    0    0 -0.12976049971E+02 -0.96917115580E+01 -0.94007711762E+01  0.18726495787E+02  0.00000000000E+00 0. -1.
         11    1    3    3    0    0  0.33284294281E+01  0.48074373067E+01  0.39403909166E+00  0.58604746380E+01  0.51100000000E-03 0. -1.
        -11    1    3    3    0    0 -0.48734372813E+01  0.17536260456E+02  0.31873536411E+02  0.36704129813E+02  0.51100000000E-03 0.  1.
         12    1    3    3    0    0  0.14521057824E+02 -0.12651986205E+02 -0.22866804327E+02  0.29896899762E+02  0.00000000000E+00 0. -1.
</event>
<event>
 7    1  0.2684545E-013  0.7246159E+02  0.7816164E-02  0.1226708E+00
        -11   -1    0    0    0    0  0.00000000000E+00  0.00000000000E+00  0.45593999997E+02  0.45594000000E+02  0.51100000000E-03 0. -1.
         11   -1    0    0    0    0 -0.00000000000E+00 -0.00000000000E+00 -0.45593999997E+02  0.45594000000E+02  0.51100000000E-03 0.  1.
    9900012    2    1    2    0    0  0.58220876324E+01 -0.15789231445E+02 -0.82147472368E+01  0.72461585336E+02  0.70000019594E+02 0.  0.
         12    1    1    2    0    0 -0.58220876324E+01  0.15789231445E+02  0.82147472368E+01  0.18726414664E+02  0.00000000000E+00 0. -1.
         11    1    3    3    0    0 -0.12221187709E+02 -0.46433458899E+01  0.18320859403E+02  0.22507153965E+02  0.51100000000E-03 0. -1.
        -11    1    3    3    0    0  0.90765076134E+01  0.17510723322E+01  0.78651676178E+01  0.12137137500E+02  0.51100000000E-03 0.  1.
         12    1    3    3    0    0  0.89667677279E+01 -0.12896957887E+02 -0.34400774257E+02  0.37817293871E+02  0.00000000000E+00 0. -1.
</event>
<event>
 7    1  0.2684545E-013  0.7246160E+02  0.7816164E-02  0.1226708E+00
        -11   -1    0    0    0    0  0.00000000000E+00  0.00000000000E+00  0.45593999997E+02  0.45594000000E+02  0.51100000000E-03 0.  1.
         11   -1    0    0    0    0 -0.00000000000E+00 -0.00000000000E+00 -0.45593999997E+02  0.45594000000E+02  0.51100000000E-03 0. -1.
    9900012    2    1    2    0    0  0.84255059266E+01 -0.72402924630E+00  0.16708225633E+02  0.72461596921E+02  0.70000034686E+02 0.  0.
         12    1    1    2    0    0 -0.84255059266E+01  0.72402924630E+00 -0.16708225633E+02  0.18726403079E+02  0.00000000000E+00 0. -1.
         11    1    3    3    0    0 -0.11615279583E+01 -0.99645339099E+01  0.12967606330E+02  0.16395118097E+02  0.51100000000E-03 0. -1.
        -11    1    3    3    0    0 -0.13543775398E+02 -0.16490647752E+02  0.11687153210E+01  0.21371504651E+02  0.51100000000E-03 0.  1.
         12    1    3    3    0    0  0.23130809282E+02  0.25731152416E+02  0.25719039828E+01  0.34694974172E+02  0.00000000000E+00 0. -1.
</event>
<event>
 7    1  0.2684545E-013  0.7246160E+02  0.7816164E-02  0.1226708E+00
        -11   -1    0    0    0    0  0.00000000000E+00  0.00000000000E+00  0.45593999997E+02  0.45594000000E+02  0.51100000000E-03 0.  1.
         11   -1    0    0    0    0 -0.00000000000E+00 -0.00000000000E+00 -0.45593999997E+02  0.45594000000E+02  0.51100000000E-03 0. -1.
    9900012    2    1    2    0    0 -0.12434333440E+02 -0.13810523531E+02 -0.23097668741E+01  0.72461595345E+02  0.70000032633E+02 0.  0.
         12    1    1    2    0    0  0.12434333440E+02  0.13810523531E+02  0.23097668741E+01  0.18726404655E+02  0.00000000000E+00 0. -1.
         11    1    3    3    0    0  0.95729972652E+01  0.14263068590E+02 -0.16737205117E+02  0.23983565990E+02  0.51100000000E-03 0. -1.
        -11    1    3    3    0    0 -0.15610521200E+01 -0.34429104684E+01  0.15987918153E+02  0.16428756598E+02  0.51100000000E-03 0.  1.
        -12    1    3    3    0    0 -0.20446278585E+02 -0.24630681653E+02 -0.15604799107E+01  0.32049272756E+02  0.00000000000E+00 0.  1.
</event>
<event>
 7    1  0.2684545E-013  0.7246155E+02  0.7816164E-02  0.1226708E+00
        -11   -1    0    0    0    0  0.00000000000E+00  0.00000000000E+00  0.45593999997E+02  0.45594000000E+02  0.51100000000E-03 0.  1.
         11   -1    0    0    0    0 -0.00000000000E+00 -0.00000000000E+00 -0.45593999997E+02  0.45594000000E+02  0.51100000000E-03 0. -1.
    9900012    2    1    2    0    0  0.14508403995E+01  0.15028738214E+02  0.11077539570E+02  0.72461553645E+02  0.69999978311E+02 0.  0.
         12    1    1    2    0    0 -0.14508403995E+01 -0.15028738214E+02 -0.11077539570E+02  0.18726446355E+02  0.00000000000E+00 0. -1.
         11    1    3    3    0    0  0.67206752382E+01 -0.32539716960E+01 -0.41807676762E+01  0.85577231832E+01  0.51100000000E-03 0. -1.
        -11    1    3    3    0    0  0.18841938626E+02 -0.91885479790E+01 -0.57596191585E+01  0.21739854606E+02  0.51100000000E-03 0.  1.
         12    1    3    3    0    0 -0.24111773465E+02  0.27471257889E+02  0.21017926405E+02  0.42163975856E+02  0.00000000000E+00 0. -1.
</event>
<event>
 7    1  0.2684545E-013  0.7246167E+02  0.7816164E-02  0.1226708E+00
        -11   -1    0    0    0    0  0.00000000000E+00  0.00000000000E+00  0.45593999997E+02  0.45594000000E+02  0.51100000000E-03 0. -1.
         11   -1    0    0    0    0 -0.00000000000E+00 -0.00000000000E+00 -0.45593999997E+02  0.45594000000E+02  0.51100000000E-03 0.  1.
    9900012    2    1    2    0    0  0.16924324184E+01 -0.18624917889E+02  0.96100444618E+00  0.72461670317E+02  0.70000130297E+02 0.  0.
         12    1    1    2    0    0 -0.16924324184E+01  0.18624917889E+02 -0.96100444618E+00  0.18726329683E+02  0.00000000000E+00 0. -1.
         11    1    3    3    0    0 -0.22183234173E+02 -0.46408978016E+01 -0.45704959509E+01  0.23119758742E+02  0.51100000000E-03 0. -1.
        -11    1    3    3    0    0  0.14347460455E+02  0.12845165442E+02 -0.32884141485E+01  0.19536160437E+02  0.51100000000E-03 0.  1.
        -12    1    3    3    0    0  0.95282061363E+01 -0.26829185529E+02  0.88199145456E+01  0.29805751138E+02  0.00000000000E+00 0.  1.
</event>
<event>
 7    1  0.2684545E-013  0.7246158E+02  0.7816164E-02  0.1226708E+00
        -11   -1    0    0    0    0  0.00000000000E+00  0.00000000000E+00  0.45593999997E+02  0.45594000000E+02  0.51100000000E-03 0. -1.
         11   -1    0    0    0    0 -0.00000000000E+00 -0.00000000000E+00 -0.45593999997E+02  0.45594000000E+02  0.51100000000E-03 0.  1.
    9900012    2    1    2    0    0  0.28479322058E+01  0.23064730175E+01 -0.18364316381E+02  0.72461584119E+02  0.70000018009E+02 0.  0.
         12    1    1    2    0    0 -0.28479322058E+01 -0.23064730175E+01  0.18364316381E+02  0.18726415881E+02  0.00000000000E+00 0. -1.
         11    1    3    3    0    0  0.53126670410E+01 -0.15124280293E+02  0.13679076874E+02  0.21073334569E+02  0.51100000000E-03 0. -1.
        -11    1    3    3    0    0 -0.46415232618E+01 -0.55689906016E+01  0.42219341478E+01  0.83894053854E+01  0.51100000000E-03 0.  1.
        -12    1    3    3    0    0  0.21767884266E+01  0.22999743912E+02 -0.36265327402E+02  0.42998844164E+02  0.00000000000E+00 0.  1.
</event>
<event>
 7    1  0.2684545E-013  0.7246159E+02  0.7816164E-02  0.1226708E+00
        -11   -1    0    0    0    0  0.00000000000E+00  0.00000000000E+00  0.45593999997E+02  0.45594000000E+02  0.51100000000E-03 0.  1.
         11   -1    0    0    0    0 -0.00000000000E+00 -0.00000000000E+00 -0.45593999997E+02  0.45594000000E+02  0.51100000000E-03 0. -1.
    9900012    2    1    2    0    0  0.17318947243E+02 -0.48711463430E+01  0.51965670735E+01  0.72461593253E+02  0.70000029908E+02 0.  0.
         12    1    1    2    0    0 -0.17318947243E+02  0.48711463430E+01 -0.51965670735E+01  0.18726406747E+02  0.00000000000E+00 0. -1.
         11    1    3    3    0    0  0.19093450373E+02  0.46648080048E+01 -0.18953634605E+02  0.27304954603E+02  0.51100000000E-03 0. -1.
        -11    1    3    3    0    0  0.15150614155E+02 -0.12123195857E+02  0.62485291977E+01  0.20385217792E+02  0.51100000000E-03 0.  1.
        -12    1    3    3    0    0 -0.16925117285E+02  0.25872415087E+01  0.17901672481E+02  0.24771420858E+02  0.00000000000E+00 0.  1.
</event>
<event>
 7    1  0.2684545E-013  0.7246160E+02  0.7816164E-02  0.1226708E+00
        -11   -1    0    0    0    0  0.00000000000E+00  0.00000000000E+00  0.45593999997E+02  0.45594000000E+02  0.51100000000E-03 0.  1.
         11   -1    0    0    0    0 -0.00000000000E+00 -0.00000000000E+00 -0.45593999997E+02  0.45594000000E+02  0.51100000000E-03 0. -1.
    9900012    2    1    2    0    0 -0.22428881636E+01  0.10222112046E+02  0.15529200488E+02  0.72461596453E+02  0.70000034077E+02 0.  0.
         12    1    1    2    0    0  0.22428881636E+01 -0.10222112046E+02 -0.15529200488E+02  0.18726403547E+02  0.00000000000E+00 0. -1.
         11    1    3    3    0    0 -0.12945815925E+02  0.29392834594E+02 -0.20174902093E+01  0.32180788406E+02  0.51100000000E-03 0. -1.
        -11    1    3    3    0    0 -0.37738853783E+01 -0.18676043889E+02  0.22040438337E+01  0.19180579649E+02  0.51100000000E-03 0.  1.
        -12    1    3    3    0    0  0.14476813140E+02 -0.49467865908E+00  0.15342646864E+02  0.21100228398E+02  0.00000000000E+00 0.  1.
</event>
<event>
 7    1  0.2684545E-013  0.7246155E+02  0.7816164E-02  0.1226708E+00
        -11   -1    0    0    0    0  0.00000000000E+00  0.00000000000E+00  0.45593999997E+02  0.45594000000E+02  0.51100000000E-03 0.  1.
         11   -1    0    0    0    0 -0.00000000000E+00 -0.00000000000E+00 -0.45593999997E+02  0.45594000000E+02  0.51100000000E-03 0. -1.
    9900012    2    1    2    0    0  0.12960598991E+02 -0.13121903655E+02  0.32432264555E+01  0.72461548132E+02  0.69999971129E+02 0.  0.
         12    1    1    2    0    0 -0.12960598991E+02  0.13121903655E+02 -0.32432264555E+01  0.18726451868E+02  0.00000000000E+00 0. -1.
         11    1    3    3    0    0  0.26895221015E+02  0.23146951383E+01  0.64080558886E+01  0.27744799649E+02  0.51100000000E-03 0.  1.
        -11    1    3    3    0    0 -0.17165299557E+01  0.60866891661E+01 -0.15734839290E+02  0.16958166995E+02  0.51100000000E-03 0. -1.
        -12    1    3    3    0    0 -0.12218092069E+02 -0.21523287959E+02  0.12570009857E+02  0.27758581487E+02  0.00000000000E+00 0.  1.
</event>
<event>
 7    1  0.2684545E-013  0.7246159E+02  0.7816164E-02  0.1226708E+00
        -11   -1    0    0    0    0  0.00000000000E+00  0.00000000000E+00  0.45593999997E+02  0.45594000000E+02  0.51100000000E-03 0.  1.
         11   -1    0    0    0    0 -0.00000000000E+00 -0.00000000000E+00 -0.45593999997E+02  0.45594000000E+02  0.51100000000E-03 0. -1.
    9900012    2    1    2    0    0  0.11969308260E+02 -0.13334822932E+02  0.54402617241E+01  0.72461593765E+02  0.70000030575E+02 0.  0.
         12    1    1    2    0    0 -0.11969308260E+02  0.13334822932E+02 -0.54402617241E+01  0.18726406235E+02  0.00000000000E+00 0. -1.
         11    1    3    3    0    0 -0.15456043308E+02 -0.47304804651E+01 -0.18625979786E+01  0.16270709624E+02  0.51100000000E-03 0.  1.
        -11    1    3    3    0    0  0.13629259900E+02 -0.14986071180E+02 -0.17719571655E+02  0.26913236051E+02  0.51100000000E-03 0. -1.
        -12    1    3    3    0    0  0.13796091667E+02  0.63817287138E+01  0.25022431358E+02  0.29277648091E+02  0.00000000000E+00 0.  1.
</event>
<event>
 7    1  0.2684545E-013  0.7246160E+02  0.7816164E-02  0.1226708E+00
        -11   -1    0    0    0    0  0.00000000000E+00  0.00000000000E+00  0.45593999997E+02  0.45594000000E+02  0.51100000000E-03 0.  1.
         11   -1    0    0    0    0 -0.00000000000E+00 -0.00000000000E+00 -0.45593999997E+02  0.45594000000E+02  0.51100000000E-03 0. -1.
    9900012    2    1    2    0    0 -0.96482109900E+01  0.43858158665E+01  0.15438738136E+02  0.72461601751E+02  0.70000040979E+02 0.  0.
         12    1    1    2    0    0  0.96482109900E+01 -0.43858158665E+01 -0.15438738136E+02  0.18726398249E+02  0.00000000000E+00 0. -1.
         11    1    3    3    0    0  0.10305612630E+01  0.64443502844E+01 -0.28307276738E+01  0.71136999184E+01  0.51100000000E-03 0. -1.
        -11    1    3    3    0    0  0.25437853314E+02 -0.43682997711E+01  0.12580850894E+02  0.28713136951E+02  0.51100000000E-03 0.  1.
         12    1    3    3    0    0 -0.36116625566E+02  0.23097653532E+01  0.56886149157E+01  0.36634764882E+02  0.00000000000E+00 0. -1.
</event>
<event>
 7    1  0.2684545E-013  0.7246159E+02  0.7816164E-02  0.1226708E+00
        -11   -1    0    0    0    0  0.00000000000E+00  0.00000000000E+00  0.45593999997E+02  0.45594000000E+02  0.51100000000E-03 0. -1.
         11   -1    0    0    0    0 -0.00000000000E+00 -0.00000000000E+00 -0.45593999997E+02  0.45594000000E+02  0.51100000000E-03 0.  1.
    9900012    2    1    2    0    0 -0.56260348802E+01  0.15843489574E+02 -0.82468205455E+01  0.72461588719E+02  0.70000024002E+02 0.  0.
         12    1    1    2    0    0  0.56260348802E+01 -0.15843489574E+02  0.82468205455E+01  0.18726411281E+02  0.00000000000E+00 0. -1.
         11    1    3    3    0    0  0.18649250035E+02  0.77352935697E+01  0.18940451788E+01  0.20278478761E+02  0.51100000000E-03 0. -1.
        -11    1    3    3    0    0 -0.18536859924E+02  0.26196754754E+02 -0.80886890492E+01  0.33095498580E+02  0.51100000000E-03 0.  1.
        -12    1    3    3    0    0 -0.57384249907E+01 -0.18088558750E+02 -0.20521766752E+01  0.19087611378E+02  0.00000000000E+00 0.  1.
</event>
<event>
 7    1  0.2684545E-013  0.7246156E+02  0.7816164E-02  0.1226708E+00
        -11   -1    0    0    0    0  0.00000000000E+00  0.00000000000E+00  0.45593999997E+02  0.45594000000E+02  0.51100000000E-03 0. -1.
         11   -1    0    0    0    0 -0.00000000000E+00 -0.00000000000E+00 -0.45593999997E+02  0.45594000000E+02  0.51100000000E-03 0.  1.
    9900012    2    1    2    0    0  0.44416757121E+01  0.25001081077E+01 -0.18019450481E+02  0.72461558284E+02  0.69999984355E+02 0.  0.
         12    1    1    2    0    0 -0.44416757121E+01 -0.25001081077E+01  0.18019450481E+02  0.18726441716E+02  0.00000000000E+00 0. -1.
         11    1    3    3    0    0  0.85344978984E+01 -0.34664608082E+00  0.15967509365E+02  0.18108538690E+02  0.51100000000E-03 0. -1.
        -11    1    3    3    0    0  0.18242656466E+02  0.12091561480E+01 -0.23076945870E+02  0.29441501396E+02  0.51100000000E-03 0.  1.
         12    1    3    3    0    0 -0.22335478652E+02  0.16375980405E+01 -0.10910013977E+02  0.24911518198E+02  0.00000000000E+00 0. -1.
</event>
<event>
 7    1  0.2684545E-013  0.7246157E+02  0.7816164E-02  0.1226708E+00
        -11   -1    0    0    0    0  0.00000000000E+00  0.00000000000E+00  0.45593999997E+02  0.45594000000E+02  0.51100000000E-03 0.  1.
         11   -1    0    0    0    0 -0.00000000000E+00 -0.00000000000E+00 -0.45593999997E+02  0.45594000000E+02  0.51100000000E-03 0. -1.
    9900012    2    1    2    0    0 -0.18596097882E+02  0.16918718956E+01  0.14149247341E+01  0.72461566839E+02  0.69999995498E+02 0.  0.
         12    1    1    2    0    0  0.18596097882E+02 -0.16918718956E+01 -0.14149247341E+01  0.18726433161E+02  0.00000000000E+00 0. -1.
         11    1    3    3    0    0 -0.67284635994E+01 -0.73728828106E+01  0.88013689013E+01  0.13307731518E+02  0.51100000000E-03 0. -1.
        -11    1    3    3    0    0 -0.27024428646E+02 -0.23223183520E+01 -0.22235300729E+02  0.35073088044E+02  0.51100000000E-03 0.  1.
         12    1    3    3    0    0  0.15156794364E+02  0.11387073058E+02  0.14848856562E+02  0.24080747277E+02  0.00000000000E+00 0. -1.
</event>
<event>
 7    1  0.2684545E-013  0.7246159E+02  0.7816164E-02  0.1226708E+00
        -11   -1    0    0    0    0  0.00000000000E+00  0.00000000000E+00  0.45593999997E+02  0.45594000000E+02  0.51100000000E-03 0.  1.
         11   -1    0    0    0    0 -0.00000000000E+00 -0.00000000000E+00 -0.45593999997E+02  0.45594000000E+02  0.51100000000E-03 0. -1.
    9900012    2    1    2    0    0  0.11777874589E+02 -0.89839259188E+01  0.11456396938E+02  0.72461593896E+02  0.70000030746E+02 0.  0.
         12    1    1    2    0    0 -0.11777874589E+02  0.89839259188E+01 -0.11456396938E+02  0.18726406104E+02  0.00000000000E+00 0. -1.
         11    1    3    3    0    0 -0.19397145673E+01 -0.56806922501E+01 -0.23786613383E+02  0.24532340563E+02  0.51100000000E-03 0. -1.
        -11    1    3    3    0    0  0.36585320670E+01  0.11512359583E+02  0.56406711026E+01  0.13331783482E+02  0.51100000000E-03 0.  1.
        -12    1    3    3    0    0  0.10059057089E+02 -0.14815593252E+02  0.29602339218E+02  0.34597469851E+02  0.00000000000E+00 0.  1.
</event>
<event>
 7    1  0.2684545E-013  0.7246155E+02  0.7816164E-02  0.1226708E+00
        -11   -1    0    0    0    0  0.00000000000E+00  0.00000000000E+00  0.45593999997E+02  0.45594000000E+02  0.51100000000E-03 0.  1.
         11   -1    0    0    0    0 -0.00000000000E+00 -0.00000000000E+00 -0.45593999997E+02  0.45594000000E+02  0.51100000000E-03 0. -1.
    9900012    2    1    2    0    0 -0.88229165748E+01 -0.11616736761E+02 -0.11742552454E+02  0.72461548975E+02  0.69999972228E+02 0.  0.
         12    1    1    2    0    0  0.88229165748E+01  0.11616736761E+02  0.11742552454E+02  0.18726451025E+02  0.00000000000E+00 0. -1.
         11    1    3    3    0    0 -0.11837158336E+02 -0.42224209890E+01 -0.59809514090E+01  0.13918295029E+02  0.51100000000E-03 0. -1.
        -11    1    3    3    0    0 -0.25986303590E+02 -0.10820559682E+02  0.23165980925E+01  0.28244275757E+02  0.51100000000E-03 0.  1.
         12    1    3    3    0    0  0.29000545351E+02  0.34262439095E+01 -0.80781991372E+01  0.30298978189E+02  0.00000000000E+00 0. -1.
</event>
<event>
 7    1  0.2684545E-013  0.7246148E+02  0.7816164E-02  0.1226708E+00
        -11   -1    0    0    0    0  0.00000000000E+00  0.00000000000E+00  0.45593999997E+02  0.45594000000E+02  0.51100000000E-03 0.  1.
         11   -1    0    0    0    0 -0.00000000000E+00 -0.00000000000E+00 -0.45593999997E+02  0.45594000000E+02  0.51100000000E-03 0. -1.
    9900012    2    1    2    0    0  0.45034267706E+00  0.23944987026E+01  0.18567343927E+02  0.72461476216E+02  0.69999877445E+02 0.  0.
         12    1    1    2    0    0 -0.45034267706E+00 -0.23944987026E+01 -0.18567343927E+02  0.18726523784E+02  0.00000000000E+00 0. -1.
         11    1    3    3    0    0 -0.63675889892E+01 -0.87603068782E+01  0.17403065247E+02  0.20497703442E+02  0.51100000000E-03 0. -1.
        -11    1    3    3    0    0  0.18462070124E+02 -0.99239839698E+01  0.13475297728E+02  0.24918209009E+02  0.51100000000E-03 0.  1.
         12    1    3    3    0    0 -0.11644138458E+02  0.21078789551E+02 -0.12311019048E+02  0.27045563765E+02  0.00000000000E+00 0. -1.
</event>
<event>
 7    1  0.2684545E-013  0.7246150E+02  0.7816164E-02  0.1226708E+00
        -11   -1    0    0    0    0  0.00000000000E+00  0.00000000000E+00  0.45593999997E+02  0.45594000000E+02  0.51100000000E-03 0. -1.
         11   -1    0    0    0    0 -0.00000000000E+00 -0.00000000000E+00 -0.45593999997E+02  0.45594000000E+02  0.51100000000E-03 0.  1.
    9900012    2    1    2    0    0  0.12020741745E+02  0.12228177223E+02  0.75269622419E+01  0.72461502439E+02  0.69999911606E+02 0.  0.
         12    1    1    2    0    0 -0.12020741745E+02 -0.12228177223E+02 -0.75269622419E+01  0.18726497561E+02  0.00000000000E+00 0. -1.
         11    1    3    3    0    0 -0.58201276379E+01 -0.13827757354E+02  0.17913605432E+02  0.23366172536E+02  0.51100000000E-03 0. -1.
        -11    1    3    3    0    0 -0.84474596180E+01 -0.20394573898E+01  0.15130419040E+01  0.88208988492E+01  0.51100000000E-03 0.  1.
        -12    1    3    3    0    0  0.26288329001E+02  0.28095391967E+02 -0.11899685094E+02  0.40274431054E+02  0.00000000000E+00 0.  1.
</event>
<event>
 7    1  0.2684545E-013  0.7246162E+02  0.7816164E-02  0.1226708E+00
        -11   -1    0    0    0    0  0.00000000000E+00  0.00000000000E+00  0.45593999997E+02  0.45594000000E+02  0.51100000000E-03 0. -1.
         11   -1    0    0    0    0 -0.00000000000E+00 -0.00000000000E+00 -0.45593999997E+02  0.45594000000E+02  0.51100000000E-03 0.  1.
    9900012    2    1    2    0    0  0.88619453938E+01  0.16350493469E+02 -0.21919309123E+01  0.72461620906E+02  0.70000065931E+02 0.  0.
         12    1    1    2    0    0 -0.88619453938E+01 -0.16350493469E+02  0.21919309123E+01  0.18726379094E+02  0.00000000000E+00 0. -1.
         11    1    3    3    0    0 -0.23388787262E+01  0.13425370522E+02  0.27661424882E+02  0.30836104717E+02  0.51100000000E-03 0. -1.
        -11    1    3    3    0    0 -0.20457723057E+01  0.58665399669E+01  0.23793874726E+01  0.66530414485E+01  0.51100000000E-03 0.  1.
        -12    1    3    3    0    0  0.13246596426E+02 -0.29414170196E+01 -0.32232743267E+02  0.34972474740E+02  0.00000000000E+00 0.  1.
</event>
<event>
 7    1  0.2684545E-013  0.7246154E+02  0.7816164E-02  0.1226708E+00
        -11   -1    0    0    0    0  0.00000000000E+00  0.00000000000E+00  0.45593999997E+02  0.45594000000E+02  0.51100000000E-03 0. -1.
         11   -1    0    0    0    0 -0.00000000000E+00 -0.00000000000E+00 -0.45593999997E+02  0.45594000000E+02  0.51100000000E-03 0.  1.
    9900012    2    1    2    0    0 -0.11546711052E+02  0.36736343758E+00 -0.14738346219E+02  0.72461539008E+02  0.69999959244E+02 0.  0.
         12    1    1    2    0    0  0.11546711052E+02 -0.36736343758E+00  0.14738346219E+02  0.18726460992E+02  0.00000000000E+00 0. -1.
         11    1    3    3    0    0 -0.10573362266E+02  0.16545155209E+01  0.26180864041E+01  0.11017612623E+02  0.51100000000E-03 0. -1.
        -11    1    3    3    0    0 -0.16129502285E+02  0.18846027925E+02  0.76333965261E+01  0.25953850491E+02  0.51100000000E-03 0.  1.
         12    1    3    3    0    0  0.15156153499E+02 -0.20133180008E+02 -0.24989829149E+02  0.35490075895E+02  0.00000000000E+00 0. -1.
</event>
<event>
 7    1  0.2684545E-013  0.7246142E+02  0.7816164E-02  0.1226708E+00
        -11   -1    0    0    0    0  0.00000000000E+00  0.00000000000E+00  0.45593999997E+02  0.45594000000E+02  0.51100000000E-03 0. -1.
         11   -1    0    0    0    0 -0.00000000000E+00 -0.00000000000E+00 -0.45593999997E+02  0.45594000000E+02  0.51100000000E-03 0.  1.
    9900012    2    1    2    0    0 -0.16046444471E+02  0.21723518828E+00 -0.96513851596E+01  0.72461419779E+02  0.69999803925E+02 0.  0.
         12    1    1    2    0    0  0.16046444471E+02 -0.21723518828E+00  0.96513851596E+01  0.18726580221E+02  0.00000000000E+00 0. -1.
         11    1    3    3    0    0 -0.18253579968E+02  0.52577197112E+01  0.14842999285E+01  0.19053607132E+02  0.51100000000E-03 0. -1.
        -11    1    3    3    0    0 -0.21119653348E+02  0.34721082277E+01 -0.17643323871E+02  0.27737739103E+02  0.51100000000E-03 0.  1.
         12    1    3    3    0    0  0.23326788845E+02 -0.85125927507E+01  0.65076387828E+01  0.25670073543E+02  0.00000000000E+00 0. -1.
</event>
<event>
 7    1  0.2684545E-013  0.7246157E+02  0.7816164E-02  0.1226708E+00
        -11   -1    0    0    0    0  0.00000000000E+00  0.00000000000E+00  0.45593999997E+02  0.45594000000E+02  0.51100000000E-03 0.  1.
         11   -1    0    0    0    0 -0.00000000000E+00 -0.00000000000E+00 -0.45593999997E+02  0.45594000000E+02  0.51100000000E-03 0. -1.
    9900012    2    1    2    0    0  0.92063644897E+01  0.10592343882E+02  0.12398564555E+02  0.72461566836E+02  0.69999995494E+02 0.  0.
         12    1    1    2    0    0 -0.92063644897E+01 -0.10592343882E+02 -0.12398564555E+02  0.18726433164E+02  0.00000000000E+00 0. -1.
         11    1    3    3    0    0  0.89753602754E+01 -0.14715490963E+02  0.19826070110E+02  0.26271197587E+02  0.51100000000E-03 0. -1.
        -11    1    3    3    0    0  0.13360548757E+01 -0.88145771641E+01 -0.80971669262E+01  0.12043501389E+02  0.51100000000E-03 0.  1.
        -12    1    3    3    0    0 -0.11050506614E+01  0.34122412009E+02  0.66966137108E+00  0.34146867860E+02  0.00000000000E+00 0.  1.
</event>
<event>
 7    1  0.2684545E-013  0.7246163E+02  0.7816164E-02  0.1226708E+00
        -11   -1    0    0    0    0  0.00000000000E+00  0.00000000000E+00  0.45593999997E+02  0.45594000000E+02  0.51100000000E-03 0. -1.
         11   -1    0    0    0    0 -0.00000000000E+00 -0.00000000000E+00 -0.45593999997E+02  0.45594000000E+02  0.51100000000E-03 0.  1.
    9900012    2    1    2    0    0 -0.15354042063E+02 -0.10720553919E+02 -0.12780268431E-01  0.72461626957E+02  0.70000073813E+02 0.  0.
         12    1    1    2    0    0  0.15354042063E+02  0.10720553919E+02  0.12780268431E-01  0.18726373043E+02  0.00000000000E+00 0. -1.
         11    1    3    3    0    0  0.68424951107E+01  0.11745173776E+02 -0.11197593985E+02  0.17611216815E+02  0.51100000000E-03 0. -1.
        -11    1    3    3    0    0 -0.19592626624E+02 -0.16243845022E+02 -0.13813853980E+02  0.28957832812E+02  0.51100000000E-03 0.  1.
         12    1    3    3    0    0 -0.26039105501E+01 -0.62218826740E+01  0.24998667697E+02  0.25892577330E+02  0.00000000000E+00 0. -1.
</event>
<event>
 7    1  0.2684545E-013  0.7246157E+02  0.7816164E-02  0.1226708E+00
        -11   -1    0    0    0    0  0.00000000000E+00  0.00000000000E+00  0.45593999997E+02  0.45594000000E+02  0.51100000000E-03 0. -1.
         11   -1    0    0    0    0 -0.00000000000E+00 -0.00000000000E+00 -0.45593999997E+02  0.45594000000E+02  0.51100000000E-03 0.  1.
    9900012    2    1    2    0    0  0.92645527435E+01  0.59658719864E+01  0.15141193880E+02  0.72461566325E+02  0.69999994829E+02 0.  0.
         12    1    1    2    0    0 -0.92645527435E+01 -0.59658719864E+01 -0.15141193880E+02  0.18726433675E+02  0.00000000000E+00 0. -1.
         11    1    3    3    0    0 -0.56428891550E+01  0.10697345411E+01 -0.16162570099E+02  0.17152702483E+02  0.51100000000E-03 0. -1.
        -11    1    3    3    0    0  0.28960098689E+02 -0.31704209317E+01  0.17230147024E+02  0.33846962223E+02  0.51100000000E-03 0.  1.
         12    1    3    3    0    0 -0.14052656791E+02  0.80665583770E+01  0.14073616954E+02  0.21461901619E+02  0.00000000000E+00 0. -1.
</event>
<event>
 7    1  0.2684545E-013  0.7246159E+02  0.7816164E-02  0.1226708E+00
        -11   -1    0    0    0    0  0.00000000000E+00  0.00000000000E+00  0.45593999997E+02  0.45594000000E+02  0.51100000000E-03 0.  1.
         11   -1    0    0    0    0 -0.00000000000E+00 -0.00000000000E+00 -0.45593999997E+02  0.45594000000E+02  0.51100000000E-03 0. -1.
    9900012    2    1    2    0    0 -0.51968919827E+01  0.15203201129E+02  0.96194336672E+01  0.72461587772E+02  0.70000022768E+02 0.  0.
         12    1    1    2    0    0  0.51968919827E+01 -0.15203201129E+02 -0.96194336672E+01  0.18726412228E+02  0.00000000000E+00 0. -1.
         11    1    3    3    0    0  0.25253015319E+01 -0.32504269339E+01  0.10234301160E+02  0.11031017341E+02  0.51100000000E-03 0. -1.
        -11    1    3    3    0    0  0.80345114290E+01  0.16266921092E+02  0.25233823900E+02  0.31079124257E+02  0.51100000000E-03 0.  1.
         12    1    3    3    0    0 -0.15756704944E+02  0.21867069712E+01 -0.25848691394E+02  0.30351446174E+02  0.00000000000E+00 0. -1.
</event>
<event>
 7    1  0.2684545E-013  0.7246155E+02  0.7816164E-02  0.1226708E+00
        -11   -1    0    0    0    0  0.00000000000E+00  0.00000000000E+00  0.45593999997E+02  0.45594000000E+02  0.51100000000E-03 0.  1.
         11   -1    0    0    0    0 -0.00000000000E+00 -0.00000000000E+00 -0.45593999997E+02  0.45594000000E+02  0.51100000000E-03 0. -1.
    9900012    2    1    2    0    0  0.17022770408E+02  0.26956219287E+01  0.73238487110E+01  0.72461552128E+02  0.69999976335E+02 0.  0.
         12    1    1    2    0    0 -0.17022770408E+02 -0.26956219287E+01 -0.73238487110E+01  0.18726447872E+02  0.00000000000E+00 0. -1.
         11    1    3    3    0    0 -0.44396840259E+01 -0.12874835134E+00 -0.16891384459E+02  0.17465572982E+02  0.51100000000E-03 0. -1.
        -11    1    3    3    0    0 -0.11372623953E+01  0.20370535307E+02  0.13396893407E+02  0.24407556774E+02  0.51100000000E-03 0.  1.
         12    1    3    3    0    0  0.22599716830E+02 -0.17546165027E+02  0.10818339763E+02  0.30588422371E+02  0.00000000000E+00 0. -1.
</event>
<event>
 7    1  0.2684545E-013  0.7246157E+02  0.7816164E-02  0.1226708E+00
        -11   -1    0    0    0    0  0.00000000000E+00  0.00000000000E+00  0.45593999997E+02  0.45594000000E+02  0.51100000000E-03 0. -1.
         11   -1    0    0    0    0 -0.00000000000E+00 -0.00000000000E+00 -0.45593999997E+02  0.45594000000E+02  0.51100000000E-03 0.  1.
    9900012    2    1    2    0    0  0.22591633539E+01  0.17019060514E+02 -0.74784348638E+01  0.72461568737E+02  0.69999997972E+02 0.  0.
         12    1    1    2    0    0 -0.22591633539E+01 -0.17019060514E+02  0.74784348638E+01  0.18726431263E+02  0.00000000000E+00 0. -1.
         11    1    3    3    0    0 -0.22660237332E+02 -0.41711537390E+01 -0.19807105022E+02  0.30384309916E+02  0.51100000000E-03 0. -1.
        -11    1    3    3    0    0 -0.50744014915E+00  0.12143742411E+02  0.84702890161E+01  0.14814647196E+02  0.51100000000E-03 0.  1.
        -12    1    3    3    0    0  0.25426840835E+02  0.90464718411E+01  0.38583811418E+01  0.27262611626E+02  0.00000000000E+00 0.  1.
</event>
<event>
 7    1  0.2684545E-013  0.7246160E+02  0.7816164E-02  0.1226708E+00
        -11   -1    0    0    0    0  0.00000000000E+00  0.00000000000E+00  0.45593999997E+02  0.45594000000E+02  0.51100000000E-03 0.  1.
         11   -1    0    0    0    0 -0.00000000000E+00 -0.00000000000E+00 -0.45593999997E+02  0.45594000000E+02  0.51100000000E-03 0. -1.
    9900012    2    1    2    0    0  0.14331302982E+02 -0.12032925438E+02 -0.70752763019E+00  0.72461597914E+02  0.70000035979E+02 0.  0.
         12    1    1    2    0    0 -0.14331302982E+02  0.12032925438E+02  0.70752763019E+00  0.18726402086E+02  0.00000000000E+00 0. -1.
         11    1    3    3    0    0  0.17008684226E+02 -0.82056515893E+01 -0.14810607235E+02  0.23999627997E+02  0.51100000000E-03 0. -1.
        -11    1    3    3    0    0  0.14741027961E+02  0.89232984053E+01 -0.66949668542E+01  0.18486366361E+02  0.51100000000E-03 0.  1.
        -12    1    3    3    0    0 -0.17418409205E+02 -0.12750572254E+02  0.20798046459E+02  0.29975603556E+02  0.00000000000E+00 0.  1.
</event>
<event>
 7    1  0.2684545E-013  0.7246201E+02  0.7816164E-02  0.1226707E+00
        -11   -1    0    0    0    0  0.00000000000E+00  0.00000000000E+00  0.45593999997E+02  0.45594000000E+02  0.51100000000E-03 0.  1.
         11   -1    0    0    0    0 -0.00000000000E+00 -0.00000000000E+00 -0.45593999997E+02  0.45594000000E+02  0.51100000000E-03 0. -1.
    9900012    2    1    2    0    0 -0.14261476341E+02  0.57405479257E+01  0.10692010359E+02  0.72462010482E+02  0.70000573424E+02 0.  0.
         12    1    1    2    0    0  0.14261476341E+02 -0.57405479257E+01 -0.10692010359E+02  0.18725989518E+02  0.00000000000E+00 0. -1.
         11    1    3    3    0    0  0.16436960315E+02  0.17869945588E+02  0.19700891213E+02  0.31267135055E+02  0.51100000000E-03 0. -1.
        -11    1    3    3    0    0  0.92426821891E+00 -0.15451954065E+01  0.47812423468E+01  0.51090291861E+01  0.51100000000E-03 0.  1.
        -12    1    3    3    0    0 -0.31622704875E+02 -0.10584202256E+02 -0.13790123201E+02  0.36085846241E+02  0.00000000000E+00 0.  1.
</event>
<event>
 7    1  0.2684545E-013  0.7246158E+02  0.7816164E-02  0.1226708E+00
        -11   -1    0    0    0    0  0.00000000000E+00  0.00000000000E+00  0.45593999997E+02  0.45594000000E+02  0.51100000000E-03 0.  1.
         11   -1    0    0    0    0 -0.00000000000E+00 -0.00000000000E+00 -0.45593999997E+02  0.45594000000E+02  0.51100000000E-03 0. -1.
    9900012    2    1    2    0    0 -0.32977663575E+01  0.11040548282E+02  0.14761770881E+02  0.72461578856E+02  0.70000011153E+02 0.  0.
         12    1    1    2    0    0  0.32977663575E+01 -0.11040548282E+02 -0.14761770881E+02  0.18726421144E+02  0.00000000000E+00 0. -1.
         11    1    3    3    0    0  0.62936674449E+01 -0.19613035487E+02 -0.11084103554E+02  0.23390997473E+02  0.51100000000E-03 0. -1.
        -11    1    3    3    0    0  0.58742662035E+01  0.36425093751E+01 -0.21172538075E+01  0.72289447310E+01  0.51100000000E-03 0.  1.
        -12    1    3    3    0    0 -0.15465700006E+02  0.27011074394E+02  0.27963128243E+02  0.41841636652E+02  0.00000000000E+00 0.  1.
</event>
<event>
 7    1  0.2684545E-013  0.7246155E+02  0.7816164E-02  0.1226708E+00
        -11   -1    0    0    0    0  0.00000000000E+00  0.00000000000E+00  0.45593999997E+02  0.45594000000E+02  0.51100000000E-03 0.  1.
         11   -1    0    0    0    0 -0.00000000000E+00 -0.00000000000E+00 -0.45593999997E+02  0.45594000000E+02  0.51100000000E-03 0. -1.
    9900012    2    1    2    0    0 -0.30516588224E+00 -0.93501504785E+01  0.16222255004E+02  0.72461548185E+02  0.69999971198E+02 0.  0.
         12    1    1    2    0    0  0.30516588224E+00  0.93501504785E+01 -0.16222255004E+02  0.18726451815E+02  0.00000000000E+00 0. -1.
         11    1    3    3    0    0  0.19089806840E+01 -0.31719709514E+01  0.93746962683E+00  0.38189601374E+01  0.51100000000E-03 0. -1.
        -11    1    3    3    0    0 -0.81207387381E+01 -0.29042204278E+02 -0.12090236574E+02  0.32489534433E+02  0.51100000000E-03 0.  1.
         12    1    3    3    0    0  0.59065921719E+01  0.22864024751E+02  0.27375021950E+02  0.36153053615E+02  0.00000000000E+00 0. -1.
</event>
<event>
 7    1  0.2684545E-013  0.7246154E+02  0.7816164E-02  0.1226708E+00
        -11   -1    0    0    0    0  0.00000000000E+00  0.00000000000E+00  0.45593999997E+02  0.45594000000E+02  0.51100000000E-03 0.  1.
         11   -1    0    0    0    0 -0.00000000000E+00 -0.00000000000E+00 -0.45593999997E+02  0.45594000000E+02  0.51100000000E-03 0. -1.
    9900012    2    1    2    0    0 -0.93647103633E+01 -0.15177491539E+01  0.16145554660E+02  0.72461540165E+02  0.69999960751E+02 0.  0.
         12    1    1    2    0    0  0.93647103633E+01  0.15177491539E+01 -0.16145554660E+02  0.18726459835E+02  0.00000000000E+00 0. -1.
         11    1    3    3    0    0 -0.80658934894E+01  0.11257166248E+02 -0.69149327906E+01  0.15478976888E+02  0.51100000000E-03 0. -1.
        -11    1    3    3    0    0 -0.95855151516E+01  0.17871953919E+02  0.10537524459E+02  0.22854501954E+02  0.51100000000E-03 0.  1.
        -12    1    3    3    0    0  0.82866982778E+01 -0.30646869321E+02  0.12522962992E+02  0.34128061323E+02  0.00000000000E+00 0.  1.
</event>
<event>
 7    1  0.2684545E-013  0.7246151E+02  0.7816164E-02  0.1226708E+00
        -11   -1    0    0    0    0  0.00000000000E+00  0.00000000000E+00  0.45593999997E+02  0.45594000000E+02  0.51100000000E-03 0.  1.
         11   -1    0    0    0    0 -0.00000000000E+00 -0.00000000000E+00 -0.45593999997E+02  0.45594000000E+02  0.51100000000E-03 0. -1.
    9900012    2    1    2    0    0 -0.44763899151E+01  0.10841374362E+02  0.14598220972E+02  0.72461507529E+02  0.69999918236E+02 0.  0.
         12    1    1    2    0    0  0.44763899151E+01 -0.10841374362E+02 -0.14598220972E+02  0.18726492471E+02  0.00000000000E+00 0. -1.
         11    1    3    3    0    0 -0.69137197867E+01 -0.76992609626E+01  0.27483959843E+02  0.29367434167E+02  0.51100000000E-03 0. -1.
        -11    1    3    3    0    0 -0.14250030283E+02  0.15556345929E+02  0.10886685316E+01  0.21124593751E+02  0.51100000000E-03 0.  1.
         12    1    3    3    0    0  0.16687360154E+02  0.29842893949E+01 -0.13974407402E+02  0.21969479610E+02  0.00000000000E+00 0. -1.
</event>
<event>
 7    1  0.2684545E-013  0.7246159E+02  0.7816164E-02  0.1226708E+00
        -11   -1    0    0    0    0  0.00000000000E+00  0.00000000000E+00  0.45593999997E+02  0.45594000000E+02  0.51100000000E-03 0.  1.
         11   -1    0    0    0    0 -0.00000000000E+00 -0.00000000000E+00 -0.45593999997E+02  0.45594000000E+02  0.51100000000E-03 0. -1.
    9900012    2    1    2    0    0  0.71442127230E+01  0.11880185841E+02  0.12589665061E+02  0.72461594648E+02  0.70000031726E+02 0.  0.
         12    1    1    2    0    0 -0.71442127230E+01 -0.11880185841E+02 -0.12589665061E+02  0.18726405352E+02  0.00000000000E+00 0. -1.
         11    1    3    3    0    0 -0.10164522602E+02 -0.37631823921E+01  0.29140351437E+02  0.31090820890E+02  0.51100000000E-03 0. -1.
        -11    1    3    3    0    0  0.52775536446E+01  0.15543872700E+02  0.45909844352E+01  0.17045283492E+02  0.51100000000E-03 0.  1.
        -12    1    3    3    0    0  0.12031181680E+02  0.99495532864E-01 -0.21141670812E+02  0.24325490266E+02  0.00000000000E+00 0.  1.
</event>
<event>
 7    1  0.2684545E-013  0.7246167E+02  0.7816164E-02  0.1226708E+00
        -11   -1    0    0    0    0  0.00000000000E+00  0.00000000000E+00  0.45593999997E+02  0.45594000000E+02  0.51100000000E-03 0. -1.
         11   -1    0    0    0    0 -0.00000000000E+00 -0.00000000000E+00 -0.45593999997E+02  0.45594000000E+02  0.51100000000E-03 0.  1.
    9900012    2    1    2    0    0 -0.15945549085E+02 -0.54095048441E+01  0.81946391837E+01  0.72461671218E+02  0.70000131472E+02 0.  0.
         12    1    1    2    0    0  0.15945549085E+02  0.54095048441E+01 -0.81946391837E+01  0.18726328782E+02  0.00000000000E+00 0. -1.
         11    1    3    3    0    0 -0.75424376589E+01  0.60023152355E+01  0.16595387823E+02  0.19191744353E+02  0.51100000000E-03 0. -1.
        -11    1    3    3    0    0 -0.19899301246E+02  0.13223252128E+02 -0.10300843187E+02  0.26018146697E+02  0.51100000000E-03 0.  1.
         12    1    3    3    0    0  0.11496189820E+02 -0.24635072208E+02  0.19000945473E+01  0.27251780168E+02  0.00000000000E+00 0. -1.
</event>
<event>
 7    1  0.2684545E-013  0.7246153E+02  0.7816164E-02  0.1226708E+00
        -11   -1    0    0    0    0  0.00000000000E+00  0.00000000000E+00  0.45593999997E+02  0.45594000000E+02  0.51100000000E-03 0.  1.
         11   -1    0    0    0    0 -0.00000000000E+00 -0.00000000000E+00 -0.45593999997E+02  0.45594000000E+02  0.51100000000E-03 0. -1.
    9900012    2    1    2    0    0  0.59319957271E+00  0.18572720322E+02  0.23200615989E+01  0.72461534457E+02  0.69999953315E+02 0.  0.
         12    1    1    2    0    0 -0.59319957271E+00 -0.18572720322E+02 -0.23200615989E+01  0.18726465543E+02  0.00000000000E+00 0. -1.
         11    1    3    3    0    0 -0.15067937346E+02  0.21830501031E+02 -0.21723662077E+02  0.34286017637E+02  0.51100000000E-03 0. -1.
        -11    1    3    3    0    0  0.68268869855E+01 -0.27974813696E+01 -0.42615027877E+01  0.85201346349E+01  0.51100000000E-03 0.  1.
        -12    1    3    3    0    0  0.88342499328E+01 -0.46029933907E+00  0.28305226464E+02  0.29655382185E+02  0.00000000000E+00 0.  1.
</event>
<event>
 7    1  0.2684545E-013  0.7246175E+02  0.7816164E-02  0.1226708E+00
        -11   -1    0    0    0    0  0.00000000000E+00  0.00000000000E+00  0.45593999997E+02  0.45594000000E+02  0.51100000000E-03 0.  1.
         11   -1    0    0    0    0 -0.00000000000E+00 -0.00000000000E+00 -0.45593999997E+02  0.45594000000E+02  0.51100000000E-03 0. -1.
    9900012    2    1    2    0    0  0.28477359021E+00 -0.16309891963E+02  0.91966673322E+01  0.72461752061E+02  0.70000236784E+02 0.  0.
         12    1    1    2    0    0 -0.28477359021E+00  0.16309891963E+02 -0.91966673322E+01  0.18726247939E+02  0.00000000000E+00 0. -1.
         11    1    3    3    0    0 -0.16318345237E+02  0.79386859090E+01 -0.16183728892E+02  0.24315102434E+02  0.51100000000E-03 0. -1.
        -11    1    3    3    0    0  0.87385701154E+01 -0.12169239332E+02 -0.39258085252E+01  0.15487574581E+02  0.51100000000E-03 0.  1.
        -12    1    3    3    0    0  0.78645487119E+01 -0.12079338541E+02  0.29306204750E+02  0.32659075046E+02  0.00000000000E+00 0.  1.
</event>
<event>
 7    1  0.2684545E-013  0.7246158E+02  0.7816164E-02  0.1226708E+00
        -11   -1    0    0    0    0  0.00000000000E+00  0.00000000000E+00  0.45593999997E+02  0.45594000000E+02  0.51100000000E-03 0.  1.
         11   -1    0    0    0    0 -0.00000000000E+00 -0.00000000000E+00 -0.45593999997E+02  0.45594000000E+02  0.51100000000E-03 0. -1.
    9900012    2    1    2    0    0  0.82177417964E+01  0.15287733836E+02  0.70308350341E+01  0.72461582101E+02  0.70000015380E+02 0.  0.
         12    1    1    2    0    0 -0.82177417964E+01 -0.15287733836E+02 -0.70308350341E+01  0.18726417899E+02  0.00000000000E+00 0. -1.
         11    1    3    3    0    0  0.85246166954E+01 -0.86686287262E+00 -0.86262921857E+01  0.12158678307E+02  0.51100000000E-03 0. -1.
        -11    1    3    3    0    0 -0.16060839278E+02  0.35612312704E+01 -0.15881976650E+02  0.22866353209E+02  0.51100000000E-03 0.  1.
         12    1    3    3    0    0  0.15753964379E+02  0.12593365438E+02  0.31539103870E+02  0.37436550584E+02  0.00000000000E+00 0. -1.
</event>
<event>
 7    1  0.2684545E-013  0.7246155E+02  0.7816164E-02  0.1226708E+00
        -11   -1    0    0    0    0  0.00000000000E+00  0.00000000000E+00  0.45593999997E+02  0.45594000000E+02  0.51100000000E-03 0.  1.
         11   -1    0    0    0    0 -0.00000000000E+00 -0.00000000000E+00 -0.45593999997E+02  0.45594000000E+02  0.51100000000E-03 0. -1.
    9900012    2    1    2    0    0  0.11228230052E+02 -0.13767763781E+02  0.59207718437E+01  0.72461547884E+02  0.69999970806E+02 0.  0.
         12    1    1    2    0    0 -0.11228230052E+02  0.13767763781E+02 -0.59207718437E+01  0.18726452116E+02  0.00000000000E+00 0. -1.
         11    1    3    3    0    0 -0.12649741486E+01 -0.39128220295E+01  0.21614481239E-01  0.41122747085E+01  0.51100000000E-03 0. -1.
        -11    1    3    3    0    0  0.37511123291E+02 -0.90009700757E+01 -0.84573419159E+01  0.39492131689E+02  0.51100000000E-03 0.  1.
         12    1    3    3    0    0 -0.25017919090E+02 -0.85397167607E+00  0.14356499278E+02  0.28857141486E+02  0.00000000000E+00 0. -1.
</event>
<event>
 7    1  0.2684545E-013  0.7246162E+02  0.7816164E-02  0.1226708E+00
        -11   -1    0    0    0    0  0.00000000000E+00  0.00000000000E+00  0.45593999997E+02  0.45594000000E+02  0.51100000000E-03 0.  1.
         11   -1    0    0    0    0 -0.00000000000E+00 -0.00000000000E+00 -0.45593999997E+02  0.45594000000E+02  0.51100000000E-03 0. -1.
    9900012    2    1    2    0    0  0.13896845035E+02 -0.12280654322E+01  0.12491876423E+02  0.72461616922E+02  0.70000060741E+02 0.  0.
         12    1    1    2    0    0 -0.13896845035E+02  0.12280654322E+01 -0.12491876423E+02  0.18726383078E+02  0.00000000000E+00 0. -1.
         11    1    3    3    0    0  0.81922825764E+01 -0.85222831740E+01  0.13426288411E+02  0.17888768126E+02  0.51100000000E-03 0. -1.
        -11    1    3    3    0    0 -0.40851675492E+01 -0.47795100359E+01  0.24209275552E+02  0.25012423576E+02  0.51100000000E-03 0.  1.
         12    1    3    3    0    0  0.97897300081E+01  0.12073727778E+02 -0.25143687540E+02  0.29560425220E+02  0.00000000000E+00 0. -1.
</event>
<event>
 7    1  0.3030647E-013  0.7246158E+02  0.7816164E-02  0.1226708E+00
        -11   -1    0    0    0    0  0.00000000000E+00  0.00000000000E+00  0.45593999997E+02  0.45594000000E+02  0.51100000000E-03 0. -1.
         11   -1    0    0    0    0 -0.00000000000E+00 -0.00000000000E+00 -0.45593999997E+02  0.45594000000E+02  0.51100000000E-03 0.  1.
    9900012    2    1    2    0    0 -0.64119532805E+01  0.78902432065E+01 -0.15726086246E+02  0.72461578256E+02  0.70000010371E+02 0.  0.
         12    1    1    2    0    0  0.64119532805E+01 -0.78902432065E+01  0.15726086246E+02  0.18726421744E+02  0.00000000000E+00 0. -1.
         11    1    3    3    0    0 -0.53324644844E+01  0.10095691510E+02  0.22189855566E+02  0.24954916447E+02  0.51100000000E-03 0. -1.
        -11    1    3    3    0    0 -0.90939843252E+01  0.68154252667E+01 -0.49389550232E+01  0.12391281187E+02  0.51100000000E-03 0.  1.
        -12    1    3    3    0    0  0.80144955292E+01 -0.90208735703E+01 -0.32976986789E+02  0.35115380622E+02  0.00000000000E+00 0.  1.
</event>
<event>
 7    1  0.2684545E-013  0.7246161E+02  0.7816164E-02  0.1226708E+00
        -11   -1    0    0    0    0  0.00000000000E+00  0.00000000000E+00  0.45593999997E+02  0.45594000000E+02  0.51100000000E-03 0. -1.
         11   -1    0    0    0    0 -0.00000000000E+00 -0.00000000000E+00 -0.45593999997E+02  0.45594000000E+02  0.51100000000E-03 0.  1.
    9900012    2    1    2    0    0  0.51296963756E+01 -0.32751233399E+01 -0.17709816738E+02  0.72461606149E+02  0.70000046707E+02 0.  0.
         12    1    1    2    0    0 -0.51296963756E+01  0.32751233399E+01  0.17709816738E+02  0.18726393851E+02  0.00000000000E+00 0. -1.
         11    1    3    3    0    0  0.13522808974E+02 -0.15030952997E+02  0.26650967564E-01  0.20218719571E+02  0.51100000000E-03 0. -1.
        -11    1    3    3    0    0 -0.46733731681E+00 -0.81744646348E+01 -0.27488160612E+02  0.28681688414E+02  0.51100000000E-03 0.  1.
         12    1    3    3    0    0 -0.79257752819E+01  0.19930294291E+02  0.97516929064E+01  0.23561198164E+02  0.00000000000E+00 0. -1.
</event>
<event>
 7    1  0.2684545E-013  0.7246156E+02  0.7816164E-02  0.1226708E+00
        -11   -1    0    0    0    0  0.00000000000E+00  0.00000000000E+00  0.45593999997E+02  0.45594000000E+02  0.51100000000E-03 0. -1.
         11   -1    0    0    0    0 -0.00000000000E+00 -0.00000000000E+00 -0.45593999997E+02  0.45594000000E+02  0.51100000000E-03 0.  1.
    9900012    2    1    2    0    0  0.18683715506E+02  0.68916196959E+00 -0.10599046890E+01  0.72461559674E+02  0.69999986165E+02 0.  0.
         12    1    1    2    0    0 -0.18683715506E+02 -0.68916196959E+00  0.10599046890E+01  0.18726440326E+02  0.00000000000E+00 0. -1.
         11    1    3    3    0    0 -0.20384305699E+02 -0.26583366842E+01  0.96601169365E+01  0.22713531919E+02  0.51100000000E-03 0. -1.
        -11    1    3    3    0    0  0.10989435962E+02  0.61707051395E+00  0.99004256537E+01  0.14804286783E+02  0.51100000000E-03 0.  1.
        -12    1    3    3    0    0  0.28078585243E+02  0.27304281398E+01 -0.20620447279E+02  0.34943740971E+02  0.00000000000E+00 0.  1.
</event>
<event>
 7    1  0.2684545E-013  0.7246158E+02  0.7816164E-02  0.1226708E+00
        -11   -1    0    0    0    0  0.00000000000E+00  0.00000000000E+00  0.45593999997E+02  0.45594000000E+02  0.51100000000E-03 0. -1.
         11   -1    0    0    0    0 -0.00000000000E+00 -0.00000000000E+00 -0.45593999997E+02  0.45594000000E+02  0.51100000000E-03 0.  1.
    9900012    2    1    2    0    0 -0.78843573804E+01  0.14986126373E+02 -0.79957426161E+01  0.72461575489E+02  0.70000006767E+02 0.  0.
         12    1    1    2    0    0  0.78843573804E+01 -0.14986126373E+02  0.79957426161E+01  0.18726424511E+02  0.00000000000E+00 0. -1.
         11    1    3    3    0    0 -0.62598206576E+01 -0.45788643428E+01 -0.12361181732E+02  0.14592812183E+02  0.51100000000E-03 0. -1.
        -11    1    3    3    0    0  0.24420371743E+02 -0.11111305158E+01  0.21892768374E+01  0.24543473683E+02  0.51100000000E-03 0.  1.
         12    1    3    3    0    0 -0.26044908466E+02  0.20676121232E+02  0.21761622788E+01  0.33325289623E+02  0.00000000000E+00 0. -1.
</event>
<event>
 7    1  0.2684545E-013  0.7246154E+02  0.7816164E-02  0.1226708E+00
        -11   -1    0    0    0    0  0.00000000000E+00  0.00000000000E+00  0.45593999997E+02  0.45594000000E+02  0.51100000000E-03 0. -1.
         11   -1    0    0    0    0 -0.00000000000E+00 -0.00000000000E+00 -0.45593999997E+02  0.45594000000E+02  0.51100000000E-03 0.  1.
    9900012    2    1    2    0    0  0.18405597471E+02 -0.28174812780E+01  0.19939696246E+01  0.72461544545E+02  0.69999966457E+02 0.  0.
         12    1    1    2    0    0 -0.18405597471E+02  0.28174812780E+01 -0.19939696246E+01  0.18726455455E+02  0.00000000000E+00 0. -1.
         11    1    3    3    0    0 -0.71384911066E+01 -0.12076531722E+02  0.53073274354E+01  0.14998946579E+02  0.51100000000E-03 0. -1.
        -11    1    3    3    0    0  0.34632787464E+01 -0.15731531673E+02  0.12658638468E+02  0.20486984077E+02  0.51100000000E-03 0.  1.
        -12    1    3    3    0    0  0.22080809832E+02  0.24990582117E+02 -0.15971996279E+02  0.36975613889E+02  0.00000000000E+00 0.  1.
</event>
<event>
 7    1  0.2684545E-013  0.7246156E+02  0.7816164E-02  0.1226708E+00
        -11   -1    0    0    0    0  0.00000000000E+00  0.00000000000E+00  0.45593999997E+02  0.45594000000E+02  0.51100000000E-03 0. -1.
         11   -1    0    0    0    0 -0.00000000000E+00 -0.00000000000E+00 -0.45593999997E+02  0.45594000000E+02  0.51100000000E-03 0.  1.
    9900012    2    1    2    0    0  0.17222069123E+02 -0.70213539826E+01  0.21864543749E+01  0.72461557215E+02  0.69999982962E+02 0.  0.
         12    1    1    2    0    0 -0.17222069123E+02  0.70213539826E+01 -0.21864543749E+01  0.18726442785E+02  0.00000000000E+00 0. -1.
         11    1    3    3    0    0  0.47961004530E+01 -0.25806308630E+02  0.10855426503E+02  0.28404373422E+02  0.51100000000E-03 0. -1.
        -11    1    3    3    0    0 -0.70470504530E+01 -0.17324985632E+01  0.83359378628E+01  0.11052164117E+02  0.51100000000E-03 0.  1.
         12    1    3    3    0    0  0.19473019123E+02  0.20517453211E+02 -0.17004909991E+02  0.33005019676E+02  0.00000000000E+00 0. -1.
</event>
<event>
 7    1  0.2684545E-013  0.7246154E+02  0.7816164E-02  0.1226708E+00
        -11   -1    0    0    0    0  0.00000000000E+00  0.00000000000E+00  0.45593999997E+02  0.45594000000E+02  0.51100000000E-03 0.  1.
         11   -1    0    0    0    0 -0.00000000000E+00 -0.00000000000E+00 -0.45593999997E+02  0.45594000000E+02  0.51100000000E-03 0. -1.
    9900012    2    1    2    0    0 -0.53451875479E+00 -0.51377641992E+01  0.17999939398E+02  0.72461544126E+02  0.69999965910E+02 0.  0.
         12    1    1    2    0    0  0.53451875479E+00  0.51377641992E+01 -0.17999939398E+02  0.18726455874E+02  0.00000000000E+00 0. -1.
         11    1    3    3    0    0  0.64743258958E+01 -0.26502928518E+00 -0.63398184792E+01  0.90653425163E+01  0.51100000000E-03 0. -1.
        -11    1    3    3    0    0  0.20374959036E+02  0.14105713441E+02  0.14241498170E+02  0.28581993944E+02  0.51100000000E-03 0.  1.
         12    1    3    3    0    0 -0.27383803686E+02 -0.18978448355E+02  0.10098259707E+02  0.34814207666E+02  0.00000000000E+00 0. -1.
</event>
<event>
 7    1  0.2684545E-013  0.7246139E+02  0.7816164E-02  0.1226708E+00
        -11   -1    0    0    0    0  0.00000000000E+00  0.00000000000E+00  0.45593999997E+02  0.45594000000E+02  0.51100000000E-03 0. -1.
         11   -1    0    0    0    0 -0.00000000000E+00 -0.00000000000E+00 -0.45593999997E+02  0.45594000000E+02  0.51100000000E-03 0.  1.
    9900012    2    1    2    0    0  0.10143083968E+01 -0.11742348152E+02 -0.14552466220E+02  0.72461392332E+02  0.69999768171E+02 0.  0.
         12    1    1    2    0    0 -0.10143083968E+01  0.11742348152E+02  0.14552466220E+02  0.18726607668E+02  0.00000000000E+00 0. -1.
         11    1    3    3    0    0 -0.87495685678E+01 -0.11287816565E+00  0.17037512654E+02  0.19153185878E+02  0.51100000000E-03 0. -1.
        -11    1    3    3    0    0 -0.62994834195E+01  0.76326007289E+01  0.32169660758E+01  0.10406197972E+02  0.51100000000E-03 0.  1.
         12    1    3    3    0    0  0.16063360384E+02 -0.19262070716E+02 -0.34806944949E+02  0.42902008482E+02  0.00000000000E+00 0. -1.
</event>
<event>
 7    1  0.2684545E-013  0.7246179E+02  0.7816164E-02  0.1226707E+00
        -11   -1    0    0    0    0  0.00000000000E+00  0.00000000000E+00  0.45593999997E+02  0.45594000000E+02  0.51100000000E-03 0. -1.
         11   -1    0    0    0    0 -0.00000000000E+00 -0.00000000000E+00 -0.45593999997E+02  0.45594000000E+02  0.51100000000E-03 0.  1.
    9900012    2    1    2    0    0 -0.43909910995E+01  0.11938672159E+02 -0.13742568660E+02  0.72461791383E+02  0.70000288009E+02 0.  0.
         12    1    1    2    0    0  0.43909910995E+01 -0.11938672159E+02  0.13742568660E+02  0.18726208617E+02  0.00000000000E+00 0. -1.
         11    1    3    3    0    0 -0.98571839604E+01 -0.70959684973E+01  0.21727502656E+01  0.12338463783E+02  0.51100000000E-03 0.  1.
        -11    1    3    3    0    0  0.13926150294E+02 -0.69288169593E+01  0.13058471326E+02  0.20309353512E+02  0.51100000000E-03 0. -1.
        -12    1    3    3    0    0 -0.84599574329E+01  0.25963457616E+02 -0.28973790252E+02  0.39813974088E+02  0.00000000000E+00 0.  1.
</event>
<event>
 7    1  0.2684545E-013  0.7246157E+02  0.7816164E-02  0.1226708E+00
        -11   -1    0    0    0    0  0.00000000000E+00  0.00000000000E+00  0.45593999997E+02  0.45594000000E+02  0.51100000000E-03 0.  1.
         11   -1    0    0    0    0 -0.00000000000E+00 -0.00000000000E+00 -0.45593999997E+02  0.45594000000E+02  0.51100000000E-03 0. -1.
    9900012    2    1    2    0    0 -0.15225193690E+02 -0.40895099231E+01  0.10106849065E+02  0.72461574491E+02  0.70000005467E+02 0.  0.
         12    1    1    2    0    0  0.15225193690E+02  0.40895099231E+01 -0.10106849065E+02  0.18726425509E+02  0.00000000000E+00 0. -1.
         11    1    3    3    0    0 -0.21561698116E+02 -0.19143914168E+02  0.11451672282E+02  0.31024781604E+02  0.51100000000E-03 0. -1.
        -11    1    3    3    0    0 -0.11270850287E+02  0.48477747978E+01  0.11950290081E+02  0.17127242042E+02  0.51100000000E-03 0.  1.
        -12    1    3    3    0    0  0.17607354713E+02  0.10206629447E+02 -0.13295113298E+02  0.24309550845E+02  0.00000000000E+00 0.  1.
</event>
<event>
 7    1  0.2684545E-013  0.7246165E+02  0.7816164E-02  0.1226708E+00
        -11   -1    0    0    0    0  0.00000000000E+00  0.00000000000E+00  0.45593999997E+02  0.45594000000E+02  0.51100000000E-03 0.  1.
         11   -1    0    0    0    0 -0.00000000000E+00 -0.00000000000E+00 -0.45593999997E+02  0.45594000000E+02  0.51100000000E-03 0. -1.
    9900012    2    1    2    0    0 -0.70149822614E+01 -0.12980024747E+02  0.11531912223E+02  0.72461654438E+02  0.70000109613E+02 0.  0.
         12    1    1    2    0    0  0.70149822614E+01  0.12980024747E+02 -0.11531912223E+02  0.18726345562E+02  0.00000000000E+00 0. -1.
         11    1    3    3    0    0  0.44229168307E+01 -0.12765568086E+02 -0.94597091196E+01  0.16492665604E+02  0.51100000000E-03 0. -1.
        -11    1    3    3    0    0 -0.10021907108E+02 -0.19387138244E+02  0.28005111401E+02  0.35504732308E+02  0.51100000000E-03 0.  1.
         12    1    3    3    0    0 -0.14159919845E+01  0.19172681583E+02 -0.70134900586E+01  0.20464256526E+02  0.00000000000E+00 0. -1.
</event>
<event>
 7    1  0.2684545E-013  0.7246168E+02  0.7816164E-02  0.1226708E+00
        -11   -1    0    0    0    0  0.00000000000E+00  0.00000000000E+00  0.45593999997E+02  0.45594000000E+02  0.51100000000E-03 0.  1.
         11   -1    0    0    0    0 -0.00000000000E+00 -0.00000000000E+00 -0.45593999997E+02  0.45594000000E+02  0.51100000000E-03 0. -1.
    9900012    2    1    2    0    0  0.81147379575E+01  0.31754252851E+00  0.16873802336E+02  0.72461681338E+02  0.70000144655E+02 0.  0.
         12    1    1    2    0    0 -0.81147379575E+01 -0.31754252851E+00 -0.16873802336E+02  0.18726318662E+02  0.00000000000E+00 0. -1.
         11    1    3    3    0    0  0.72504376940E+01  0.44241209184E+01 -0.16560983248E+02  0.18612035328E+02  0.51100000000E-03 0. -1.
        -11    1    3    3    0    0 -0.58270456467E+01  0.15003842283E+02  0.16724373545E+01  0.16182298699E+02  0.51100000000E-03 0.  1.
        -12    1    3    3    0    0  0.66913459102E+01 -0.19110420673E+02  0.31762348229E+02  0.37667347310E+02  0.00000000000E+00 0.  1.
</event>
<event>
 7    1  0.2684545E-013  0.7246158E+02  0.7816164E-02  0.1226708E+00
        -11   -1    0    0    0    0  0.00000000000E+00  0.00000000000E+00  0.45593999997E+02  0.45594000000E+02  0.51100000000E-03 0. -1.
         11   -1    0    0    0    0 -0.00000000000E+00 -0.00000000000E+00 -0.45593999997E+02  0.45594000000E+02  0.51100000000E-03 0.  1.
    9900012    2    1    2    0    0 -0.41982213771E+01  0.69705968988E+01 -0.16866076562E+02  0.72461579562E+02  0.70000012072E+02 0.  0.
         12    1    1    2    0    0  0.41982213771E+01 -0.69705968988E+01  0.16866076562E+02  0.18726420438E+02  0.00000000000E+00 0. -1.
         11    1    3    3    0    0  0.86841427251E+00  0.11731390703E+02  0.54828775446E+01  0.12978505985E+02  0.51100000000E-03 0. -1.
        -11    1    3    3    0    0  0.16050835958E+02 -0.15718399571E+02  0.52240281949E+01  0.23064862689E+02  0.51100000000E-03 0.  1.
        -12    1    3    3    0    0 -0.21117471607E+02  0.10957605767E+02 -0.27572982301E+02  0.36418210887E+02  0.00000000000E+00 0.  1.
</event>
<event>
 7    1  0.2946256E-013  0.7246157E+02  0.7816164E-02  0.1226708E+00
        -11   -1    0    0    0    0  0.00000000000E+00  0.00000000000E+00  0.45593999997E+02  0.45594000000E+02  0.51100000000E-03 0. -1.
         11   -1    0    0    0    0 -0.00000000000E+00 -0.00000000000E+00 -0.45593999997E+02  0.45594000000E+02  0.51100000000E-03 0.  1.
    9900012    2    1    2    0    0  0.11607008334E+01 -0.16793954231E+02 -0.82033662654E+01  0.72461565656E+02  0.69999993958E+02 0.  0.
         12    1    1    2    0    0 -0.11607008334E+01  0.16793954231E+02  0.82033662654E+01  0.18726434344E+02  0.00000000000E+00 0. -1.
         11    1    3    3    0    0  0.93819643329E+01  0.18008122185E+02 -0.97452037404E-01  0.20305743437E+02  0.51100000000E-03 0. -1.
        -11    1    3    3    0    0 -0.66655121723E+01  0.62499883077E+01 -0.61763597398E+01  0.11028999332E+02  0.51100000000E-03 0.  1.
        -12    1    3    3    0    0 -0.15557513271E+01 -0.41052064724E+02 -0.19295544882E+01  0.41126822887E+02  0.00000000000E+00 0.  1.
</event>
<event>
 7    1  0.2684545E-013  0.7246155E+02  0.7816164E-02  0.1226708E+00
        -11   -1    0    0    0    0  0.00000000000E+00  0.00000000000E+00  0.45593999997E+02  0.45594000000E+02  0.51100000000E-03 0.  1.
         11   -1    0    0    0    0 -0.00000000000E+00 -0.00000000000E+00 -0.45593999997E+02  0.45594000000E+02  0.51100000000E-03 0. -1.
    9900012    2    1    2    0    0 -0.11971922465E+02  0.10279786092E+02 -0.10083602793E+02  0.72461548791E+02  0.69999971988E+02 0.  0.
         12    1    1    2    0    0  0.11971922465E+02 -0.10279786092E+02  0.10083602793E+02  0.18726451209E+02  0.00000000000E+00 0. -1.
         11    1    3    3    0    0  0.14370537349E+02 -0.10320661691E+02 -0.90478400627E+00  0.17715728486E+02  0.51100000000E-03 0.  1.
        -11    1    3    3    0    0  0.78665802757E+01  0.14692014150E+02  0.47670207238E+01  0.17333864308E+02  0.51100000000E-03 0. -1.
        -12    1    3    3    0    0 -0.34209040089E+02  0.59084336338E+01 -0.13945839510E+02  0.37411955997E+02  0.00000000000E+00 0.  1.
</event>
<event>
 7    1  0.2684545E-013  0.7246156E+02  0.7816164E-02  0.1226708E+00
        -11   -1    0    0    0    0  0.00000000000E+00  0.00000000000E+00  0.45593999997E+02  0.45594000000E+02  0.51100000000E-03 0.  1.
         11   -1    0    0    0    0 -0.00000000000E+00 -0.00000000000E+00 -0.45593999997E+02  0.45594000000E+02  0.51100000000E-03 0. -1.
    9900012    2    1    2    0    0  0.94613182583E+01 -0.96462648295E+00  0.16131726868E+02  0.72461557221E+02  0.69999982969E+02 0.  0.
         12    1    1    2    0    0 -0.94613182583E+01  0.96462648295E+00 -0.16131726868E+02  0.18726442779E+02  0.00000000000E+00 0. -1.
         11    1    3    3    0    0 -0.41148788948E+01  0.27466249978E+02 -0.67274062063E+01  0.28575953365E+02  0.51100000000E-03 0. -1.
        -11    1    3    3    0    0 -0.75764233540E+00 -0.81997144329E+01 -0.23126403907E+01  0.85532242182E+01  0.51100000000E-03 0.  1.
        -12    1    3    3    0    0  0.14333839489E+02 -0.20231162028E+02  0.25171773465E+02  0.35332379638E+02  0.00000000000E+00 0.  1.
</event>
<event>
 7    1  0.2684545E-013  0.7246153E+02  0.7816164E-02  0.1226708E+00
        -11   -1    0    0    0    0  0.00000000000E+00  0.00000000000E+00  0.45593999997E+02  0.45594000000E+02  0.51100000000E-03 0.  1.
         11   -1    0    0    0    0 -0.00000000000E+00 -0.00000000000E+00 -0.45593999997E+02  0.45594000000E+02  0.51100000000E-03 0. -1.
    9900012    2    1    2    0    0 -0.37132174774E+01  0.32840709995E+01  0.18058452998E+02  0.72461525932E+02  0.69999942209E+02 0.  0.
         12    1    1    2    0    0  0.37132174774E+01 -0.32840709995E+01 -0.18058452998E+02  0.18726474068E+02  0.00000000000E+00 0. -1.
         11    1    3    3    0    0 -0.58849221736E+01 -0.65823609273E+01  0.14760596000E+02  0.17199854037E+02  0.51100000000E-03 0. -1.
        -11    1    3    3    0    0 -0.18278703369E+02 -0.12987971005E+02  0.88287460827E+01  0.24098654430E+02  0.51100000000E-03 0.  1.
         12    1    3    3    0    0  0.20450408065E+02  0.22854402932E+02 -0.55308890847E+01  0.31163017464E+02  0.00000000000E+00 0. -1.
</event>
<event>
 7    1  0.2684545E-013  0.7246141E+02  0.7816164E-02  0.1226708E+00
        -11   -1    0    0    0    0  0.00000000000E+00  0.00000000000E+00  0.45593999997E+02  0.45594000000E+02  0.51100000000E-03 0.  1.
         11   -1    0    0    0    0 -0.00000000000E+00 -0.00000000000E+00 -0.45593999997E+02  0.45594000000E+02  0.51100000000E-03 0. -1.
    9900012    2    1    2    0    0  0.14459718028E+02  0.88545468116E+01  0.79497629668E+01  0.72461409923E+02  0.69999791086E+02 0.  0.
         12    1    1    2    0    0 -0.14459718028E+02 -0.88545468116E+01 -0.79497629668E+01  0.18726590077E+02  0.00000000000E+00 0. -1.
         11    1    3    3    0    0 -0.78697055273E+00  0.88752150895E+00  0.28432488577E+01  0.30807598750E+01  0.51100000000E-03 0. -1.
        -11    1    3    3    0    0  0.32464944536E+01  0.13619191533E+02  0.34445615618E+02  0.37182287985E+02  0.51100000000E-03 0.  1.
         12    1    3    3    0    0  0.12000194127E+02 -0.56521662302E+01 -0.29339101509E+02  0.32198362063E+02  0.00000000000E+00 0. -1.
</event>
<event>
 7    1  0.2684545E-013  0.7246160E+02  0.7816164E-02  0.1226708E+00
        -11   -1    0    0    0    0  0.00000000000E+00  0.00000000000E+00  0.45593999997E+02  0.45594000000E+02  0.51100000000E-03 0. -1.
         11   -1    0    0    0    0 -0.00000000000E+00 -0.00000000000E+00 -0.45593999997E+02  0.45594000000E+02  0.51100000000E-03 0.  1.
    9900012    2    1    2    0    0 -0.10954830645E+01  0.74566776958E+01 -0.17142810102E+02  0.72461599823E+02  0.70000038466E+02 0.  0.
         12    1    1    2    0    0  0.10954830645E+01 -0.74566776958E+01  0.17142810102E+02  0.18726400177E+02  0.00000000000E+00 0. -1.
         11    1    3    3    0    0  0.20432957821E+02 -0.85150611180E+01 -0.95712363533E+01  0.24116811496E+02  0.51100000000E-03 0. -1.
        -11    1    3    3    0    0  0.62525570534E+01  0.17699267160E+02  0.20758497309E+01  0.18885647463E+02  0.51100000000E-03 0.  1.
        -12    1    3    3    0    0 -0.27780997939E+02 -0.17275283465E+01 -0.96474234796E+01  0.29459140864E+02  0.00000000000E+00 0.  1.
</event>
<event>
 7    1  0.2684545E-013  0.7246123E+02  0.7816164E-02  0.1226709E+00
        -11   -1    0    0    0    0  0.00000000000E+00  0.00000000000E+00  0.45593999997E+02  0.45594000000E+02  0.51100000000E-03 0. -1.
         11   -1    0    0    0    0 -0.00000000000E+00 -0.00000000000E+00 -0.45593999997E+02  0.45594000000E+02  0.51100000000E-03 0.  1.
    9900012    2    1    2    0    0  0.20272758496E+01 -0.43407202630E+01 -0.18103593127E+02  0.72461233491E+02  0.69999561250E+02 0.  0.
         12    1    1    2    0    0 -0.20272758496E+01  0.43407202630E+01  0.18103593127E+02  0.18726766509E+02  0.00000000000E+00 0. -1.
         11    1    3    3    0    0 -0.23835605560E+00 -0.30192583100E+01  0.57167777406E+01  0.64694885693E+01  0.51100000000E-03 0. -1.
        -11    1    3    3    0    0 -0.19608561648E+01 -0.28592363183E+02  0.12794151010E+01  0.28688065332E+02  0.51100000000E-03 0.  1.
         12    1    3    3    0    0  0.42264880700E+01  0.27270901230E+02 -0.25099785968E+02  0.37303679590E+02  0.00000000000E+00 0. -1.
</event>
<event>
 7    1  0.2684545E-013  0.7246159E+02  0.7816164E-02  0.1226708E+00
        -11   -1    0    0    0    0  0.00000000000E+00  0.00000000000E+00  0.45593999997E+02  0.45594000000E+02  0.51100000000E-03 0.  1.
         11   -1    0    0    0    0 -0.00000000000E+00 -0.00000000000E+00 -0.45593999997E+02  0.45594000000E+02  0.51100000000E-03 0. -1.
    9900012    2    1    2    0    0 -0.55549655303E+00  0.87895400652E+01  0.16526156249E+02  0.72461590004E+02  0.70000025675E+02 0.  0.
         12    1    1    2    0    0  0.55549655303E+00 -0.87895400652E+01 -0.16526156249E+02  0.18726409996E+02  0.00000000000E+00 0. -1.
         11    1    3    3    0    0 -0.42304359027E+01  0.14399781143E+02  0.56028777328E+01  0.16020066294E+02  0.51100000000E-03 0. -1.
        -11    1    3    3    0    0 -0.70570866498E+01 -0.16674610632E+02  0.28058497654E+02  0.33393478444E+02  0.51100000000E-03 0.  1.
         12    1    3    3    0    0  0.10732026000E+02  0.11064369554E+02 -0.17135219138E+02  0.23048045266E+02  0.00000000000E+00 0. -1.
</event>
<event>
 7    1  0.2684545E-013  0.7246156E+02  0.7816164E-02  0.1226708E+00
        -11   -1    0    0    0    0  0.00000000000E+00  0.00000000000E+00  0.45593999997E+02  0.45594000000E+02  0.51100000000E-03 0. -1.
         11   -1    0    0    0    0 -0.00000000000E+00 -0.00000000000E+00 -0.45593999997E+02  0.45594000000E+02  0.51100000000E-03 0.  1.
    9900012    2    1    2    0    0  0.17345522818E+02  0.58699159247E+01 -0.39187497881E+01  0.72461556806E+02  0.69999982429E+02 0.  0.
         12    1    1    2    0    0 -0.17345522818E+02 -0.58699159247E+01  0.39187497881E+01  0.18726443194E+02  0.00000000000E+00 0. -1.
         11    1    3    3    0    0 -0.16863414326E+02 -0.96332100018E+00 -0.19324070504E+02  0.25665588464E+02  0.51100000000E-03 0.  1.
        -11    1    3    3    0    0  0.23975203975E+02  0.15802329656E+02  0.39039650224E+01  0.28978698580E+02  0.51100000000E-03 0. -1.
        -12    1    3    3    0    0  0.10233733169E+02 -0.89690927314E+01  0.11501355694E+02  0.17817269763E+02  0.00000000000E+00 0.  1.
</event>
<event>
 7    1  0.2684545E-013  0.7246159E+02  0.7816164E-02  0.1226708E+00
        -11   -1    0    0    0    0  0.00000000000E+00  0.00000000000E+00  0.45593999997E+02  0.45594000000E+02  0.51100000000E-03 0.  1.
         11   -1    0    0    0    0 -0.00000000000E+00 -0.00000000000E+00 -0.45593999997E+02  0.45594000000E+02  0.51100000000E-03 0. -1.
    9900012    2    1    2    0    0  0.12781063564E+02  0.67357776320E+01  0.11914364001E+02  0.72461592024E+02  0.70000028307E+02 0.  0.
         12    1    1    2    0    0 -0.12781063564E+02 -0.67357776320E+01 -0.11914364001E+02  0.18726407976E+02  0.00000000000E+00 0. -1.
         11    1    3    3    0    0  0.25643717278E+02 -0.10417700636E+02 -0.16781107733E+02  0.32368724093E+02  0.51100000000E-03 0. -1.
        -11    1    3    3    0    0 -0.59165050661E+01  0.53862200090E+01 -0.33419118763E+00  0.80080011360E+01  0.51100000000E-03 0.  1.
        -12    1    3    3    0    0 -0.69461486485E+01  0.11767258259E+02  0.29029662921E+02  0.32084866796E+02  0.00000000000E+00 0.  1.
</event>
<event>
 7    1  0.2684545E-013  0.7246144E+02  0.7816164E-02  0.1226708E+00
        -11   -1    0    0    0    0  0.00000000000E+00  0.00000000000E+00  0.45593999997E+02  0.45594000000E+02  0.51100000000E-03 0. -1.
         11   -1    0    0    0    0 -0.00000000000E+00 -0.00000000000E+00 -0.45593999997E+02  0.45594000000E+02  0.51100000000E-03 0.  1.
    9900012    2    1    2    0    0  0.83349682907E+01  0.79671073613E+01 -0.14755935797E+02  0.72461437653E+02  0.69999827209E+02 0.  0.
         12    1    1    2    0    0 -0.83349682907E+01 -0.79671073613E+01  0.14755935797E+02  0.18726562347E+02  0.00000000000E+00 0. -1.
         11    1    3    3    0    0  0.64867418829E+01  0.55232263682E+01 -0.87457515449E+01  0.12209505318E+02  0.51100000000E-03 0. -1.
        -11    1    3    3    0    0  0.13597023111E+02 -0.22010261003E+02 -0.17025515623E+02  0.30970934913E+02  0.51100000000E-03 0.  1.
         12    1    3    3    0    0 -0.11748796704E+02  0.24454141996E+02  0.11015331371E+02  0.29280997421E+02  0.00000000000E+00 0. -1.
</event>
<event>
 7    1  0.2684545E-013  0.7246099E+02  0.7816164E-02  0.1226710E+00
        -11   -1    0    0    0    0  0.00000000000E+00  0.00000000000E+00  0.45593999997E+02  0.45594000000E+02  0.51100000000E-03 0. -1.
         11   -1    0    0    0    0 -0.00000000000E+00 -0.00000000000E+00 -0.45593999997E+02  0.45594000000E+02  0.51100000000E-03 0.  1.
    9900012    2    1    2    0    0 -0.14705454851E+02 -0.11520904716E+02  0.13112531181E+01  0.72460986555E+02  0.69999239567E+02 0.  0.
         12    1    1    2    0    0  0.14705454851E+02  0.11520904716E+02 -0.13112531181E+01  0.18727013445E+02  0.00000000000E+00 0. -1.
         11    1    3    3    0    0 -0.52125685780E+01 -0.49735778607E+01  0.41764642873E+01  0.83276768742E+01  0.51100000000E-03 0. -1.
        -11    1    3    3    0    0 -0.14160713117E+02 -0.33657989533E+02 -0.28121600015E+01  0.36623684952E+02  0.51100000000E-03 0.  1.
         12    1    3    3    0    0  0.46678268441E+01  0.27110662678E+02 -0.53051167658E-01  0.27509624728E+02  0.00000000000E+00 0. -1.
</event>
<event>
 7    1  0.2684545E-013  0.7246157E+02  0.7816164E-02  0.1226708E+00
        -11   -1    0    0    0    0  0.00000000000E+00  0.00000000000E+00  0.45593999997E+02  0.45594000000E+02  0.51100000000E-03 0.  1.
         11   -1    0    0    0    0 -0.00000000000E+00 -0.00000000000E+00 -0.45593999997E+02  0.45594000000E+02  0.51100000000E-03 0. -1.
    9900012    2    1    2    0    0  0.18669945847E+02  0.83043971805E+00  0.11927679518E+01  0.72461569388E+02  0.69999998820E+02 0.  0.
         12    1    1    2    0    0 -0.18669945847E+02 -0.83043971805E+00 -0.11927679518E+01  0.18726430612E+02  0.00000000000E+00 0. -1.
         11    1    3    3    0    0  0.19589757988E+02 -0.61161360450E+01 -0.18197465986E+02  0.27428334013E+02  0.51100000000E-03 0. -1.
        -11    1    3    3    0    0  0.16575449819E+02 -0.38471624205E+01  0.35972459659E+00  0.17019858914E+02  0.51100000000E-03 0.  1.
        -12    1    3    3    0    0 -0.17495261960E+02  0.10793738184E+02  0.19030509341E+02  0.28013376462E+02  0.00000000000E+00 0.  1.
</event>
<event>
 7    1  0.2684545E-013  0.7246156E+02  0.7816164E-02  0.1226708E+00
        -11   -1    0    0    0    0  0.00000000000E+00  0.00000000000E+00  0.45593999997E+02  0.45594000000E+02  0.51100000000E-03 0. -1.
         11   -1    0    0    0    0 -0.00000000000E+00 -0.00000000000E+00 -0.45593999997E+02  0.45594000000E+02  0.51100000000E-03 0.  1.
    9900012    2    1    2    0    0 -0.15130391830E+02 -0.11028975165E+02  0.33542583013E+00  0.72461559852E+02  0.69999986397E+02 0.  0.
         12    1    1    2    0    0  0.15130391830E+02  0.11028975165E+02 -0.33542583013E+00  0.18726440148E+02  0.00000000000E+00 0. -1.
         11    1    3    3    0    0  0.10038948161E+02  0.69035465972E+00  0.67834418310E+01  0.12135573866E+02  0.51100000000E-03 0. -1.
        -11    1    3    3    0    0 -0.31103542619E+02  0.34694017753E+01  0.13904790665E+02  0.34246318281E+02  0.51100000000E-03 0.  1.
         12    1    3    3    0    0  0.59342026279E+01 -0.15188731600E+02 -0.20352806665E+02  0.26079667705E+02  0.00000000000E+00 0. -1.
</event>
<event>
 7    1  0.2684545E-013  0.7246158E+02  0.7816164E-02  0.1226708E+00
        -11   -1    0    0    0    0  0.00000000000E+00  0.00000000000E+00  0.45593999997E+02  0.45594000000E+02  0.51100000000E-03 0.  1.
         11   -1    0    0    0    0 -0.00000000000E+00 -0.00000000000E+00 -0.45593999997E+02  0.45594000000E+02  0.51100000000E-03 0. -1.
    9900012    2    1    2    0    0  0.15945593784E+02  0.81858419670E+01 -0.54229948507E+01  0.72461579013E+02  0.70000011358E+02 0.  0.
         12    1    1    2    0    0 -0.15945593784E+02 -0.81858419670E+01  0.54229948507E+01  0.18726420987E+02  0.00000000000E+00 0. -1.
         11    1    3    3    0    0 -0.65414553625E+01 -0.10676562948E+02 -0.25377323357E+02  0.28298200926E+02  0.51100000000E-03 0. -1.
        -11    1    3    3    0    0  0.11453072376E+02  0.11043338673E+02 -0.42229435231E+01  0.16460906662E+02  0.51100000000E-03 0.  1.
        -12    1    3    3    0    0  0.11033976771E+02  0.78190662417E+01  0.24177272029E+02  0.27702471425E+02  0.00000000000E+00 0.  1.
</event>
<event>
 7    1  0.2684545E-013  0.7246157E+02  0.7816164E-02  0.1226708E+00
        -11   -1    0    0    0    0  0.00000000000E+00  0.00000000000E+00  0.45593999997E+02  0.45594000000E+02  0.51100000000E-03 0.  1.
         11   -1    0    0    0    0 -0.00000000000E+00 -0.00000000000E+00 -0.45593999997E+02  0.45594000000E+02  0.51100000000E-03 0. -1.
    9900012    2    1    2    0    0  0.16442596437E+01 -0.18152275221E+02 -0.42977159634E+01  0.72461573539E+02  0.70000004227E+02 0.  0.
         12    1    1    2    0    0 -0.16442596437E+01  0.18152275221E+02  0.42977159634E+01  0.18726426461E+02  0.00000000000E+00 0. -1.
         11    1    3    3    0    0 -0.88372450316E+01 -0.39946249007E+01 -0.36825826208E+01  0.10373781512E+02  0.51100000000E-03 0. -1.
        -11    1    3    3    0    0 -0.17863462486E+02  0.85737458675E+01  0.12536027170E+02  0.23447054989E+02  0.51100000000E-03 0.  1.
         12    1    3    3    0    0  0.28344967161E+02 -0.22731396188E+02 -0.13151160512E+02  0.38640737038E+02  0.00000000000E+00 0. -1.
</event>
<event>
 7    1  0.2684545E-013  0.7246154E+02  0.7816164E-02  0.1226708E+00
        -11   -1    0    0    0    0  0.00000000000E+00  0.00000000000E+00  0.45593999997E+02  0.45594000000E+02  0.51100000000E-03 0.  1.
         11   -1    0    0    0    0 -0.00000000000E+00 -0.00000000000E+00 -0.45593999997E+02  0.45594000000E+02  0.51100000000E-03 0. -1.
    9900012    2    1    2    0    0  0.60510003985E+01  0.82294023727E+01  0.15695308486E+02  0.72461538035E+02  0.69999957977E+02 0.  0.
         12    1    1    2    0    0 -0.60510003985E+01 -0.82294023727E+01 -0.15695308486E+02  0.18726461965E+02  0.00000000000E+00 0. -1.
         11    1    3    3    0    0  0.11094953632E+02 -0.91566218349E+01  0.93025175804E+01  0.17131215751E+02  0.51100000000E-03 0. -1.
        -11    1    3    3    0    0  0.18954492889E+00 -0.13519580180E+02  0.17464602504E+02  0.22086813179E+02  0.51100000000E-03 0.  1.
        -12    1    3    3    0    0 -0.52334981620E+01  0.30905604387E+02 -0.11071811598E+02  0.33243509105E+02  0.00000000000E+00 0.  1.
</event>
<event>
 7    1  0.2684545E-013  0.7246163E+02  0.7816164E-02  0.1226708E+00
        -11   -1    0    0    0    0  0.00000000000E+00  0.00000000000E+00  0.45593999997E+02  0.45594000000E+02  0.51100000000E-03 0.  1.
         11   -1    0    0    0    0 -0.00000000000E+00 -0.00000000000E+00 -0.45593999997E+02  0.45594000000E+02  0.51100000000E-03 0. -1.
    9900012    2    1    2    0    0 -0.32481693242E+01  0.71896406512E+01  0.16983391219E+02  0.72461625179E+02  0.70000071497E+02 0.  0.
         12    1    1    2    0    0  0.32481693242E+01 -0.71896406512E+01 -0.16983391219E+02  0.18726374821E+02  0.00000000000E+00 0. -1.
         11    1    3    3    0    0 -0.45521646901E+01  0.17922938576E+02  0.34102059577E+02  0.38793097302E+02  0.51100000000E-03 0. -1.
        -11    1    3    3    0    0 -0.26192368232E+01 -0.28247910105E+01  0.69972241750E+01  0.79875523288E+01  0.51100000000E-03 0.  1.
         12    1    3    3    0    0  0.39232321891E+01 -0.79085069145E+01 -0.24115892534E+02  0.25680975548E+02  0.00000000000E+00 0. -1.
</event>
<event>
 7    1  0.2684545E-013  0.7246158E+02  0.7816164E-02  0.1226708E+00
        -11   -1    0    0    0    0  0.00000000000E+00  0.00000000000E+00  0.45593999997E+02  0.45594000000E+02  0.51100000000E-03 0.  1.
         11   -1    0    0    0    0 -0.00000000000E+00 -0.00000000000E+00 -0.45593999997E+02  0.45594000000E+02  0.51100000000E-03 0. -1.
    9900012    2    1    2    0    0 -0.24533705464E+01 -0.81296359003E+01  0.16690382747E+02  0.72461577940E+02  0.70000009960E+02 0.  0.
         12    1    1    2    0    0  0.24533705464E+01  0.81296359003E+01 -0.16690382747E+02  0.18726422060E+02  0.00000000000E+00 0. -1.
         11    1    3    3    0    0  0.15573334338E+02 -0.90544801217E+01  0.37813952946E+01  0.18406827627E+02  0.51100000000E-03 0. -1.
        -11    1    3    3    0    0  0.14371944140E+02  0.11673682901E+01 -0.69984966423E+01  0.16027928207E+02  0.51100000000E-03 0.  1.
        -12    1    3    3    0    0 -0.32398649024E+02 -0.24252406873E+00  0.19907484095E+02  0.38026822106E+02  0.00000000000E+00 0.  1.
</event>
<event>
 7    1  0.2684545E-013  0.7246143E+02  0.7816164E-02  0.1226708E+00
        -11   -1    0    0    0    0  0.00000000000E+00  0.00000000000E+00  0.45593999997E+02  0.45594000000E+02  0.51100000000E-03 0.  1.
         11   -1    0    0    0    0 -0.00000000000E+00 -0.00000000000E+00 -0.45593999997E+02  0.45594000000E+02  0.51100000000E-03 0. -1.
    9900012    2    1    2    0    0  0.89783654934E+01 -0.40895282839E+01 -0.15916944705E+02  0.72461430179E+02  0.69999817473E+02 0.  0.
         12    1    1    2    0    0 -0.89783654934E+01  0.40895282839E+01  0.15916944705E+02  0.18726569821E+02  0.00000000000E+00 0. -1.
         11    1    3    3    0    0 -0.47216896831E+01  0.12691684740E+02 -0.17682160487E+02  0.22271776192E+02  0.51100000000E-03 0. -1.
        -11    1    3    3    0    0 -0.84329124565E+00  0.20271049214E+01 -0.18694562355E+02  0.18823043229E+02  0.51100000000E-03 0.  1.
        -12    1    3    3    0    0  0.14543346422E+02 -0.18808317945E+02  0.20459778137E+02  0.31366610758E+02  0.00000000000E+00 0.  1.
</event>
<event>
 7    1  0.2684545E-013  0.7246156E+02  0.7816164E-02  0.1226708E+00
        -11   -1    0    0    0    0  0.00000000000E+00  0.00000000000E+00  0.45593999997E+02  0.45594000000E+02  0.51100000000E-03 0. -1.
         11   -1    0    0    0    0 -0.00000000000E+00 -0.00000000000E+00 -0.45593999997E+02  0.45594000000E+02  0.51100000000E-03 0.  1.
    9900012    2    1    2    0    0 -0.72366834799E+01 -0.17218139010E+02  0.13585060191E+01  0.72461563143E+02  0.69999990684E+02 0.  0.
         12    1    1    2    0    0  0.72366834799E+01  0.17218139010E+02 -0.13585060191E+01  0.18726436857E+02  0.00000000000E+00 0. -1.
         11    1    3    3    0    0  0.27710915238E+01 -0.20482259266E+02  0.27488893327E+02  0.34392457742E+02  0.51100000000E-03 0. -1.
        -11    1    3    3    0    0  0.17223108492E+01 -0.66925894589E+01  0.89747223991E+00  0.69686845967E+01  0.51100000000E-03 0.  1.
        -12    1    3    3    0    0 -0.11730085853E+02  0.99567097151E+01 -0.27027859548E+02  0.31100420805E+02  0.00000000000E+00 0.  1.
</event>
<event>
 7    1  0.2684545E-013  0.7246144E+02  0.7816164E-02  0.1226708E+00
        -11   -1    0    0    0    0  0.00000000000E+00  0.00000000000E+00  0.45593999997E+02  0.45594000000E+02  0.51100000000E-03 0. -1.
         11   -1    0    0    0    0 -0.00000000000E+00 -0.00000000000E+00 -0.45593999997E+02  0.45594000000E+02  0.51100000000E-03 0.  1.
    9900012    2    1    2    0    0  0.15788152896E+02 -0.41245078751E+01 -0.91873096207E+01  0.72461441449E+02  0.69999832155E+02 0.  0.
         12    1    1    2    0    0 -0.15788152896E+02  0.41245078751E+01  0.91873096207E+01  0.18726558551E+02  0.00000000000E+00 0. -1.
         11    1    3    3    0    0  0.31514946709E+02 -0.24026602752E+02 -0.23583021195E+01  0.39699258116E+02  0.51100000000E-03 0. -1.
        -11    1    3    3    0    0 -0.97519946352E+01 -0.32855816965E+00 -0.63889447269E+01  0.11663102710E+02  0.51100000000E-03 0.  1.
        -12    1    3    3    0    0 -0.59747991775E+01  0.20230653046E+02 -0.44006277430E+00  0.21099080623E+02  0.00000000000E+00 0.  1.
</event>
<event>
 7    1  0.2684545E-013  0.7246155E+02  0.7816164E-02  0.1226708E+00
        -11   -1    0    0    0    0  0.00000000000E+00  0.00000000000E+00  0.45593999997E+02  0.45594000000E+02  0.51100000000E-03 0. -1.
         11   -1    0    0    0    0 -0.00000000000E+00 -0.00000000000E+00 -0.45593999997E+02  0.45594000000E+02  0.51100000000E-03 0.  1.
    9900012    2    1    2    0    0  0.10249214608E+02 -0.62285786396E+01 -0.14381873060E+02  0.72461551734E+02  0.69999975822E+02 0.  0.
         12    1    1    2    0    0 -0.10249214608E+02  0.62285786396E+01  0.14381873060E+02  0.18726448266E+02  0.00000000000E+00 0. -1.
         11    1    3    3    0    0  0.14068618956E+02  0.10529405657E+02  0.13386212983E+02  0.22090385264E+02  0.51100000000E-03 0. -1.
        -11    1    3    3    0    0  0.71279965360E+01 -0.16362864939E+02  0.26472283110E+01  0.18043267487E+02  0.51100000000E-03 0.  1.
        -12    1    3    3    0    0 -0.10947400884E+02 -0.39511935760E+00 -0.30415314353E+02  0.32327898983E+02  0.00000000000E+00 0.  1.
</event>
<event>
 7    1  0.2684545E-013  0.7246156E+02  0.7816164E-02  0.1226708E+00
        -11   -1    0    0    0    0  0.00000000000E+00  0.00000000000E+00  0.45593999997E+02  0.45594000000E+02  0.51100000000E-03 0.  1.
         11   -1    0    0    0    0 -0.00000000000E+00 -0.00000000000E+00 -0.45593999997E+02  0.45594000000E+02  0.51100000000E-03 0. -1.
    9900012    2    1    2    0    0  0.10351125363E+02  0.14485172618E+02  0.58063346290E+01  0.72461560299E+02  0.69999986979E+02 0.  0.
         12    1    1    2    0    0 -0.10351125363E+02 -0.14485172618E+02 -0.58063346290E+01  0.18726439701E+02  0.00000000000E+00 0. -1.
         11    1    3    3    0    0  0.30743005725E+02  0.20259416752E+02 -0.18611253714E+01  0.36865161820E+02  0.51100000000E-03 0. -1.
        -11    1    3    3    0    0 -0.12035245920E+02  0.59590389943E+01  0.14404519814E+02  0.19693843744E+02  0.51100000000E-03 0.  1.
        -12    1    3    3    0    0 -0.83566344419E+01 -0.11733283127E+02 -0.67370598134E+01  0.15902554734E+02  0.00000000000E+00 0.  1.
</event>
<event>
 7    1  0.2684545E-013  0.7246156E+02  0.7816164E-02  0.1226708E+00
        -11   -1    0    0    0    0  0.00000000000E+00  0.00000000000E+00  0.45593999997E+02  0.45594000000E+02  0.51100000000E-03 0. -1.
         11   -1    0    0    0    0 -0.00000000000E+00 -0.00000000000E+00 -0.45593999997E+02  0.45594000000E+02  0.51100000000E-03 0.  1.
    9900012    2    1    2    0    0 -0.10412609489E+02  0.14260818388E+02 -0.62358678843E+01  0.72461563454E+02  0.69999991089E+02 0.  0.
         12    1    1    2    0    0  0.10412609489E+02 -0.14260818388E+02  0.62358678843E+01  0.18726436546E+02  0.00000000000E+00 0. -1.
         11    1    3    3    0    0 -0.75303907605E+01 -0.11300038592E+01  0.16107782037E+02  0.17816967647E+02  0.51100000000E-03 0. -1.
        -11    1    3    3    0    0 -0.22718632339E+02  0.18241669220E+02 -0.87222743425E+01  0.30413365833E+02  0.51100000000E-03 0.  1.
        -12    1    3    3    0    0  0.19836413611E+02 -0.28508469733E+01 -0.13621375579E+02  0.24231229974E+02  0.00000000000E+00 0.  1.
</event>
<event>
 7    1  0.2684545E-013  0.7246156E+02  0.7816164E-02  0.1226708E+00
        -11   -1    0    0    0    0  0.00000000000E+00  0.00000000000E+00  0.45593999997E+02  0.45594000000E+02  0.51100000000E-03 0. -1.
         11   -1    0    0    0    0 -0.00000000000E+00 -0.00000000000E+00 -0.45593999997E+02  0.45594000000E+02  0.51100000000E-03 0.  1.
    9900012    2    1    2    0    0  0.18154381726E+02  0.34132778922E+01 -0.30736823843E+01  0.72461559729E+02  0.69999986237E+02 0.  0.
         12    1    1    2    0    0 -0.18154381726E+02 -0.34132778922E+01  0.30736823843E+01  0.18726440271E+02  0.00000000000E+00 0. -1.
         11    1    3    3    0    0  0.17978100138E+01 -0.29443760965E+01  0.21046027504E+01  0.40411414776E+01  0.51100000000E-03 0. -1.
        -11    1    3    3    0    0  0.22073423094E+02  0.33676260954E+02 -0.17943682418E+01  0.40305661098E+02  0.51100000000E-03 0.  1.
         12    1    3    3    0    0 -0.57168513819E+01 -0.27318606965E+02 -0.33839168930E+01  0.28114757153E+02  0.00000000000E+00 0. -1.
</event>
<event>
 7    1  0.2684545E-013  0.7246155E+02  0.7816164E-02  0.1226708E+00
        -11   -1    0    0    0    0  0.00000000000E+00  0.00000000000E+00  0.45593999997E+02  0.45594000000E+02  0.51100000000E-03 0.  1.
         11   -1    0    0    0    0 -0.00000000000E+00 -0.00000000000E+00 -0.45593999997E+02  0.45594000000E+02  0.51100000000E-03 0. -1.
    9900012    2    1    2    0    0  0.10273679328E+02 -0.14868986785E+02  0.49035490981E+01  0.72461546820E+02  0.69999969421E+02 0.  0.
         12    1    1    2    0    0 -0.10273679328E+02  0.14868986785E+02 -0.49035490981E+01  0.18726453180E+02  0.00000000000E+00 0. -1.
         11    1    3    3    0    0 -0.12474389325E+02 -0.98975686024E+01  0.58762252011E+01  0.16973575821E+02  0.51100000000E-03 0. -1.
        -11    1    3    3    0    0 -0.14531870784E+00 -0.18595961621E+02  0.15462752122E+02  0.24185276711E+02  0.51100000000E-03 0.  1.
         12    1    3    3    0    0  0.22893387361E+02  0.13624543439E+02 -0.16435428225E+02  0.31302694288E+02  0.00000000000E+00 0. -1.
</event>
<event>
 7    1  0.2684545E-013  0.7246154E+02  0.7816164E-02  0.1226708E+00
        -11   -1    0    0    0    0  0.00000000000E+00  0.00000000000E+00  0.45593999997E+02  0.45594000000E+02  0.51100000000E-03 0. -1.
         11   -1    0    0    0    0 -0.00000000000E+00 -0.00000000000E+00 -0.45593999997E+02  0.45594000000E+02  0.51100000000E-03 0.  1.
    9900012    2    1    2    0    0  0.50616412851E+01 -0.17918758527E+02 -0.19945731827E+01  0.72461536323E+02  0.69999955746E+02 0.  0.
         12    1    1    2    0    0 -0.50616412851E+01  0.17918758527E+02  0.19945731827E+01  0.18726463677E+02  0.00000000000E+00 0. -1.
         11    1    3    3    0    0  0.15496567795E+02  0.88669290165E+01  0.20895119231E+01  0.17975875610E+02  0.51100000000E-03 0. -1.
        -11    1    3    3    0    0 -0.30069204359E+01  0.33033816952E+01  0.16622653660E+02  0.17212394258E+02  0.51100000000E-03 0.  1.
        -12    1    3    3    0    0 -0.74280060738E+01 -0.30089069239E+02 -0.20706738766E+02  0.37273266455E+02  0.00000000000E+00 0.  1.
</event>
<event>
 7    1  0.2684545E-013  0.7246156E+02  0.7816164E-02  0.1226708E+00
        -11   -1    0    0    0    0  0.00000000000E+00  0.00000000000E+00  0.45593999997E+02  0.45594000000E+02  0.51100000000E-03 0.  1.
         11   -1    0    0    0    0 -0.00000000000E+00 -0.00000000000E+00 -0.45593999997E+02  0.45594000000E+02  0.51100000000E-03 0. -1.
    9900012    2    1    2    0    0 -0.11537375685E+02 -0.13769340906E+02 -0.52890061190E+01  0.72461564877E+02  0.69999992943E+02 0.  0.
         12    1    1    2    0    0  0.11537375685E+02  0.13769340906E+02  0.52890061190E+01  0.18726435123E+02  0.00000000000E+00 0. -1.
         11    1    3    3    0    0  0.60538483447E+01  0.14433233040E+02 -0.14754195172E+02  0.21509383329E+02  0.51100000000E-03 0. -1.
        -11    1    3    3    0    0 -0.74225386828E+01  0.78214564967E+01  0.81165063597E+01  0.13496182348E+02  0.51100000000E-03 0.  1.
        -12    1    3    3    0    0 -0.10168685347E+02 -0.36024030443E+02  0.13486826930E+01  0.37455999200E+02  0.00000000000E+00 0.  1.
</event>
<event>
 7    1  0.2684545E-013  0.7246159E+02  0.7816164E-02  0.1226708E+00
        -11   -1    0    0    0    0  0.00000000000E+00  0.00000000000E+00  0.45593999997E+02  0.45594000000E+02  0.51100000000E-03 0. -1.
         11   -1    0    0    0    0 -0.00000000000E+00 -0.00000000000E+00 -0.45593999997E+02  0.45594000000E+02  0.51100000000E-03 0.  1.
    9900012    2    1    2    0    0  0.18354663316E+02  0.26786004902E+01 -0.25709422837E+01  0.72461593237E+02  0.70000029887E+02 0.  0.
         12    1    1    2    0    0 -0.18354663316E+02 -0.26786004902E+01  0.25709422837E+01  0.18726406763E+02  0.00000000000E+00 0. -1.
         11    1    3    3    0    0 -0.29352891340E+01 -0.28791672477E+02  0.49860882701E+01  0.29367284567E+02  0.51100000000E-03 0. -1.
        -11    1    3    3    0    0  0.29998779322E+01  0.58185649483E+01 -0.94918445349E+01  0.11530398024E+02  0.51100000000E-03 0.  1.
        -12    1    3    3    0    0  0.18290074517E+02  0.25651708019E+02  0.19348139811E+01  0.31563910646E+02  0.00000000000E+00 0.  1.
</event>
<event>
 7    1  0.2684545E-013  0.7246157E+02  0.7816164E-02  0.1226708E+00
        -11   -1    0    0    0    0  0.00000000000E+00  0.00000000000E+00  0.45593999997E+02  0.45594000000E+02  0.51100000000E-03 0.  1.
         11   -1    0    0    0    0 -0.00000000000E+00 -0.00000000000E+00 -0.45593999997E+02  0.45594000000E+02  0.51100000000E-03 0. -1.
    9900012    2    1    2    0    0 -0.25310923219E+01  0.14302466557E+02  0.11819994297E+02  0.72461568329E+02  0.69999997440E+02 0.  0.
         12    1    1    2    0    0  0.25310923219E+01 -0.14302466557E+02 -0.11819994297E+02  0.18726431671E+02  0.00000000000E+00 0. -1.
         11    1    3    3    0    0 -0.14067470583E+02  0.97031126103E+01 -0.16015591405E+02  0.23421001073E+02  0.51100000000E-03 0. -1.
        -11    1    3    3    0    0 -0.44703960134E+01  0.15755733244E+02  0.17578545069E+01  0.16471721929E+02  0.51100000000E-03 0.  1.
        -12    1    3    3    0    0  0.16006774275E+02 -0.11156379297E+02  0.26077731194E+02  0.32568845327E+02  0.00000000000E+00 0.  1.
</event>
<event>
 7    1  0.2684545E-013  0.7246158E+02  0.7816164E-02  0.1226708E+00
        -11   -1    0    0    0    0  0.00000000000E+00  0.00000000000E+00  0.45593999997E+02  0.45594000000E+02  0.51100000000E-03 0. -1.
         11   -1    0    0    0    0 -0.00000000000E+00 -0.00000000000E+00 -0.45593999997E+02  0.45594000000E+02  0.51100000000E-03 0.  1.
    9900012    2    1    2    0    0  0.17917261765E+02  0.12273315218E+01 -0.53051215833E+01  0.72461576774E+02  0.70000008442E+02 0.  0.
         12    1    1    2    0    0 -0.17917261765E+02 -0.12273315218E+01  0.53051215833E+01  0.18726423226E+02  0.00000000000E+00 0. -1.
         11    1    3    3    0    0  0.42300685814E+01  0.87803070439E+01  0.42433149035E+01  0.10629816255E+02  0.51100000000E-03 0. -1.
        -11    1    3    3    0    0  0.15264229288E+02  0.18808263920E+02 -0.21920556022E+02  0.32668918929E+02  0.51100000000E-03 0.  1.
         12    1    3    3    0    0 -0.15770361048E+01 -0.26361239442E+02  0.12372119535E+02  0.29162841590E+02  0.00000000000E+00 0. -1.
</event>
<event>
 7    1  0.2684545E-013  0.7246153E+02  0.7816164E-02  0.1226708E+00
        -11   -1    0    0    0    0  0.00000000000E+00  0.00000000000E+00  0.45593999997E+02  0.45594000000E+02  0.51100000000E-03 0. -1.
         11   -1    0    0    0    0 -0.00000000000E+00 -0.00000000000E+00 -0.45593999997E+02  0.45594000000E+02  0.51100000000E-03 0.  1.
    9900012    2    1    2    0    0  0.12501948580E+02 -0.29774375272E+01 -0.13620461641E+02  0.72461526017E+02  0.69999942320E+02 0.  0.
         12    1    1    2    0    0 -0.12501948580E+02  0.29774375272E+01  0.13620461641E+02  0.18726473983E+02  0.00000000000E+00 0. -1.
         11    1    3    3    0    0  0.11836256844E+02 -0.77292307353E+00  0.26909333236E+01  0.12162874190E+02  0.51100000000E-03 0. -1.
        -11    1    3    3    0    0  0.16099199392E+02 -0.25223854484E+02 -0.48784971544E+01  0.30318753122E+02  0.51100000000E-03 0.  1.
         12    1    3    3    0    0 -0.15433507656E+02  0.23019340031E+02 -0.11432897811E+02  0.29979898705E+02  0.00000000000E+00 0. -1.
</event>
<event>
 7    1  0.2684545E-013  0.7246173E+02  0.7816164E-02  0.1226708E+00
        -11   -1    0    0    0    0  0.00000000000E+00  0.00000000000E+00  0.45593999997E+02  0.45594000000E+02  0.51100000000E-03 0. -1.
         11   -1    0    0    0    0 -0.00000000000E+00 -0.00000000000E+00 -0.45593999997E+02  0.45594000000E+02  0.51100000000E-03 0.  1.
    9900012    2    1    2    0    0  0.71909215169E+01  0.16905370068E+02  0.36293900631E+01  0.72461725367E+02  0.70000202010E+02 0.  0.
         12    1    1    2    0    0 -0.71909215169E+01 -0.16905370068E+02 -0.36293900631E+01  0.18726274633E+02  0.00000000000E+00 0. -1.
         11    1    3    3    0    0 -0.65692589645E+01 -0.15390163366E+02  0.14724691943E+02  0.22289657800E+02  0.51100000000E-03 0. -1.
        -11    1    3    3    0    0  0.18481727296E+02  0.31138987966E+01 -0.43421667031E+00  0.18747243903E+02  0.51100000000E-03 0.  1.
        -12    1    3    3    0    0 -0.47215468149E+01  0.29181634638E+02 -0.10661085209E+02  0.31424823664E+02  0.00000000000E+00 0.  1.
</event>
<event>
 7    1  0.2684545E-013  0.7246159E+02  0.7816164E-02  0.1226708E+00
        -11   -1    0    0    0    0  0.00000000000E+00  0.00000000000E+00  0.45593999997E+02  0.45594000000E+02  0.51100000000E-03 0. -1.
         11   -1    0    0    0    0 -0.00000000000E+00 -0.00000000000E+00 -0.45593999997E+02  0.45594000000E+02  0.51100000000E-03 0.  1.
    9900012    2    1    2    0    0  0.13195960918E+01  0.13898245495E+02 -0.12481019354E+02  0.72461590686E+02  0.70000026563E+02 0.  0.
         12    1    1    2    0    0 -0.13195960918E+01 -0.13898245495E+02  0.12481019354E+02  0.18726409314E+02  0.00000000000E+00 0. -1.
         11    1    3    3    0    0 -0.10490303413E+02 -0.16681353128E+01  0.11409456239E+02  0.15588612287E+02  0.51100000000E-03 0. -1.
        -11    1    3    3    0    0  0.93851840876E+01  0.12965769968E+02  0.12500323308E+02  0.20308888554E+02  0.51100000000E-03 0.  1.
        -12    1    3    3    0    0  0.24247154172E+01  0.26006108399E+01 -0.36390798900E+02  0.36564089845E+02  0.00000000000E+00 0.  1.
</event>
<event>
 7    1  0.2684545E-013  0.7246155E+02  0.7816164E-02  0.1226708E+00
        -11   -1    0    0    0    0  0.00000000000E+00  0.00000000000E+00  0.45593999997E+02  0.45594000000E+02  0.51100000000E-03 0.  1.
         11   -1    0    0    0    0 -0.00000000000E+00 -0.00000000000E+00 -0.45593999997E+02  0.45594000000E+02  0.51100000000E-03 0. -1.
    9900012    2    1    2    0    0 -0.85238901428E+01 -0.93387195255E+01  0.13813456696E+02  0.72461548883E+02  0.69999972107E+02 0.  0.
         12    1    1    2    0    0  0.85238901428E+01  0.93387195255E+01 -0.13813456696E+02  0.18726451117E+02  0.00000000000E+00 0. -1.
         11    1    3    3    0    0 -0.27689720649E+02 -0.22925645668E+02 -0.87489961858E+01  0.36997983640E+02  0.51100000000E-03 0. -1.
        -11    1    3    3    0    0  0.26358273512E+01  0.26235124452E+00  0.10945634867E+02  0.11261586785E+02  0.51100000000E-03 0.  1.
        -12    1    3    3    0    0  0.16530003155E+02  0.13324574898E+02  0.11616818015E+02  0.24201978458E+02  0.00000000000E+00 0.  1.
</event>
<event>
 7    1  0.2684545E-013  0.7246158E+02  0.7816164E-02  0.1226708E+00
        -11   -1    0    0    0    0  0.00000000000E+00  0.00000000000E+00  0.45593999997E+02  0.45594000000E+02  0.51100000000E-03 0.  1.
         11   -1    0    0    0    0 -0.00000000000E+00 -0.00000000000E+00 -0.45593999997E+02  0.45594000000E+02  0.51100000000E-03 0. -1.
    9900012    2    1    2    0    0 -0.22504604051E+01 -0.17731000629E+02 -0.55880129519E+01  0.72461578983E+02  0.70000011318E+02 0.  0.
         12    1    1    2    0    0  0.22504604051E+01  0.17731000629E+02  0.55880129519E+01  0.18726421017E+02  0.00000000000E+00 0. -1.
         11    1    3    3    0    0 -0.84376118463E+01  0.82292103259E+01 -0.75605197079E+01  0.14002665988E+02  0.51100000000E-03 0. -1.
        -11    1    3    3    0    0 -0.11964449444E+02  0.39669763754E+01 -0.14971927223E+02  0.19571498590E+02  0.51100000000E-03 0.  1.
         12    1    3    3    0    0  0.18151600885E+02 -0.29927187331E+02  0.16944433979E+02  0.38887414405E+02  0.00000000000E+00 0. -1.
</event>
<event>
 7    1  0.2684545E-013  0.7246153E+02  0.7816164E-02  0.1226708E+00
        -11   -1    0    0    0    0  0.00000000000E+00  0.00000000000E+00  0.45593999997E+02  0.45594000000E+02  0.51100000000E-03 0.  1.
         11   -1    0    0    0    0 -0.00000000000E+00 -0.00000000000E+00 -0.45593999997E+02  0.45594000000E+02  0.51100000000E-03 0. -1.
    9900012    2    1    2    0    0 -0.12452863494E+02  0.13388030931E+02  0.40456788749E+01  0.72461529457E+02  0.69999946802E+02 0.  0.
         12    1    1    2    0    0  0.12452863494E+02 -0.13388030931E+02 -0.40456788749E+01  0.18726470543E+02  0.00000000000E+00 0. -1.
         11    1    3    3    0    0 -0.27404798079E+01  0.31817619040E+02 -0.22846115889E+01  0.32017035487E+02  0.51100000000E-03 0. -1.
        -11    1    3    3    0    0 -0.13156886209E+02  0.60637711188E+01  0.60739754483E+01  0.15708792217E+02  0.51100000000E-03 0.  1.
        -12    1    3    3    0    0  0.34445025224E+01 -0.24493359228E+02  0.25631501552E+00  0.24735701754E+02  0.00000000000E+00 0.  1.
</event>
<event>
 7    1  0.2684545E-013  0.7246158E+02  0.7816164E-02  0.1226708E+00
        -11   -1    0    0    0    0  0.00000000000E+00  0.00000000000E+00  0.45593999997E+02  0.45594000000E+02  0.51100000000E-03 0.  1.
         11   -1    0    0    0    0 -0.00000000000E+00 -0.00000000000E+00 -0.45593999997E+02  0.45594000000E+02  0.51100000000E-03 0. -1.
    9900012    2    1    2    0    0  0.71177984566E+01  0.17295204315E+02  0.94435447370E+00  0.72461576087E+02  0.70000007547E+02 0.  0.
         12    1    1    2    0    0 -0.71177984566E+01 -0.17295204315E+02 -0.94435447370E+00  0.18726423913E+02  0.00000000000E+00 0. -1.
         11    1    3    3    0    0  0.10538921444E+02 -0.19154332181E+02 -0.15650061404E+02  0.26886459951E+02  0.51100000000E-03 0. -1.
        -11    1    3    3    0    0  0.13220904553E+00 -0.24287820165E+01  0.37619937263E+01  0.44798502624E+01  0.51100000000E-03 0.  1.
        -12    1    3    3    0    0 -0.35533320328E+01  0.38878318513E+02  0.12832422151E+02  0.41095265874E+02  0.00000000000E+00 0.  1.
</event>
<event>
 7    1  0.2684545E-013  0.7246155E+02  0.7816164E-02  0.1226708E+00
        -11   -1    0    0    0    0  0.00000000000E+00  0.00000000000E+00  0.45593999997E+02  0.45594000000E+02  0.51100000000E-03 0.  1.
         11   -1    0    0    0    0 -0.00000000000E+00 -0.00000000000E+00 -0.45593999997E+02  0.45594000000E+02  0.51100000000E-03 0. -1.
    9900012    2    1    2    0    0 -0.18106993674E+02  0.39250558766E+01 -0.27222499844E+01  0.72461550029E+02  0.69999973600E+02 0.  0.
         12    1    1    2    0    0  0.18106993674E+02 -0.39250558766E+01  0.27222499844E+01  0.18726449971E+02  0.00000000000E+00 0. -1.
         11    1    3    3    0    0 -0.51827914354E+01 -0.37341089559E+01 -0.96021113155E+01  0.11532798391E+02  0.51100000000E-03 0. -1.
        -11    1    3    3    0    0 -0.25727830922E+02 -0.30221765851E+01  0.25211710593E+02  0.36148100732E+02  0.51100000000E-03 0.  1.
         12    1    3    3    0    0  0.12803628683E+02  0.10681341418E+02 -0.18331849262E+02  0.24780650905E+02  0.00000000000E+00 0. -1.
</event>
<event>
 7    1  0.2684545E-013  0.7246159E+02  0.7816164E-02  0.1226708E+00
        -11   -1    0    0    0    0  0.00000000000E+00  0.00000000000E+00  0.45593999997E+02  0.45594000000E+02  0.51100000000E-03 0. -1.
         11   -1    0    0    0    0 -0.00000000000E+00 -0.00000000000E+00 -0.45593999997E+02  0.45594000000E+02  0.51100000000E-03 0.  1.
    9900012    2    1    2    0    0 -0.26660533772E+01 -0.29466573730E+01 -0.18299943775E+02  0.72461586237E+02  0.70000020768E+02 0.  0.
         12    1    1    2    0    0  0.26660533772E+01  0.29466573730E+01  0.18299943775E+02  0.18726413763E+02  0.00000000000E+00 0. -1.
         11    1    3    3    0    0 -0.10779871160E+01 -0.14717415421E+01 -0.81298993190E+01  0.83320671257E+01  0.51100000000E-03 0. -1.
        -11    1    3    3    0    0 -0.25550222227E+02  0.17446518207E+02 -0.12805464654E+02  0.33483948074E+02  0.51100000000E-03 0.  1.
         12    1    3    3    0    0  0.23962155966E+02 -0.18921434037E+02  0.26354201984E+01  0.30645571037E+02  0.00000000000E+00 0. -1.
</event>
<event>
 7    1  0.2684545E-013  0.7246181E+02  0.7816164E-02  0.1226707E+00
        -11   -1    0    0    0    0  0.00000000000E+00  0.00000000000E+00  0.45593999997E+02  0.45594000000E+02  0.51100000000E-03 0. -1.
         11   -1    0    0    0    0 -0.00000000000E+00 -0.00000000000E+00 -0.45593999997E+02  0.45594000000E+02  0.51100000000E-03 0.  1.
    9900012    2    1    2    0    0  0.10513566608E+02  0.13620789699E+02 -0.73897991211E+01  0.72461811763E+02  0.70000314556E+02 0.  0.
         12    1    1    2    0    0 -0.10513566608E+02 -0.13620789699E+02  0.73897991211E+01  0.18726188237E+02  0.00000000000E+00 0. -1.
         11    1    3    3    0    0  0.25473259526E+02  0.45028704785E+01  0.89604314298E+01  0.27376123266E+02  0.51100000000E-03 0. -1.
        -11    1    3    3    0    0  0.87950952102E+01  0.11069881432E+02  0.29182321679E+01  0.14436483433E+02  0.51100000000E-03 0.  1.
        -12    1    3    3    0    0 -0.23754788128E+02 -0.19519622109E+01 -0.19268462719E+02  0.30649205063E+02  0.00000000000E+00 0.  1.
</event>
<event>
 7    1  0.2684545E-013  0.7246154E+02  0.7816164E-02  0.1226708E+00
        -11   -1    0    0    0    0  0.00000000000E+00  0.00000000000E+00  0.45593999997E+02  0.45594000000E+02  0.51100000000E-03 0.  1.
         11   -1    0    0    0    0 -0.00000000000E+00 -0.00000000000E+00 -0.45593999997E+02  0.45594000000E+02  0.51100000000E-03 0. -1.
    9900012    2    1    2    0    0 -0.11724745275E+02 -0.10288965665E+02  0.10360875941E+02  0.72461542340E+02  0.69999963584E+02 0.  0.
         12    1    1    2    0    0  0.11724745275E+02  0.10288965665E+02 -0.10360875941E+02  0.18726457660E+02  0.00000000000E+00 0. -1.
         11    1    3    3    0    0 -0.23035008500E+02  0.15184707692E+02 -0.33799663276E+01  0.27795883453E+02  0.51100000000E-03 0. -1.
        -11    1    3    3    0    0 -0.39373296391E+01 -0.10043457182E+02 -0.83974093700E+01  0.13670774712E+02  0.51100000000E-03 0.  1.
        -12    1    3    3    0    0  0.15247592864E+02 -0.15430216176E+02  0.22138251639E+02  0.30994884175E+02  0.00000000000E+00 0.  1.
</event>
<event>
 7    1  0.2684545E-013  0.7246157E+02  0.7816164E-02  0.1226708E+00
        -11   -1    0    0    0    0  0.00000000000E+00  0.00000000000E+00  0.45593999997E+02  0.45594000000E+02  0.51100000000E-03 0.  1.
         11   -1    0    0    0    0 -0.00000000000E+00 -0.00000000000E+00 -0.45593999997E+02  0.45594000000E+02  0.51100000000E-03 0. -1.
    9900012    2    1    2    0    0  0.47821374492E+01  0.11934669418E+02  0.13615217704E+02  0.72461566121E+02  0.69999994564E+02 0.  0.
         12    1    1    2    0    0 -0.47821374492E+01 -0.11934669418E+02 -0.13615217704E+02  0.18726433879E+02  0.00000000000E+00 0. -1.
         11    1    3    3    0    0 -0.53317553944E+00 -0.11852589516E+02 -0.14818542617E+02  0.18983080887E+02  0.51100000000E-03 0. -1.
        -11    1    3    3    0    0  0.10885332417E+02 -0.72152837091E+01  0.41417431193E+01  0.13700540762E+02  0.51100000000E-03 0.  1.
         12    1    3    3    0    0 -0.55700194287E+01  0.31002542643E+02  0.24292017202E+02  0.39777944473E+02  0.00000000000E+00 0. -1.
</event>
<event>
 7    1  0.2684545E-013  0.7246158E+02  0.7816164E-02  0.1226708E+00
        -11   -1    0    0    0    0  0.00000000000E+00  0.00000000000E+00  0.45593999997E+02  0.45594000000E+02  0.51100000000E-03 0. -1.
         11   -1    0    0    0    0 -0.00000000000E+00 -0.00000000000E+00 -0.45593999997E+02  0.45594000000E+02  0.51100000000E-03 0.  1.
    9900012    2    1    2    0    0  0.79921366283E+01 -0.71507440608E+01 -0.15351594873E+02  0.72461578728E+02  0.70000010986E+02 0.  0.
         12    1    1    2    0    0 -0.79921366283E+01  0.71507440608E+01  0.15351594873E+02  0.18726421272E+02  0.00000000000E+00 0. -1.
         11    1    3    3    0    0  0.24904489324E+01 -0.27573663806E+02  0.10113968484E+02  0.29475441138E+02  0.51100000000E-03 0. -1.
        -11    1    3    3    0    0  0.98252066564E+01 -0.90888056108E+00 -0.16952481373E+02  0.19614978325E+02  0.51100000000E-03 0.  1.
        -12    1    3    3    0    0 -0.43235189606E+01  0.21331800306E+02 -0.85130819843E+01  0.23371159264E+02  0.00000000000E+00 0.  1.
</event>
<event>
 7    1  0.2684545E-013  0.7246161E+02  0.7816164E-02  0.1226708E+00
        -11   -1    0    0    0    0  0.00000000000E+00  0.00000000000E+00  0.45593999997E+02  0.45594000000E+02  0.51100000000E-03 0.  1.
         11   -1    0    0    0    0 -0.00000000000E+00 -0.00000000000E+00 -0.45593999997E+02  0.45594000000E+02  0.51100000000E-03 0. -1.
    9900012    2    1    2    0    0 -0.16980882683E+02 -0.78251270073E+01 -0.10463625514E+01  0.72461605153E+02  0.70000045410E+02 0.  0.
         12    1    1    2    0    0  0.16980882683E+02  0.78251270073E+01  0.10463625514E+01  0.18726394847E+02  0.00000000000E+00 0. -1.
         11    1    3    3    0    0  0.18162311334E+01 -0.14948164812E+01 -0.25240032062E+00  0.23657721837E+01  0.51100000000E-03 0. -1.
        -11    1    3    3    0    0  0.85037493437E+01  0.25913137244E+02 -0.46688421842E+01  0.27669523349E+02  0.51100000000E-03 0.  1.
        -12    1    3    3    0    0 -0.27300863160E+02 -0.32243447770E+02  0.38748799534E+01  0.42426309621E+02  0.00000000000E+00 0.  1.
</event>
<event>
 7    1  0.2684545E-013  0.7246156E+02  0.7816164E-02  0.1226708E+00
        -11   -1    0    0    0    0  0.00000000000E+00  0.00000000000E+00  0.45593999997E+02  0.45594000000E+02  0.51100000000E-03 0. -1.
         11   -1    0    0    0    0 -0.00000000000E+00 -0.00000000000E+00 -0.45593999997E+02  0.45594000000E+02  0.51100000000E-03 0.  1.
    9900012    2    1    2    0    0 -0.18570849763E+02  0.55764187220E+00 -0.23435314081E+01  0.72461559739E+02  0.69999986250E+02 0.  0.
         12    1    1    2    0    0  0.18570849763E+02 -0.55764187220E+00  0.23435314081E+01  0.18726440261E+02  0.00000000000E+00 0. -1.
         11    1    3    3    0    0  0.11957592256E+02  0.84838358649E+00 -0.15537485270E+01  0.12087923810E+02  0.51100000000E-03 0. -1.
        -11    1    3    3    0    0 -0.14592332184E+02 -0.76281435793E+01 -0.25327353118E+02  0.30209262640E+02  0.51100000000E-03 0.  1.
         12    1    3    3    0    0 -0.15936109835E+02  0.73374018650E+01  0.24537570237E+02  0.30164373290E+02  0.00000000000E+00 0. -1.
</event>
<event>
 7    1  0.2684545E-013  0.7246158E+02  0.7816164E-02  0.1226708E+00
        -11   -1    0    0    0    0  0.00000000000E+00  0.00000000000E+00  0.45593999997E+02  0.45594000000E+02  0.51100000000E-03 0. -1.
         11   -1    0    0    0    0 -0.00000000000E+00 -0.00000000000E+00 -0.45593999997E+02  0.45594000000E+02  0.51100000000E-03 0.  1.
    9900012    2    1    2    0    0 -0.16269989337E+02 -0.10805629020E+01 -0.92086196431E+01  0.72461578961E+02  0.70000011289E+02 0.  0.
         12    1    1    2    0    0  0.16269989337E+02  0.10805629020E+01  0.92086196431E+01  0.18726421039E+02  0.00000000000E+00 0. -1.
         11    1    3    3    0    0 -0.13950320628E+02  0.16676741984E+02  0.14578690185E+02  0.26177535724E+02  0.51100000000E-03 0. -1.
        -11    1    3    3    0    0 -0.40920002390E+01  0.97449869343E+01 -0.12838723087E+02  0.16629553423E+02  0.51100000000E-03 0.  1.
         12    1    3    3    0    0  0.17723315298E+01 -0.27502291821E+02 -0.10948586741E+02  0.29654489813E+02  0.00000000000E+00 0. -1.
</event>
<event>
 7    1  0.2684545E-013  0.7246155E+02  0.7816164E-02  0.1226708E+00
        -11   -1    0    0    0    0  0.00000000000E+00  0.00000000000E+00  0.45593999997E+02  0.45594000000E+02  0.51100000000E-03 0. -1.
         11   -1    0    0    0    0 -0.00000000000E+00 -0.00000000000E+00 -0.45593999997E+02  0.45594000000E+02  0.51100000000E-03 0.  1.
    9900012    2    1    2    0    0  0.14857432174E+02  0.53341970854E+01 -0.10073870190E+02  0.72461553195E+02  0.69999977725E+02 0.  0.
         12    1    1    2    0    0 -0.14857432174E+02 -0.53341970854E+01  0.10073870190E+02  0.18726446805E+02  0.00000000000E+00 0. -1.
         11    1    3    3    0    0  0.87693074126E+01 -0.22888359197E+02 -0.18850056686E+02  0.30920905170E+02  0.51100000000E-03 0. -1.
        -11    1    3    3    0    0 -0.73829291822E+00  0.24688145795E+01 -0.90989273222E+01  0.94567753773E+01  0.51100000000E-03 0.  1.
         12    1    3    3    0    0  0.68264176795E+01  0.25753741703E+02  0.17875113818E+02  0.32083872647E+02  0.00000000000E+00 0. -1.
</event>
<event>
 7    1  0.2684545E-013  0.7246149E+02  0.7816164E-02  0.1226708E+00
        -11   -1    0    0    0    0  0.00000000000E+00  0.00000000000E+00  0.45593999997E+02  0.45594000000E+02  0.51100000000E-03 0. -1.
         11   -1    0    0    0    0 -0.00000000000E+00 -0.00000000000E+00 -0.45593999997E+02  0.45594000000E+02  0.51100000000E-03 0.  1.
    9900012    2    1    2    0    0 -0.31452096356E+01  0.13843085799E+02 -0.12213057832E+02  0.72461490723E+02  0.69999896344E+02 0.  0.
         12    1    1    2    0    0  0.31452096356E+01 -0.13843085799E+02  0.12213057832E+02  0.18726509277E+02  0.00000000000E+00 0. -1.
         11    1    3    3    0    0 -0.20308305871E+02  0.15392938746E+02 -0.56323806510E+01  0.26097769304E+02  0.51100000000E-03 0. -1.
        -11    1    3    3    0    0 -0.17629324289E+01 -0.12888894704E+02 -0.17452700524E+02  0.21767597324E+02  0.51100000000E-03 0.  1.
         12    1    3    3    0    0  0.18926028664E+02  0.11339041757E+02  0.10872023342E+02  0.24596124095E+02  0.00000000000E+00 0. -1.
</event>
<event>
 7    1  0.2684545E-013  0.7246155E+02  0.7816164E-02  0.1226708E+00
        -11   -1    0    0    0    0  0.00000000000E+00  0.00000000000E+00  0.45593999997E+02  0.45594000000E+02  0.51100000000E-03 0.  1.
         11   -1    0    0    0    0 -0.00000000000E+00 -0.00000000000E+00 -0.45593999997E+02  0.45594000000E+02  0.51100000000E-03 0. -1.
    9900012    2    1    2    0    0 -0.44124980852E+01  0.10407321817E+02  0.14929744655E+02  0.72461554469E+02  0.69999979385E+02 0.  0.
         12    1    1    2    0    0  0.44124980852E+01 -0.10407321817E+02 -0.14929744655E+02  0.18726445531E+02  0.00000000000E+00 0. -1.
         11    1    3    3    0    0 -0.70603187515E+01  0.21486922328E+02 -0.18995646732E+01  0.22696790042E+02  0.51100000000E-03 0. -1.
        -11    1    3    3    0    0  0.14150145702E+02  0.13534961437E+02  0.85069971988E+01  0.21349257741E+02  0.51100000000E-03 0.  1.
        -12    1    3    3    0    0 -0.11502325036E+02 -0.24614561947E+02  0.83223121291E+01  0.28415506687E+02  0.00000000000E+00 0.  1.
</event>
<event>
 7    1  0.2684545E-013  0.7246164E+02  0.7816164E-02  0.1226708E+00
        -11   -1    0    0    0    0  0.00000000000E+00  0.00000000000E+00  0.45593999997E+02  0.45594000000E+02  0.51100000000E-03 0.  1.
         11   -1    0    0    0    0 -0.00000000000E+00 -0.00000000000E+00 -0.45593999997E+02  0.45594000000E+02  0.51100000000E-03 0. -1.
    9900012    2    1    2    0    0  0.60626304197E+01  0.44343940034E+01  0.17153927986E+02  0.72461639352E+02  0.70000089960E+02 0.  0.
         12    1    1    2    0    0 -0.60626304197E+01 -0.44343940034E+01 -0.17153927986E+02  0.18726360648E+02  0.00000000000E+00 0. -1.
         11    1    3    3    0    0  0.65483267860E+01 -0.98887152687E+01 -0.43108760511E+01  0.12619466152E+02  0.51100000000E-03 0.  1.
        -11    1    3    3    0    0  0.26088788883E+02  0.85481124318E+01  0.45825089260E+01  0.27833334688E+02  0.51100000000E-03 0. -1.
        -12    1    3    3    0    0 -0.26574485249E+02  0.57749968404E+01  0.16882295111E+02  0.32008838513E+02  0.00000000000E+00 0.  1.
</event>
<event>
 7    1  0.2684545E-013  0.7246152E+02  0.7816164E-02  0.1226708E+00
        -11   -1    0    0    0    0  0.00000000000E+00  0.00000000000E+00  0.45593999997E+02  0.45594000000E+02  0.51100000000E-03 0.  1.
         11   -1    0    0    0    0 -0.00000000000E+00 -0.00000000000E+00 -0.45593999997E+02  0.45594000000E+02  0.51100000000E-03 0. -1.
    9900012    2    1    2    0    0 -0.10836790812E+02 -0.71070126119E+00  0.15255815110E+02  0.72461520725E+02  0.69999935426E+02 0.  0.
         12    1    1    2    0    0  0.10836790812E+02  0.71070126119E+00 -0.15255815110E+02  0.18726479275E+02  0.00000000000E+00 0. -1.
         11    1    3    3    0    0 -0.88164562962E-02  0.12669925082E+02 -0.56080655457E+01  0.13855593770E+02  0.51100000000E-03 0. -1.
        -11    1    3    3    0    0 -0.18938632259E+02  0.97154672655E+01  0.25992409918E+02  0.33595646588E+02  0.51100000000E-03 0.  1.
        -12    1    3    3    0    0  0.81106579040E+01 -0.23096093608E+02 -0.51285292627E+01  0.25010280366E+02  0.00000000000E+00 0.  1.
</event>
<event>
 7    1  0.2684545E-013  0.7246158E+02  0.7816164E-02  0.1226708E+00
        -11   -1    0    0    0    0  0.00000000000E+00  0.00000000000E+00  0.45593999997E+02  0.45594000000E+02  0.51100000000E-03 0.  1.
         11   -1    0    0    0    0 -0.00000000000E+00 -0.00000000000E+00 -0.45593999997E+02  0.45594000000E+02  0.51100000000E-03 0. -1.
    9900012    2    1    2    0    0  0.13857844010E+02  0.10650153942E+02  0.67240666926E+01  0.72461583032E+02  0.70000016593E+02 0.  0.
         12    1    1    2    0    0 -0.13857844010E+02 -0.10650153942E+02 -0.67240666926E+01  0.18726416968E+02  0.00000000000E+00 0. -1.
         11    1    3    3    0    0 -0.13354771755E+02  0.14337060161E+02  0.23744437824E+02  0.30784729177E+02  0.51100000000E-03 0. -1.
        -11    1    3    3    0    0 -0.39667770378E+01 -0.13589608202E+01  0.24378549036E+01  0.48502815764E+01  0.51100000000E-03 0.  1.
        -12    1    3    3    0    0  0.31179392803E+02 -0.23279453993E+01 -0.19458226035E+02  0.36826572278E+02  0.00000000000E+00 0.  1.
</event>
<event>
 7    1  0.2684545E-013  0.7246165E+02  0.7816164E-02  0.1226708E+00
        -11   -1    0    0    0    0  0.00000000000E+00  0.00000000000E+00  0.45593999997E+02  0.45594000000E+02  0.51100000000E-03 0.  1.
         11   -1    0    0    0    0 -0.00000000000E+00 -0.00000000000E+00 -0.45593999997E+02  0.45594000000E+02  0.51100000000E-03 0. -1.
    9900012    2    1    2    0    0 -0.97402418462E+01  0.14301535471E+02  0.71603119958E+01  0.72461647020E+02  0.70000099950E+02 0.  0.
         12    1    1    2    0    0  0.97402418462E+01 -0.14301535471E+02 -0.71603119958E+01  0.18726352980E+02  0.00000000000E+00 0. -1.
         11    1    3    3    0    0 -0.23467795193E+02 -0.10168394037E+02  0.18130014746E+02  0.31350136897E+02  0.51100000000E-03 0. -1.
        -11    1    3    3    0    0  0.14421913012E+01  0.18193788431E+02  0.60273907118E+01  0.19220387413E+02  0.51100000000E-03 0.  1.
        -12    1    3    3    0    0  0.12285362045E+02  0.62761410762E+01 -0.16997093462E+02  0.21891122711E+02  0.00000000000E+00 0.  1.
</event>
<event>
 7    1  0.2684545E-013  0.7246139E+02  0.7816164E-02  0.1226709E+00
        -11   -1    0    0    0    0  0.00000000000E+00  0.00000000000E+00  0.45593999997E+02  0.45594000000E+02  0.51100000000E-03 0.  1.
         11   -1    0    0    0    0 -0.00000000000E+00 -0.00000000000E+00 -0.45593999997E+02  0.45594000000E+02  0.51100000000E-03 0. -1.
    9900012    2    1    2    0    0 -0.78040226792E+01 -0.15607536056E+02 -0.67961854960E+01  0.72461385543E+02  0.69999759327E+02 0.  0.
         12    1    1    2    0    0  0.78040226792E+01  0.15607536056E+02  0.67961854960E+01  0.18726614457E+02  0.00000000000E+00 0. -1.
         11    1    3    3    0    0 -0.66462232255E+01 -0.16667508950E+02 -0.81091423736E+01  0.19691021509E+02  0.51100000000E-03 0. -1.
        -11    1    3    3    0    0 -0.15728721041E+02 -0.36130860015E+01  0.21847314584E+02  0.27161594409E+02  0.51100000000E-03 0.  1.
        -12    1    3    3    0    0  0.14570921587E+02  0.46730588956E+01 -0.20534357706E+02  0.25608769626E+02  0.00000000000E+00 0.  1.
</event>
<event>
 7    1  0.2684545E-013  0.7246152E+02  0.7816164E-02  0.1226708E+00
        -11   -1    0    0    0    0  0.00000000000E+00  0.00000000000E+00  0.45593999997E+02  0.45594000000E+02  0.51100000000E-03 0. -1.
         11   -1    0    0    0    0 -0.00000000000E+00 -0.00000000000E+00 -0.45593999997E+02  0.45594000000E+02  0.51100000000E-03 0.  1.
    9900012    2    1    2    0    0 -0.15210331782E+02 -0.88847089588E+01 -0.63552129710E+01  0.72461522005E+02  0.69999937094E+02 0.  0.
         12    1    1    2    0    0  0.15210331782E+02  0.88847089588E+01  0.63552129710E+01  0.18726477995E+02  0.00000000000E+00 0. -1.
         11    1    3    3    0    0 -0.69193026030E+01 -0.22048427543E+02 -0.86073295577E+01  0.24659603160E+02  0.51100000000E-03 0. -1.
        -11    1    3    3    0    0  0.70521357719E+01 -0.12314458971E+02  0.96415723713E+01  0.17156294377E+02  0.51100000000E-03 0.  1.
         12    1    3    3    0    0 -0.15343164951E+02  0.25478177555E+02 -0.73894557845E+01  0.30645624468E+02  0.00000000000E+00 0. -1.
</event>
<event>
 7    1  0.2684545E-013  0.7246151E+02  0.7816164E-02  0.1226708E+00
        -11   -1    0    0    0    0  0.00000000000E+00  0.00000000000E+00  0.45593999997E+02  0.45594000000E+02  0.51100000000E-03 0.  1.
         11   -1    0    0    0    0 -0.00000000000E+00 -0.00000000000E+00 -0.45593999997E+02  0.45594000000E+02  0.51100000000E-03 0. -1.
    9900012    2    1    2    0    0  0.42453168973E+00  0.17548538019E+02  0.65230242675E+01  0.72461514495E+02  0.69999927312E+02 0.  0.
         12    1    1    2    0    0 -0.42453168973E+00 -0.17548538019E+02 -0.65230242675E+01  0.18726485505E+02  0.00000000000E+00 0. -1.
         11    1    3    3    0    0 -0.44639676113E+01  0.30261283356E+02  0.18443799077E+02  0.35718986574E+02  0.51100000000E-03 0. -1.
        -11    1    3    3    0    0 -0.13627253389E+02 -0.38174202440E+01 -0.37929524513E+01  0.14651321470E+02  0.51100000000E-03 0.  1.
        -12    1    3    3    0    0  0.18515752690E+02 -0.88953250933E+01 -0.81278223581E+01  0.22091206452E+02  0.00000000000E+00 0.  1.
</event>
<event>
 7    1  0.2684545E-013  0.7246158E+02  0.7816164E-02  0.1226708E+00
        -11   -1    0    0    0    0  0.00000000000E+00  0.00000000000E+00  0.45593999997E+02  0.45594000000E+02  0.51100000000E-03 0. -1.
         11   -1    0    0    0    0 -0.00000000000E+00 -0.00000000000E+00 -0.45593999997E+02  0.45594000000E+02  0.51100000000E-03 0.  1.
    9900012    2    1    2    0    0  0.39404633819E+01  0.11407772577E+02 -0.14318315266E+02  0.72461583394E+02  0.70000017065E+02 0.  0.
         12    1    1    2    0    0 -0.39404633819E+01 -0.11407772577E+02  0.14318315266E+02  0.18726416606E+02  0.00000000000E+00 0. -1.
         11    1    3    3    0    0  0.16394421143E+02  0.12713682205E+01 -0.65509765111E+00  0.16456687849E+02  0.51100000000E-03 0. -1.
        -11    1    3    3    0    0  0.10416206233E+02 -0.10182833991E+02 -0.20020110308E+02  0.24758680849E+02  0.51100000000E-03 0.  1.
         12    1    3    3    0    0 -0.22870163994E+02  0.20319238347E+02  0.63568926936E+01  0.31246214696E+02  0.00000000000E+00 0. -1.
</event>
<event>
 7    1  0.2684545E-013  0.7246163E+02  0.7816164E-02  0.1226708E+00
        -11   -1    0    0    0    0  0.00000000000E+00  0.00000000000E+00  0.45593999997E+02  0.45594000000E+02  0.51100000000E-03 0.  1.
         11   -1    0    0    0    0 -0.00000000000E+00 -0.00000000000E+00 -0.45593999997E+02  0.45594000000E+02  0.51100000000E-03 0. -1.
    9900012    2    1    2    0    0 -0.19339220346E+01 -0.15682719032E+02  0.10049343446E+02  0.72461627303E+02  0.70000074265E+02 0.  0.
         12    1    1    2    0    0  0.19339220346E+01  0.15682719032E+02 -0.10049343446E+02  0.18726372697E+02  0.00000000000E+00 0. -1.
         11    1    3    3    0    0  0.82750791895E+00 -0.21919252391E+02  0.46254649119E+01  0.22417254975E+02  0.51100000000E-03 0. -1.
        -11    1    3    3    0    0  0.22651140843E+02 -0.16339311400E+01 -0.79433255167E+00  0.22723883404E+02  0.51100000000E-03 0.  1.
         12    1    3    3    0    0 -0.25412570797E+02  0.78704644987E+01  0.62182110861E+01  0.27320488924E+02  0.00000000000E+00 0. -1.
</event>
<event>
 7    1  0.2684545E-013  0.7246158E+02  0.7816164E-02  0.1226708E+00
        -11   -1    0    0    0    0  0.00000000000E+00  0.00000000000E+00  0.45593999997E+02  0.45594000000E+02  0.51100000000E-03 0. -1.
         11   -1    0    0    0    0 -0.00000000000E+00 -0.00000000000E+00 -0.45593999997E+02  0.45594000000E+02  0.51100000000E-03 0.  1.
    9900012    2    1    2    0    0 -0.99964919503E+01  0.12471433820E+01 -0.15785866144E+02  0.72461580485E+02  0.70000013275E+02 0.  0.
         12    1    1    2    0    0  0.99964919503E+01 -0.12471433820E+01  0.15785866144E+02  0.18726419515E+02  0.00000000000E+00 0. -1.
         11    1    3    3    0    0 -0.58965574068E+01 -0.12012581923E+02 -0.12603798515E+02  0.18382797692E+02  0.51100000000E-03 0. -1.
        -11    1    3    3    0    0  0.19124761807E+02  0.21626747464E+02 -0.51061807597E+01  0.29318011567E+02  0.51100000000E-03 0.  1.
         12    1    3    3    0    0 -0.23224696350E+02 -0.83670221586E+01  0.19241131307E+01  0.24760771226E+02  0.00000000000E+00 0. -1.
</event>
<event>
 7    1  0.2684545E-013  0.7246157E+02  0.7816164E-02  0.1226708E+00
        -11   -1    0    0    0    0  0.00000000000E+00  0.00000000000E+00  0.45593999997E+02  0.45594000000E+02  0.51100000000E-03 0. -1.
         11   -1    0    0    0    0 -0.00000000000E+00 -0.00000000000E+00 -0.45593999997E+02  0.45594000000E+02  0.51100000000E-03 0.  1.
    9900012    2    1    2    0    0  0.12580604792E+01  0.13404168345E+02 -0.13016320751E+02  0.72461573457E+02  0.70000004120E+02 0.  0.
         12    1    1    2    0    0 -0.12580604792E+01 -0.13404168345E+02  0.13016320751E+02  0.18726426543E+02  0.00000000000E+00 0. -1.
         11    1    3    3    0    0  0.43106214916E+01 -0.35296657692E+01 -0.50226459489E+01  0.75011312930E+01  0.51100000000E-03 0. -1.
        -11    1    3    3    0    0  0.22968215727E+01  0.41360488808E+01 -0.34617878250E+02  0.34939659193E+02  0.51100000000E-03 0.  1.
         12    1    3    3    0    0 -0.53493825850E+01  0.12797785233E+02  0.26624203448E+02  0.30020782971E+02  0.00000000000E+00 0. -1.
</event>
<event>
 7    1  0.3798174E-013  0.7246153E+02  0.7816164E-02  0.1226708E+00
        -11   -1    0    0    0    0  0.00000000000E+00  0.00000000000E+00  0.45593999997E+02  0.45594000000E+02  0.51100000000E-03 0. -1.
         11   -1    0    0    0    0 -0.00000000000E+00 -0.00000000000E+00 -0.45593999997E+02  0.45594000000E+02  0.51100000000E-03 0.  1.
    9900012    2    1    2    0    0  0.11497446707E+01  0.61758528167E+01 -0.17641356101E+02  0.72461534346E+02  0.69999953170E+02 0.  0.
         12    1    1    2    0    0 -0.11497446707E+01 -0.61758528167E+01  0.17641356101E+02  0.18726465654E+02  0.00000000000E+00 0. -1.
         11    1    3    3    0    0 -0.10244544887E+02  0.78706952806E+01  0.19303186290E+02  0.23227387829E+02  0.51100000000E-03 0. -1.
        -11    1    3    3    0    0  0.30572182492E+01 -0.23417322232E+01  0.50862049437E+01  0.63796374677E+01  0.51100000000E-03 0.  1.
        -12    1    3    3    0    0  0.83370713083E+01  0.64688975931E+00 -0.42030747335E+02  0.42854509049E+02  0.00000000000E+00 0.  1.
</event>
<event>
 7    1  0.2684545E-013  0.7246155E+02  0.7816164E-02  0.1226708E+00
        -11   -1    0    0    0    0  0.00000000000E+00  0.00000000000E+00  0.45593999997E+02  0.45594000000E+02  0.51100000000E-03 0. -1.
         11   -1    0    0    0    0 -0.00000000000E+00 -0.00000000000E+00 -0.45593999997E+02  0.45594000000E+02  0.51100000000E-03 0.  1.
    9900012    2    1    2    0    0 -0.14125177930E+02  0.12217253543E+02  0.13776811155E+01  0.72461549697E+02  0.69999973168E+02 0.  0.
         12    1    1    2    0    0  0.14125177930E+02 -0.12217253543E+02 -0.13776811155E+01  0.18726450303E+02  0.00000000000E+00 0. -1.
         11    1    3    3    0    0 -0.79921429760E+01 -0.61405232278E+01 -0.18830235158E+01  0.10253104539E+02  0.51100000000E-03 0. -1.
        -11    1    3    3    0    0 -0.13710765450E+02 -0.73315749573E+01 -0.20960205285E+02  0.26097265880E+02  0.51100000000E-03 0.  1.
         12    1    3    3    0    0  0.75777304961E+01  0.25689351728E+02  0.24220909916E+02  0.36111179278E+02  0.00000000000E+00 0. -1.
</event>
<event>
 7    1  0.2684545E-013  0.7246154E+02  0.7816164E-02  0.1226708E+00
        -11   -1    0    0    0    0  0.00000000000E+00  0.00000000000E+00  0.45593999997E+02  0.45594000000E+02  0.51100000000E-03 0.  1.
         11   -1    0    0    0    0 -0.00000000000E+00 -0.00000000000E+00 -0.45593999997E+02  0.45594000000E+02  0.51100000000E-03 0. -1.
    9900012    2    1    2    0    0 -0.22257338536E+01 -0.39859552976E+01  0.18161459918E+02  0.72461538584E+02  0.69999958691E+02 0.  0.
         12    1    1    2    0    0  0.22257338536E+01  0.39859552976E+01 -0.18161459918E+02  0.18726461416E+02  0.00000000000E+00 0. -1.
         11    1    3    3    0    0  0.26949609954E+01  0.46363067716E+01  0.78988638325E+01  0.95472616677E+01  0.51100000000E-03 0. -1.
        -11    1    3    3    0    0 -0.25406818515E+02  0.15696123624E+02  0.85808325691E+01  0.31072582959E+02  0.51100000000E-03 0.  1.
         12    1    3    3    0    0  0.20486123666E+02 -0.24318385693E+02  0.16817635162E+01  0.31841693958E+02  0.00000000000E+00 0. -1.
</event>
<event>
 7    1  0.2684545E-013  0.7246151E+02  0.7816164E-02  0.1226708E+00
        -11   -1    0    0    0    0  0.00000000000E+00  0.00000000000E+00  0.45593999997E+02  0.45594000000E+02  0.51100000000E-03 0. -1.
         11   -1    0    0    0    0 -0.00000000000E+00 -0.00000000000E+00 -0.45593999997E+02  0.45594000000E+02  0.51100000000E-03 0.  1.
    9900012    2    1    2    0    0  0.50911333296E+01 -0.17952115044E+02  0.15759185391E+01  0.72461505603E+02  0.69999915728E+02 0.  0.
         12    1    1    2    0    0 -0.50911333296E+01  0.17952115044E+02 -0.15759185391E+01  0.18726494397E+02  0.00000000000E+00 0. -1.
         11    1    3    3    0    0  0.12563470559E+02 -0.15843389331E+01  0.87629671118E+01  0.15399367364E+02  0.51100000000E-03 0. -1.
        -11    1    3    3    0    0  0.17239403735E+02 -0.10129106118E+02 -0.20219527250E+02  0.28436334404E+02  0.51100000000E-03 0.  1.
         12    1    3    3    0    0 -0.24711740964E+02 -0.62386699928E+01  0.13032478677E+02  0.28625803835E+02  0.00000000000E+00 0. -1.
</event>
<event>
 7    1  0.2684545E-013  0.7246161E+02  0.7816164E-02  0.1226708E+00
        -11   -1    0    0    0    0  0.00000000000E+00  0.00000000000E+00  0.45593999997E+02  0.45594000000E+02  0.51100000000E-03 0.  1.
         11   -1    0    0    0    0 -0.00000000000E+00 -0.00000000000E+00 -0.45593999997E+02  0.45594000000E+02  0.51100000000E-03 0. -1.
    9900012    2    1    2    0    0  0.14398035743E+02 -0.46572472764E+01  0.11031055683E+02  0.72461612871E+02  0.70000055464E+02 0.  0.
         12    1    1    2    0    0 -0.14398035743E+02  0.46572472764E+01 -0.11031055683E+02  0.18726387129E+02  0.00000000000E+00 0. -1.
         11    1    3    3    0    0  0.29207807623E+01  0.29106240121E+01 -0.35123985238E+01  0.54166074302E+01  0.51100000000E-03 0. -1.
        -11    1    3    3    0    0  0.33338810777E+02  0.11463265182E+02  0.15703946279E+01  0.35289501161E+02  0.51100000000E-03 0.  1.
         12    1    3    3    0    0 -0.21861555797E+02 -0.19031136471E+02  0.12973059578E+02  0.31755504279E+02  0.00000000000E+00 0. -1.
</event>
<event>
 7    1  0.2684545E-013  0.7246146E+02  0.7816164E-02  0.1226708E+00
        -11   -1    0    0    0    0  0.00000000000E+00  0.00000000000E+00  0.45593999997E+02  0.45594000000E+02  0.51100000000E-03 0.  1.
         11   -1    0    0    0    0 -0.00000000000E+00 -0.00000000000E+00 -0.45593999997E+02  0.45594000000E+02  0.51100000000E-03 0. -1.
    9900012    2    1    2    0    0  0.11974507190E+02 -0.14291305508E+02  0.17472742597E+01  0.72461462603E+02  0.69999859712E+02 0.  0.
         12    1    1    2    0    0 -0.11974507190E+02  0.14291305508E+02 -0.17472742597E+01  0.18726537397E+02  0.00000000000E+00 0. -1.
         11    1    3    3    0    0  0.15134682839E+00 -0.51369768566E+01 -0.58970402633E+01  0.78221813592E+01  0.51100000000E-03 0. -1.
        -11    1    3    3    0    0  0.27726939603E+02 -0.25286576604E+02  0.15586179437E+02  0.40634014394E+02  0.51100000000E-03 0.  1.
         12    1    3    3    0    0 -0.15903779242E+02  0.16132247953E+02 -0.79418649140E+01  0.24005266849E+02  0.00000000000E+00 0. -1.
</event>
<event>
 7    1  0.2684545E-013  0.7246167E+02  0.7816164E-02  0.1226708E+00
        -11   -1    0    0    0    0  0.00000000000E+00  0.00000000000E+00  0.45593999997E+02  0.45594000000E+02  0.51100000000E-03 0.  1.
         11   -1    0    0    0    0 -0.00000000000E+00 -0.00000000000E+00 -0.45593999997E+02  0.45594000000E+02  0.51100000000E-03 0. -1.
    9900012    2    1    2    0    0 -0.14561048485E+02  0.11741247116E+02 -0.89129503096E+00  0.72461670310E+02  0.70000130289E+02 0.  0.
         12    1    1    2    0    0  0.14561048485E+02 -0.11741247116E+02  0.89129503096E+00  0.18726329690E+02  0.00000000000E+00 0. -1.
         11    1    3    3    0    0  0.10704668076E+02  0.26187847084E+02 -0.16612835388E+02  0.32808223869E+02  0.51100000000E-03 0. -1.
        -11    1    3    3    0    0  0.11053814959E+01  0.36182652513E+01  0.42552004500E+01  0.56938952230E+01  0.51100000000E-03 0.  1.
         12    1    3    3    0    0 -0.26371098056E+02 -0.18064865220E+02  0.11466339907E+02  0.33959551218E+02  0.00000000000E+00 0. -1.
</event>
<event>
 7    1  0.2684545E-013  0.7246155E+02  0.7816164E-02  0.1226708E+00
        -11   -1    0    0    0    0  0.00000000000E+00  0.00000000000E+00  0.45593999997E+02  0.45594000000E+02  0.51100000000E-03 0. -1.
         11   -1    0    0    0    0 -0.00000000000E+00 -0.00000000000E+00 -0.45593999997E+02  0.45594000000E+02  0.51100000000E-03 0.  1.
    9900012    2    1    2    0    0 -0.23202268593E+01  0.16756671642E+02  0.80318432372E+01  0.72461548041E+02  0.69999971011E+02 0.  0.
         12    1    1    2    0    0  0.23202268593E+01 -0.16756671642E+02 -0.80318432372E+01  0.18726451959E+02  0.00000000000E+00 0. -1.
         11    1    3    3    0    0 -0.22032141713E+02 -0.14160271630E+01 -0.38217111215E+01  0.22405933981E+02  0.51100000000E-03 0. -1.
        -11    1    3    3    0    0 -0.72119746227E+01 -0.16904581925E+01 -0.81982118887E+01  0.11049022821E+02  0.51100000000E-03 0.  1.
         12    1    3    3    0    0  0.26923889477E+02  0.19863156997E+02  0.20051766247E+02  0.39006591239E+02  0.00000000000E+00 0. -1.
</event>
<event>
 7    1  0.2684545E-013  0.7246157E+02  0.7816164E-02  0.1226708E+00
        -11   -1    0    0    0    0  0.00000000000E+00  0.00000000000E+00  0.45593999997E+02  0.45594000000E+02  0.51100000000E-03 0. -1.
         11   -1    0    0    0    0 -0.00000000000E+00 -0.00000000000E+00 -0.45593999997E+02  0.45594000000E+02  0.51100000000E-03 0.  1.
    9900012    2    1    2    0    0 -0.10724989504E+02  0.13634170193E+02  0.70543084018E+01  0.72461567778E+02  0.69999996723E+02 0.  0.
         12    1    1    2    0    0  0.10724989504E+02 -0.13634170193E+02 -0.70543084018E+01  0.18726432222E+02  0.00000000000E+00 0. -1.
         11    1    3    3    0    0  0.11423814002E+02 -0.22704936368E+02  0.28067576451E+00  0.25418427193E+02  0.51100000000E-03 0. -1.
        -11    1    3    3    0    0 -0.54372156223E-01  0.47839934220E+01  0.70509246474E+01  0.85208619304E+01  0.51100000000E-03 0.  1.
        -12    1    3    3    0    0 -0.22094431350E+02  0.31555113139E+02 -0.27729201012E+00  0.38522278655E+02  0.00000000000E+00 0.  1.
</event>
<event>
 7    1  0.2684545E-013  0.7246146E+02  0.7816164E-02  0.1226708E+00
        -11   -1    0    0    0    0  0.00000000000E+00  0.00000000000E+00  0.45593999997E+02  0.45594000000E+02  0.51100000000E-03 0.  1.
         11   -1    0    0    0    0 -0.00000000000E+00 -0.00000000000E+00 -0.45593999997E+02  0.45594000000E+02  0.51100000000E-03 0. -1.
    9900012    2    1    2    0    0 -0.10111013612E+02  0.11845674531E+02  0.10398595038E+02  0.72461457871E+02  0.69999853548E+02 0.  0.
         12    1    1    2    0    0  0.10111013612E+02 -0.11845674531E+02 -0.10398595038E+02  0.18726542129E+02  0.00000000000E+00 0. -1.
         11    1    3    3    0    0 -0.16632483253E+02 -0.46156953159E+01  0.26558240396E+01  0.17464178881E+02  0.51100000000E-03 0. -1.
        -11    1    3    3    0    0 -0.16609422004E+02  0.20123555509E+02  0.15472898730E+02  0.30335473970E+02  0.51100000000E-03 0.  1.
         12    1    3    3    0    0  0.23130891645E+02 -0.36621856628E+01 -0.77301277314E+01  0.24661805020E+02  0.00000000000E+00 0. -1.
</event>
<event>
 7    1  0.2684545E-013  0.7246158E+02  0.7816164E-02  0.1226708E+00
        -11   -1    0    0    0    0  0.00000000000E+00  0.00000000000E+00  0.45593999997E+02  0.45594000000E+02  0.51100000000E-03 0.  1.
         11   -1    0    0    0    0 -0.00000000000E+00 -0.00000000000E+00 -0.45593999997E+02  0.45594000000E+02  0.51100000000E-03 0. -1.
    9900012    2    1    2    0    0  0.51009360512E+01 -0.17846012397E+02  0.24857559780E+01  0.72461583102E+02  0.70000016684E+02 0.  0.
         12    1    1    2    0    0 -0.51009360512E+01  0.17846012397E+02 -0.24857559780E+01  0.18726416898E+02  0.00000000000E+00 0. -1.
         11    1    3    3    0    0  0.77777388272E+01 -0.84527697117E+01 -0.22940731273E+02  0.25655792498E+02  0.51100000000E-03 0. -1.
        -11    1    3    3    0    0 -0.71270439349E+01 -0.25677679437E+01 -0.88064864146E+01  0.11616470664E+02  0.51100000000E-03 0.  1.
        -12    1    3    3    0    0  0.44502411589E+01 -0.68254747415E+01  0.34232973666E+02  0.35189319940E+02  0.00000000000E+00 0.  1.
</event>
<event>
 7    1  0.2684545E-013  0.7246148E+02  0.7816164E-02  0.1226708E+00
        -11   -1    0    0    0    0  0.00000000000E+00  0.00000000000E+00  0.45593999997E+02  0.45594000000E+02  0.51100000000E-03 0.  1.
         11   -1    0    0    0    0 -0.00000000000E+00 -0.00000000000E+00 -0.45593999997E+02  0.45594000000E+02  0.51100000000E-03 0. -1.
    9900012    2    1    2    0    0 -0.70766569708E+01 -0.41048254819E+01  0.16844998993E+02  0.72461477173E+02  0.69999878692E+02 0.  0.
         12    1    1    2    0    0  0.70766569708E+01  0.41048254819E+01 -0.16844998993E+02  0.18726522827E+02  0.00000000000E+00 0. -1.
         11    1    3    3    0    0 -0.28912115286E+01 -0.15937573422E+02 -0.10461691427E+02  0.19282436010E+02  0.51100000000E-03 0. -1.
        -11    1    3    3    0    0 -0.87077471586E+01 -0.13825985341E+02  0.13396828294E+01  0.16394434469E+02  0.51100000000E-03 0.  1.
         12    1    3    3    0    0  0.45223017164E+01  0.25658733281E+02  0.25967007591E+02  0.36784606694E+02  0.00000000000E+00 0. -1.
</event>
<event>
 7    1  0.2684545E-013  0.7246155E+02  0.7816164E-02  0.1226708E+00
        -11   -1    0    0    0    0  0.00000000000E+00  0.00000000000E+00  0.45593999997E+02  0.45594000000E+02  0.51100000000E-03 0.  1.
         11   -1    0    0    0    0 -0.00000000000E+00 -0.00000000000E+00 -0.45593999997E+02  0.45594000000E+02  0.51100000000E-03 0. -1.
    9900012    2    1    2    0    0  0.12748470349E+02  0.13116446108E+02  0.40144044895E+01  0.72461545500E+02  0.69999967701E+02 0.  0.
         12    1    1    2    0    0 -0.12748470349E+02 -0.13116446108E+02 -0.40144044895E+01  0.18726454500E+02  0.00000000000E+00 0. -1.
         11    1    3    3    0    0  0.27886817312E+02 -0.72621181853E+01  0.20478674607E+01  0.28889560428E+02  0.51100000000E-03 0. -1.
        -11    1    3    3    0    0  0.52355378278E+01  0.10262062672E+00 -0.10890224568E+02  0.12083806468E+02  0.51100000000E-03 0.  1.
        -12    1    3    3    0    0 -0.20373884791E+02  0.20275943666E+02  0.12856761597E+02  0.31488178604E+02  0.00000000000E+00 0.  1.
</event>
<event>
 7    1  0.2684545E-013  0.7246159E+02  0.7816164E-02  0.1226708E+00
        -11   -1    0    0    0    0  0.00000000000E+00  0.00000000000E+00  0.45593999997E+02  0.45594000000E+02  0.51100000000E-03 0. -1.
         11   -1    0    0    0    0 -0.00000000000E+00 -0.00000000000E+00 -0.45593999997E+02  0.45594000000E+02  0.51100000000E-03 0.  1.
    9900012    2    1    2    0    0  0.30137319899E+01  0.18441615293E+02  0.12258577962E+01  0.72461588639E+02  0.70000023897E+02 0.  0.
         12    1    1    2    0    0 -0.30137319899E+01 -0.18441615293E+02 -0.12258577962E+01  0.18726411361E+02  0.00000000000E+00 0. -1.
         11    1    3    3    0    0  0.21963108847E+02 -0.12295562883E+01  0.10983554317E+02  0.24587159750E+02  0.51100000000E-03 0. -1.
        -11    1    3    3    0    0  0.55353655532E+01  0.16910538333E+02  0.58226212151E+01  0.18721898851E+02  0.51100000000E-03 0.  1.
         12    1    3    3    0    0 -0.24484742410E+02  0.27606332485E+01 -0.15580317736E+02  0.29152530037E+02  0.00000000000E+00 0. -1.
</event>
<event>
 7    1  0.2684545E-013  0.7246156E+02  0.7816164E-02  0.1226708E+00
        -11   -1    0    0    0    0  0.00000000000E+00  0.00000000000E+00  0.45593999997E+02  0.45594000000E+02  0.51100000000E-03 0. -1.
         11   -1    0    0    0    0 -0.00000000000E+00 -0.00000000000E+00 -0.45593999997E+02  0.45594000000E+02  0.51100000000E-03 0.  1.
    9900012    2    1    2    0    0  0.39887043168E+01  0.11171483507E+02 -0.14490263712E+02  0.72461560181E+02  0.69999986825E+02 0.  0.
         12    1    1    2    0    0 -0.39887043168E+01 -0.11171483507E+02  0.14490263712E+02  0.18726439819E+02  0.00000000000E+00 0. -1.
         11    1    3    3    0    0 -0.29911995888E+01  0.30492864565E+02 -0.21708735179E+02  0.37550382790E+02  0.51100000000E-03 0. -1.
        -11    1    3    3    0    0  0.14756185136E+02 -0.78117174643E+01 -0.38684666620E+01  0.17138639505E+02  0.51100000000E-03 0.  1.
         12    1    3    3    0    0 -0.77762812305E+01 -0.11509663594E+02  0.11086938129E+02  0.17772537886E+02  0.00000000000E+00 0. -1.
</event>
<event>
 7    1  0.2684545E-013  0.7246202E+02  0.7816164E-02  0.1226707E+00
        -11   -1    0    0    0    0  0.00000000000E+00  0.00000000000E+00  0.45593999997E+02  0.45594000000E+02  0.51100000000E-03 0.  1.
         11   -1    0    0    0    0 -0.00000000000E+00 -0.00000000000E+00 -0.45593999997E+02  0.45594000000E+02  0.51100000000E-03 0. -1.
    9900012    2    1    2    0    0  0.14409424314E+02 -0.11168439019E+02 -0.42774937778E+01  0.72462015588E+02  0.70000580075E+02 0.  0.
         12    1    1    2    0    0 -0.14409424314E+02  0.11168439019E+02  0.42774937778E+01  0.18725984412E+02  0.00000000000E+00 0. -1.
         11    1    3    3    0    0 -0.11774698517E+01 -0.22257073940E+02 -0.11726848567E+02  0.25184970780E+02  0.51100000000E-03 0. -1.
        -11    1    3    3    0    0 -0.22045023799E+01 -0.13924014743E+01 -0.15472297492E+02  0.15690462152E+02  0.51100000000E-03 0.  1.
        -12    1    3    3    0    0  0.17791396546E+02  0.12481036395E+02  0.22921652281E+02  0.31586582656E+02  0.00000000000E+00 0.  1.
</event>
<event>
 7    1  0.2684545E-013  0.7246171E+02  0.7816164E-02  0.1226708E+00
        -11   -1    0    0    0    0  0.00000000000E+00  0.00000000000E+00  0.45593999997E+02  0.45594000000E+02  0.51100000000E-03 0. -1.
         11   -1    0    0    0    0 -0.00000000000E+00 -0.00000000000E+00 -0.45593999997E+02  0.45594000000E+02  0.51100000000E-03 0.  1.
    9900012    2    1    2    0    0 -0.47801026634E+00  0.17868470419E+02 -0.55824011801E+01  0.72461710141E+02  0.70000182177E+02 0.  0.
         12    1    1    2    0    0  0.47801026634E+00 -0.17868470419E+02  0.55824011801E+01  0.18726289859E+02  0.00000000000E+00 0. -1.
         11    1    3    3    0    0  0.92005956335E+01  0.24992187793E+01  0.16991960647E+01  0.96842305861E+01  0.51100000000E-03 0. -1.
        -11    1    3    3    0    0  0.20497451841E+02  0.21163175136E+02 -0.11765803839E+02  0.31724748290E+02  0.51100000000E-03 0.  1.
        -12    1    3    3    0    0 -0.30176057741E+02 -0.57939234960E+01  0.44842065938E+01  0.31052731266E+02  0.00000000000E+00 0.  1.
</event>
<event>
 7    1  0.2684545E-013  0.7246168E+02  0.7816164E-02  0.1226708E+00
        -11   -1    0    0    0    0  0.00000000000E+00  0.00000000000E+00  0.45593999997E+02  0.45594000000E+02  0.51100000000E-03 0.  1.
         11   -1    0    0    0    0 -0.00000000000E+00 -0.00000000000E+00 -0.45593999997E+02  0.45594000000E+02  0.51100000000E-03 0. -1.
    9900012    2    1    2    0    0 -0.91252897741E+01 -0.16003105073E+02  0.33622623971E+01  0.72461679115E+02  0.70000141759E+02 0.  0.
         12    1    1    2    0    0  0.91252897741E+01  0.16003105073E+02 -0.33622623971E+01  0.18726320885E+02  0.00000000000E+00 0. -1.
         11    1    3    3    0    0 -0.52667622270E+01 -0.17485341594E+02  0.20377729936E+01  0.18374669359E+02  0.51100000000E-03 0. -1.
        -11    1    3    3    0    0  0.59907097517E+01 -0.23359154345E+02  0.98325204798E+01  0.26042602679E+02  0.51100000000E-03 0.  1.
         12    1    3    3    0    0 -0.98492372988E+01  0.24841390866E+02 -0.85080310763E+01  0.28044407077E+02  0.00000000000E+00 0. -1.
</event>
<event>
 7    1  0.2684545E-013  0.7246156E+02  0.7816164E-02  0.1226708E+00
        -11   -1    0    0    0    0  0.00000000000E+00  0.00000000000E+00  0.45593999997E+02  0.45594000000E+02  0.51100000000E-03 0.  1.
         11   -1    0    0    0    0 -0.00000000000E+00 -0.00000000000E+00 -0.45593999997E+02  0.45594000000E+02  0.51100000000E-03 0. -1.
    9900012    2    1    2    0    0  0.41754072506E+01  0.16935143661E+02  0.68151614533E+01  0.72461560345E+02  0.69999987039E+02 0.  0.
         12    1    1    2    0    0 -0.41754072506E+01 -0.16935143661E+02 -0.68151614533E+01  0.18726439655E+02  0.00000000000E+00 0. -1.
         11    1    3    3    0    0  0.12201672399E+02  0.20428503240E+02 -0.59927229268E+01  0.24538078211E+02  0.51100000000E-03 0. -1.
        -11    1    3    3    0    0 -0.11597975155E+02  0.12579726409E+02 -0.99811206392E+01  0.19808718124E+02  0.51100000000E-03 0.  1.
        -12    1    3    3    0    0  0.35717100064E+01 -0.16073085988E+02  0.22789005019E+02  0.28114764010E+02  0.00000000000E+00 0.  1.
</event>
<event>
 7    1  0.2684545E-013  0.7246156E+02  0.7816164E-02  0.1226708E+00
        -11   -1    0    0    0    0  0.00000000000E+00  0.00000000000E+00  0.45593999997E+02  0.45594000000E+02  0.51100000000E-03 0.  1.
         11   -1    0    0    0    0 -0.00000000000E+00 -0.00000000000E+00 -0.45593999997E+02  0.45594000000E+02  0.51100000000E-03 0. -1.
    9900012    2    1    2    0    0 -0.85506332226E+01  0.37880375300E+01  0.16223966906E+02  0.72461557225E+02  0.69999982975E+02 0.  0.
         12    1    1    2    0    0  0.85506332226E+01 -0.37880375300E+01 -0.16223966906E+02  0.18726442775E+02  0.00000000000E+00 0. -1.
         11    1    3    3    0    0 -0.11336335756E+01  0.39795288651E+01  0.22270133215E+02  0.22651282717E+02  0.51100000000E-03 0. -1.
        -11    1    3    3    0    0 -0.15193260989E+01  0.21335804390E+02  0.86644739807E+01  0.23078085068E+02  0.51100000000E-03 0.  1.
         12    1    3    3    0    0 -0.58976735481E+01 -0.21527295725E+02 -0.14710640290E+02  0.26732189440E+02  0.00000000000E+00 0. -1.
</event>
<event>
 7    1  0.2684545E-013  0.7246160E+02  0.7816164E-02  0.1226708E+00
        -11   -1    0    0    0    0  0.00000000000E+00  0.00000000000E+00  0.45593999997E+02  0.45594000000E+02  0.51100000000E-03 0. -1.
         11   -1    0    0    0    0 -0.00000000000E+00 -0.00000000000E+00 -0.45593999997E+02  0.45594000000E+02  0.51100000000E-03 0.  1.
    9900012    2    1    2    0    0  0.18270818740E+02 -0.11314623248E+01  0.39465106619E+01  0.72461602300E+02  0.70000041694E+02 0.  0.
         12    1    1    2    0    0 -0.18270818740E+02  0.11314623248E+01 -0.39465106619E+01  0.18726397700E+02  0.00000000000E+00 0. -1.
         11    1    3    3    0    0 -0.56034499017E+01 -0.24011124800E+02  0.27103143288E+00  0.24657782205E+02  0.51100000000E-03 0. -1.
        -11    1    3    3    0    0 -0.37144089419E+01 -0.52750881630E+01  0.53034262268E+01  0.83516297163E+01  0.51100000000E-03 0.  1.
        -12    1    3    3    0    0  0.27588677583E+02  0.28154750638E+02 -0.16279469978E+01  0.39452190379E+02  0.00000000000E+00 0.  1.
</event>
<event>
 7    1  0.2684545E-013  0.7246162E+02  0.7816164E-02  0.1226708E+00
        -11   -1    0    0    0    0  0.00000000000E+00  0.00000000000E+00  0.45593999997E+02  0.45594000000E+02  0.51100000000E-03 0.  1.
         11   -1    0    0    0    0 -0.00000000000E+00 -0.00000000000E+00 -0.45593999997E+02  0.45594000000E+02  0.51100000000E-03 0. -1.
    9900012    2    1    2    0    0 -0.77239419284E+01  0.14343137042E+01  0.16998849200E+02  0.72461617305E+02  0.70000061240E+02 0.  0.
         12    1    1    2    0    0  0.77239419284E+01 -0.14343137042E+01 -0.16998849200E+02  0.18726382695E+02  0.00000000000E+00 0. -1.
         11    1    3    3    0    0  0.21201056439E+01 -0.12943883063E+02  0.72649061323E+01  0.14993926039E+02  0.51100000000E-03 0. -1.
        -11    1    3    3    0    0  0.21651297823E+01 -0.94145641729E+01  0.24966322300E+02  0.26770114961E+02  0.51100000000E-03 0.  1.
         12    1    3    3    0    0 -0.12009177355E+02  0.23792760941E+02 -0.15232379232E+02  0.30697576305E+02  0.00000000000E+00 0. -1.
</event>
<event>
 7    1  0.2684545E-013  0.7246158E+02  0.7816164E-02  0.1226708E+00
        -11   -1    0    0    0    0  0.00000000000E+00  0.00000000000E+00  0.45593999997E+02  0.45594000000E+02  0.51100000000E-03 0.  1.
         11   -1    0    0    0    0 -0.00000000000E+00 -0.00000000000E+00 -0.45593999997E+02  0.45594000000E+02  0.51100000000E-03 0. -1.
    9900012    2    1    2    0    0 -0.51681096609E+01 -0.10276941240E+02  0.14776797664E+02  0.72461584755E+02  0.70000018837E+02 0.  0.
         12    1    1    2    0    0  0.51681096609E+01  0.10276941240E+02 -0.14776797664E+02  0.18726415245E+02  0.00000000000E+00 0. -1.
         11    1    3    3    0    0  0.11242788596E+02 -0.24642221225E+02  0.19557752462E+02  0.33408756995E+02  0.51100000000E-03 0. -1.
        -11    1    3    3    0    0 -0.12289363739E+01 -0.34607757321E+01  0.10479190501E+02  0.11104084253E+02  0.51100000000E-03 0.  1.
         12    1    3    3    0    0 -0.15181961883E+02  0.17826055717E+02 -0.15260145299E+02  0.27948743506E+02  0.00000000000E+00 0. -1.
</event>
<event>
 7    1  0.2684545E-013  0.7246161E+02  0.7816164E-02  0.1226708E+00
        -11   -1    0    0    0    0  0.00000000000E+00  0.00000000000E+00  0.45593999997E+02  0.45594000000E+02  0.51100000000E-03 0.  1.
         11   -1    0    0    0    0 -0.00000000000E+00 -0.00000000000E+00 -0.45593999997E+02  0.45594000000E+02  0.51100000000E-03 0. -1.
    9900012    2    1    2    0    0 -0.32605824907E+01  0.16171142033E+02  0.88623042768E+01  0.72461610334E+02  0.70000052159E+02 0.  0.
         12    1    1    2    0    0  0.32605824907E+01 -0.16171142033E+02 -0.88623042768E+01  0.18726389666E+02  0.00000000000E+00 0. -1.
         11    1    3    3    0    0 -0.88529558834E+01  0.22632982000E+02  0.94333298560E+01  0.26069415308E+02  0.51100000000E-03 0. -1.
        -11    1    3    3    0    0  0.15213485314E+02 -0.28232898754E+01  0.18866898727E+02  0.24400429688E+02  0.51100000000E-03 0.  1.
         12    1    3    3    0    0 -0.96211119213E+01 -0.36385500916E+01 -0.19437924306E+02  0.21991765338E+02  0.00000000000E+00 0. -1.
</event>
<event>
 7    1  0.2684545E-013  0.7246159E+02  0.7816164E-02  0.1226708E+00
        -11   -1    0    0    0    0  0.00000000000E+00  0.00000000000E+00  0.45593999997E+02  0.45594000000E+02  0.51100000000E-03 0. -1.
         11   -1    0    0    0    0 -0.00000000000E+00 -0.00000000000E+00 -0.45593999997E+02  0.45594000000E+02  0.51100000000E-03 0.  1.
    9900012    2    1    2    0    0 -0.78128908821E+01  0.98938040453E+01 -0.13847371174E+02  0.72461593221E+02  0.70000029866E+02 0.  0.
         12    1    1    2    0    0  0.78128908821E+01 -0.98938040453E+01  0.13847371174E+02  0.18726406779E+02  0.00000000000E+00 0. -1.
         11    1    3    3    0    0  0.40162092268E+01  0.29537613649E+02  0.59906820832E+01  0.30405407886E+02  0.51100000000E-03 0. -1.
        -11    1    3    3    0    0 -0.66096181345E+00  0.10549354422E+01  0.65735608670E+01  0.66904007384E+01  0.51100000000E-03 0.  1.
        -12    1    3    3    0    0 -0.11168138295E+02 -0.20698745046E+02 -0.26411614124E+02  0.35365784596E+02  0.00000000000E+00 0.  1.
</event>
<event>
 7    1  0.2684545E-013  0.7246158E+02  0.7816164E-02  0.1226708E+00
        -11   -1    0    0    0    0  0.00000000000E+00  0.00000000000E+00  0.45593999997E+02  0.45594000000E+02  0.51100000000E-03 0. -1.
         11   -1    0    0    0    0 -0.00000000000E+00 -0.00000000000E+00 -0.45593999997E+02  0.45594000000E+02  0.51100000000E-03 0.  1.
    9900012    2    1    2    0    0  0.74885951355E+01  0.15092837780E+02  0.81734951576E+01  0.72461579294E+02  0.70000011724E+02 0.  0.
         12    1    1    2    0    0 -0.74885951355E+01 -0.15092837780E+02 -0.81734951576E+01  0.18726420706E+02  0.00000000000E+00 0. -1.
         11    1    3    3    0    0  0.98927891084E+00  0.13211955267E+02 -0.63973692372E+00  0.13264377042E+02  0.51100000000E-03 0. -1.
        -11    1    3    3    0    0 -0.38559385832E+01 -0.64964118301E+01 -0.23266479792E+02  0.24462230299E+02  0.51100000000E-03 0.  1.
         12    1    3    3    0    0  0.10355254808E+02  0.83772943438E+01  0.32079711873E+02  0.34734971952E+02  0.00000000000E+00 0. -1.
</event>
<event>
 7    1  0.2684545E-013  0.7246158E+02  0.7816164E-02  0.1226708E+00
        -11   -1    0    0    0    0  0.00000000000E+00  0.00000000000E+00  0.45593999997E+02  0.45594000000E+02  0.51100000000E-03 0. -1.
         11   -1    0    0    0    0 -0.00000000000E+00 -0.00000000000E+00 -0.45593999997E+02  0.45594000000E+02  0.51100000000E-03 0.  1.
    9900012    2    1    2    0    0  0.93370883871E+01 -0.91436147011E+01 -0.13412385035E+02  0.72461575310E+02  0.70000006533E+02 0.  0.
         12    1    1    2    0    0 -0.93370883871E+01  0.91436147011E+01  0.13412385035E+02  0.18726424690E+02  0.00000000000E+00 0. -1.
         11    1    3    3    0    0  0.34911763005E+02 -0.52884479747E+01 -0.88443243976E+01  0.36400837249E+02  0.51100000000E-03 0. -1.
        -11    1    3    3    0    0 -0.99930004632E+01 -0.87015728861E+01  0.79871706355E+01  0.15471661965E+02  0.51100000000E-03 0.  1.
        -12    1    3    3    0    0 -0.15581674155E+02  0.48464061597E+01 -0.12555231273E+02  0.20589076095E+02  0.00000000000E+00 0.  1.
</event>
<event>
 7    1  0.2684545E-013  0.7246155E+02  0.7816164E-02  0.1226708E+00
        -11   -1    0    0    0    0  0.00000000000E+00  0.00000000000E+00  0.45593999997E+02  0.45594000000E+02  0.51100000000E-03 0.  1.
         11   -1    0    0    0    0 -0.00000000000E+00 -0.00000000000E+00 -0.45593999997E+02  0.45594000000E+02  0.51100000000E-03 0. -1.
    9900012    2    1    2    0    0 -0.18708298108E+02 -0.80835794712E+00 -0.16108230939E+00  0.72461553242E+02  0.69999977787E+02 0.  0.
         12    1    1    2    0    0  0.18708298108E+02  0.80835794712E+00  0.16108230939E+00  0.18726446758E+02  0.00000000000E+00 0. -1.
         11    1    3    3    0    0 -0.19486858470E+02 -0.38025275596E+01  0.23841029725E+02  0.31025659823E+02  0.51100000000E-03 0. -1.
        -11    1    3    3    0    0  0.47628045156E+01 -0.45989484042E+01  0.67831518386E+01  0.94787015147E+01  0.51100000000E-03 0.  1.
         12    1    3    3    0    0 -0.39842441534E+01  0.75931180167E+01 -0.30785263873E+02  0.31957191904E+02  0.00000000000E+00 0. -1.
</event>
<event>
 7    1  0.2684545E-013  0.7246164E+02  0.7816164E-02  0.1226708E+00
        -11   -1    0    0    0    0  0.00000000000E+00  0.00000000000E+00  0.45593999997E+02  0.45594000000E+02  0.51100000000E-03 0.  1.
         11   -1    0    0    0    0 -0.00000000000E+00 -0.00000000000E+00 -0.45593999997E+02  0.45594000000E+02  0.51100000000E-03 0. -1.
    9900012    2    1    2    0    0 -0.75841161229E+00 -0.11774204840E+02  0.14541995898E+02  0.72461635364E+02  0.70000084765E+02 0.  0.
         12    1    1    2    0    0  0.75841161229E+00  0.11774204840E+02 -0.14541995898E+02  0.18726364636E+02  0.00000000000E+00 0. -1.
         11    1    3    3    0    0 -0.12651133132E+02  0.28191652560E+01 -0.21159128505E+02  0.24813455656E+02  0.51100000000E-03 0. -1.
        -11    1    3    3    0    0 -0.34598092078E+00 -0.18032302398E+02  0.15505700195E+02  0.23784666728E+02  0.51100000000E-03 0.  1.
        -12    1    3    3    0    0  0.12238702440E+02  0.34389323026E+01  0.20195424207E+02  0.23863512980E+02  0.00000000000E+00 0.  1.
</event>
<event>
 7    1  0.2684545E-013  0.7246230E+02  0.7816164E-02  0.1226706E+00
        -11   -1    0    0    0    0  0.00000000000E+00  0.00000000000E+00  0.45593999997E+02  0.45594000000E+02  0.51100000000E-03 0.  1.
         11   -1    0    0    0    0 -0.00000000000E+00 -0.00000000000E+00 -0.45593999997E+02  0.45594000000E+02  0.51100000000E-03 0. -1.
    9900012    2    1    2    0    0  0.16251627298E+02  0.92484281536E+01  0.10015451234E+01  0.72462298257E+02  0.70000948300E+02 0.  0.
         12    1    1    2    0    0 -0.16251627298E+02 -0.92484281536E+01 -0.10015451234E+01  0.18725701743E+02  0.00000000000E+00 0. -1.
         11    1    3    3    0    0 -0.16400158922E+02  0.89889280465E+01  0.10778212736E+02  0.21585548641E+02  0.51100000000E-03 0. -1.
        -11    1    3    3    0    0  0.16491444335E+01  0.14843142489E+02  0.97950049704E+00  0.14966561990E+02  0.51100000000E-03 0.  1.
         12    1    3    3    0    0  0.31002641787E+02 -0.14583642382E+02 -0.10756168109E+02  0.35910187625E+02  0.00000000000E+00 0. -1.
</event>
<event>
 7    1  0.2684545E-013  0.7246158E+02  0.7816164E-02  0.1226708E+00
        -11   -1    0    0    0    0  0.00000000000E+00  0.00000000000E+00  0.45593999997E+02  0.45594000000E+02  0.51100000000E-03 0.  1.
         11   -1    0    0    0    0 -0.00000000000E+00 -0.00000000000E+00 -0.45593999997E+02  0.45594000000E+02  0.51100000000E-03 0. -1.
    9900012    2    1    2    0    0  0.52115965400E+01 -0.16847895698E+02  0.62981339398E+01  0.72461579651E+02  0.70000012189E+02 0.  0.
         12    1    1    2    0    0 -0.52115965400E+01  0.16847895698E+02 -0.62981339398E+01  0.18726420349E+02  0.00000000000E+00 0. -1.
         11    1    3    3    0    0  0.71952470473E+01 -0.10559937618E+02  0.65837369284E+01  0.14374611465E+02  0.51100000000E-03 0. -1.
        -11    1    3    3    0    0  0.21910015418E+02 -0.16929002273E+02 -0.11037632658E+02  0.29807200951E+02  0.51100000000E-03 0.  1.
         12    1    3    3    0    0 -0.23893665925E+02  0.10641044193E+02  0.10752029670E+02  0.28279767235E+02  0.00000000000E+00 0. -1.
</event>
<event>
 7    1  0.2684545E-013  0.7246146E+02  0.7816164E-02  0.1226708E+00
        -11   -1    0    0    0    0  0.00000000000E+00  0.00000000000E+00  0.45593999997E+02  0.45594000000E+02  0.51100000000E-03 0. -1.
         11   -1    0    0    0    0 -0.00000000000E+00 -0.00000000000E+00 -0.45593999997E+02  0.45594000000E+02  0.51100000000E-03 0.  1.
    9900012    2    1    2    0    0 -0.16372915479E+02 -0.63717105548E+01 -0.64816929521E+01  0.72461457334E+02  0.69999852848E+02 0.  0.
         12    1    1    2    0    0  0.16372915479E+02  0.63717105548E+01  0.64816929521E+01  0.18726542666E+02  0.00000000000E+00 0. -1.
         11    1    3    3    0    0  0.78874070851E+01  0.24272543887E+02 -0.16187103726E+02  0.30222341150E+02  0.51100000000E-03 0.  1.
        -11    1    3    3    0    0 -0.54125142697E+01 -0.10909692699E+02  0.86348274119E+01  0.14929063943E+02  0.51100000000E-03 0. -1.
        -12    1    3    3    0    0 -0.18847808295E+02 -0.19734561743E+02  0.10705833625E+01  0.27310052241E+02  0.00000000000E+00 0.  1.
</event>
<event>
 7    1  0.2684545E-013  0.7246155E+02  0.7816164E-02  0.1226708E+00
        -11   -1    0    0    0    0  0.00000000000E+00  0.00000000000E+00  0.45593999997E+02  0.45594000000E+02  0.51100000000E-03 0. -1.
         11   -1    0    0    0    0 -0.00000000000E+00 -0.00000000000E+00 -0.45593999997E+02  0.45594000000E+02  0.51100000000E-03 0.  1.
    9900012    2    1    2    0    0 -0.42926242837E+01  0.14644292108E+02 -0.10853479102E+02  0.72461550171E+02  0.69999973786E+02 0.  0.
         12    1    1    2    0    0  0.42926242837E+01 -0.14644292108E+02  0.10853479102E+02  0.18726449829E+02  0.00000000000E+00 0. -1.
         11    1    3    3    0    0  0.69032562609E+00  0.22215628071E+01  0.20472030511E+01  0.30988596886E+01  0.51100000000E-03 0. -1.
        -11    1    3    3    0    0  0.37485331285E+00  0.37564033468E+02 -0.20184004892E+02  0.42644943184E+02  0.51100000000E-03 0.  1.
         12    1    3    3    0    0 -0.53578032226E+01 -0.25141304168E+02  0.72833227389E+01  0.26717747299E+02  0.00000000000E+00 0. -1.
</event>
<event>
 7    1  0.2684545E-013  0.7246155E+02  0.7816164E-02  0.1226708E+00
        -11   -1    0    0    0    0  0.00000000000E+00  0.00000000000E+00  0.45593999997E+02  0.45594000000E+02  0.51100000000E-03 0.  1.
         11   -1    0    0    0    0 -0.00000000000E+00 -0.00000000000E+00 -0.45593999997E+02  0.45594000000E+02  0.51100000000E-03 0. -1.
    9900012    2    1    2    0    0 -0.19866071667E+01 -0.14156915808E+02  0.12096070847E+02  0.72461553376E+02  0.69999977961E+02 0.  0.
         12    1    1    2    0    0  0.19866071667E+01  0.14156915808E+02 -0.12096070847E+02  0.18726446624E+02  0.00000000000E+00 0. -1.
         11    1    3    3    0    0  0.24265555353E+01 -0.54757209476E+01  0.23537864339E+00  0.59939215067E+01  0.51100000000E-03 0. -1.
        -11    1    3    3    0    0  0.84676784956E+01 -0.35016595175E+02  0.51430997517E+01  0.36391138922E+02  0.51100000000E-03 0.  1.
         12    1    3    3    0    0 -0.12880841198E+02  0.26335400314E+02  0.67175924519E+01  0.30076492947E+02  0.00000000000E+00 0. -1.
</event>
<event>
 7    1 -0.1155228E-012  0.7246145E+02  0.7816164E-02  0.1226708E+00
        -11   -1    0    0    0    0  0.00000000000E+00  0.00000000000E+00  0.45593999997E+02  0.45594000000E+02  0.51100000000E-03 0. -1.
         11   -1    0    0    0    0 -0.00000000000E+00 -0.00000000000E+00 -0.45593999997E+02  0.45594000000E+02  0.51100000000E-03 0.  1.
    9900012    2    1    2    0    0  0.84232244597E+01 -0.15835352907E+02 -0.53828039026E+01  0.72461449601E+02  0.69999842775E+02 0.  0.
         12    1    1    2    0    0 -0.84232244597E+01  0.15835352907E+02  0.53828039026E+01  0.18726550399E+02  0.00000000000E+00 0. -1.
         11    1    3    3    0    0  0.21392624788E+02  0.87739240459E+01  0.78333995993E+01  0.24412871360E+02  0.51100000000E-03 0. -1.
        -11    1    3    3    0    0  0.34850138716E+01  0.52967206526E+01  0.61252337856E+01  0.88158414543E+01  0.51100000000E-03 0.  1.
        -12    1    3    3    0    0 -0.16454414200E+02 -0.29905997605E+02 -0.19341437288E+02  0.39232736787E+02  0.00000000000E+00 0.  1.
</event>
<event>
 7    1  0.2684545E-013  0.7246157E+02  0.7816164E-02  0.1226708E+00
        -11   -1    0    0    0    0  0.00000000000E+00  0.00000000000E+00  0.45593999997E+02  0.45594000000E+02  0.51100000000E-03 0. -1.
         11   -1    0    0    0    0 -0.00000000000E+00 -0.00000000000E+00 -0.45593999997E+02  0.45594000000E+02  0.51100000000E-03 0.  1.
    9900012    2    1    2    0    0  0.10968781938E+02  0.13783635668E+02  0.63542277618E+01  0.72461574824E+02  0.70000005901E+02 0.  0.
         12    1    1    2    0    0 -0.10968781938E+02 -0.13783635668E+02 -0.63542277618E+01  0.18726425176E+02  0.00000000000E+00 0. -1.
         11    1    3    3    0    0  0.22037227413E+02  0.25087830559E+02  0.24483343975E+02  0.41406192371E+02  0.51100000000E-03 0. -1.
        -11    1    3    3    0    0 -0.12788366944E+02 -0.14810309948E+01 -0.34834508002E+01  0.13336799153E+02  0.51100000000E-03 0.  1.
        -12    1    3    3    0    0  0.17199214688E+01 -0.98231638960E+01 -0.14645665413E+02  0.17718583301E+02  0.00000000000E+00 0.  1.
</event>
<event>
 7    1  0.2684545E-013  0.7246159E+02  0.7816164E-02  0.1226708E+00
        -11   -1    0    0    0    0  0.00000000000E+00  0.00000000000E+00  0.45593999997E+02  0.45594000000E+02  0.51100000000E-03 0.  1.
         11   -1    0    0    0    0 -0.00000000000E+00 -0.00000000000E+00 -0.45593999997E+02  0.45594000000E+02  0.51100000000E-03 0. -1.
    9900012    2    1    2    0    0  0.18356320756E+02  0.28513295364E+01  0.23651680085E+01  0.72461585193E+02  0.70000019408E+02 0.  0.
         12    1    1    2    0    0 -0.18356320756E+02 -0.28513295364E+01 -0.23651680085E+01  0.18726414807E+02  0.00000000000E+00 0. -1.
         11    1    3    3    0    0  0.52410559057E+01 -0.11076307469E+02  0.31514298371E+02  0.33812782438E+02  0.51100000000E-03 0. -1.
        -11    1    3    3    0    0  0.52902965275E+01 -0.28146332179E+01 -0.12111518322E+02  0.13512892874E+02  0.51100000000E-03 0.  1.
        -12    1    3    3    0    0  0.78249683225E+01  0.16742270224E+02 -0.17037612040E+02  0.25135909880E+02  0.00000000000E+00 0.  1.
</event>
<event>
 7    1  0.2684545E-013  0.7246147E+02  0.7816164E-02  0.1226708E+00
        -11   -1    0    0    0    0  0.00000000000E+00  0.00000000000E+00  0.45593999997E+02  0.45594000000E+02  0.51100000000E-03 0. -1.
         11   -1    0    0    0    0 -0.00000000000E+00 -0.00000000000E+00 -0.45593999997E+02  0.45594000000E+02  0.51100000000E-03 0.  1.
    9900012    2    1    2    0    0 -0.11176939584E+02  0.14885173234E+02  0.20471272265E+01  0.72461465602E+02  0.69999863619E+02 0.  0.
         12    1    1    2    0    0  0.11176939584E+02 -0.14885173234E+02 -0.20471272265E+01  0.18726534398E+02  0.00000000000E+00 0. -1.
         11    1    3    3    0    0 -0.23296440113E+02 -0.74130721672E+00  0.52413296678E+01  0.23890274073E+02  0.51100000000E-03 0.  1.
        -11    1    3    3    0    0  0.14359775905E+02  0.24001011107E+02 -0.16661137583E+02  0.32555263845E+02  0.51100000000E-03 0. -1.
         12    1    3    3    0    0 -0.22402753763E+01 -0.83745306563E+01  0.13466935141E+02  0.16015927684E+02  0.00000000000E+00 0. -1.
</event>
<event>
 7    1  0.2684545E-013  0.7246158E+02  0.7816164E-02  0.1226708E+00
        -11   -1    0    0    0    0  0.00000000000E+00  0.00000000000E+00  0.45593999997E+02  0.45594000000E+02  0.51100000000E-03 0. -1.
         11   -1    0    0    0    0 -0.00000000000E+00 -0.00000000000E+00 -0.45593999997E+02  0.45594000000E+02  0.51100000000E-03 0.  1.
    9900012    2    1    2    0    0 -0.11046970083E+02  0.14313680782E+01 -0.15053056114E+02  0.72461578533E+02  0.70000010732E+02 0.  0.
         12    1    1    2    0    0  0.11046970083E+02 -0.14313680782E+01  0.15053056114E+02  0.18726421467E+02  0.00000000000E+00 0. -1.
         11    1    3    3    0    0 -0.12762477957E+02  0.16677251312E+02  0.81372358222E+01  0.22521682042E+02  0.51100000000E-03 0. -1.
        -11    1    3    3    0    0 -0.10116756704E+02  0.78420162180E+01  0.29234439615E+01  0.13129832803E+02  0.51100000000E-03 0.  1.
        -12    1    3    3    0    0  0.11832264578E+02 -0.23087899452E+02 -0.26113735898E+02  0.36810063688E+02  0.00000000000E+00 0.  1.
</event>
<event>
 7    1  0.2684545E-013  0.7246161E+02  0.7816164E-02  0.1226708E+00
        -11   -1    0    0    0    0  0.00000000000E+00  0.00000000000E+00  0.45593999997E+02  0.45594000000E+02  0.51100000000E-03 0.  1.
         11   -1    0    0    0    0 -0.00000000000E+00 -0.00000000000E+00 -0.45593999997E+02  0.45594000000E+02  0.51100000000E-03 0. -1.
    9900012    2    1    2    0    0  0.15649839590E+02 -0.70123737953E+01 -0.75224213850E+01  0.72461609827E+02  0.70000051498E+02 0.  0.
         12    1    1    2    0    0 -0.15649839590E+02  0.70123737953E+01  0.75224213850E+01  0.18726390173E+02  0.00000000000E+00 0. -1.
         11    1    3    3    0    0  0.49146321293E+01 -0.27793779588E+01  0.84650185277E+01  0.10175219395E+02  0.51100000000E-03 0. -1.
        -11    1    3    3    0    0  0.24400323546E+02 -0.19713048977E+02  0.62019953532E+01  0.31975691326E+02  0.51100000000E-03 0.  1.
         12    1    3    3    0    0 -0.13665116086E+02  0.15480053140E+02 -0.22189435266E+02  0.30310699106E+02  0.00000000000E+00 0. -1.
</event>
<event>
 7    1  0.2684545E-013  0.7246156E+02  0.7816164E-02  0.1226708E+00
        -11   -1    0    0    0    0  0.00000000000E+00  0.00000000000E+00  0.45593999997E+02  0.45594000000E+02  0.51100000000E-03 0.  1.
         11   -1    0    0    0    0 -0.00000000000E+00 -0.00000000000E+00 -0.45593999997E+02  0.45594000000E+02  0.51100000000E-03 0. -1.
    9900012    2    1    2    0    0 -0.29606430479E+01  0.18360582402E+02  0.21916307065E+01  0.72461557771E+02  0.69999983686E+02 0.  0.
         12    1    1    2    0    0  0.29606430479E+01 -0.18360582402E+02 -0.21916307065E+01  0.18726442229E+02  0.00000000000E+00 0. -1.
         11    1    3    3    0    0 -0.29006774110E+01  0.73419260581E+00  0.10313058741E+02  0.10738349458E+02  0.51100000000E-03 0. -1.
        -11    1    3    3    0    0  0.16163090556E+02  0.31734147487E+02  0.58394745455E+01  0.36088794331E+02  0.51100000000E-03 0.  1.
         12    1    3    3    0    0 -0.16223056193E+02 -0.14107757691E+02 -0.13960902580E+02  0.25634413981E+02  0.00000000000E+00 0. -1.
</event>
<event>
 7    1  0.2684545E-013  0.7246123E+02  0.7816164E-02  0.1226709E+00
        -11   -1    0    0    0    0  0.00000000000E+00  0.00000000000E+00  0.45593999997E+02  0.45594000000E+02  0.51100000000E-03 0.  1.
         11   -1    0    0    0    0 -0.00000000000E+00 -0.00000000000E+00 -0.45593999997E+02  0.45594000000E+02  0.51100000000E-03 0. -1.
    9900012    2    1    2    0    0  0.17540537157E+01 -0.10987773400E+02  0.15062669430E+02  0.72461230949E+02  0.69999557938E+02 0.  0.
         12    1    1    2    0    0 -0.17540537157E+01  0.10987773400E+02 -0.15062669430E+02  0.18726769051E+02  0.00000000000E+00 0. -1.
         11    1    3    3    0    0  0.52386650446E+00 -0.99242519096E+01  0.11156406385E+02  0.14940904115E+02  0.51100000000E-03 0. -1.
        -11    1    3    3    0    0 -0.82455158409E+01  0.15359295450E+02  0.24149613487E+02  0.29784229385E+02  0.51100000000E-03 0.  1.
         12    1    3    3    0    0  0.94757030522E+01 -0.16422816940E+02 -0.20243350442E+02  0.27736097449E+02  0.00000000000E+00 0. -1.
</event>
<event>
 7    1  0.2684545E-013  0.7246159E+02  0.7816164E-02  0.1226708E+00
        -11   -1    0    0    0    0  0.00000000000E+00  0.00000000000E+00  0.45593999997E+02  0.45594000000E+02  0.51100000000E-03 0.  1.
         11   -1    0    0    0    0 -0.00000000000E+00 -0.00000000000E+00 -0.45593999997E+02  0.45594000000E+02  0.51100000000E-03 0. -1.
    9900012    2    1    2    0    0  0.13753195583E+02 -0.12552828246E+02  0.19885597740E+01  0.72461594694E+02  0.70000031785E+02 0.  0.
         12    1    1    2    0    0 -0.13753195583E+02  0.12552828246E+02 -0.19885597740E+01  0.18726405306E+02  0.00000000000E+00 0. -1.
         11    1    3    3    0    0  0.10765953201E+01 -0.13943596011E+02 -0.34364730759E+01  0.14401120604E+02  0.51100000000E-03 0. -1.
        -11    1    3    3    0    0  0.26638077778E+02  0.99977357562E+00  0.23280232220E+02  0.35391467155E+02  0.51100000000E-03 0.  1.
         12    1    3    3    0    0 -0.13961477515E+02  0.39099418953E+00 -0.17855199370E+02  0.22669006935E+02  0.00000000000E+00 0. -1.
</event>
<event>
 7    1  0.2684545E-013  0.7246155E+02  0.7816164E-02  0.1226708E+00
        -11   -1    0    0    0    0  0.00000000000E+00  0.00000000000E+00  0.45593999997E+02  0.45594000000E+02  0.51100000000E-03 0. -1.
         11   -1    0    0    0    0 -0.00000000000E+00 -0.00000000000E+00 -0.45593999997E+02  0.45594000000E+02  0.51100000000E-03 0.  1.
    9900012    2    1    2    0    0  0.15162986470E+02 -0.63530735356E+01 -0.89667368544E+01  0.72461546201E+02  0.69999968615E+02 0.  0.
         12    1    1    2    0    0 -0.15162986470E+02  0.63530735356E+01  0.89667368544E+01  0.18726453799E+02  0.00000000000E+00 0. -1.
         11    1    3    3    0    0 -0.10749271072E+02  0.13327992944E+02  0.33606888962E+01  0.17449253698E+02  0.51100000000E-03 0. -1.
        -11    1    3    3    0    0 -0.11167310582E+02 -0.88067523265E+01 -0.74771545138E+01  0.16067842172E+02  0.51100000000E-03 0.  1.
        -12    1    3    3    0    0  0.37079568124E+02 -0.10874314153E+02 -0.48502712368E+01  0.38944450332E+02  0.00000000000E+00 0.  1.
</event>
<event>
 7    1  0.2684545E-013  0.7246167E+02  0.7816164E-02  0.1226708E+00
        -11   -1    0    0    0    0  0.00000000000E+00  0.00000000000E+00  0.45593999997E+02  0.45594000000E+02  0.51100000000E-03 0. -1.
         11   -1    0    0    0    0 -0.00000000000E+00 -0.00000000000E+00 -0.45593999997E+02  0.45594000000E+02  0.51100000000E-03 0.  1.
    9900012    2    1    2    0    0 -0.10502329427E+02 -0.14934927837E+02  0.41622775769E+01  0.72461667003E+02  0.70000125981E+02 0.  0.
         12    1    1    2    0    0  0.10502329427E+02  0.14934927837E+02 -0.41622775769E+01  0.18726332997E+02  0.00000000000E+00 0. -1.
         11    1    3    3    0    0 -0.23602288026E+02 -0.92864893772E+01  0.95449345212E+01  0.27100049083E+02  0.51100000000E-03 0. -1.
        -11    1    3    3    0    0 -0.26601271864E+01 -0.21967911526E+02 -0.39094680295E+00  0.22131837997E+02  0.51100000000E-03 0.  1.
         12    1    3    3    0    0  0.15760085786E+02  0.16319473067E+02 -0.49917101413E+01  0.23229779923E+02  0.00000000000E+00 0. -1.
</event>
<event>
 7    1  0.2684545E-013  0.7246156E+02  0.7816164E-02  0.1226708E+00
        -11   -1    0    0    0    0  0.00000000000E+00  0.00000000000E+00  0.45593999997E+02  0.45594000000E+02  0.51100000000E-03 0.  1.
         11   -1    0    0    0    0 -0.00000000000E+00 -0.00000000000E+00 -0.45593999997E+02  0.45594000000E+02  0.51100000000E-03 0. -1.
    9900012    2    1    2    0    0 -0.12740223716E+02 -0.81460638752E+01  0.11045711405E+02  0.72461564209E+02  0.69999992073E+02 0.  0.
         12    1    1    2    0    0  0.12740223716E+02  0.81460638752E+01 -0.11045711405E+02  0.18726435791E+02  0.00000000000E+00 0. -1.
         11    1    3    3    0    0 -0.11694075080E+02 -0.53976370864E+01  0.31555146263E+01  0.13260586371E+02  0.51100000000E-03 0. -1.
        -11    1    3    3    0    0  0.10484652432E+02 -0.17381630374E+02 -0.18117919333E+02  0.27208601807E+02  0.51100000000E-03 0.  1.
        -12    1    3    3    0    0 -0.11530801067E+02  0.14633203585E+02  0.26008116112E+02  0.31992376031E+02  0.00000000000E+00 0.  1.
</event>
<event>
 7    1  0.2684545E-013  0.7246156E+02  0.7816164E-02  0.1226708E+00
        -11   -1    0    0    0    0  0.00000000000E+00  0.00000000000E+00  0.45593999997E+02  0.45594000000E+02  0.51100000000E-03 0.  1.
         11   -1    0    0    0    0 -0.00000000000E+00 -0.00000000000E+00 -0.45593999997E+02  0.45594000000E+02  0.51100000000E-03 0. -1.
    9900012    2    1    2    0    0 -0.10867837648E+02 -0.85189782407E+01  0.12648971880E+02  0.72461564808E+02  0.69999992853E+02 0.  0.
         12    1    1    2    0    0  0.10867837648E+02  0.85189782407E+01 -0.12648971880E+02  0.18726435192E+02  0.00000000000E+00 0. -1.
         11    1    3    3    0    0 -0.22110173399E+02 -0.76684943833E+01 -0.18516708016E+02  0.29841817134E+02  0.51100000000E-03 0. -1.
        -11    1    3    3    0    0  0.11734591431E+02 -0.63714888345E+01  0.27045828768E+01  0.13623922886E+02  0.51100000000E-03 0.  1.
        -12    1    3    3    0    0 -0.49225567958E+00  0.55210049771E+01  0.28461097019E+02  0.28995824788E+02  0.00000000000E+00 0.  1.
</event>
<event>
 7    1  0.2684545E-013  0.7246147E+02  0.7816164E-02  0.1226708E+00
        -11   -1    0    0    0    0  0.00000000000E+00  0.00000000000E+00  0.45593999997E+02  0.45594000000E+02  0.51100000000E-03 0.  1.
         11   -1    0    0    0    0 -0.00000000000E+00 -0.00000000000E+00 -0.45593999997E+02  0.45594000000E+02  0.51100000000E-03 0. -1.
    9900012    2    1    2    0    0  0.13368536584E+02  0.85577737958E+01  0.99362795486E+01  0.72461470316E+02  0.69999869759E+02 0.  0.
         12    1    1    2    0    0 -0.13368536584E+02 -0.85577737958E+01 -0.99362795486E+01  0.18726529684E+02  0.00000000000E+00 0. -1.
         11    1    3    3    0    0  0.63635236635E+01  0.99725710224E+01 -0.17462020921E+02  0.21091912694E+02  0.51100000000E-03 0. -1.
        -11    1    3    3    0    0  0.24931097499E+02 -0.39657293937E+01  0.17677446777E+02  0.30818480770E+02  0.51100000000E-03 0.  1.
         12    1    3    3    0    0 -0.17926084579E+02  0.25509321671E+01  0.97208536924E+01  0.20551076852E+02  0.00000000000E+00 0. -1.
</event>
<event>
 7    1  0.2684545E-013  0.7246162E+02  0.7816164E-02  0.1226708E+00
        -11   -1    0    0    0    0  0.00000000000E+00  0.00000000000E+00  0.45593999997E+02  0.45594000000E+02  0.51100000000E-03 0. -1.
         11   -1    0    0    0    0 -0.00000000000E+00 -0.00000000000E+00 -0.45593999997E+02  0.45594000000E+02  0.51100000000E-03 0.  1.
    9900012    2    1    2    0    0  0.10424555665E+02  0.15246167834E+02 -0.30919680477E+01  0.72461621257E+02  0.70000066388E+02 0.  0.
         12    1    1    2    0    0 -0.10424555665E+02 -0.15246167834E+02  0.30919680477E+01  0.18726378743E+02  0.00000000000E+00 0. -1.
         11    1    3    3    0    0  0.18857284671E+02 -0.17064710288E+02 -0.83898657717E+01  0.26780428867E+02  0.51100000000E-03 0. -1.
        -11    1    3    3    0    0  0.65832920735E+01  0.76025633575E+01  0.12343580661E+02  0.15921767739E+02  0.51100000000E-03 0.  1.
        -12    1    3    3    0    0 -0.15016021080E+02  0.24708314764E+02 -0.70456829367E+01  0.29759424651E+02  0.00000000000E+00 0.  1.
</event>
<event>
 7    1  0.2684545E-013  0.7246149E+02  0.7816164E-02  0.1226708E+00
        -11   -1    0    0    0    0  0.00000000000E+00  0.00000000000E+00  0.45593999997E+02  0.45594000000E+02  0.51100000000E-03 0.  1.
         11   -1    0    0    0    0 -0.00000000000E+00 -0.00000000000E+00 -0.45593999997E+02  0.45594000000E+02  0.51100000000E-03 0. -1.
    9900012    2    1    2    0    0  0.12115899703E+02  0.48835863542E+01  0.13417809331E+02  0.72461493424E+02  0.69999899862E+02 0.  0.
         12    1    1    2    0    0 -0.12115899703E+02 -0.48835863542E+01 -0.13417809331E+02  0.18726506576E+02  0.00000000000E+00 0. -1.
         11    1    3    3    0    0 -0.23122826530E+01  0.96025022146E+01  0.12919110883E+02  0.16262168555E+02  0.51100000000E-03 0. -1.
        -11    1    3    3    0    0  0.21275038304E+02 -0.57567418760E+01  0.23476216090E+02  0.32200932502E+02  0.51100000000E-03 0.  1.
         12    1    3    3    0    0 -0.68468559475E+01  0.10378260156E+01 -0.22977517641E+02  0.23998392366E+02  0.00000000000E+00 0. -1.
</event>
<event>
 7    1  0.2684545E-013  0.7246136E+02  0.7816164E-02  0.1226709E+00
        -11   -1    0    0    0    0  0.00000000000E+00  0.00000000000E+00  0.45593999997E+02  0.45594000000E+02  0.51100000000E-03 0.  1.
         11   -1    0    0    0    0 -0.00000000000E+00 -0.00000000000E+00 -0.45593999997E+02  0.45594000000E+02  0.51100000000E-03 0. -1.
    9900012    2    1    2    0    0 -0.84075303798E+01 -0.15297630225E+02  0.67810751821E+01  0.72461360199E+02  0.69999726312E+02 0.  0.
         12    1    1    2    0    0  0.84075303798E+01  0.15297630225E+02 -0.67810751821E+01  0.18726639801E+02  0.00000000000E+00 0. -1.
         11    1    3    3    0    0 -0.67605701729E+01  0.65003991436E+01 -0.13181171547E+02  0.16177261255E+02  0.51100000000E-03 0. -1.
        -11    1    3    3    0    0 -0.15164509543E+02  0.99327112111E+01  0.73207649471E+01  0.19550312052E+02  0.51100000000E-03 0.  1.
         12    1    3    3    0    0  0.13517549336E+02 -0.31730740580E+02  0.12641481782E+02  0.36733786892E+02  0.00000000000E+00 0. -1.
</event>
