<event>
 7    1  0.1302069E-013  0.7246159E+02  0.7816164E-02  0.1226708E+00
        -11   -1    0    0    0    0  0.00000000000E+00  0.00000000000E+00  0.45593999997E+02  0.45594000000E+02  0.51100000000E-03 0.  1.
         11   -1    0    0    0    0 -0.00000000000E+00 -0.00000000000E+00 -0.45593999997E+02  0.45594000000E+02  0.51100000000E-03 0. -1.
    9900012    2    1    2    0    0  0.10809511796E+02  0.63842508316E+01 -0.13895118634E+02  0.72461587482E+02  0.70000022390E+02 0.  0.
         12    1    1    2    0    0 -0.10809511796E+02 -0.63842508316E+01  0.13895118634E+02  0.18726412518E+02  0.00000000000E+00 0. -1.
         11    1    3    3    0    0  0.69838107236E+01 -0.13544335946E+02 -0.18086589119E+02  0.23650525462E+02  0.51100000000E-03 0. -1.
        -11    1    3    3    0    0  0.70976524265E+01  0.20975931837E+02  0.21678898259E+02  0.30989369409E+02  0.51100000000E-03 0.  1.
        -12    1    3    3    0    0 -0.32719513538E+01 -0.10473450599E+01 -0.17487427774E+02  0.17821692610E+02  0.00000000000E+00 0.  1.
</event>
<event>
 7    1  0.1302069E-013  0.7246156E+02  0.7816164E-02  0.1226708E+00
        -11   -1    0    0    0    0  0.00000000000E+00  0.00000000000E+00  0.45593999997E+02  0.45594000000E+02  0.51100000000E-03 0.  1.
         11   -1    0    0    0    0 -0.00000000000E+00 -0.00000000000E+00 -0.45593999997E+02  0.45594000000E+02  0.51100000000E-03 0. -1.
    9900012    2    1    2    0    0 -0.26243522694E+01 -0.99501637271E+01  0.15645651126E+02  0.72461564616E+02  0.69999992603E+02 0.  0.
         12    1    1    2    0    0  0.26243522694E+01  0.99501637271E+01 -0.15645651126E+02  0.18726435384E+02  0.00000000000E+00 0. -1.
         11    1    3    3    0    0 -0.23721640123E+02 -0.28036450731E+02  0.48829716708E+01  0.37048646295E+02  0.51100000000E-03 0.  1.
        -11    1    3    3    0    0  0.10139846082E+02  0.69110002321E+00  0.10832896577E+02  0.14854149128E+02  0.51100000000E-03 0. -1.
         12    1    3    3    0    0  0.10957441772E+02  0.17395186980E+02 -0.70217121655E-01  0.20558769192E+02  0.00000000000E+00 0. -1.
</event>
<event>
 7    1  0.1302069E-013  0.7246165E+02  0.7816164E-02  0.1226708E+00
        -11   -1    0    0    0    0  0.00000000000E+00  0.00000000000E+00  0.45593999997E+02  0.45594000000E+02  0.51100000000E-03 0. -1.
         11   -1    0    0    0    0 -0.00000000000E+00 -0.00000000000E+00 -0.45593999997E+02  0.45594000000E+02  0.51100000000E-03 0.  1.
    9900012    2    1    2    0    0 -0.13025138671E+01 -0.17892586972E+02  0.53698267707E+01  0.72461648234E+02  0.70000101530E+02 0.  0.
         12    1    1    2    0    0  0.13025138671E+01  0.17892586972E+02 -0.53698267707E+01  0.18726351766E+02  0.00000000000E+00 0. -1.
         11    1    3    3    0    0 -0.24151727720E+01 -0.18211198655E+02  0.90209654689E+01  0.20466036114E+02  0.51100000000E-03 0. -1.
        -11    1    3    3    0    0 -0.10694812693E+01 -0.25851860428E+01 -0.27615844387E+02  0.27757194356E+02  0.51100000000E-03 0.  1.
        -12    1    3    3    0    0  0.21821401742E+01  0.29037977255E+01  0.23964705688E+02  0.24238417764E+02  0.00000000000E+00 0.  1.
</event>
<event>
 7    1  0.1302069E-013  0.7246152E+02  0.7816164E-02  0.1226708E+00
        -11   -1    0    0    0    0  0.00000000000E+00  0.00000000000E+00  0.45593999997E+02  0.45594000000E+02  0.51100000000E-03 0. -1.
         11   -1    0    0    0    0 -0.00000000000E+00 -0.00000000000E+00 -0.45593999997E+02  0.45594000000E+02  0.51100000000E-03 0.  1.
    9900012    2    1    2    0    0  0.10493580404E+02 -0.14728129832E+02 -0.48629075393E+01  0.72461523882E+02  0.69999939540E+02 0.  0.
         12    1    1    2    0    0 -0.10493580404E+02  0.14728129832E+02  0.48629075393E+01  0.18726476118E+02  0.00000000000E+00 0. -1.
         11    1    3    3    0    0  0.12003299242E+02 -0.16407030770E+02  0.92638850190E+01  0.22340309248E+02  0.51100000000E-03 0. -1.
        -11    1    3    3    0    0 -0.17858921321E+02  0.12959672130E+02  0.49134096622E+01  0.22606100222E+02  0.51100000000E-03 0.  1.
        -12    1    3    3    0    0  0.16349202483E+02 -0.11280771192E+02 -0.19040202220E+02  0.27515114412E+02  0.00000000000E+00 0.  1.
</event>
<event>
 7    1  0.1302069E-013  0.7246161E+02  0.7816164E-02  0.1226708E+00
        -11   -1    0    0    0    0  0.00000000000E+00  0.00000000000E+00  0.45593999997E+02  0.45594000000E+02  0.51100000000E-03 0.  1.
         11   -1    0    0    0    0 -0.00000000000E+00 -0.00000000000E+00 -0.45593999997E+02  0.45594000000E+02  0.51100000000E-03 0. -1.
    9900012    2    1    2    0    0 -0.54914991799E+01 -0.15927898192E+02 -0.81745474985E+01  0.72461608707E+02  0.70000050039E+02 0.  0.
         12    1    1    2    0    0  0.54914991799E+01  0.15927898192E+02  0.81745474985E+01  0.18726391293E+02  0.00000000000E+00 0. -1.
         11    1    3    3    0    0  0.34596275683E+01 -0.15451891255E+02 -0.10590457100E+02  0.19049612808E+02  0.51100000000E-03 0. -1.
        -11    1    3    3    0    0 -0.12020792871E+02  0.17506548817E+02  0.19195461967E+02  0.28625940563E+02  0.51100000000E-03 0.  1.
        -12    1    3    3    0    0  0.30696661226E+01 -0.17982555755E+02 -0.16779552365E+02  0.24786055336E+02  0.00000000000E+00 0.  1.
</event>
<event>
 7    1  0.1386469E-013  0.7246153E+02  0.7816164E-02  0.1226708E+00
        -11   -1    0    0    0    0  0.00000000000E+00  0.00000000000E+00  0.45593999997E+02  0.45594000000E+02  0.51100000000E-03 0. -1.
         11   -1    0    0    0    0 -0.00000000000E+00 -0.00000000000E+00 -0.45593999997E+02  0.45594000000E+02  0.51100000000E-03 0.  1.
    9900012    2    1    2    0    0  0.63347095390E+01 -0.99089973173E+01 -0.14572707956E+02  0.72461532369E+02  0.69999950595E+02 0.  0.
         12    1    1    2    0    0 -0.63347095390E+01  0.99089973173E+01  0.14572707956E+02  0.18726467631E+02  0.00000000000E+00 0. -1.
         11    1    3    3    0    0  0.13282614682E+02  0.24363965868E+01  0.16399077221E+02  0.21243672354E+02  0.51100000000E-03 0. -1.
        -11    1    3    3    0    0  0.72698432569E+01 -0.89683647788E+01 -0.34333790523E+02  0.36222801654E+02  0.51100000000E-03 0.  1.
        -12    1    3    3    0    0 -0.14217748400E+02 -0.33770291253E+01  0.33620053450E+01  0.14995058360E+02  0.00000000000E+00 0.  1.
</event>
<event>
 7    1  0.1302069E-013  0.7246153E+02  0.7816164E-02  0.1226708E+00
        -11   -1    0    0    0    0  0.00000000000E+00  0.00000000000E+00  0.45593999997E+02  0.45594000000E+02  0.51100000000E-03 0. -1.
         11   -1    0    0    0    0 -0.00000000000E+00 -0.00000000000E+00 -0.45593999997E+02  0.45594000000E+02  0.51100000000E-03 0.  1.
    9900012    2    1    2    0    0  0.12459138668E+02  0.13514441262E+02  0.35791464754E+01  0.72461533476E+02  0.69999952037E+02 0.  0.
         12    1    1    2    0    0 -0.12459138668E+02 -0.13514441262E+02 -0.35791464754E+01  0.18726466524E+02  0.00000000000E+00 0. -1.
         11    1    3    3    0    0  0.20642553667E+02  0.12475660090E+02  0.14444705093E+02  0.28114171196E+02  0.51100000000E-03 0. -1.
        -11    1    3    3    0    0  0.49327725480E+00 -0.20120417124E+02 -0.51322862339E+01  0.20770528879E+02  0.51100000000E-03 0.  1.
         12    1    3    3    0    0 -0.86766922536E+01  0.21159198296E+02 -0.57332723833E+01  0.23576833401E+02  0.00000000000E+00 0. -1.
</event>
<event>
 7    1  0.1302069E-013  0.7246158E+02  0.7816164E-02  0.1226708E+00
        -11   -1    0    0    0    0  0.00000000000E+00  0.00000000000E+00  0.45593999997E+02  0.45594000000E+02  0.51100000000E-03 0.  1.
         11   -1    0    0    0    0 -0.00000000000E+00 -0.00000000000E+00 -0.45593999997E+02  0.45594000000E+02  0.51100000000E-03 0. -1.
    9900012    2    1    2    0    0  0.46416506875E+01 -0.43996148270E+01  0.17600492332E+02  0.72461578504E+02  0.70000010694E+02 0.  0.
         12    1    1    2    0    0 -0.46416506875E+01  0.43996148270E+01 -0.17600492332E+02  0.18726421496E+02  0.00000000000E+00 0. -1.
         11    1    3    3    0    0 -0.84576046288E+01  0.78851055714E+00 -0.94650286009E+01  0.12717688140E+02  0.51100000000E-03 0. -1.
        -11    1    3    3    0    0  0.30897176857E+02 -0.66839240780E+00  0.27511115143E+02  0.41375641902E+02  0.51100000000E-03 0.  1.
        -12    1    3    3    0    0 -0.17797921541E+02 -0.45197329763E+01 -0.44559421004E+00  0.18368248462E+02  0.00000000000E+00 0.  1.
</event>
<event>
 7    1  0.1302069E-013  0.7246159E+02  0.7816164E-02  0.1226708E+00
        -11   -1    0    0    0    0  0.00000000000E+00  0.00000000000E+00  0.45593999997E+02  0.45594000000E+02  0.51100000000E-03 0.  1.
         11   -1    0    0    0    0 -0.00000000000E+00 -0.00000000000E+00 -0.45593999997E+02  0.45594000000E+02  0.51100000000E-03 0. -1.
    9900012    2    1    2    0    0  0.49719578559E+01  0.15007065016E+02  0.10037235407E+02  0.72461589241E+02  0.70000024681E+02 0.  0.
         12    1    1    2    0    0 -0.49719578559E+01 -0.15007065016E+02 -0.10037235407E+02  0.18726410759E+02  0.00000000000E+00 0. -1.
         11    1    3    3    0    0  0.88894729276E-01 -0.58982460803E+01 -0.56025499384E+01  0.81354640415E+01  0.51100000000E-03 0. -1.
        -11    1    3    3    0    0 -0.23190712484E+02  0.24854926895E+02  0.98324864332E+01  0.35387205685E+02  0.51100000000E-03 0.  1.
        -12    1    3    3    0    0  0.28073775611E+02 -0.39496157985E+01  0.58072989119E+01  0.28938919514E+02  0.00000000000E+00 0.  1.
</event>
<event>
 7    1  0.1302069E-013  0.7246159E+02  0.7816164E-02  0.1226708E+00
        -11   -1    0    0    0    0  0.00000000000E+00  0.00000000000E+00  0.45593999997E+02  0.45594000000E+02  0.51100000000E-03 0.  1.
         11   -1    0    0    0    0 -0.00000000000E+00 -0.00000000000E+00 -0.45593999997E+02  0.45594000000E+02  0.51100000000E-03 0. -1.
    9900012    2    1    2    0    0 -0.98042369865E+01 -0.98870023079E+01  0.12522083451E+02  0.72461589466E+02  0.70000024975E+02 0.  0.
         12    1    1    2    0    0  0.98042369865E+01  0.98870023079E+01 -0.12522083451E+02  0.18726410534E+02  0.00000000000E+00 0. -1.
         11    1    3    3    0    0  0.10432918038E+02 -0.32401279294E+02 -0.43257447693E+01  0.34313273624E+02  0.51100000000E-03 0. -1.
        -11    1    3    3    0    0 -0.33765278997E+00  0.91512834234E+01  0.92174991160E+01  0.12993163122E+02  0.51100000000E-03 0.  1.
         12    1    3    3    0    0 -0.19899502235E+02  0.13362993563E+02  0.76303291043E+01  0.25155152721E+02  0.00000000000E+00 0. -1.
</event>
<event>
 7    1  0.1302069E-013  0.7246153E+02  0.7816164E-02  0.1226708E+00
        -11   -1    0    0    0    0  0.00000000000E+00  0.00000000000E+00  0.45593999997E+02  0.45594000000E+02  0.51100000000E-03 0. -1.
         11   -1    0    0    0    0 -0.00000000000E+00 -0.00000000000E+00 -0.45593999997E+02  0.45594000000E+02  0.51100000000E-03 0.  1.
    9900012    2    1    2    0    0 -0.90008963460E+01  0.11853804085E+02 -0.11364494914E+02  0.72461533410E+02  0.69999951951E+02 0.  0.
         12    1    1    2    0    0  0.90008963460E+01 -0.11853804085E+02  0.11364494914E+02  0.18726466590E+02  0.00000000000E+00 0. -1.
         11    1    3    3    0    0 -0.55450032993E+01  0.90964982478E+01  0.83042585666E+01  0.13507555388E+02  0.51100000000E-03 0. -1.
        -11    1    3    3    0    0 -0.10640579804E+02 -0.97736206312E+01 -0.35015233565E+02  0.37878914725E+02  0.51100000000E-03 0.  1.
        -12    1    3    3    0    0  0.71846867575E+01  0.12530926469E+02  0.15346480085E+02  0.21075063297E+02  0.00000000000E+00 0.  1.
</event>
<event>
 7    1  0.1302069E-013  0.7246145E+02  0.7816164E-02  0.1226708E+00
        -11   -1    0    0    0    0  0.00000000000E+00  0.00000000000E+00  0.45593999997E+02  0.45594000000E+02  0.51100000000E-03 0. -1.
         11   -1    0    0    0    0 -0.00000000000E+00 -0.00000000000E+00 -0.45593999997E+02  0.45594000000E+02  0.51100000000E-03 0.  1.
    9900012    2    1    2    0    0 -0.18639348062E+02 -0.11068623071E+01  0.14259671095E+01  0.72461446058E+02  0.69999838158E+02 0.  0.
         12    1    1    2    0    0  0.18639348062E+02  0.11068623071E+01 -0.14259671095E+01  0.18726553942E+02  0.00000000000E+00 0. -1.
         11    1    3    3    0    0  0.12830790984E+02  0.73635404644E+01  0.74835968611E+01  0.16578755915E+02  0.51100000000E-03 0. -1.
        -11    1    3    3    0    0 -0.14825742786E+02 -0.24097809545E+02  0.75770889255E+01  0.29290260341E+02  0.51100000000E-03 0.  1.
         12    1    3    3    0    0 -0.16644396261E+02  0.15627406773E+02 -0.13634718677E+02  0.26592429801E+02  0.00000000000E+00 0. -1.
</event>
<event>
 7    1  0.1302069E-013  0.7246156E+02  0.7816164E-02  0.1226708E+00
        -11   -1    0    0    0    0  0.00000000000E+00  0.00000000000E+00  0.45593999997E+02  0.45594000000E+02  0.51100000000E-03 0.  1.
         11   -1    0    0    0    0 -0.00000000000E+00 -0.00000000000E+00 -0.45593999997E+02  0.45594000000E+02  0.51100000000E-03 0. -1.
    9900012    2    1    2    0    0 -0.69724157161E+01  0.12990727687E+02  0.11545820130E+02  0.72461560156E+02  0.69999986793E+02 0.  0.
         12    1    1    2    0    0  0.69724157161E+01 -0.12990727687E+02 -0.11545820130E+02  0.18726439844E+02  0.00000000000E+00 0. -1.
         11    1    3    3    0    0 -0.11999039405E+01  0.19067409980E+02 -0.13933012150E+02  0.23646029702E+02  0.51100000000E-03 0. -1.
        -11    1    3    3    0    0 -0.99881830533E+01  0.14663380910E+02  0.20428011089E+02  0.27057017162E+02  0.51100000000E-03 0.  1.
        -12    1    3    3    0    0  0.42156712777E+01 -0.20740063203E+02  0.50508211905E+01  0.21758513292E+02  0.00000000000E+00 0.  1.
</event>
<event>
 7    1  0.1302069E-013  0.7246151E+02  0.7816164E-02  0.1226708E+00
        -11   -1    0    0    0    0  0.00000000000E+00  0.00000000000E+00  0.45593999997E+02  0.45594000000E+02  0.51100000000E-03 0.  1.
         11   -1    0    0    0    0 -0.00000000000E+00 -0.00000000000E+00 -0.45593999997E+02  0.45594000000E+02  0.51100000000E-03 0. -1.
    9900012    2    1    2    0    0  0.16553806870E+02 -0.74814150780E+01 -0.45476820135E+01  0.72461507932E+02  0.69999918762E+02 0.  0.
         12    1    1    2    0    0 -0.16553806870E+02  0.74814150780E+01  0.45476820135E+01  0.18726492068E+02  0.00000000000E+00 0. -1.
         11    1    3    3    0    0  0.20851352903E+01  0.63536485699E+01 -0.29598813699E+01  0.73128337403E+01  0.51100000000E-03 0. -1.
        -11    1    3    3    0    0 -0.15530082884E+02 -0.36853886207E+01  0.20906991022E+02  0.26303380724E+02  0.51100000000E-03 0.  1.
        -12    1    3    3    0    0  0.29998754464E+02 -0.10149675027E+02 -0.22494791665E+02  0.38845293468E+02  0.00000000000E+00 0.  1.
</event>
<event>
 7    1  0.1302069E-013  0.7246161E+02  0.7816164E-02  0.1226708E+00
        -11   -1    0    0    0    0  0.00000000000E+00  0.00000000000E+00  0.45593999997E+02  0.45594000000E+02  0.51100000000E-03 0. -1.
         11   -1    0    0    0    0 -0.00000000000E+00 -0.00000000000E+00 -0.45593999997E+02  0.45594000000E+02  0.51100000000E-03 0.  1.
    9900012    2    1    2    0    0  0.14049272242E+02 -0.15004913087E+01 -0.12290005440E+02  0.72461607971E+02  0.70000049081E+02 0.  0.
         12    1    1    2    0    0 -0.14049272242E+02  0.15004913087E+01  0.12290005440E+02  0.18726392029E+02  0.00000000000E+00 0. -1.
         11    1    3    3    0    0 -0.15499675301E+02  0.45651262676E+01  0.11896161890E+02  0.20064869306E+02  0.51100000000E-03 0. -1.
        -11    1    3    3    0    0  0.28070172266E+02  0.66487579928E+01 -0.49159774649E+01  0.29262730368E+02  0.51100000000E-03 0.  1.
         12    1    3    3    0    0  0.14787752768E+01 -0.12714375569E+02 -0.19270189866E+02  0.23134008297E+02  0.00000000000E+00 0. -1.
</event>
<event>
 7    1  0.1302069E-013  0.7246146E+02  0.7816164E-02  0.1226708E+00
        -11   -1    0    0    0    0  0.00000000000E+00  0.00000000000E+00  0.45593999997E+02  0.45594000000E+02  0.51100000000E-03 0. -1.
         11   -1    0    0    0    0 -0.00000000000E+00 -0.00000000000E+00 -0.45593999997E+02  0.45594000000E+02  0.51100000000E-03 0.  1.
    9900012    2    1    2    0    0 -0.17928106933E+02  0.67491788040E+00 -0.53675639840E+01  0.72461460664E+02  0.69999857187E+02 0.  0.
         12    1    1    2    0    0  0.17928106933E+02 -0.67491788040E+00  0.53675639840E+01  0.18726539336E+02  0.00000000000E+00 0. -1.
         11    1    3    3    0    0 -0.29486159783E+02  0.20592988866E+02  0.11073668415E+01  0.35982371667E+02  0.51100000000E-03 0. -1.
        -11    1    3    3    0    0  0.10685485002E+02 -0.65541500542E+01 -0.15793577135E+02  0.20163669102E+02  0.51100000000E-03 0.  1.
         12    1    3    3    0    0  0.87256784728E+00 -0.13363920932E+02  0.93186463099E+01  0.16315419895E+02  0.00000000000E+00 0. -1.
</event>
<event>
 7    1  0.1302069E-013  0.7246155E+02  0.7816164E-02  0.1226708E+00
        -11   -1    0    0    0    0  0.00000000000E+00  0.00000000000E+00  0.45593999997E+02  0.45594000000E+02  0.51100000000E-03 0.  1.
         11   -1    0    0    0    0 -0.00000000000E+00 -0.00000000000E+00 -0.45593999997E+02  0.45594000000E+02  0.51100000000E-03 0. -1.
    9900012    2    1    2    0    0  0.11016024787E+02  0.14801321311E+02  0.32012752374E+01  0.72461546043E+02  0.69999968409E+02 0.  0.
         12    1    1    2    0    0 -0.11016024787E+02 -0.14801321311E+02 -0.32012752374E+01  0.18726453957E+02  0.00000000000E+00 0. -1.
         11    1    3    3    0    0 -0.15707678228E+02 -0.58071440090E+01 -0.20849113447E+02  0.26742094320E+02  0.51100000000E-03 0. -1.
        -11    1    3    3    0    0  0.13818927046E+02  0.21188284677E+01  0.17177194137E+02  0.22147419205E+02  0.51100000000E-03 0.  1.
         12    1    3    3    0    0  0.12904775969E+02  0.18489636852E+02  0.68731945470E+01  0.23572032518E+02  0.00000000000E+00 0. -1.
</event>
<event>
 7    1  0.1302069E-013  0.7246157E+02  0.7816164E-02  0.1226708E+00
        -11   -1    0    0    0    0  0.00000000000E+00  0.00000000000E+00  0.45593999997E+02  0.45594000000E+02  0.51100000000E-03 0.  1.
         11   -1    0    0    0    0 -0.00000000000E+00 -0.00000000000E+00 -0.45593999997E+02  0.45594000000E+02  0.51100000000E-03 0. -1.
    9900012    2    1    2    0    0 -0.83163854414E+01 -0.96330616973E+01  0.13737583702E+02  0.72461565464E+02  0.69999993707E+02 0.  0.
         12    1    1    2    0    0  0.83163854414E+01  0.96330616973E+01 -0.13737583702E+02  0.18726434536E+02  0.00000000000E+00 0. -1.
         11    1    3    3    0    0  0.17381238310E+02 -0.14899485304E+02  0.27046344640E+02  0.35434543402E+02  0.51100000000E-03 0. -1.
        -11    1    3    3    0    0 -0.18734474582E+02  0.64495771252E+01  0.22492771550E+01  0.19940833256E+02  0.51100000000E-03 0.  1.
         12    1    3    3    0    0 -0.69631491698E+01 -0.11831535185E+01 -0.15558038093E+02  0.17086188806E+02  0.00000000000E+00 0. -1.
</event>
<event>
 7    1  0.1302069E-013  0.7246156E+02  0.7816164E-02  0.1226708E+00
        -11   -1    0    0    0    0  0.00000000000E+00  0.00000000000E+00  0.45593999997E+02  0.45594000000E+02  0.51100000000E-03 0.  1.
         11   -1    0    0    0    0 -0.00000000000E+00 -0.00000000000E+00 -0.45593999997E+02  0.45594000000E+02  0.51100000000E-03 0. -1.
    9900012    2    1    2    0    0  0.62912103836E+01 -0.13650825599E+02  0.11169393684E+02  0.72461555519E+02  0.69999980752E+02 0.  0.
         12    1    1    2    0    0 -0.62912103836E+01  0.13650825599E+02 -0.11169393684E+02  0.18726444481E+02  0.00000000000E+00 0. -1.
         11    1    3    3    0    0  0.14130762903E+02 -0.13919159437E+01  0.76349329635E+01  0.16121665293E+02  0.51100000000E-03 0. -1.
        -11    1    3    3    0    0 -0.18400433173E+02  0.54755241801E+01 -0.18137960768E+02  0.26411037978E+02  0.51100000000E-03 0.  1.
        -12    1    3    3    0    0  0.10560880654E+02 -0.17734433835E+02  0.21672421489E+02  0.29928852247E+02  0.00000000000E+00 0.  1.
</event>
<event>
 7    1  0.1302069E-013  0.7246160E+02  0.7816164E-02  0.1226708E+00
        -11   -1    0    0    0    0  0.00000000000E+00  0.00000000000E+00  0.45593999997E+02  0.45594000000E+02  0.51100000000E-03 0. -1.
         11   -1    0    0    0    0 -0.00000000000E+00 -0.00000000000E+00 -0.45593999997E+02  0.45594000000E+02  0.51100000000E-03 0.  1.
    9900012    2    1    2    0    0 -0.81307540101E+01  0.85570141883E+00 -0.16847447571E+02  0.72461604849E+02  0.70000045014E+02 0.  0.
         12    1    1    2    0    0  0.81307540101E+01 -0.85570141883E+00  0.16847447571E+02  0.18726395151E+02  0.00000000000E+00 0. -1.
         11    1    3    3    0    0 -0.42963158253E+01  0.64168211497E+00  0.22821998654E+02  0.23231739247E+02  0.51100000000E-03 0. -1.
        -11    1    3    3    0    0  0.11441119214E+02 -0.10579627809E+01 -0.78640123395E+01  0.13923404197E+02  0.51100000000E-03 0.  1.
         12    1    3    3    0    0 -0.15275557399E+02  0.12719820848E+01 -0.31805433886E+02  0.35306461405E+02  0.00000000000E+00 0. -1.
</event>
<event>
 7    1  0.1302069E-013  0.7246163E+02  0.7816164E-02  0.1226708E+00
        -11   -1    0    0    0    0  0.00000000000E+00  0.00000000000E+00  0.45593999997E+02  0.45594000000E+02  0.51100000000E-03 0.  1.
         11   -1    0    0    0    0 -0.00000000000E+00 -0.00000000000E+00 -0.45593999997E+02  0.45594000000E+02  0.51100000000E-03 0. -1.
    9900012    2    1    2    0    0 -0.14268434911E+02  0.12054393910E+02  0.13342978865E+01  0.72461628269E+02  0.70000075523E+02 0.  0.
         12    1    1    2    0    0  0.14268434911E+02 -0.12054393910E+02 -0.13342978865E+01  0.18726371731E+02  0.00000000000E+00 0. -1.
         11    1    3    3    0    0  0.22469811580E+02 -0.10534734637E+02  0.11707347723E+01  0.24844389436E+02  0.51100000000E-03 0. -1.
        -11    1    3    3    0    0 -0.36036208206E+02  0.17998960738E+02 -0.50947795879E+01  0.40602064834E+02  0.51100000000E-03 0.  1.
        -12    1    3    3    0    0 -0.70203828486E+00  0.45901678089E+01  0.52583427020E+01  0.70151739992E+01  0.00000000000E+00 0.  1.
</event>
<event>
 7    1  0.1302069E-013  0.7246146E+02  0.7816164E-02  0.1226708E+00
        -11   -1    0    0    0    0  0.00000000000E+00  0.00000000000E+00  0.45593999997E+02  0.45594000000E+02  0.51100000000E-03 0. -1.
         11   -1    0    0    0    0 -0.00000000000E+00 -0.00000000000E+00 -0.45593999997E+02  0.45594000000E+02  0.51100000000E-03 0.  1.
    9900012    2    1    2    0    0 -0.10645767650E+02 -0.14148137311E+02  0.60976240168E+01  0.72461463297E+02  0.69999860616E+02 0.  0.
         12    1    1    2    0    0  0.10645767650E+02  0.14148137311E+02 -0.60976240168E+01  0.18726536703E+02  0.00000000000E+00 0. -1.
         11    1    3    3    0    0 -0.15018568804E+02  0.22687639804E+02  0.16336521337E+02  0.31735915592E+02  0.51100000000E-03 0. -1.
        -11    1    3    3    0    0  0.69320175026E+01 -0.15811675659E+02 -0.14781179264E+00  0.17265103602E+02  0.51100000000E-03 0.  1.
         12    1    3    3    0    0 -0.25592163487E+01 -0.21024101456E+02 -0.10091085528E+02  0.23460444102E+02  0.00000000000E+00 0. -1.
</event>
<event>
 7    1  0.1302069E-013  0.7246151E+02  0.7816164E-02  0.1226708E+00
        -11   -1    0    0    0    0  0.00000000000E+00  0.00000000000E+00  0.45593999997E+02  0.45594000000E+02  0.51100000000E-03 0. -1.
         11   -1    0    0    0    0 -0.00000000000E+00 -0.00000000000E+00 -0.45593999997E+02  0.45594000000E+02  0.51100000000E-03 0.  1.
    9900012    2    1    2    0    0  0.12375091839E+02  0.13140538995E+02  0.49864651747E+01  0.72461508122E+02  0.69999919010E+02 0.  0.
         12    1    1    2    0    0 -0.12375091839E+02 -0.13140538995E+02 -0.49864651747E+01  0.18726491878E+02  0.00000000000E+00 0. -1.
         11    1    3    3    0    0 -0.25915969993E+02 -0.97397924246E+00  0.72857506278E+01  0.26938231173E+02  0.51100000000E-03 0. -1.
        -11    1    3    3    0    0  0.17013240617E+02  0.16676978968E+02 -0.33911835107E+01  0.24063917172E+02  0.51100000000E-03 0.  1.
        -12    1    3    3    0    0  0.21277821216E+02 -0.25624607308E+01  0.10918980576E+01  0.21459359778E+02  0.00000000000E+00 0.  1.
</event>
<event>
 7    1  0.1302069E-013  0.7246160E+02  0.7816164E-02  0.1226708E+00
        -11   -1    0    0    0    0  0.00000000000E+00  0.00000000000E+00  0.45593999997E+02  0.45594000000E+02  0.51100000000E-03 0.  1.
         11   -1    0    0    0    0 -0.00000000000E+00 -0.00000000000E+00 -0.45593999997E+02  0.45594000000E+02  0.51100000000E-03 0. -1.
    9900012    2    1    2    0    0 -0.12080994388E+02  0.10613505105E+02  0.95958987649E+01  0.72461596471E+02  0.70000034100E+02 0.  0.
         12    1    1    2    0    0  0.12080994388E+02 -0.10613505105E+02 -0.95958987649E+01  0.18726403529E+02  0.00000000000E+00 0. -1.
         11    1    3    3    0    0 -0.27478006836E+02  0.14961917254E+02 -0.88745002642E+01  0.32521632536E+02  0.51100000000E-03 0. -1.
        -11    1    3    3    0    0  0.78129616634E+01 -0.11465829741E+02 -0.46131183520E+01  0.14621507542E+02  0.51100000000E-03 0.  1.
         12    1    3    3    0    0  0.75840507840E+01  0.71174175922E+01  0.23083517381E+02  0.25318456394E+02  0.00000000000E+00 0. -1.
</event>
<event>
 7    1  0.1302069E-013  0.7246147E+02  0.7816164E-02  0.1226708E+00
        -11   -1    0    0    0    0  0.00000000000E+00  0.00000000000E+00  0.45593999997E+02  0.45594000000E+02  0.51100000000E-03 0.  1.
         11   -1    0    0    0    0 -0.00000000000E+00 -0.00000000000E+00 -0.45593999997E+02  0.45594000000E+02  0.51100000000E-03 0. -1.
    9900012    2    1    2    0    0  0.17949109194E+02 -0.22822893624E+01  0.48273803033E+01  0.72461468923E+02  0.69999867945E+02 0.  0.
         12    1    1    2    0    0 -0.17949109194E+02  0.22822893624E+01 -0.48273803033E+01  0.18726531077E+02  0.00000000000E+00 0. -1.
         11    1    3    3    0    0  0.16532705726E+02 -0.14890623574E+02  0.13882612980E+01  0.22293234371E+02  0.51100000000E-03 0. -1.
        -11    1    3    3    0    0 -0.77154938379E+01  0.28127215919E+02  0.10252848984E+02  0.30915854073E+02  0.51100000000E-03 0.  1.
         12    1    3    3    0    0  0.91318973062E+01 -0.15518881708E+02 -0.68137299792E+01  0.19252380479E+02  0.00000000000E+00 0. -1.
</event>
<event>
 7    1  0.1302069E-013  0.7246156E+02  0.7816164E-02  0.1226708E+00
        -11   -1    0    0    0    0  0.00000000000E+00  0.00000000000E+00  0.45593999997E+02  0.45594000000E+02  0.51100000000E-03 0.  1.
         11   -1    0    0    0    0 -0.00000000000E+00 -0.00000000000E+00 -0.45593999997E+02  0.45594000000E+02  0.51100000000E-03 0. -1.
    9900012    2    1    2    0    0  0.19230305069E+01 -0.18291601008E+02 -0.35212065834E+01  0.72461558545E+02  0.69999984694E+02 0.  0.
         12    1    1    2    0    0 -0.19230305069E+01  0.18291601008E+02  0.35212065834E+01  0.18726441455E+02  0.00000000000E+00 0. -1.
         11    1    3    3    0    0  0.10705512830E+02 -0.74900585399E+01 -0.20754874816E+02  0.24524963013E+02  0.51100000000E-03 0. -1.
        -11    1    3    3    0    0  0.64786010305E+01 -0.20642534045E+02  0.20125771481E+02  0.29548826729E+02  0.51100000000E-03 0.  1.
         12    1    3    3    0    0 -0.15261083354E+02  0.98409915770E+01 -0.28921032484E+01  0.18387768803E+02  0.00000000000E+00 0. -1.
</event>
<event>
 7    1  0.1302069E-013  0.7246160E+02  0.7816164E-02  0.1226708E+00
        -11   -1    0    0    0    0  0.00000000000E+00  0.00000000000E+00  0.45593999997E+02  0.45594000000E+02  0.51100000000E-03 0.  1.
         11   -1    0    0    0    0 -0.00000000000E+00 -0.00000000000E+00 -0.45593999997E+02  0.45594000000E+02  0.51100000000E-03 0. -1.
    9900012    2    1    2    0    0 -0.64754127472E+01  0.48835369374E+01  0.16878928188E+02  0.72461598316E+02  0.70000036503E+02 0.  0.
         12    1    1    2    0    0  0.64754127472E+01 -0.48835369374E+01 -0.16878928188E+02  0.18726401684E+02  0.00000000000E+00 0. -1.
         11    1    3    3    0    0 -0.22350672660E+02 -0.62538756134E+00  0.14783415035E+02  0.26804720449E+02  0.51100000000E-03 0. -1.
        -11    1    3    3    0    0  0.23847521414E+02  0.18596552876E+02  0.45487227923E+00  0.30244717977E+02  0.51100000000E-03 0.  1.
         12    1    3    3    0    0 -0.79722615010E+01 -0.13087628378E+02  0.16406408737E+01  0.15412159890E+02  0.00000000000E+00 0. -1.
</event>
<event>
 7    1  0.1302069E-013  0.7246156E+02  0.7816164E-02  0.1226708E+00
        -11   -1    0    0    0    0  0.00000000000E+00  0.00000000000E+00  0.45593999997E+02  0.45594000000E+02  0.51100000000E-03 0. -1.
         11   -1    0    0    0    0 -0.00000000000E+00 -0.00000000000E+00 -0.45593999997E+02  0.45594000000E+02  0.51100000000E-03 0.  1.
    9900012    2    1    2    0    0 -0.94756557393E+01  0.41037304820E+01 -0.15622125701E+02  0.72461562352E+02  0.69999989654E+02 0.  0.
         12    1    1    2    0    0  0.94756557393E+01 -0.41037304820E+01  0.15622125701E+02  0.18726437648E+02  0.00000000000E+00 0. -1.
         11    1    3    3    0    0  0.26837347741E+02  0.15032689793E+02 -0.83147064126E+01  0.31864703657E+02  0.51100000000E-03 0. -1.
        -11    1    3    3    0    0 -0.22254688602E+02 -0.98319028083E+01 -0.98867176227E+01  0.26261848054E+02  0.51100000000E-03 0.  1.
         12    1    3    3    0    0 -0.14058314879E+02 -0.10970565025E+01  0.25792983346E+01  0.14335010642E+02  0.00000000000E+00 0. -1.
</event>
<event>
 7    1  0.1302069E-013  0.7246157E+02  0.7816164E-02  0.1226708E+00
        -11   -1    0    0    0    0  0.00000000000E+00  0.00000000000E+00  0.45593999997E+02  0.45594000000E+02  0.51100000000E-03 0.  1.
         11   -1    0    0    0    0 -0.00000000000E+00 -0.00000000000E+00 -0.45593999997E+02  0.45594000000E+02  0.51100000000E-03 0. -1.
    9900012    2    1    2    0    0  0.95420285722E+00 -0.15212884170E+02 -0.10878270003E+02  0.72461571987E+02  0.70000002205E+02 0.  0.
         12    1    1    2    0    0 -0.95420285722E+00  0.15212884170E+02  0.10878270003E+02  0.18726428013E+02  0.00000000000E+00 0. -1.
         11    1    3    3    0    0 -0.14412062042E+02 -0.62243818605E+01  0.10684835158E+02  0.18989896378E+02  0.51100000000E-03 0.  1.
        -11    1    3    3    0    0  0.71951903456E+01 -0.91826884195E+01 -0.35470888167E+02  0.37340011226E+02  0.51100000000E-03 0. -1.
         12    1    3    3    0    0  0.81710745534E+01  0.19418610999E+00  0.13907783007E+02  0.16131664383E+02  0.00000000000E+00 0. -1.
</event>
<event>
 7    1  0.1302069E-013  0.7246155E+02  0.7816164E-02  0.1226708E+00
        -11   -1    0    0    0    0  0.00000000000E+00  0.00000000000E+00  0.45593999997E+02  0.45594000000E+02  0.51100000000E-03 0. -1.
         11   -1    0    0    0    0 -0.00000000000E+00 -0.00000000000E+00 -0.45593999997E+02  0.45594000000E+02  0.51100000000E-03 0.  1.
    9900012    2    1    2    0    0  0.72248638033E+01 -0.27289619515E+01 -0.17059718862E+02  0.72461550844E+02  0.69999974663E+02 0.  0.
         12    1    1    2    0    0 -0.72248638033E+01  0.27289619515E+01  0.17059718862E+02  0.18726449156E+02  0.00000000000E+00 0. -1.
         11    1    3    3    0    0 -0.79397861657E+01  0.82787433283E+01  0.31367979159E+00  0.11475024650E+02  0.51100000000E-03 0. -1.
        -11    1    3    3    0    0 -0.13903576996E+02 -0.19566822441E+02 -0.19040747052E+02  0.30638538515E+02  0.51100000000E-03 0.  1.
        -12    1    3    3    0    0  0.29068226966E+02  0.85591171617E+01  0.16673483981E+01  0.30347987679E+02  0.00000000000E+00 0.  1.
</event>
<event>
 7    1  0.1302069E-013  0.7246219E+02  0.7816164E-02  0.1226706E+00
        -11   -1    0    0    0    0  0.00000000000E+00  0.00000000000E+00  0.45593999997E+02  0.45594000000E+02  0.51100000000E-03 0. -1.
         11   -1    0    0    0    0 -0.00000000000E+00 -0.00000000000E+00 -0.45593999997E+02  0.45594000000E+02  0.51100000000E-03 0.  1.
    9900012    2    1    2    0    0 -0.92388916922E+01  0.87807042470E+01 -0.13718534799E+02  0.72462186699E+02  0.70000802976E+02 0.  0.
         12    1    1    2    0    0  0.92388916922E+01 -0.87807042470E+01  0.13718534799E+02  0.18725813301E+02  0.00000000000E+00 0. -1.
         11    1    3    3    0    0 -0.27545756444E+02 -0.73040836668E+01 -0.22667113981E+02  0.36413134894E+02  0.51100000000E-03 0. -1.
        -11    1    3    3    0    0  0.18279021121E+02  0.10108224701E+01  0.10140818700E+02  0.20927985555E+02  0.51100000000E-03 0.  1.
        -12    1    3    3    0    0  0.27843630513E-01  0.15073965444E+02 -0.11922395180E+01  0.15121066250E+02  0.00000000000E+00 0.  1.
</event>
<event>
 7    1  0.1302069E-013  0.7246127E+02  0.7816164E-02  0.1226709E+00
        -11   -1    0    0    0    0  0.00000000000E+00  0.00000000000E+00  0.45593999997E+02  0.45594000000E+02  0.51100000000E-03 0.  1.
         11   -1    0    0    0    0 -0.00000000000E+00 -0.00000000000E+00 -0.45593999997E+02  0.45594000000E+02  0.51100000000E-03 0. -1.
    9900012    2    1    2    0    0 -0.43715986784E+01 -0.10854879522E+01  0.18176939361E+02  0.72461273548E+02  0.69999613431E+02 0.  0.
         12    1    1    2    0    0  0.43715986784E+01  0.10854879522E+01 -0.18176939361E+02  0.18726726452E+02  0.00000000000E+00 0. -1.
         11    1    3    3    0    0 -0.29879516435E+02 -0.14063546386E+01  0.53719608939E+01  0.30391138509E+02  0.51100000000E-03 0. -1.
        -11    1    3    3    0    0  0.28330903075E+01  0.11431267511E+02  0.11989864876E+02  0.16806461187E+02  0.51100000000E-03 0.  1.
         12    1    3    3    0    0  0.22674827449E+02 -0.11110400825E+02  0.81511359041E+00  0.25263673852E+02  0.00000000000E+00 0. -1.
</event>
<event>
 8    1  0.1302069E-013  0.7246159E+02  0.7816164E-02  0.1226708E+00
        -11   -1    0    0    0    0  0.00000000000E+00  0.00000000000E+00  0.45593999997E+02  0.45594000000E+02  0.51100000000E-03 0. -1.
         11   -1    0    0    0    0 -0.00000000000E+00 -0.00000000000E+00 -0.45593999997E+02  0.45594000000E+02  0.51100000000E-03 0.  1.
    9900012    2    1    2    0    0  0.90475583890E+01  0.16218896321E+02  0.24015647649E+01  0.72461590200E+02  0.70000025931E+02 0.  0.
        -24    2    3    3    0    0  0.22883607529E+01  0.20568604569E+02  0.16738540371E+02  0.56025179877E+02  0.49298457965E+02 0.  0.
         12    1    1    2    0    0 -0.90475583890E+01 -0.16218896321E+02 -0.24015647649E+01  0.18726409800E+02  0.00000000000E+00 0. -1.
         11    1    4    4    0    0 -0.87755743683E+01  0.34231340388E+02  0.14891294568E+02  0.38347699076E+02  0.51100000000E-03 0. -1.
        -11    1    3    3    0    0  0.67591976360E+01 -0.43497082482E+01 -0.14336975606E+02  0.16436410323E+02  0.51100000000E-03 0.  1.
        -12    1    4    4    0    0  0.11063935121E+02 -0.13662735819E+02  0.18472458029E+01  0.17677480802E+02  0.00000000000E+00 0.  1.
</event>
<event>
 7    1  0.1302069E-013  0.7246148E+02  0.7816164E-02  0.1226708E+00
        -11   -1    0    0    0    0  0.00000000000E+00  0.00000000000E+00  0.45593999997E+02  0.45594000000E+02  0.51100000000E-03 0.  1.
         11   -1    0    0    0    0 -0.00000000000E+00 -0.00000000000E+00 -0.45593999997E+02  0.45594000000E+02  0.51100000000E-03 0. -1.
    9900012    2    1    2    0    0 -0.12968481419E+02 -0.11228981876E+02  0.75107371079E+01  0.72461475598E+02  0.69999876641E+02 0.  0.
         12    1    1    2    0    0  0.12968481419E+02  0.11228981876E+02 -0.75107371079E+01  0.18726524402E+02  0.00000000000E+00 0. -1.
         11    1    3    3    0    0  0.26977348895E+02 -0.13963451996E+02  0.12811808557E+01  0.30403893989E+02  0.51100000000E-03 0. -1.
        -11    1    3    3    0    0 -0.21850781575E+02  0.58255996894E+01  0.70341904978E+01  0.23682780736E+02  0.51100000000E-03 0.  1.
         12    1    3    3    0    0 -0.18095048738E+02 -0.30911295688E+01 -0.80463424556E+00  0.18374800873E+02  0.00000000000E+00 0. -1.
</event>
<event>
 7    1  0.1302069E-013  0.7246158E+02  0.7816164E-02  0.1226708E+00
        -11   -1    0    0    0    0  0.00000000000E+00  0.00000000000E+00  0.45593999997E+02  0.45594000000E+02  0.51100000000E-03 0. -1.
         11   -1    0    0    0    0 -0.00000000000E+00 -0.00000000000E+00 -0.45593999997E+02  0.45594000000E+02  0.51100000000E-03 0.  1.
    9900012    2    1    2    0    0  0.18857646185E+01 -0.16869239636E+02  0.79089390972E+01  0.72461583585E+02  0.70000017313E+02 0.  0.
         12    1    1    2    0    0 -0.18857646185E+01  0.16869239636E+02 -0.79089390972E+01  0.18726416415E+02  0.00000000000E+00 0. -1.
         11    1    3    3    0    0  0.12108739000E+02 -0.11855956572E+02 -0.23520762478E+02  0.28989852263E+02  0.51100000000E-03 0.  1.
        -11    1    3    3    0    0 -0.12048699208E+02 -0.10822145856E+02  0.33360546298E+02  0.37083905446E+02  0.51100000000E-03 0. -1.
         12    1    3    3    0    0  0.18257248260E+01  0.58088627923E+01 -0.19308447233E+01  0.63878258763E+01  0.00000000000E+00 0. -1.
</event>
<event>
 7    1  0.1302069E-013  0.7246155E+02  0.7816164E-02  0.1226708E+00
        -11   -1    0    0    0    0  0.00000000000E+00  0.00000000000E+00  0.45593999997E+02  0.45594000000E+02  0.51100000000E-03 0.  1.
         11   -1    0    0    0    0 -0.00000000000E+00 -0.00000000000E+00 -0.45593999997E+02  0.45594000000E+02  0.51100000000E-03 0. -1.
    9900012    2    1    2    0    0 -0.54129956223E+01  0.28689866107E+00  0.17924757757E+02  0.72461554179E+02  0.69999979006E+02 0.  0.
         12    1    1    2    0    0  0.54129956223E+01 -0.28689866107E+00 -0.17924757757E+02  0.18726445821E+02  0.00000000000E+00 0. -1.
         11    1    3    3    0    0 -0.10246476191E+02  0.27505083559E+02  0.16484176898E+02  0.33663748814E+02  0.51100000000E-03 0. -1.
        -11    1    3    3    0    0  0.16088039818E+02 -0.16274860702E+02  0.27322493428E+01  0.23046936950E+02  0.51100000000E-03 0.  1.
         12    1    3    3    0    0 -0.11254559249E+02 -0.10943324196E+02 -0.12916684839E+01  0.15750868415E+02  0.00000000000E+00 0. -1.
</event>
<event>
 8    1  0.1302069E-013  0.7246157E+02  0.7816164E-02  0.1226708E+00
        -11   -1    0    0    0    0  0.00000000000E+00  0.00000000000E+00  0.45593999997E+02  0.45594000000E+02  0.51100000000E-03 0.  1.
         11   -1    0    0    0    0 -0.00000000000E+00 -0.00000000000E+00 -0.45593999997E+02  0.45594000000E+02  0.51100000000E-03 0. -1.
    9900012    2    1    2    0    0 -0.13645934766E+02  0.98630474751E+01  0.81968218365E+01  0.72461571367E+02  0.70000001397E+02 0.  0.
        -24    2    3    3    0    0 -0.18147889886E+02 -0.49212277670E+01 -0.21629815970E+01  0.53855982911E+02  0.50420472190E+02 0.  0.
         12    1    1    2    0    0  0.13645934766E+02 -0.98630474751E+01 -0.81968218365E+01  0.18726428633E+02  0.00000000000E+00 0. -1.
         11    1    4    4    0    0 -0.18233076149E+02 -0.15102863093E+02 -0.21513461915E+02  0.31990163852E+02  0.51100000000E-03 0. -1.
        -11    1    3    3    0    0  0.45019551206E+01  0.14784275242E+02  0.10359803433E+02  0.18605588456E+02  0.51100000000E-03 0.  1.
        -12    1    4    4    0    0  0.85186262236E-01  0.10181635326E+02  0.19350480318E+02  0.21865819059E+02  0.00000000000E+00 0.  1.
</event>
<event>
 7    1  0.1302069E-013  0.7246167E+02  0.7816164E-02  0.1226708E+00
        -11   -1    0    0    0    0  0.00000000000E+00  0.00000000000E+00  0.45593999997E+02  0.45594000000E+02  0.51100000000E-03 0. -1.
         11   -1    0    0    0    0 -0.00000000000E+00 -0.00000000000E+00 -0.45593999997E+02  0.45594000000E+02  0.51100000000E-03 0.  1.
    9900012    2    1    2    0    0 -0.60574061163E+01 -0.17126796103E+02  0.45449059572E+01  0.72461668705E+02  0.70000128198E+02 0.  0.
         12    1    1    2    0    0  0.60574061163E+01  0.17126796103E+02 -0.45449059572E+01  0.18726331295E+02  0.00000000000E+00 0. -1.
         11    1    3    3    0    0 -0.46127210450E+01  0.17863834426E+02  0.24079711454E+02  0.30335231659E+02  0.51100000000E-03 0. -1.
        -11    1    3    3    0    0 -0.53476544851E+01 -0.31789173658E+02 -0.17538077048E+02  0.36697862570E+02  0.51100000000E-03 0.  1.
         12    1    3    3    0    0  0.39029694138E+01 -0.32014568711E+01 -0.19967284488E+01  0.54285744760E+01  0.00000000000E+00 0. -1.
</event>
<event>
 7    1  0.1302069E-013  0.7246169E+02  0.7816164E-02  0.1226708E+00
        -11   -1    0    0    0    0  0.00000000000E+00  0.00000000000E+00  0.45593999997E+02  0.45594000000E+02  0.51100000000E-03 0.  1.
         11   -1    0    0    0    0 -0.00000000000E+00 -0.00000000000E+00 -0.45593999997E+02  0.45594000000E+02  0.51100000000E-03 0. -1.
    9900012    2    1    2    0    0 -0.97515634888E+01 -0.13930612173E+02  0.78434481120E+01  0.72461691654E+02  0.70000158093E+02 0.  0.
         12    1    1    2    0    0  0.97515634888E+01  0.13930612173E+02 -0.78434481120E+01  0.18726308346E+02  0.00000000000E+00 0. -1.
         11    1    3    3    0    0  0.19946534786E+02 -0.90820898882E+01 -0.61554794192E+01  0.22764853038E+02  0.51100000000E-03 0. -1.
        -11    1    3    3    0    0  0.26085141738E+01  0.81699410688E+00  0.16572489518E+02  0.16796405409E+02  0.51100000000E-03 0.  1.
         12    1    3    3    0    0 -0.32306612449E+02 -0.56655163914E+01 -0.25735619872E+01  0.32900433207E+02  0.00000000000E+00 0. -1.
</event>
<event>
 7    1  0.1302069E-013  0.7246160E+02  0.7816164E-02  0.1226708E+00
        -11   -1    0    0    0    0  0.00000000000E+00  0.00000000000E+00  0.45593999997E+02  0.45594000000E+02  0.51100000000E-03 0. -1.
         11   -1    0    0    0    0 -0.00000000000E+00 -0.00000000000E+00 -0.45593999997E+02  0.45594000000E+02  0.51100000000E-03 0.  1.
    9900012    2    1    2    0    0 -0.11105628269E+02  0.14962304833E+02 -0.18634276742E+01  0.72461603980E+02  0.70000043882E+02 0.  0.
         12    1    1    2    0    0  0.11105628269E+02 -0.14962304833E+02  0.18634276742E+01  0.18726396020E+02  0.00000000000E+00 0. -1.
         11    1    3    3    0    0 -0.33014390910E+02  0.53065203897E+01  0.18711477182E+01  0.33490451772E+02  0.51100000000E-03 0. -1.
        -11    1    3    3    0    0  0.20639484004E+02 -0.46673999022E+01 -0.98556292051E+01  0.23343229191E+02  0.51100000000E-03 0.  1.
         12    1    3    3    0    0  0.12692786373E+01  0.14323184346E+02  0.61210538126E+01  0.15627923017E+02  0.00000000000E+00 0. -1.
</event>
<event>
 7    1  0.1302069E-013  0.7246158E+02  0.7816164E-02  0.1226708E+00
        -11   -1    0    0    0    0  0.00000000000E+00  0.00000000000E+00  0.45593999997E+02  0.45594000000E+02  0.51100000000E-03 0. -1.
         11   -1    0    0    0    0 -0.00000000000E+00 -0.00000000000E+00 -0.45593999997E+02  0.45594000000E+02  0.51100000000E-03 0.  1.
    9900012    2    1    2    0    0 -0.10764760244E+02 -0.88703809218E+01 -0.12494600978E+02  0.72461580843E+02  0.70000013742E+02 0.  0.
         12    1    1    2    0    0  0.10764760244E+02  0.88703809218E+01  0.12494600978E+02  0.18726419157E+02  0.00000000000E+00 0. -1.
         11    1    3    3    0    0  0.74324375766E+01  0.42055274063E+01  0.22360190808E+02  0.23935449073E+02  0.51100000000E-03 0. -1.
        -11    1    3    3    0    0 -0.10129572407E+02 -0.18360508758E+02 -0.32367068022E+02  0.38566094067E+02  0.51100000000E-03 0.  1.
         12    1    3    3    0    0 -0.80676254145E+01  0.52846004295E+01 -0.24877237641E+01  0.99600377034E+01  0.00000000000E+00 0. -1.
</event>
<event>
 7    1  0.1302069E-013  0.7246156E+02  0.7816164E-02  0.1226708E+00
        -11   -1    0    0    0    0  0.00000000000E+00  0.00000000000E+00  0.45593999997E+02  0.45594000000E+02  0.51100000000E-03 0.  1.
         11   -1    0    0    0    0 -0.00000000000E+00 -0.00000000000E+00 -0.45593999997E+02  0.45594000000E+02  0.51100000000E-03 0. -1.
    9900012    2    1    2    0    0 -0.13052350251E+02 -0.11800328132E+02  0.64084402099E+01  0.72461556210E+02  0.69999981652E+02 0.  0.
         12    1    1    2    0    0  0.13052350251E+02  0.11800328132E+02 -0.64084402099E+01  0.18726443790E+02  0.00000000000E+00 0. -1.
         11    1    3    3    0    0 -0.16090406654E+01 -0.17401270799E+02 -0.27221160667E+02  0.32347872041E+02  0.51100000000E-03 0. -1.
        -11    1    3    3    0    0 -0.11722073587E-01  0.47560610797E+01  0.25793824453E+02  0.26228641493E+02  0.51100000000E-03 0.  1.
         12    1    3    3    0    0 -0.11431587512E+02  0.84488158762E+00  0.78357764233E+01  0.13885042675E+02  0.00000000000E+00 0. -1.
</event>
<event>
 7    1  0.1302069E-013  0.7246154E+02  0.7816164E-02  0.1226708E+00
        -11   -1    0    0    0    0  0.00000000000E+00  0.00000000000E+00  0.45593999997E+02  0.45594000000E+02  0.51100000000E-03 0. -1.
         11   -1    0    0    0    0 -0.00000000000E+00 -0.00000000000E+00 -0.45593999997E+02  0.45594000000E+02  0.51100000000E-03 0.  1.
    9900012    2    1    2    0    0  0.17588928808E+02  0.64154933220E+01  0.38883201853E+00  0.72461543808E+02  0.69999965497E+02 0.  0.
         12    1    1    2    0    0 -0.17588928808E+02 -0.64154933220E+01 -0.38883201853E+00  0.18726456192E+02  0.00000000000E+00 0. -1.
         11    1    3    3    0    0  0.24659619999E+01  0.10867053215E+02  0.23164115035E+02  0.25705058642E+02  0.51100000000E-03 0. -1.
        -11    1    3    3    0    0  0.10400596180E+02 -0.20647618554E+02 -0.17769313154E+02  0.29158961625E+02  0.51100000000E-03 0.  1.
        -12    1    3    3    0    0  0.47223706283E+01  0.16196058661E+02 -0.50059698627E+01  0.17597523541E+02  0.00000000000E+00 0.  1.
</event>
<event>
 7    1  0.1302069E-013  0.7246156E+02  0.7816164E-02  0.1226708E+00
        -11   -1    0    0    0    0  0.00000000000E+00  0.00000000000E+00  0.45593999997E+02  0.45594000000E+02  0.51100000000E-03 0. -1.
         11   -1    0    0    0    0 -0.00000000000E+00 -0.00000000000E+00 -0.45593999997E+02  0.45594000000E+02  0.51100000000E-03 0.  1.
    9900012    2    1    2    0    0  0.11409524322E+02 -0.12093733125E+02 -0.86164836790E+01  0.72461563683E+02  0.69999991388E+02 0.  0.
         12    1    1    2    0    0 -0.11409524322E+02  0.12093733125E+02  0.86164836790E+01  0.18726436317E+02  0.00000000000E+00 0. -1.
         11    1    3    3    0    0  0.10619344999E+02  0.19883402209E+02 -0.81341616295E+01  0.23964239134E+02  0.51100000000E-03 0. -1.
        -11    1    3    3    0    0  0.40594940250E+01 -0.37339278307E+02 -0.83040727242E+01  0.38466333595E+02  0.51100000000E-03 0.  1.
        -12    1    3    3    0    0 -0.32693147027E+01  0.53621429733E+01  0.78217506748E+01  0.10030990954E+02  0.00000000000E+00 0.  1.
</event>
<event>
 7    1  0.1302069E-013  0.7246177E+02  0.7816164E-02  0.1226707E+00
        -11   -1    0    0    0    0  0.00000000000E+00  0.00000000000E+00  0.45593999997E+02  0.45594000000E+02  0.51100000000E-03 0. -1.
         11   -1    0    0    0    0 -0.00000000000E+00 -0.00000000000E+00 -0.45593999997E+02  0.45594000000E+02  0.51100000000E-03 0.  1.
    9900012    2    1    2    0    0 -0.16845049339E+02  0.51944507782E+01 -0.63193016119E+01  0.72461772965E+02  0.70000264015E+02 0.  0.
         12    1    1    2    0    0  0.16845049339E+02 -0.51944507782E+01  0.63193016119E+01  0.18726227035E+02  0.00000000000E+00 0. -1.
         11    1    3    3    0    0 -0.31727536234E+02  0.15337060928E+02  0.69232162460E+01  0.35913687041E+02  0.51100000000E-03 0. -1.
        -11    1    3    3    0    0  0.17790210427E+02  0.50630493769E+01 -0.85044066968E+01  0.20358069396E+02  0.51100000000E-03 0.  1.
         12    1    3    3    0    0 -0.29077235316E+01 -0.15205659527E+02 -0.47381111611E+01  0.16190016527E+02  0.00000000000E+00 0. -1.
</event>
<event>
 7    1  0.1302069E-013  0.7246157E+02  0.7816164E-02  0.1226708E+00
        -11   -1    0    0    0    0  0.00000000000E+00  0.00000000000E+00  0.45593999997E+02  0.45594000000E+02  0.51100000000E-03 0.  1.
         11   -1    0    0    0    0 -0.00000000000E+00 -0.00000000000E+00 -0.45593999997E+02  0.45594000000E+02  0.51100000000E-03 0. -1.
    9900012    2    1    2    0    0  0.79585255090E+00 -0.85147093518E+01  0.16659701046E+02  0.72461566929E+02  0.69999995616E+02 0.  0.
         12    1    1    2    0    0 -0.79585255090E+00  0.85147093518E+01 -0.16659701046E+02  0.18726433071E+02  0.00000000000E+00 0. -1.
         11    1    3    3    0    0 -0.16616357510E+02 -0.13067755907E+02  0.15997001904E+01  0.21199731657E+02  0.51100000000E-03 0. -1.
        -11    1    3    3    0    0  0.31476211002E-01  0.20973258755E+02 -0.31474570572E+01  0.21208136640E+02  0.51100000000E-03 0.  1.
        -12    1    3    3    0    0  0.17380733850E+02 -0.16420212199E+02  0.18207457913E+02  0.30053698632E+02  0.00000000000E+00 0.  1.
</event>
<event>
 7    1  0.1302069E-013  0.7246154E+02  0.7816164E-02  0.1226708E+00
        -11   -1    0    0    0    0  0.00000000000E+00  0.00000000000E+00  0.45593999997E+02  0.45594000000E+02  0.51100000000E-03 0.  1.
         11   -1    0    0    0    0 -0.00000000000E+00 -0.00000000000E+00 -0.45593999997E+02  0.45594000000E+02  0.51100000000E-03 0. -1.
    9900012    2    1    2    0    0  0.29477637648E+01  0.17056293061E+02  0.71465853197E+01  0.72461544758E+02  0.69999966734E+02 0.  0.
         12    1    1    2    0    0 -0.29477637648E+01 -0.17056293061E+02 -0.71465853197E+01  0.18726455242E+02  0.00000000000E+00 0. -1.
         11    1    3    3    0    0  0.96492909431E+01 -0.78814700072E+01  0.27873780855E+02  0.30531525422E+02  0.51100000000E-03 0.  1.
        -11    1    3    3    0    0 -0.15701414993E+02  0.10510534866E+02 -0.14516201857E+02  0.23826999236E+02  0.51100000000E-03 0. -1.
         12    1    3    3    0    0  0.89998878149E+01  0.14427228203E+02 -0.62109936777E+01  0.18103020100E+02  0.00000000000E+00 0. -1.
</event>
<event>
 7    1  0.1302069E-013  0.7246155E+02  0.7816164E-02  0.1226708E+00
        -11   -1    0    0    0    0  0.00000000000E+00  0.00000000000E+00  0.45593999997E+02  0.45594000000E+02  0.51100000000E-03 0.  1.
         11   -1    0    0    0    0 -0.00000000000E+00 -0.00000000000E+00 -0.45593999997E+02  0.45594000000E+02  0.51100000000E-03 0. -1.
    9900012    2    1    2    0    0  0.13411288489E+02  0.83238450310E+00  0.13043170322E+02  0.72461553061E+02  0.69999977551E+02 0.  0.
         12    1    1    2    0    0 -0.13411288489E+02 -0.83238450310E+00 -0.13043170322E+02  0.18726446939E+02  0.00000000000E+00 0. -1.
         11    1    3    3    0    0 -0.12840487646E+02 -0.86156045054E+01  0.12757977237E+01  0.15515618714E+02  0.51100000000E-03 0. -1.
        -11    1    3    3    0    0  0.34293051521E+02 -0.32353807713E+01 -0.45789627737E+01  0.34748352071E+02  0.51100000000E-03 0.  1.
        -12    1    3    3    0    0 -0.80412753847E+01  0.12683369780E+02  0.16346335372E+02  0.22197582275E+02  0.00000000000E+00 0.  1.
</event>
<event>
 7    1  0.1302069E-013  0.7246154E+02  0.7816164E-02  0.1226708E+00
        -11   -1    0    0    0    0  0.00000000000E+00  0.00000000000E+00  0.45593999997E+02  0.45594000000E+02  0.51100000000E-03 0.  1.
         11   -1    0    0    0    0 -0.00000000000E+00 -0.00000000000E+00 -0.45593999997E+02  0.45594000000E+02  0.51100000000E-03 0. -1.
    9900012    2    1    2    0    0 -0.10383398762E+01 -0.15246383450E+02  0.10823580514E+02  0.72461541361E+02  0.69999962309E+02 0.  0.
         12    1    1    2    0    0  0.10383398762E+01  0.15246383450E+02 -0.10823580514E+02  0.18726458639E+02  0.00000000000E+00 0. -1.
         11    1    3    3    0    0  0.11445447205E+02 -0.19087819727E+02 -0.80110944408E+01  0.23654191131E+02  0.51100000000E-03 0. -1.
        -11    1    3    3    0    0 -0.20453655405E+02 -0.14339484987E+02  0.82239011771E+01  0.26298391585E+02  0.51100000000E-03 0.  1.
        -12    1    3    3    0    0  0.79698683232E+01  0.18180921264E+02  0.10610773778E+02  0.22508958645E+02  0.00000000000E+00 0.  1.
</event>
<event>
 7    1  0.1302069E-013  0.7246137E+02  0.7816164E-02  0.1226709E+00
        -11   -1    0    0    0    0  0.00000000000E+00  0.00000000000E+00  0.45593999997E+02  0.45594000000E+02  0.51100000000E-03 0. -1.
         11   -1    0    0    0    0 -0.00000000000E+00 -0.00000000000E+00 -0.45593999997E+02  0.45594000000E+02  0.51100000000E-03 0.  1.
    9900012    2    1    2    0    0  0.14887336655E+02 -0.77293855950E+01 -0.83252972651E+01  0.72461367390E+02  0.69999735679E+02 0.  0.
         12    1    1    2    0    0 -0.14887336655E+02  0.77293855950E+01  0.83252972651E+01  0.18726632610E+02  0.00000000000E+00 0. -1.
         11    1    3    3    0    0  0.73526260346E+01  0.18194158167E+02  0.20887151144E+02  0.28659406557E+02  0.51100000000E-03 0. -1.
        -11    1    3    3    0    0  0.78093501022E+01 -0.16523810489E+02 -0.29140973406E+02  0.34397944610E+02  0.51100000000E-03 0.  1.
         12    1    3    3    0    0 -0.27463948202E+00 -0.93997332733E+01 -0.71475002697E-01  0.94040162234E+01  0.00000000000E+00 0. -1.
</event>
<event>
 7    1  0.1302069E-013  0.7246163E+02  0.7816164E-02  0.1226708E+00
        -11   -1    0    0    0    0  0.00000000000E+00  0.00000000000E+00  0.45593999997E+02  0.45594000000E+02  0.51100000000E-03 0.  1.
         11   -1    0    0    0    0 -0.00000000000E+00 -0.00000000000E+00 -0.45593999997E+02  0.45594000000E+02  0.51100000000E-03 0. -1.
    9900012    2    1    2    0    0  0.43548493726E+01 -0.69608437216E+01  0.16830297094E+02  0.72461629325E+02  0.70000076898E+02 0.  0.
         12    1    1    2    0    0 -0.43548493726E+01  0.69608437216E+01 -0.16830297094E+02  0.18726370675E+02  0.00000000000E+00 0. -1.
         11    1    3    3    0    0  0.64259499806E+01  0.10637016987E+02  0.36046982529E+01  0.12939583196E+02  0.51100000000E-03 0. -1.
        -11    1    3    3    0    0  0.19717806706E+02 -0.88426533914E+01 -0.12278146039E+02  0.24854321369E+02  0.51100000000E-03 0.  1.
        -12    1    3    3    0    0 -0.21788907314E+02 -0.87552073174E+01  0.25503744880E+02  0.34667724760E+02  0.00000000000E+00 0.  1.
</event>
<event>
 7    1  0.1302069E-013  0.7246163E+02  0.7816164E-02  0.1226708E+00
        -11   -1    0    0    0    0  0.00000000000E+00  0.00000000000E+00  0.45593999997E+02  0.45594000000E+02  0.51100000000E-03 0.  1.
         11   -1    0    0    0    0 -0.00000000000E+00 -0.00000000000E+00 -0.45593999997E+02  0.45594000000E+02  0.51100000000E-03 0. -1.
    9900012    2    1    2    0    0  0.22923973612E+01  0.13804107566E+02 -0.12444618854E+02  0.72461627961E+02  0.70000075121E+02 0.  0.
         12    1    1    2    0    0 -0.22923973612E+01 -0.13804107566E+02  0.12444618854E+02  0.18726372039E+02  0.00000000000E+00 0. -1.
         11    1    3    3    0    0  0.22187359793E+02 -0.23097194936E+01  0.15618413931E+02  0.27231389841E+02  0.51100000000E-03 0. -1.
        -11    1    3    3    0    0 -0.24847462955E+02  0.17286700069E+02 -0.25230386663E+02  0.39405568465E+02  0.51100000000E-03 0.  1.
         12    1    3    3    0    0  0.49525005235E+01 -0.11728730100E+01 -0.28326461216E+01  0.58246696545E+01  0.00000000000E+00 0. -1.
</event>
<event>
 7    1  0.1302069E-013  0.7246164E+02  0.7816164E-02  0.1226708E+00
        -11   -1    0    0    0    0  0.00000000000E+00  0.00000000000E+00  0.45593999997E+02  0.45594000000E+02  0.51100000000E-03 0. -1.
         11   -1    0    0    0    0 -0.00000000000E+00 -0.00000000000E+00 -0.45593999997E+02  0.45594000000E+02  0.51100000000E-03 0.  1.
    9900012    2    1    2    0    0  0.79374763305E+01 -0.14726061933E+02 -0.84152320813E+01  0.72461639929E+02  0.70000090712E+02 0.  0.
         12    1    1    2    0    0 -0.79374763305E+01  0.14726061933E+02  0.84152320813E+01  0.18726360071E+02  0.00000000000E+00 0. -1.
         11    1    3    3    0    0  0.14265099524E+02 -0.19255597868E+02  0.29844522142E+01  0.24149080085E+02  0.51100000000E-03 0. -1.
        -11    1    3    3    0    0 -0.45135921443E+00  0.20558463299E+02 -0.20440558678E+02  0.28994319749E+02  0.51100000000E-03 0.  1.
         12    1    3    3    0    0 -0.58762639786E+01 -0.16028927364E+02  0.90408743826E+01  0.19318240095E+02  0.00000000000E+00 0. -1.
</event>
<event>
 7    1  0.1302069E-013  0.7246131E+02  0.7816164E-02  0.1226709E+00
        -11   -1    0    0    0    0  0.00000000000E+00  0.00000000000E+00  0.45593999997E+02  0.45594000000E+02  0.51100000000E-03 0.  1.
         11   -1    0    0    0    0 -0.00000000000E+00 -0.00000000000E+00 -0.45593999997E+02  0.45594000000E+02  0.51100000000E-03 0. -1.
    9900012    2    1    2    0    0 -0.41456701802E+01  0.76181389735E+01  0.16597181104E+02  0.72461306665E+02  0.69999656573E+02 0.  0.
         12    1    1    2    0    0  0.41456701802E+01 -0.76181389735E+01 -0.16597181104E+02  0.18726693335E+02  0.00000000000E+00 0. -1.
         11    1    3    3    0    0 -0.13177592126E+02 -0.19463513138E+02  0.11108441631E+02  0.25997591304E+02  0.51100000000E-03 0. -1.
        -11    1    3    3    0    0  0.16905412277E+02  0.10000394573E+02 -0.10052832233E+02  0.22064910878E+02  0.51100000000E-03 0.  1.
        -12    1    3    3    0    0 -0.78734903311E+01  0.17081257538E+02  0.15541571707E+02  0.24398804483E+02  0.00000000000E+00 0.  1.
</event>
<event>
 7    1  0.1302069E-013  0.7246152E+02  0.7816164E-02  0.1226708E+00
        -11   -1    0    0    0    0  0.00000000000E+00  0.00000000000E+00  0.45593999997E+02  0.45594000000E+02  0.51100000000E-03 0. -1.
         11   -1    0    0    0    0 -0.00000000000E+00 -0.00000000000E+00 -0.45593999997E+02  0.45594000000E+02  0.51100000000E-03 0.  1.
    9900012    2    1    2    0    0 -0.81973601125E+01  0.97226082734E+01 -0.13746102241E+02  0.72461517382E+02  0.69999931071E+02 0.  0.
         12    1    1    2    0    0  0.81973601125E+01 -0.97226082734E+01  0.13746102241E+02  0.18726482618E+02  0.00000000000E+00 0. -1.
         11    1    3    3    0    0 -0.10607116685E+02  0.35403501767E+01 -0.27093169056E+02  0.29310148643E+02  0.51100000000E-03 0. -1.
        -11    1    3    3    0    0  0.15094736411E+02 -0.10885454212E+02  0.11716749208E+01  0.18647171450E+02  0.51100000000E-03 0.  1.
        -12    1    3    3    0    0 -0.12684979838E+02  0.17067712309E+02  0.12175391894E+02  0.24504197288E+02  0.00000000000E+00 0.  1.
</event>
<event>
 7    1  0.1302069E-013  0.7246151E+02  0.7816164E-02  0.1226708E+00
        -11   -1    0    0    0    0  0.00000000000E+00  0.00000000000E+00  0.45593999997E+02  0.45594000000E+02  0.51100000000E-03 0.  1.
         11   -1    0    0    0    0 -0.00000000000E+00 -0.00000000000E+00 -0.45593999997E+02  0.45594000000E+02  0.51100000000E-03 0. -1.
    9900012    2    1    2    0    0 -0.92844405994E+00 -0.16356049901E+01  0.18631805867E+02  0.72461510689E+02  0.69999922352E+02 0.  0.
         12    1    1    2    0    0  0.92844405994E+00  0.16356049901E+01 -0.18631805867E+02  0.18726489311E+02  0.00000000000E+00 0. -1.
         11    1    3    3    0    0 -0.11463887100E+02  0.24302256409E+02 -0.10778269585E+02  0.28951536566E+02  0.51100000000E-03 0. -1.
        -11    1    3    3    0    0  0.74731563689E+01 -0.22711329046E+02  0.14527453046E+02  0.27976765814E+02  0.51100000000E-03 0.  1.
         12    1    3    3    0    0  0.30622866712E+01 -0.32265323532E+01  0.14882622407E+02  0.15533208309E+02  0.00000000000E+00 0. -1.
</event>
<event>
 7    1  0.1302069E-013  0.7246143E+02  0.7816164E-02  0.1226708E+00
        -11   -1    0    0    0    0  0.00000000000E+00  0.00000000000E+00  0.45593999997E+02  0.45594000000E+02  0.51100000000E-03 0.  1.
         11   -1    0    0    0    0 -0.00000000000E+00 -0.00000000000E+00 -0.45593999997E+02  0.45594000000E+02  0.51100000000E-03 0. -1.
    9900012    2    1    2    0    0 -0.12515691666E+02  0.11855102017E+02 -0.73142720131E+01  0.72461426454E+02  0.69999812621E+02 0.  0.
         12    1    1    2    0    0  0.12515691666E+02 -0.11855102017E+02  0.73142720131E+01  0.18726573546E+02  0.00000000000E+00 0. -1.
         11    1    3    3    0    0 -0.25996119890E+02  0.13628114693E+02 -0.19358235460E+02  0.35160560857E+02  0.51100000000E-03 0. -1.
        -11    1    3    3    0    0  0.86133025779E+01  0.79884921435E+00  0.23254730990E+02  0.24811482323E+02  0.51100000000E-03 0.  1.
        -12    1    3    3    0    0  0.48671256461E+01 -0.25718618907E+01 -0.11210767544E+02  0.12489383274E+02  0.00000000000E+00 0.  1.
</event>
<event>
 7    1  0.1302069E-013  0.7246159E+02  0.7816164E-02  0.1226708E+00
        -11   -1    0    0    0    0  0.00000000000E+00  0.00000000000E+00  0.45593999997E+02  0.45594000000E+02  0.51100000000E-03 0.  1.
         11   -1    0    0    0    0 -0.00000000000E+00 -0.00000000000E+00 -0.45593999997E+02  0.45594000000E+02  0.51100000000E-03 0. -1.
    9900012    2    1    2    0    0  0.18469428097E+02  0.27604496450E+01  0.13923684884E+01  0.72461586929E+02  0.70000021670E+02 0.  0.
         12    1    1    2    0    0 -0.18469428097E+02 -0.27604496450E+01 -0.13923684884E+01  0.18726413071E+02  0.00000000000E+00 0. -1.
         11    1    3    3    0    0 -0.94761808050E+01  0.73774479639E+01 -0.14913337950E+02  0.19147647119E+02  0.51100000000E-03 0. -1.
        -11    1    3    3    0    0  0.69758353553E+00 -0.23014438644E+01  0.24615749167E+02  0.24732941070E+02  0.51100000000E-03 0.  1.
        -12    1    3    3    0    0  0.27248025367E+02 -0.23155544546E+01 -0.83100427286E+01  0.28580998740E+02  0.00000000000E+00 0.  1.
</event>
<event>
 7    1  0.1302069E-013  0.7246157E+02  0.7816164E-02  0.1226708E+00
        -11   -1    0    0    0    0  0.00000000000E+00  0.00000000000E+00  0.45593999997E+02  0.45594000000E+02  0.51100000000E-03 0.  1.
         11   -1    0    0    0    0 -0.00000000000E+00 -0.00000000000E+00 -0.45593999997E+02  0.45594000000E+02  0.51100000000E-03 0. -1.
    9900012    2    1    2    0    0  0.12873825662E+02  0.12429728244E+02  0.55177712358E+01  0.72461565988E+02  0.69999994391E+02 0.  0.
         12    1    1    2    0    0 -0.12873825662E+02 -0.12429728244E+02 -0.55177712358E+01  0.18726434012E+02  0.00000000000E+00 0. -1.
         11    1    3    3    0    0  0.15018859650E+02  0.10722846992E+02 -0.10030909601E+02  0.21003922026E+02  0.51100000000E-03 0. -1.
        -11    1    3    3    0    0  0.14923985024E+02  0.13489023681E+02  0.21928554306E+02  0.29758033925E+02  0.51100000000E-03 0.  1.
        -12    1    3    3    0    0 -0.17069019012E+02 -0.11782142430E+02 -0.63798734694E+01  0.21699610037E+02  0.00000000000E+00 0.  1.
</event>
<event>
 7    1  0.1302069E-013  0.7246173E+02  0.7816164E-02  0.1226708E+00
        -11   -1    0    0    0    0  0.00000000000E+00  0.00000000000E+00  0.45593999997E+02  0.45594000000E+02  0.51100000000E-03 0.  1.
         11   -1    0    0    0    0 -0.00000000000E+00 -0.00000000000E+00 -0.45593999997E+02  0.45594000000E+02  0.51100000000E-03 0. -1.
    9900012    2    1    2    0    0  0.58503297636E+01 -0.10986380859E+02  0.13990940266E+02  0.72461726151E+02  0.70000203032E+02 0.  0.
         12    1    1    2    0    0 -0.58503297636E+01  0.10986380859E+02 -0.13990940266E+02  0.18726273849E+02  0.00000000000E+00 0. -1.
         11    1    3    3    0    0 -0.69583269320E+01  0.88147156510E+01 -0.15540248691E+02  0.19173337095E+02  0.51100000000E-03 0. -1.
        -11    1    3    3    0    0  0.79842337444E+01 -0.25181105441E+02  0.35266176142E+02  0.44062900944E+02  0.51100000000E-03 0.  1.
        -12    1    3    3    0    0  0.48244229512E+01  0.53800089307E+01 -0.57349871846E+01  0.92254881124E+01  0.00000000000E+00 0.  1.
</event>
<event>
 7    1  0.1302069E-013  0.7246159E+02  0.7816164E-02  0.1226708E+00
        -11   -1    0    0    0    0  0.00000000000E+00  0.00000000000E+00  0.45593999997E+02  0.45594000000E+02  0.51100000000E-03 0. -1.
         11   -1    0    0    0    0 -0.00000000000E+00 -0.00000000000E+00 -0.45593999997E+02  0.45594000000E+02  0.51100000000E-03 0.  1.
    9900012    2    1    2    0    0  0.83716608177E+01  0.21558449644E+01 -0.16611621400E+02  0.72461592499E+02  0.70000028925E+02 0.  0.
         12    1    1    2    0    0 -0.83716608177E+01 -0.21558449644E+01  0.16611621400E+02  0.18726407501E+02  0.00000000000E+00 0. -1.
         11    1    3    3    0    0 -0.18562708413E+02  0.58331204730E+01  0.12774836240E+02  0.23276509174E+02  0.51100000000E-03 0. -1.
        -11    1    3    3    0    0  0.32540945794E+02 -0.19661797942E+01 -0.20403899320E+02  0.38459044760E+02  0.51100000000E-03 0.  1.
         12    1    3    3    0    0 -0.56065765632E+01 -0.17110957145E+01 -0.89825583208E+01  0.10726038565E+02  0.00000000000E+00 0. -1.
</event>
<event>
 7    1  0.1302069E-013  0.7246163E+02  0.7816164E-02  0.1226708E+00
        -11   -1    0    0    0    0  0.00000000000E+00  0.00000000000E+00  0.45593999997E+02  0.45594000000E+02  0.51100000000E-03 0. -1.
         11   -1    0    0    0    0 -0.00000000000E+00 -0.00000000000E+00 -0.45593999997E+02  0.45594000000E+02  0.51100000000E-03 0.  1.
    9900012    2    1    2    0    0  0.28116073210E+01 -0.13105853687E+00 -0.18513633530E+02  0.72461629861E+02  0.70000077597E+02 0.  0.
         12    1    1    2    0    0 -0.28116073210E+01  0.13105853687E+00  0.18513633530E+02  0.18726370139E+02  0.00000000000E+00 0. -1.
         11    1    3    3    0    0  0.73303908302E+01 -0.18547247045E+02  0.87080776740E+01  0.21761562896E+02  0.51100000000E-03 0. -1.
        -11    1    3    3    0    0 -0.17942843658E+02  0.20009731275E+02 -0.25542819928E+02  0.37077899541E+02  0.51100000000E-03 0.  1.
         12    1    3    3    0    0  0.13424060148E+02 -0.15935427669E+01 -0.16788912765E+01  0.13622167424E+02  0.00000000000E+00 0. -1.
</event>
<event>
 7    1  0.1302069E-013  0.7246159E+02  0.7816164E-02  0.1226708E+00
        -11   -1    0    0    0    0  0.00000000000E+00  0.00000000000E+00  0.45593999997E+02  0.45594000000E+02  0.51100000000E-03 0. -1.
         11   -1    0    0    0    0 -0.00000000000E+00 -0.00000000000E+00 -0.45593999997E+02  0.45594000000E+02  0.51100000000E-03 0.  1.
    9900012    2    1    2    0    0 -0.28441542612E+01  0.80438785519E+01 -0.16669888545E+02  0.72461591382E+02  0.70000027471E+02 0.  0.
         12    1    1    2    0    0  0.28441542612E+01 -0.80438785519E+01  0.16669888545E+02  0.18726408618E+02  0.00000000000E+00 0. -1.
         11    1    3    3    0    0 -0.83399564652E+01 -0.95977312586E+01 -0.11042193714E+02  0.16840467970E+02  0.51100000000E-03 0.  1.
        -11    1    3    3    0    0  0.26661229110E+02  0.17439348428E+02  0.44684289949E+01  0.32170154945E+02  0.51100000000E-03 0. -1.
        -12    1    3    3    0    0 -0.21165426906E+02  0.20226138283E+00 -0.10096123826E+02  0.23450968468E+02  0.00000000000E+00 0.  1.
</event>
<event>
 7    1  0.1302069E-013  0.7246156E+02  0.7816164E-02  0.1226708E+00
        -11   -1    0    0    0    0  0.00000000000E+00  0.00000000000E+00  0.45593999997E+02  0.45594000000E+02  0.51100000000E-03 0.  1.
         11   -1    0    0    0    0 -0.00000000000E+00 -0.00000000000E+00 -0.45593999997E+02  0.45594000000E+02  0.51100000000E-03 0. -1.
    9900012    2    1    2    0    0  0.37457374648E+01 -0.16128445345E+01  0.18276976290E+02  0.72461556693E+02  0.69999982282E+02 0.  0.
         12    1    1    2    0    0 -0.37457374648E+01  0.16128445345E+01 -0.18276976290E+02  0.18726443307E+02  0.00000000000E+00 0. -1.
         11    1    3    3    0    0  0.25651591650E+02 -0.16732802652E+01 -0.30543036703E+01  0.25886923189E+02  0.51100000000E-03 0. -1.
        -11    1    3    3    0    0 -0.29744582172E+02 -0.53624909398E+01  0.10152124044E+02  0.31883571013E+02  0.51100000000E-03 0.  1.
        -12    1    3    3    0    0  0.78387279873E+01  0.54229266706E+01  0.11179155916E+02  0.14691062491E+02  0.00000000000E+00 0.  1.
</event>
<event>
 7    1  0.1302069E-013  0.7246157E+02  0.7816164E-02  0.1226708E+00
        -11   -1    0    0    0    0  0.00000000000E+00  0.00000000000E+00  0.45593999997E+02  0.45594000000E+02  0.51100000000E-03 0. -1.
         11   -1    0    0    0    0 -0.00000000000E+00 -0.00000000000E+00 -0.45593999997E+02  0.45594000000E+02  0.51100000000E-03 0.  1.
    9900012    2    1    2    0    0 -0.98172609934E+01 -0.96335687661E+01 -0.12708067313E+02  0.72461568535E+02  0.69999997708E+02 0.  0.
         12    1    1    2    0    0  0.98172609934E+01  0.96335687661E+01  0.12708067313E+02  0.18726431465E+02  0.00000000000E+00 0. -1.
         11    1    3    3    0    0  0.88500782661E+00  0.24742723400E+02 -0.23968282837E+01  0.24874291672E+02  0.51100000000E-03 0. -1.
        -11    1    3    3    0    0  0.29710678245E+00 -0.33085548997E+02 -0.97345884619E+00  0.33101200088E+02  0.51100000000E-03 0.  1.
         12    1    3    3    0    0 -0.10999375602E+02 -0.12907431684E+01 -0.93377801835E+01  0.14486076775E+02  0.00000000000E+00 0. -1.
</event>
<event>
 7    1  0.1302069E-013  0.7246159E+02  0.7816164E-02  0.1226708E+00
        -11   -1    0    0    0    0  0.00000000000E+00  0.00000000000E+00  0.45593999997E+02  0.45594000000E+02  0.51100000000E-03 0.  1.
         11   -1    0    0    0    0 -0.00000000000E+00 -0.00000000000E+00 -0.45593999997E+02  0.45594000000E+02  0.51100000000E-03 0. -1.
    9900012    2    1    2    0    0  0.12871326865E+02 -0.12906383610E+02  0.42933381167E+01  0.72461586961E+02  0.70000021711E+02 0.  0.
         12    1    1    2    0    0 -0.12871326865E+02  0.12906383610E+02 -0.42933381167E+01  0.18726413039E+02  0.00000000000E+00 0. -1.
         11    1    3    3    0    0  0.56489876500E+01 -0.30376703212E+00 -0.11462954059E+02  0.12782904674E+02  0.51100000000E-03 0. -1.
        -11    1    3    3    0    0  0.27709890197E+02 -0.20697295175E+02  0.14826635652E+02  0.37630375593E+02  0.51100000000E-03 0.  1.
        -12    1    3    3    0    0 -0.20487550982E+02  0.80946785969E+01  0.92965652333E+00  0.22048306694E+02  0.00000000000E+00 0.  1.
</event>
<event>
 7    1  0.1302069E-013  0.7246172E+02  0.7816164E-02  0.1226708E+00
        -11   -1    0    0    0    0  0.00000000000E+00  0.00000000000E+00  0.45593999997E+02  0.45594000000E+02  0.51100000000E-03 0. -1.
         11   -1    0    0    0    0 -0.00000000000E+00 -0.00000000000E+00 -0.45593999997E+02  0.45594000000E+02  0.51100000000E-03 0.  1.
    9900012    2    1    2    0    0 -0.26487344648E+01  0.10283113632E+02 -0.15424505627E+02  0.72461719161E+02  0.70000193926E+02 0.  0.
         12    1    1    2    0    0  0.26487344648E+01 -0.10283113632E+02  0.15424505627E+02  0.18726280839E+02  0.00000000000E+00 0. -1.
         11    1    3    3    0    0  0.13613490183E+02  0.15355436839E+01  0.67840552656E+01  0.15287524832E+02  0.51100000000E-03 0. -1.
        -11    1    3    3    0    0 -0.27148143890E+02 -0.61081512799E+01 -0.26321320423E+02  0.38303304528E+02  0.51100000000E-03 0.  1.
        -12    1    3    3    0    0  0.10885919241E+02  0.14855721228E+02  0.41127595301E+01  0.18870889801E+02  0.00000000000E+00 0.  1.
</event>
<event>
 7    1  0.1302069E-013  0.7246155E+02  0.7816164E-02  0.1226708E+00
        -11   -1    0    0    0    0  0.00000000000E+00  0.00000000000E+00  0.45593999997E+02  0.45594000000E+02  0.51100000000E-03 0.  1.
         11   -1    0    0    0    0 -0.00000000000E+00 -0.00000000000E+00 -0.45593999997E+02  0.45594000000E+02  0.51100000000E-03 0. -1.
    9900012    2    1    2    0    0 -0.11933731844E+02  0.14374491930E+02 -0.12806191113E+01  0.72461549208E+02  0.69999972531E+02 0.  0.
         12    1    1    2    0    0  0.11933731844E+02 -0.14374491930E+02  0.12806191113E+01  0.18726450792E+02  0.00000000000E+00 0. -1.
         11    1    3    3    0    0 -0.24240998370E+01 -0.33406264687E+01 -0.18812280973E+02  0.19259749762E+02  0.51100000000E-03 0.  1.
        -11    1    3    3    0    0  0.16769674016E+02  0.15839182511E+02  0.12970060929E+02  0.26463638261E+02  0.51100000000E-03 0. -1.
        -12    1    3    3    0    0 -0.26279306023E+02  0.18759358875E+01  0.45616009329E+01  0.26738161185E+02  0.00000000000E+00 0.  1.
</event>
<event>
 7    1  0.1302069E-013  0.7246155E+02  0.7816164E-02  0.1226708E+00
        -11   -1    0    0    0    0  0.00000000000E+00  0.00000000000E+00  0.45593999997E+02  0.45594000000E+02  0.51100000000E-03 0.  1.
         11   -1    0    0    0    0 -0.00000000000E+00 -0.00000000000E+00 -0.45593999997E+02  0.45594000000E+02  0.51100000000E-03 0. -1.
    9900012    2    1    2    0    0 -0.49094355098E+01  0.10531750844E+02 -0.14685346984E+02  0.72461554825E+02  0.69999979848E+02 0.  0.
         12    1    1    2    0    0  0.49094355098E+01 -0.10531750844E+02  0.14685346984E+02  0.18726445175E+02  0.00000000000E+00 0. -1.
         11    1    3    3    0    0 -0.13510116528E+02 -0.17657500090E+02 -0.75841675732E+01  0.23491065452E+02  0.51100000000E-03 0. -1.
        -11    1    3    3    0    0  0.21908457632E+02  0.65479263007E+01 -0.54782055984E+01  0.23513115308E+02  0.51100000000E-03 0.  1.
        -12    1    3    3    0    0 -0.13307776614E+02  0.21641324633E+02 -0.16229738121E+01  0.25457374065E+02  0.00000000000E+00 0.  1.
</event>
<event>
 7    1  0.1302069E-013  0.7246158E+02  0.7816164E-02  0.1226708E+00
        -11   -1    0    0    0    0  0.00000000000E+00  0.00000000000E+00  0.45593999997E+02  0.45594000000E+02  0.51100000000E-03 0.  1.
         11   -1    0    0    0    0 -0.00000000000E+00 -0.00000000000E+00 -0.45593999997E+02  0.45594000000E+02  0.51100000000E-03 0. -1.
    9900012    2    1    2    0    0  0.17826497332E+02  0.23003324371E+00  0.57307902825E+01  0.72461578033E+02  0.70000010081E+02 0.  0.
         12    1    1    2    0    0 -0.17826497332E+02 -0.23003324371E+00 -0.57307902825E+01  0.18726421967E+02  0.00000000000E+00 0. -1.
         11    1    3    3    0    0 -0.20133841825E+02  0.15321515514E+01 -0.18225842343E+02  0.27201110352E+02  0.51100000000E-03 0. -1.
        -11    1    3    3    0    0  0.28221091929E+02  0.14747084375E+01  0.17105094778E+02  0.33033150959E+02  0.51100000000E-03 0.  1.
         12    1    3    3    0    0  0.97392472278E+01 -0.27768267452E+01  0.68515378480E+01  0.12227316722E+02  0.00000000000E+00 0. -1.
</event>
<event>
 7    1  0.1302069E-013  0.7246159E+02  0.7816164E-02  0.1226708E+00
        -11   -1    0    0    0    0  0.00000000000E+00  0.00000000000E+00  0.45593999997E+02  0.45594000000E+02  0.51100000000E-03 0. -1.
         11   -1    0    0    0    0 -0.00000000000E+00 -0.00000000000E+00 -0.45593999997E+02  0.45594000000E+02  0.51100000000E-03 0.  1.
    9900012    2    1    2    0    0 -0.16904033638E+02 -0.77666580439E+01 -0.21473508282E+01  0.72461589613E+02  0.70000025166E+02 0.  0.
         12    1    1    2    0    0  0.16904033638E+02  0.77666580439E+01  0.21473508282E+01  0.18726410387E+02  0.00000000000E+00 0. -1.
         11    1    3    3    0    0  0.12294421647E+02 -0.30337874905E+02 -0.56498569747E+01  0.33218373552E+02  0.51100000000E-03 0. -1.
        -11    1    3    3    0    0 -0.19439122154E+02  0.73064162324E+01  0.38561041840E+01  0.21121854275E+02  0.51100000000E-03 0.  1.
         12    1    3    3    0    0 -0.97593331308E+01  0.15264800628E+02 -0.35359803744E+00  0.18121361785E+02  0.00000000000E+00 0. -1.
</event>
<event>
 7    1  0.1302069E-013  0.7246147E+02  0.7816164E-02  0.1226708E+00
        -11   -1    0    0    0    0  0.00000000000E+00  0.00000000000E+00  0.45593999997E+02  0.45594000000E+02  0.51100000000E-03 0. -1.
         11   -1    0    0    0    0 -0.00000000000E+00 -0.00000000000E+00 -0.45593999997E+02  0.45594000000E+02  0.51100000000E-03 0.  1.
    9900012    2    1    2    0    0  0.14442759023E+02 -0.61399658392E+01 -0.10217169365E+02  0.72461467525E+02  0.69999866124E+02 0.  0.
         12    1    1    2    0    0 -0.14442759023E+02  0.61399658392E+01  0.10217169365E+02  0.18726532475E+02  0.00000000000E+00 0. -1.
         11    1    3    3    0    0 -0.13379532645E+02  0.21269554320E+01 -0.21662423592E+02  0.25549881200E+02  0.51100000000E-03 0. -1.
        -11    1    3    3    0    0  0.19749254872E+02 -0.17766797515E+02  0.18700835498E+02  0.32487126843E+02  0.51100000000E-03 0.  1.
         12    1    3    3    0    0  0.80730367959E+01  0.94998762443E+01 -0.72555812711E+01  0.14424459482E+02  0.00000000000E+00 0. -1.
</event>
<event>
 7    1  0.1302069E-013  0.7246155E+02  0.7816164E-02  0.1226708E+00
        -11   -1    0    0    0    0  0.00000000000E+00  0.00000000000E+00  0.45593999997E+02  0.45594000000E+02  0.51100000000E-03 0.  1.
         11   -1    0    0    0    0 -0.00000000000E+00 -0.00000000000E+00 -0.45593999997E+02  0.45594000000E+02  0.51100000000E-03 0. -1.
    9900012    2    1    2    0    0  0.63300546044E+01  0.14373014630E+02  0.10199351031E+02  0.72461550729E+02  0.69999974512E+02 0.  0.
         12    1    1    2    0    0 -0.63300546044E+01 -0.14373014630E+02 -0.10199351031E+02  0.18726449271E+02  0.00000000000E+00 0. -1.
         11    1    3    3    0    0 -0.25764224695E+02  0.52142913587E+01 -0.32093024916E+01  0.26481762238E+02  0.51100000000E-03 0. -1.
        -11    1    3    3    0    0  0.22854310704E+02 -0.82053551182E+01  0.82386831386E+01  0.25642216567E+02  0.51100000000E-03 0.  1.
         12    1    3    3    0    0  0.92399685953E+01  0.17364078390E+02  0.51699703837E+01  0.20337571923E+02  0.00000000000E+00 0. -1.
</event>
<event>
 7    1  0.1302069E-013  0.7246161E+02  0.7816164E-02  0.1226708E+00
        -11   -1    0    0    0    0  0.00000000000E+00  0.00000000000E+00  0.45593999997E+02  0.45594000000E+02  0.51100000000E-03 0. -1.
         11   -1    0    0    0    0 -0.00000000000E+00 -0.00000000000E+00 -0.45593999997E+02  0.45594000000E+02  0.51100000000E-03 0.  1.
    9900012    2    1    2    0    0 -0.18749102785E+00 -0.26711804464E+01 -0.18533949741E+02  0.72461610843E+02  0.70000052822E+02 0.  0.
         12    1    1    2    0    0  0.18749102785E+00  0.26711804464E+01  0.18533949741E+02  0.18726389157E+02  0.00000000000E+00 0. -1.
         11    1    3    3    0    0  0.17060447301E+02 -0.14307488010E+02  0.70548514126E+01  0.23356669368E+02  0.51100000000E-03 0. -1.
        -11    1    3    3    0    0 -0.16267621739E+02 -0.74504458229E+01 -0.23988069825E+02  0.29926111578E+02  0.51100000000E-03 0.  1.
         12    1    3    3    0    0 -0.98031658969E+00  0.19086753386E+02 -0.16007313286E+01  0.19178829897E+02  0.00000000000E+00 0. -1.
</event>
<event>
 7    1  0.1302069E-013  0.7246156E+02  0.7816164E-02  0.1226708E+00
        -11   -1    0    0    0    0  0.00000000000E+00  0.00000000000E+00  0.45593999997E+02  0.45594000000E+02  0.51100000000E-03 0. -1.
         11   -1    0    0    0    0 -0.00000000000E+00 -0.00000000000E+00 -0.45593999997E+02  0.45594000000E+02  0.51100000000E-03 0.  1.
    9900012    2    1    2    0    0  0.38124652581E+01  0.38469383782E+01 -0.17926116803E+02  0.72461561741E+02  0.69999988858E+02 0.  0.
         12    1    1    2    0    0 -0.38124652581E+01 -0.38469383782E+01  0.17926116803E+02  0.18726438259E+02  0.00000000000E+00 0. -1.
         11    1    3    3    0    0 -0.11272461136E+01  0.13484158144E+01  0.22042216309E+02  0.22112173323E+02  0.51100000000E-03 0. -1.
        -11    1    3    3    0    0  0.15657057226E+02  0.60202152291E+01 -0.13347652187E+02  0.21437029914E+02  0.51100000000E-03 0.  1.
         12    1    3    3    0    0 -0.10717345855E+02 -0.35216926652E+01 -0.26620680925E+02  0.28912358504E+02  0.00000000000E+00 0. -1.
</event>
<event>
 7    1  0.1302069E-013  0.7246163E+02  0.7816164E-02  0.1226708E+00
        -11   -1    0    0    0    0  0.00000000000E+00  0.00000000000E+00  0.45593999997E+02  0.45594000000E+02  0.51100000000E-03 0. -1.
         11   -1    0    0    0    0 -0.00000000000E+00 -0.00000000000E+00 -0.45593999997E+02  0.45594000000E+02  0.51100000000E-03 0.  1.
    9900012    2    1    2    0    0  0.18237182445E+02 -0.28475892892E+01 -0.31580859451E+01  0.72461625681E+02  0.70000072152E+02 0.  0.
         12    1    1    2    0    0 -0.18237182445E+02  0.28475892892E+01  0.31580859451E+01  0.18726374319E+02  0.00000000000E+00 0. -1.
         11    1    3    3    0    0  0.26224341492E+02 -0.13630433873E+02 -0.23827850785E+02  0.37964078911E+02  0.51100000000E-03 0.  1.
        -11    1    3    3    0    0  0.42985111799E+01  0.14069570335E+02  0.13091918363E+02  0.19693357623E+02  0.51100000000E-03 0. -1.
        -12    1    3    3    0    0 -0.12285670227E+02 -0.32867257516E+01  0.75778464770E+01  0.14804189147E+02  0.00000000000E+00 0.  1.
</event>
<event>
 7    1  0.1302069E-013  0.7246147E+02  0.7816164E-02  0.1226708E+00
        -11   -1    0    0    0    0  0.00000000000E+00  0.00000000000E+00  0.45593999997E+02  0.45594000000E+02  0.51100000000E-03 0. -1.
         11   -1    0    0    0    0 -0.00000000000E+00 -0.00000000000E+00 -0.45593999997E+02  0.45594000000E+02  0.51100000000E-03 0.  1.
    9900012    2    1    2    0    0  0.99881929701E+01  0.12002981691E+02 -0.10336692880E+02  0.72461473680E+02  0.69999874142E+02 0.  0.
         12    1    1    2    0    0 -0.99881929701E+01 -0.12002981691E+02  0.10336692880E+02  0.18726526320E+02  0.00000000000E+00 0. -1.
         11    1    3    3    0    0 -0.13763470433E+02 -0.92958065045E+01 -0.86394273465E+01  0.18721240399E+02  0.51100000000E-03 0. -1.
        -11    1    3    3    0    0  0.15266039211E+02  0.32881029334E+02 -0.93938210141E+01  0.37449404759E+02  0.51100000000E-03 0.  1.
         12    1    3    3    0    0  0.84856241917E+01 -0.11582241138E+02  0.76965554802E+01  0.16290828523E+02  0.00000000000E+00 0. -1.
</event>
<event>
 8    1  0.1302069E-013  0.7246163E+02  0.7816164E-02  0.1226708E+00
        -11   -1    0    0    0    0  0.00000000000E+00  0.00000000000E+00  0.45593999997E+02  0.45594000000E+02  0.51100000000E-03 0.  1.
         11   -1    0    0    0    0 -0.00000000000E+00 -0.00000000000E+00 -0.45593999997E+02  0.45594000000E+02  0.51100000000E-03 0. -1.
    9900012    2    1    2    0    0  0.14652735622E+02 -0.91615956080E+01  0.72138484935E+01  0.72461625407E+02  0.70000071795E+02 0.  0.
         24    2    3    3    0    0 -0.24733686633E+01  0.39066571228E+01  0.91812980909E+01  0.50829391690E+02  0.49779024724E+02 0.  0.
         12    1    1    2    0    0 -0.14652735622E+02  0.91615956080E+01 -0.72138484935E+01  0.18726374593E+02  0.00000000000E+00 0. -1.
         11    1    3    3    0    0  0.17126104285E+02 -0.13068252731E+02 -0.19674495973E+01  0.21632233717E+02  0.51100000000E-03 0.  1.
        -11    1    4    4    0    0 -0.10943853663E+02 -0.28313716599E+01  0.27398787904E+02  0.29639132534E+02  0.51100000000E-03 0. -1.
         12    1    4    4    0    0  0.84704849994E+01  0.67380287827E+01 -0.18217489813E+02  0.21190259156E+02  0.00000000000E+00 0. -1.
</event>
<event>
 7    1  0.1302069E-013  0.7246156E+02  0.7816164E-02  0.1226708E+00
        -11   -1    0    0    0    0  0.00000000000E+00  0.00000000000E+00  0.45593999997E+02  0.45594000000E+02  0.51100000000E-03 0.  1.
         11   -1    0    0    0    0 -0.00000000000E+00 -0.00000000000E+00 -0.45593999997E+02  0.45594000000E+02  0.51100000000E-03 0. -1.
    9900012    2    1    2    0    0  0.54345352046E+01  0.79801143998E+01  0.16045657692E+02  0.72461560683E+02  0.69999987479E+02 0.  0.
         12    1    1    2    0    0 -0.54345352046E+01 -0.79801143998E+01 -0.16045657692E+02  0.18726439317E+02  0.00000000000E+00 0. -1.
         11    1    3    3    0    0  0.26889013662E+02  0.19523385899E+02  0.15276092837E+02  0.36572403056E+02  0.51100000000E-03 0.  1.
        -11    1    3    3    0    0 -0.23885045373E+02 -0.20152457836E+01  0.60587098633E+01  0.24723765359E+02  0.51100000000E-03 0. -1.
         12    1    3    3    0    0  0.24305669162E+01 -0.95280257158E+01 -0.52891450083E+01  0.11165392268E+02  0.00000000000E+00 0. -1.
</event>
<event>
 7    1  0.1302069E-013  0.7246145E+02  0.7816164E-02  0.1226708E+00
        -11   -1    0    0    0    0  0.00000000000E+00  0.00000000000E+00  0.45593999997E+02  0.45594000000E+02  0.51100000000E-03 0.  1.
         11   -1    0    0    0    0 -0.00000000000E+00 -0.00000000000E+00 -0.45593999997E+02  0.45594000000E+02  0.51100000000E-03 0. -1.
    9900012    2    1    2    0    0  0.12247471748E+02 -0.13564335577E+02  0.40855813096E+01  0.72461448302E+02  0.69999841082E+02 0.  0.
         12    1    1    2    0    0 -0.12247471748E+02  0.13564335577E+02 -0.40855813096E+01  0.18726551698E+02  0.00000000000E+00 0. -1.
         11    1    3    3    0    0 -0.76186049589E+00 -0.30274945125E+02 -0.19901607064E+01  0.30349851295E+02  0.51100000000E-03 0. -1.
        -11    1    3    3    0    0  0.25300193259E+02  0.80884451025E+01  0.52485584083E+01  0.27075267104E+02  0.51100000000E-03 0.  1.
         12    1    3    3    0    0 -0.12290861015E+02  0.86221644460E+01  0.82718360774E+00  0.15036329903E+02  0.00000000000E+00 0. -1.
</event>
<event>
 7    1  0.1302069E-013  0.7246158E+02  0.7816164E-02  0.1226708E+00
        -11   -1    0    0    0    0  0.00000000000E+00  0.00000000000E+00  0.45593999997E+02  0.45594000000E+02  0.51100000000E-03 0. -1.
         11   -1    0    0    0    0 -0.00000000000E+00 -0.00000000000E+00 -0.45593999997E+02  0.45594000000E+02  0.51100000000E-03 0.  1.
    9900012    2    1    2    0    0  0.50866828690E+01  0.42810018826E+01 -0.17506493416E+02  0.72461584661E+02  0.70000018715E+02 0.  0.
         12    1    1    2    0    0 -0.50866828690E+01 -0.42810018826E+01  0.17506493416E+02  0.18726415339E+02  0.00000000000E+00 0. -1.
         11    1    3    3    0    0 -0.16860875100E+02  0.21071127750E+02 -0.30288739481E+02  0.40567095945E+02  0.51100000000E-03 0. -1.
        -11    1    3    3    0    0  0.10646960009E+02 -0.24959713390E+01  0.37803201755E+01  0.11570585605E+02  0.51100000000E-03 0.  1.
         12    1    3    3    0    0  0.11300597960E+02 -0.14294154528E+02  0.90019258898E+01  0.20323903111E+02  0.00000000000E+00 0. -1.
</event>
<event>
 7    1  0.1302069E-013  0.7246160E+02  0.7816164E-02  0.1226708E+00
        -11   -1    0    0    0    0  0.00000000000E+00  0.00000000000E+00  0.45593999997E+02  0.45594000000E+02  0.51100000000E-03 0.  1.
         11   -1    0    0    0    0 -0.00000000000E+00 -0.00000000000E+00 -0.45593999997E+02  0.45594000000E+02  0.51100000000E-03 0. -1.
    9900012    2    1    2    0    0  0.20405138724E+01 -0.11413314727E+02  0.14705458744E+02  0.72461602408E+02  0.70000041834E+02 0.  0.
         12    1    1    2    0    0 -0.20405138724E+01  0.11413314727E+02 -0.14705458744E+02  0.18726397592E+02  0.00000000000E+00 0. -1.
         11    1    3    3    0    0 -0.26113250551E+02 -0.18734359191E+01  0.92850107367E+01  0.27778103627E+02  0.51100000000E-03 0. -1.
        -11    1    3    3    0    0  0.16080600684E+02  0.49526076281E+01 -0.10641704684E+02  0.19908790007E+02  0.51100000000E-03 0.  1.
        -12    1    3    3    0    0  0.12073163739E+02 -0.14492486436E+02  0.16062152691E+02  0.24774708774E+02  0.00000000000E+00 0.  1.
</event>
<event>
 7    1  0.1302069E-013  0.7246140E+02  0.7816164E-02  0.1226708E+00
        -11   -1    0    0    0    0  0.00000000000E+00  0.00000000000E+00  0.45593999997E+02  0.45594000000E+02  0.51100000000E-03 0. -1.
         11   -1    0    0    0    0 -0.00000000000E+00 -0.00000000000E+00 -0.45593999997E+02  0.45594000000E+02  0.51100000000E-03 0.  1.
    9900012    2    1    2    0    0  0.68421954777E+01  0.17202003550E+02 -0.28215341227E+01  0.72461398068E+02  0.69999775643E+02 0.  0.
         12    1    1    2    0    0 -0.68421954777E+01 -0.17202003550E+02  0.28215341227E+01  0.18726601932E+02  0.00000000000E+00 0. -1.
         11    1    3    3    0    0 -0.55390603226E+01 -0.12202429649E+02  0.13276714990E+02  0.18864030317E+02  0.51100000000E-03 0. -1.
        -11    1    3    3    0    0 -0.11714460966E+01  0.27926795750E+02 -0.24847048211E+02  0.37398583020E+02  0.51100000000E-03 0.  1.
         12    1    3    3    0    0  0.13552701897E+02  0.14776374492E+01  0.87487990980E+01  0.16198784732E+02  0.00000000000E+00 0. -1.
</event>
<event>
 7    1  0.1302069E-013  0.7246157E+02  0.7816164E-02  0.1226708E+00
        -11   -1    0    0    0    0  0.00000000000E+00  0.00000000000E+00  0.45593999997E+02  0.45594000000E+02  0.51100000000E-03 0.  1.
         11   -1    0    0    0    0 -0.00000000000E+00 -0.00000000000E+00 -0.45593999997E+02  0.45594000000E+02  0.51100000000E-03 0. -1.
    9900012    2    1    2    0    0 -0.99349114457E+01 -0.12619605430E+02  0.96292394658E+01  0.72461570566E+02  0.70000000354E+02 0.  0.
         12    1    1    2    0    0  0.99349114457E+01  0.12619605430E+02 -0.96292394658E+01  0.18726429434E+02  0.00000000000E+00 0. -1.
         11    1    3    3    0    0 -0.36457088356E+01 -0.26786206864E+02 -0.19362398871E+02  0.33251985826E+02  0.51100000000E-03 0. -1.
        -11    1    3    3    0    0 -0.10576662067E+02  0.11605835550E+02  0.30229561606E+02  0.34064462339E+02  0.51100000000E-03 0.  1.
         12    1    3    3    0    0  0.42874594571E+01  0.25607658837E+01 -0.12379232693E+01  0.51451224016E+01  0.00000000000E+00 0. -1.
</event>
<event>
 7    1  0.1302069E-013  0.7246088E+02  0.7816164E-02  0.1226710E+00
        -11   -1    0    0    0    0  0.00000000000E+00  0.00000000000E+00  0.45593999997E+02  0.45594000000E+02  0.51100000000E-03 0. -1.
         11   -1    0    0    0    0 -0.00000000000E+00 -0.00000000000E+00 -0.45593999997E+02  0.45594000000E+02  0.51100000000E-03 0.  1.
    9900012    2    1    2    0    0 -0.12688183234E+02  0.49154943744E+01 -0.12866738731E+02  0.72460879445E+02  0.69999100034E+02 0.  0.
         12    1    1    2    0    0  0.12688183234E+02 -0.49154943744E+01  0.12866738731E+02  0.18727120555E+02  0.00000000000E+00 0. -1.
         11    1    3    3    0    0 -0.32212167491E+02 -0.83940175112E+01  0.22206397636E+01  0.33361872035E+02  0.51100000000E-03 0. -1.
        -11    1    3    3    0    0  0.25685006686E+02  0.14855338764E+02 -0.13177593119E+02  0.32466130335E+02  0.51100000000E-03 0.  1.
        -12    1    3    3    0    0 -0.61610224287E+01 -0.15458268784E+01 -0.19097853761E+01  0.66328770747E+01  0.00000000000E+00 0.  1.
</event>
<event>
 7    1  0.1302069E-013  0.7246158E+02  0.7816164E-02  0.1226708E+00
        -11   -1    0    0    0    0  0.00000000000E+00  0.00000000000E+00  0.45593999997E+02  0.45594000000E+02  0.51100000000E-03 0. -1.
         11   -1    0    0    0    0 -0.00000000000E+00 -0.00000000000E+00 -0.45593999997E+02  0.45594000000E+02  0.51100000000E-03 0.  1.
    9900012    2    1    2    0    0 -0.87987473738E+01  0.12884034517E+02  0.10356753712E+02  0.72461584213E+02  0.70000018131E+02 0.  0.
         12    1    1    2    0    0  0.87987473738E+01 -0.12884034517E+02 -0.10356753712E+02  0.18726415787E+02  0.00000000000E+00 0. -1.
         11    1    3    3    0    0 -0.28287695012E+02  0.21636344526E+01  0.10585684714E+02  0.30280880507E+02  0.51100000000E-03 0. -1.
        -11    1    3    3    0    0 -0.14672194599E+01  0.18033686165E+02  0.61109579311E+01  0.19097391883E+02  0.51100000000E-03 0.  1.
         12    1    3    3    0    0  0.20956167098E+02 -0.73132860998E+01 -0.63398889333E+01  0.23083311823E+02  0.00000000000E+00 0. -1.
</event>
<event>
 7    1  0.1302069E-013  0.7246182E+02  0.7816164E-02  0.1226707E+00
        -11   -1    0    0    0    0  0.00000000000E+00  0.00000000000E+00  0.45593999997E+02  0.45594000000E+02  0.51100000000E-03 0.  1.
         11   -1    0    0    0    0 -0.00000000000E+00 -0.00000000000E+00 -0.45593999997E+02  0.45594000000E+02  0.51100000000E-03 0. -1.
    9900012    2    1    2    0    0  0.16596751543E+02  0.72360376472E+01 -0.47809401902E+01  0.72461820686E+02  0.70000326180E+02 0.  0.
         12    1    1    2    0    0 -0.16596751543E+02 -0.72360376472E+01  0.47809401902E+01  0.18726179314E+02  0.00000000000E+00 0. -1.
         11    1    3    3    0    0  0.14926057725E+02  0.24011442721E+02 -0.13529109948E+02  0.31342836454E+02  0.51100000000E-03 0.  1.
        -11    1    3    3    0    0  0.39344672497E+01 -0.25964825500E+02 -0.25452466362E+01  0.26384284650E+02  0.51100000000E-03 0. -1.
         12    1    3    3    0    0 -0.22637734315E+01  0.91894204260E+01  0.11293416394E+02  0.14734699581E+02  0.00000000000E+00 0. -1.
</event>
<event>
 7    1  0.1302069E-013  0.7246155E+02  0.7816164E-02  0.1226708E+00
        -11   -1    0    0    0    0  0.00000000000E+00  0.00000000000E+00  0.45593999997E+02  0.45594000000E+02  0.51100000000E-03 0.  1.
         11   -1    0    0    0    0 -0.00000000000E+00 -0.00000000000E+00 -0.45593999997E+02  0.45594000000E+02  0.51100000000E-03 0. -1.
    9900012    2    1    2    0    0 -0.10751744865E+02  0.96555084148E+01  0.11910120052E+02  0.72461552925E+02  0.69999977373E+02 0.  0.
         12    1    1    2    0    0  0.10751744865E+02 -0.96555084148E+01 -0.11910120052E+02  0.18726447075E+02  0.00000000000E+00 0. -1.
         11    1    3    3    0    0 -0.28923321534E+01  0.97671348513E+01 -0.13443730655E+02  0.16867021156E+02  0.51100000000E-03 0. -1.
        -11    1    3    3    0    0  0.12777739640E+02  0.75799218279E+01  0.29642229777E+02  0.33157014818E+02  0.51100000000E-03 0.  1.
        -12    1    3    3    0    0 -0.20637152352E+02 -0.76915482644E+01 -0.42883790698E+01  0.22437516951E+02  0.00000000000E+00 0.  1.
</event>
<event>
 7    1  0.1302069E-013  0.7246151E+02  0.7816164E-02  0.1226708E+00
        -11   -1    0    0    0    0  0.00000000000E+00  0.00000000000E+00  0.45593999997E+02  0.45594000000E+02  0.51100000000E-03 0.  1.
         11   -1    0    0    0    0 -0.00000000000E+00 -0.00000000000E+00 -0.45593999997E+02  0.45594000000E+02  0.51100000000E-03 0. -1.
    9900012    2    1    2    0    0  0.93518255259E+01  0.38733822893E+00  0.16219574664E+02  0.72461514109E+02  0.69999926807E+02 0.  0.
         12    1    1    2    0    0 -0.93518255259E+01 -0.38733822893E+00 -0.16219574664E+02  0.18726485891E+02  0.00000000000E+00 0. -1.
         11    1    3    3    0    0 -0.25007327620E+02 -0.43674519068E+01  0.64388969208E+01  0.26189701500E+02  0.51100000000E-03 0. -1.
        -11    1    3    3    0    0  0.21577823362E+02  0.16067779610E+02  0.11205837943E+02  0.29143555152E+02  0.51100000000E-03 0.  1.
         12    1    3    3    0    0  0.12781329784E+02 -0.11312989474E+02 -0.14251602003E+01  0.17128257456E+02  0.00000000000E+00 0. -1.
</event>
<event>
 7    1  0.1302069E-013  0.7246155E+02  0.7816164E-02  0.1226708E+00
        -11   -1    0    0    0    0  0.00000000000E+00  0.00000000000E+00  0.45593999997E+02  0.45594000000E+02  0.51100000000E-03 0. -1.
         11   -1    0    0    0    0 -0.00000000000E+00 -0.00000000000E+00 -0.45593999997E+02  0.45594000000E+02  0.51100000000E-03 0.  1.
    9900012    2    1    2    0    0  0.15857615244E+02 -0.13120048249E+01  0.98739395399E+01  0.72461548122E+02  0.69999971117E+02 0.  0.
         12    1    1    2    0    0 -0.15857615244E+02  0.13120048249E+01 -0.98739395399E+01  0.18726451878E+02  0.00000000000E+00 0. -1.
         11    1    3    3    0    0 -0.15973769676E+01  0.92921690656E+01  0.31844839282E+02  0.33211290374E+02  0.51100000000E-03 0. -1.
        -11    1    3    3    0    0  0.15336268658E+02 -0.47947169734E+01  0.36673942355E+00  0.16072490326E+02  0.51100000000E-03 0.  1.
         12    1    3    3    0    0  0.21187235533E+01 -0.58094569171E+01 -0.22337639166E+02  0.23177767422E+02  0.00000000000E+00 0. -1.
</event>
<event>
 7    1  0.1302069E-013  0.7246157E+02  0.7816164E-02  0.1226708E+00
        -11   -1    0    0    0    0  0.00000000000E+00  0.00000000000E+00  0.45593999997E+02  0.45594000000E+02  0.51100000000E-03 0.  1.
         11   -1    0    0    0    0 -0.00000000000E+00 -0.00000000000E+00 -0.45593999997E+02  0.45594000000E+02  0.51100000000E-03 0. -1.
    9900012    2    1    2    0    0 -0.53407400683E+01 -0.67784911948E+01  0.16619499862E+02  0.72461568866E+02  0.69999998139E+02 0.  0.
         12    1    1    2    0    0  0.53407400683E+01  0.67784911948E+01 -0.16619499862E+02  0.18726431134E+02  0.00000000000E+00 0. -1.
         11    1    3    3    0    0 -0.12120632736E+02 -0.12367169093E+02 -0.59262412409E+01  0.18302375387E+02  0.51100000000E-03 0. -1.
        -11    1    3    3    0    0  0.18319964690E+02 -0.13539109471E+02  0.22213006447E+02  0.31817389069E+02  0.51100000000E-03 0.  1.
        -12    1    3    3    0    0 -0.11540072023E+02  0.19127787369E+02  0.33273465588E+00  0.22341804409E+02  0.00000000000E+00 0.  1.
</event>
<event>
 7    1  0.1302069E-013  0.7246158E+02  0.7816164E-02  0.1226708E+00
        -11   -1    0    0    0    0  0.00000000000E+00  0.00000000000E+00  0.45593999997E+02  0.45594000000E+02  0.51100000000E-03 0. -1.
         11   -1    0    0    0    0 -0.00000000000E+00 -0.00000000000E+00 -0.45593999997E+02  0.45594000000E+02  0.51100000000E-03 0.  1.
    9900012    2    1    2    0    0 -0.10326928378E+02 -0.14069408665E+02 -0.67885911895E+01  0.72461583358E+02  0.70000017018E+02 0.  0.
         12    1    1    2    0    0  0.10326928378E+02  0.14069408665E+02  0.67885911895E+01  0.18726416642E+02  0.00000000000E+00 0. -1.
         11    1    3    3    0    0 -0.53949235434E+01  0.58226589342E+01  0.13176265417E+02  0.15382539703E+02  0.51100000000E-03 0. -1.
        -11    1    3    3    0    0  0.14295196452E+02 -0.27302723823E+02 -0.41353657004E+01  0.31094897001E+02  0.51100000000E-03 0.  1.
        -12    1    3    3    0    0 -0.19227201287E+02  0.74106562243E+01 -0.15829490906E+02  0.25984146654E+02  0.00000000000E+00 0.  1.
</event>
<event>
 7    1  0.1302069E-013  0.7246156E+02  0.7816164E-02  0.1226708E+00
        -11   -1    0    0    0    0  0.00000000000E+00  0.00000000000E+00  0.45593999997E+02  0.45594000000E+02  0.51100000000E-03 0. -1.
         11   -1    0    0    0    0 -0.00000000000E+00 -0.00000000000E+00 -0.45593999997E+02  0.45594000000E+02  0.51100000000E-03 0.  1.
    9900012    2    1    2    0    0 -0.82597776577E+01 -0.27185084937E+01 -0.16585092861E+02  0.72461560921E+02  0.69999987789E+02 0.  0.
         12    1    1    2    0    0  0.82597776577E+01  0.27185084937E+01  0.16585092861E+02  0.18726439079E+02  0.00000000000E+00 0. -1.
         11    1    3    3    0    0 -0.16402008869E+02  0.21407036687E+02 -0.19616662344E+02  0.33348171711E+02  0.51100000000E-03 0. -1.
        -11    1    3    3    0    0  0.12908330571E+02 -0.12384288336E+02  0.13713446456E+02  0.22540057890E+02  0.51100000000E-03 0.  1.
        -12    1    3    3    0    0 -0.47660993589E+01 -0.11741256845E+02 -0.10681876973E+02  0.16573331320E+02  0.00000000000E+00 0.  1.
</event>
<event>
 7    1  0.1302069E-013  0.7246155E+02  0.7816164E-02  0.1226708E+00
        -11   -1    0    0    0    0  0.00000000000E+00  0.00000000000E+00  0.45593999997E+02  0.45594000000E+02  0.51100000000E-03 0.  1.
         11   -1    0    0    0    0 -0.00000000000E+00 -0.00000000000E+00 -0.45593999997E+02  0.45594000000E+02  0.51100000000E-03 0. -1.
    9900012    2    1    2    0    0 -0.30609398911E+01 -0.17316183293E+02  0.64389594535E+01  0.72461554643E+02  0.69999979612E+02 0.  0.
         12    1    1    2    0    0  0.30609398911E+01  0.17316183293E+02 -0.64389594535E+01  0.18726445357E+02  0.00000000000E+00 0. -1.
         11    1    3    3    0    0 -0.26812003298E+02 -0.79413574425E+01  0.33997693096E+01  0.28169258253E+02  0.51100000000E-03 0. -1.
        -11    1    3    3    0    0  0.18480220234E+02 -0.13007712185E+02  0.17431332010E+02  0.28540680652E+02  0.51100000000E-03 0.  1.
         12    1    3    3    0    0  0.52708431733E+01  0.36328863349E+01 -0.14392141866E+02  0.15751615739E+02  0.00000000000E+00 0. -1.
</event>
<event>
 7    1  0.1302069E-013  0.7246161E+02  0.7816164E-02  0.1226708E+00
        -11   -1    0    0    0    0  0.00000000000E+00  0.00000000000E+00  0.45593999997E+02  0.45594000000E+02  0.51100000000E-03 0. -1.
         11   -1    0    0    0    0 -0.00000000000E+00 -0.00000000000E+00 -0.45593999997E+02  0.45594000000E+02  0.51100000000E-03 0.  1.
    9900012    2    1    2    0    0  0.17115757917E+02  0.70683570490E+01 -0.27869170031E+01  0.72461608280E+02  0.70000049484E+02 0.  0.
         12    1    1    2    0    0 -0.17115757917E+02 -0.70683570490E+01  0.27869170031E+01  0.18726391720E+02  0.00000000000E+00 0. -1.
         11    1    3    3    0    0  0.42600750488E+02  0.12694206997E+02 -0.22083725240E+01  0.44506670768E+02  0.51100000000E-03 0.  1.
        -11    1    3    3    0    0 -0.17274147504E+02 -0.84942408664E+01 -0.54814632434E+00  0.19257434007E+02  0.51100000000E-03 0. -1.
         12    1    3    3    0    0 -0.82108450668E+01  0.28683909184E+01 -0.30398154752E-01  0.86975035050E+01  0.00000000000E+00 0. -1.
</event>
<event>
 7    1  0.1302069E-013  0.7246160E+02  0.7816164E-02  0.1226708E+00
        -11   -1    0    0    0    0  0.00000000000E+00  0.00000000000E+00  0.45593999997E+02  0.45594000000E+02  0.51100000000E-03 0.  1.
         11   -1    0    0    0    0 -0.00000000000E+00 -0.00000000000E+00 -0.45593999997E+02  0.45594000000E+02  0.51100000000E-03 0. -1.
    9900012    2    1    2    0    0 -0.61931816216E+00  0.24976839756E+01  0.18548749772E+02  0.72461598895E+02  0.70000037258E+02 0.  0.
         12    1    1    2    0    0  0.61931816216E+00 -0.24976839756E+01 -0.18548749772E+02  0.18726401105E+02  0.00000000000E+00 0. -1.
         11    1    3    3    0    0 -0.18319605399E+02 -0.13872932745E+02 -0.39586464570E+00  0.22983100617E+02  0.51100000000E-03 0. -1.
        -11    1    3    3    0    0  0.16240427229E+02  0.58866421256E+01 -0.90843358634E+01  0.19517407370E+02  0.51100000000E-03 0.  1.
         12    1    3    3    0    0  0.14598600072E+01  0.10483974595E+02  0.28028950281E+02  0.29961090908E+02  0.00000000000E+00 0. -1.
</event>
<event>
 7    1  0.1302069E-013  0.7246157E+02  0.7816164E-02  0.1226708E+00
        -11   -1    0    0    0    0  0.00000000000E+00  0.00000000000E+00  0.45593999997E+02  0.45594000000E+02  0.51100000000E-03 0. -1.
         11   -1    0    0    0    0 -0.00000000000E+00 -0.00000000000E+00 -0.45593999997E+02  0.45594000000E+02  0.51100000000E-03 0.  1.
    9900012    2    1    2    0    0 -0.12296274991E+02  0.10168883547E+02 -0.98017698579E+01  0.72461567782E+02  0.69999996728E+02 0.  0.
         12    1    1    2    0    0  0.12296274991E+02 -0.10168883547E+02  0.98017698579E+01  0.18726432218E+02  0.00000000000E+00 0. -1.
         11    1    3    3    0    0  0.96262286861E+00 -0.98142054020E+01  0.36499079189E+01  0.10515089088E+02  0.51100000000E-03 0. -1.
        -11    1    3    3    0    0 -0.71388957494E+01  0.36612702286E+02 -0.20861740949E+02  0.42739513765E+02  0.51100000000E-03 0.  1.
        -12    1    3    3    0    0 -0.61200021103E+01 -0.16629613337E+02  0.74100631721E+01  0.19206964929E+02  0.00000000000E+00 0.  1.
</event>
<event>
 7    1  0.1302069E-013  0.7246164E+02  0.7816164E-02  0.1226708E+00
        -11   -1    0    0    0    0  0.00000000000E+00  0.00000000000E+00  0.45593999997E+02  0.45594000000E+02  0.51100000000E-03 0.  1.
         11   -1    0    0    0    0 -0.00000000000E+00 -0.00000000000E+00 -0.45593999997E+02  0.45594000000E+02  0.51100000000E-03 0. -1.
    9900012    2    1    2    0    0  0.84904617827E+01 -0.35186479330E+01  0.16315874757E+02  0.72461639071E+02  0.70000089595E+02 0.  0.
         12    1    1    2    0    0 -0.84904617827E+01  0.35186479330E+01 -0.16315874757E+02  0.18726360929E+02  0.00000000000E+00 0. -1.
         11    1    3    3    0    0  0.12352427247E+02 -0.17575377366E+02 -0.18941560082E+02  0.28640164927E+02  0.51100000000E-03 0. -1.
        -11    1    3    3    0    0 -0.90522592752E+01 -0.18147417400E+01  0.10818246048E+02  0.14222205644E+02  0.51100000000E-03 0.  1.
         12    1    3    3    0    0  0.51902938110E+01  0.15871471173E+02  0.24439188790E+02  0.29599268500E+02  0.00000000000E+00 0. -1.
</event>
<event>
 7    1  0.1302069E-013  0.7246150E+02  0.7816164E-02  0.1226708E+00
        -11   -1    0    0    0    0  0.00000000000E+00  0.00000000000E+00  0.45593999997E+02  0.45594000000E+02  0.51100000000E-03 0.  1.
         11   -1    0    0    0    0 -0.00000000000E+00 -0.00000000000E+00 -0.45593999997E+02  0.45594000000E+02  0.51100000000E-03 0. -1.
    9900012    2    1    2    0    0  0.12800876890E+02 -0.13541276188E+02 -0.18582611360E+01  0.72461501545E+02  0.69999910441E+02 0.  0.
         12    1    1    2    0    0 -0.12800876890E+02  0.13541276188E+02  0.18582611360E+01  0.18726498455E+02  0.00000000000E+00 0. -1.
         11    1    3    3    0    0  0.27405654212E+02 -0.10405064292E+01 -0.21267082797E+02  0.34705062273E+02  0.51100000000E-03 0. -1.
        -11    1    3    3    0    0 -0.36119270704E-01 -0.95054085259E+01  0.20749095746E+02  0.22822775256E+02  0.51100000000E-03 0.  1.
         12    1    3    3    0    0 -0.14568658051E+02 -0.29953612325E+01 -0.13402740852E+01  0.14933664016E+02  0.00000000000E+00 0. -1.
</event>
<event>
 7    1  0.1302069E-013  0.7246159E+02  0.7816164E-02  0.1226708E+00
        -11   -1    0    0    0    0  0.00000000000E+00  0.00000000000E+00  0.45593999997E+02  0.45594000000E+02  0.51100000000E-03 0. -1.
         11   -1    0    0    0    0 -0.00000000000E+00 -0.00000000000E+00 -0.45593999997E+02  0.45594000000E+02  0.51100000000E-03 0.  1.
    9900012    2    1    2    0    0  0.55437719596E+01  0.54894632557E+00 -0.17878581027E+02  0.72461590597E+02  0.70000026448E+02 0.  0.
         12    1    1    2    0    0 -0.55437719596E+01 -0.54894632557E+00  0.17878581027E+02  0.18726409403E+02  0.00000000000E+00 0. -1.
         11    1    3    3    0    0  0.22770262083E+02  0.20150466454E+02 -0.21918172516E+02  0.37482428155E+02  0.51100000000E-03 0. -1.
        -11    1    3    3    0    0 -0.11465218103E+02 -0.23603802560E+02 -0.11296085335E+01  0.26265314335E+02  0.51100000000E-03 0.  1.
        -12    1    3    3    0    0 -0.57612720205E+01  0.40022824313E+01  0.51692000234E+01  0.87138481073E+01  0.00000000000E+00 0.  1.
</event>
<event>
 7    1  0.1302069E-013  0.7246160E+02  0.7816164E-02  0.1226708E+00
        -11   -1    0    0    0    0  0.00000000000E+00  0.00000000000E+00  0.45593999997E+02  0.45594000000E+02  0.51100000000E-03 0. -1.
         11   -1    0    0    0    0 -0.00000000000E+00 -0.00000000000E+00 -0.45593999997E+02  0.45594000000E+02  0.51100000000E-03 0.  1.
    9900012    2    1    2    0    0 -0.18531318598E+02  0.18000971511E+01 -0.20069388632E+01  0.72461603594E+02  0.70000043379E+02 0.  0.
         12    1    1    2    0    0  0.18531318598E+02 -0.18000971511E+01  0.20069388632E+01  0.18726396406E+02  0.00000000000E+00 0. -1.
         11    1    3    3    0    0 -0.29970307124E+02  0.20621192726E+01 -0.12912594941E+02  0.32698727090E+02  0.51100000000E-03 0.  1.
        -11    1    3    3    0    0  0.22711905183E+02  0.76185351123E+01  0.10061027790E+02  0.25982628711E+02  0.51100000000E-03 0. -1.
         12    1    3    3    0    0 -0.11272916658E+02 -0.78805572338E+01  0.84462828785E+00  0.13780247793E+02  0.00000000000E+00 0. -1.
</event>
<event>
 7    1  0.1302069E-013  0.7246158E+02  0.7816164E-02  0.1226708E+00
        -11   -1    0    0    0    0  0.00000000000E+00  0.00000000000E+00  0.45593999997E+02  0.45594000000E+02  0.51100000000E-03 0.  1.
         11   -1    0    0    0    0 -0.00000000000E+00 -0.00000000000E+00 -0.45593999997E+02  0.45594000000E+02  0.51100000000E-03 0. -1.
    9900012    2    1    2    0    0 -0.93160079307E+01 -0.16069930479E+02  0.23765685813E+01  0.72461581560E+02  0.70000014675E+02 0.  0.
         12    1    1    2    0    0  0.93160079307E+01  0.16069930479E+02 -0.23765685813E+01  0.18726418440E+02  0.00000000000E+00 0. -1.
         11    1    3    3    0    0 -0.32638522759E+02 -0.65203779152E+01  0.19781370034E+02  0.38718097794E+02  0.51100000000E-03 0. -1.
        -11    1    3    3    0    0  0.11260658553E+02 -0.11041102297E+02 -0.54235169098E+01  0.16677017327E+02  0.51100000000E-03 0.  1.
         12    1    3    3    0    0  0.12061856275E+02  0.14915497330E+01 -0.11981284543E+02  0.17066466439E+02  0.00000000000E+00 0. -1.
</event>
<event>
 7    1  0.1302069E-013  0.7246157E+02  0.7816164E-02  0.1226708E+00
        -11   -1    0    0    0    0  0.00000000000E+00  0.00000000000E+00  0.45593999997E+02  0.45594000000E+02  0.51100000000E-03 0. -1.
         11   -1    0    0    0    0 -0.00000000000E+00 -0.00000000000E+00 -0.45593999997E+02  0.45594000000E+02  0.51100000000E-03 0.  1.
    9900012    2    1    2    0    0 -0.17255331843E+02  0.71119697205E+01 -0.15338643518E+01  0.72461566005E+02  0.69999994412E+02 0.  0.
         12    1    1    2    0    0  0.17255331843E+02 -0.71119697205E+01  0.15338643518E+01  0.18726433995E+02  0.00000000000E+00 0. -1.
         11    1    3    3    0    0 -0.32537474090E+02 -0.96973007432E+01 -0.12131466977E+02  0.36054089270E+02  0.51100000000E-03 0. -1.
        -11    1    3    3    0    0  0.42083877955E+01  0.22141774312E+02  0.66713874321E+01  0.23504810317E+02  0.51100000000E-03 0.  1.
         12    1    3    3    0    0  0.11073754451E+02 -0.53325038480E+01  0.39262151926E+01  0.12902666417E+02  0.00000000000E+00 0. -1.
</event>
<event>
 7    1  0.1302069E-013  0.7246161E+02  0.7816164E-02  0.1226708E+00
        -11   -1    0    0    0    0  0.00000000000E+00  0.00000000000E+00  0.45593999997E+02  0.45594000000E+02  0.51100000000E-03 0. -1.
         11   -1    0    0    0    0 -0.00000000000E+00 -0.00000000000E+00 -0.45593999997E+02  0.45594000000E+02  0.51100000000E-03 0.  1.
    9900012    2    1    2    0    0  0.22032766142E+01 -0.65074323220E+01 -0.17420583665E+02  0.72461605833E+02  0.70000046296E+02 0.  0.
         12    1    1    2    0    0 -0.22032766142E+01  0.65074323220E+01  0.17420583665E+02  0.18726394167E+02  0.00000000000E+00 0. -1.
         11    1    3    3    0    0 -0.17837930594E+02  0.19044121812E+02 -0.88778943878E+01  0.27562426462E+02  0.51100000000E-03 0.  1.
        -11    1    3    3    0    0  0.21731833676E+02 -0.10750039461E+02 -0.15163325833E+02  0.28596545140E+02  0.51100000000E-03 0. -1.
        -12    1    3    3    0    0 -0.16906264680E+01 -0.14801514673E+02  0.66206365555E+01  0.16302634231E+02  0.00000000000E+00 0.  1.
</event>
<event>
 7    1  0.1302069E-013  0.7246157E+02  0.7816164E-02  0.1226708E+00
        -11   -1    0    0    0    0  0.00000000000E+00  0.00000000000E+00  0.45593999997E+02  0.45594000000E+02  0.51100000000E-03 0. -1.
         11   -1    0    0    0    0 -0.00000000000E+00 -0.00000000000E+00 -0.45593999997E+02  0.45594000000E+02  0.51100000000E-03 0.  1.
    9900012    2    1    2    0    0 -0.78552015399E+01  0.61948043793E+01 -0.15830334774E+02  0.72461567035E+02  0.69999995754E+02 0.  0.
         12    1    1    2    0    0  0.78552015399E+01 -0.61948043793E+01  0.15830334774E+02  0.18726432965E+02  0.00000000000E+00 0. -1.
         11    1    3    3    0    0 -0.21679000648E+02  0.87657146885E+01 -0.10516202230E+02  0.25639955786E+02  0.51100000000E-03 0. -1.
        -11    1    3    3    0    0  0.21815779519E+02  0.60073430293E+01 -0.18463291356E+02  0.29204614948E+02  0.51100000000E-03 0.  1.
         12    1    3    3    0    0 -0.79919804111E+01 -0.85782533385E+01  0.13149158812E+02  0.17616996302E+02  0.00000000000E+00 0. -1.
</event>
<event>
 7    1  0.1302069E-013  0.7246154E+02  0.7816164E-02  0.1226708E+00
        -11   -1    0    0    0    0  0.00000000000E+00  0.00000000000E+00  0.45593999997E+02  0.45594000000E+02  0.51100000000E-03 0. -1.
         11   -1    0    0    0    0 -0.00000000000E+00 -0.00000000000E+00 -0.45593999997E+02  0.45594000000E+02  0.51100000000E-03 0.  1.
    9900012    2    1    2    0    0 -0.12086288840E+02 -0.13955794555E+02  0.31364858810E+01  0.72461544829E+02  0.69999966827E+02 0.  0.
         12    1    1    2    0    0  0.12086288840E+02  0.13955794555E+02 -0.31364858810E+01  0.18726455171E+02  0.00000000000E+00 0. -1.
         11    1    3    3    0    0 -0.25054503702E+02  0.62924869765E+01  0.14842434374E+02  0.29792975792E+02  0.51100000000E-03 0. -1.
        -11    1    3    3    0    0  0.31609224100E+01 -0.13917243073E+02 -0.22582014529E+02  0.26713825366E+02  0.51100000000E-03 0.  1.
        -12    1    3    3    0    0  0.98072924518E+01 -0.63310384585E+01  0.10876066036E+02  0.15954743672E+02  0.00000000000E+00 0.  1.
</event>
<event>
 7    1  0.1302069E-013  0.7246160E+02  0.7816164E-02  0.1226708E+00
        -11   -1    0    0    0    0  0.00000000000E+00  0.00000000000E+00  0.45593999997E+02  0.45594000000E+02  0.51100000000E-03 0.  1.
         11   -1    0    0    0    0 -0.00000000000E+00 -0.00000000000E+00 -0.45593999997E+02  0.45594000000E+02  0.51100000000E-03 0. -1.
    9900012    2    1    2    0    0 -0.12919736957E+02  0.12239458862E+02  0.58270177886E+01  0.72461599049E+02  0.70000037458E+02 0.  0.
         12    1    1    2    0    0  0.12919736957E+02 -0.12239458862E+02 -0.58270177886E+01  0.18726400951E+02  0.00000000000E+00 0. -1.
         11    1    3    3    0    0  0.21024528786E+02  0.33310719715E+01 -0.75234660595E+01  0.22577187446E+02  0.51100000000E-03 0. -1.
        -11    1    3    3    0    0 -0.33503128716E+02 -0.35478221422E+01  0.32598265197E+01  0.33847793797E+02  0.51100000000E-03 0.  1.
        -12    1    3    3    0    0 -0.44113702728E+00  0.12456209033E+02  0.10090657328E+02  0.16036617806E+02  0.00000000000E+00 0.  1.
</event>
<event>
 7    1  0.1302069E-013  0.7246145E+02  0.7816164E-02  0.1226708E+00
        -11   -1    0    0    0    0  0.00000000000E+00  0.00000000000E+00  0.45593999997E+02  0.45594000000E+02  0.51100000000E-03 0.  1.
         11   -1    0    0    0    0 -0.00000000000E+00 -0.00000000000E+00 -0.45593999997E+02  0.45594000000E+02  0.51100000000E-03 0. -1.
    9900012    2    1    2    0    0 -0.11681987972E+02  0.14321161695E+02  0.30198057681E+01  0.72461448204E+02  0.69999840954E+02 0.  0.
         12    1    1    2    0    0  0.11681987972E+02 -0.14321161695E+02 -0.30198057681E+01  0.18726551796E+02  0.00000000000E+00 0. -1.
         11    1    3    3    0    0 -0.21261177456E+02  0.19787169716E+01 -0.14106038281E+02  0.25591664735E+02  0.51100000000E-03 0. -1.
        -11    1    3    3    0    0  0.25232406182E+02  0.94032514281E+01  0.64295304725E+01  0.27684550231E+02  0.51100000000E-03 0.  1.
        -12    1    3    3    0    0 -0.15653216698E+02  0.29391932958E+01  0.10696313577E+02  0.19185233237E+02  0.00000000000E+00 0.  1.
</event>
<event>
 7    1  0.1302069E-013  0.7246168E+02  0.7816164E-02  0.1226708E+00
        -11   -1    0    0    0    0  0.00000000000E+00  0.00000000000E+00  0.45593999997E+02  0.45594000000E+02  0.51100000000E-03 0.  1.
         11   -1    0    0    0    0 -0.00000000000E+00 -0.00000000000E+00 -0.45593999997E+02  0.45594000000E+02  0.51100000000E-03 0. -1.
    9900012    2    1    2    0    0 -0.13053003240E+02  0.91370327128E+01  0.98391530595E+01  0.72461676460E+02  0.70000138301E+02 0.  0.
         12    1    1    2    0    0  0.13053003240E+02 -0.91370327128E+01 -0.98391530595E+01  0.18726323540E+02  0.00000000000E+00 0. -1.
         11    1    3    3    0    0 -0.18811252794E+02 -0.17737003983E+02  0.22171589986E+02  0.34059417857E+02  0.51100000000E-03 0.  1.
        -11    1    3    3    0    0  0.10461020986E+02  0.96735297422E+01 -0.14631552437E+02  0.20422841740E+02  0.51100000000E-03 0. -1.
         12    1    3    3    0    0 -0.47027714327E+01  0.17200506954E+02  0.22991155102E+01  0.17979416863E+02  0.00000000000E+00 0. -1.
</event>
<event>
 7    1  0.1302069E-013  0.7246161E+02  0.7816164E-02  0.1226708E+00
        -11   -1    0    0    0    0  0.00000000000E+00  0.00000000000E+00  0.45593999997E+02  0.45594000000E+02  0.51100000000E-03 0. -1.
         11   -1    0    0    0    0 -0.00000000000E+00 -0.00000000000E+00 -0.45593999997E+02  0.45594000000E+02  0.51100000000E-03 0.  1.
    9900012    2    1    2    0    0 -0.77558785664E+01 -0.12740178197E+02 -0.11323063836E+02  0.72461613069E+02  0.70000055722E+02 0.  0.
         12    1    1    2    0    0  0.77558785664E+01  0.12740178197E+02  0.11323063836E+02  0.18726386931E+02  0.00000000000E+00 0. -1.
         11    1    3    3    0    0 -0.11800750878E+02 -0.89113425712E+00  0.14114794208E+02  0.18419534667E+02  0.51100000000E-03 0. -1.
        -11    1    3    3    0    0  0.19489188034E+01 -0.29136126818E+02 -0.21298161303E+02  0.36143102324E+02  0.51100000000E-03 0.  1.
        -12    1    3    3    0    0  0.20959535081E+01  0.17287082878E+02 -0.41396967412E+01  0.17898976078E+02  0.00000000000E+00 0.  1.
</event>
<event>
 7    1  0.1302069E-013  0.7246158E+02  0.7816164E-02  0.1226708E+00
        -11   -1    0    0    0    0  0.00000000000E+00  0.00000000000E+00  0.45593999997E+02  0.45594000000E+02  0.51100000000E-03 0. -1.
         11   -1    0    0    0    0 -0.00000000000E+00 -0.00000000000E+00 -0.45593999997E+02  0.45594000000E+02  0.51100000000E-03 0.  1.
    9900012    2    1    2    0    0 -0.35413628086E+01 -0.50546449220E+01 -0.17680163919E+02  0.72461577970E+02  0.70000009999E+02 0.  0.
         12    1    1    2    0    0  0.35413628086E+01  0.50546449220E+01  0.17680163919E+02  0.18726422030E+02  0.00000000000E+00 0. -1.
         11    1    3    3    0    0 -0.23662210440E+02  0.10544477588E+02 -0.14542672081E+02  0.29708172647E+02  0.51100000000E-03 0. -1.
        -11    1    3    3    0    0  0.21973303599E+02  0.62790728564E+00  0.75411056387E+01  0.23239806650E+02  0.51100000000E-03 0.  1.
        -12    1    3    3    0    0 -0.18524559674E+01 -0.16227029796E+02 -0.10678597476E+02  0.19513598673E+02  0.00000000000E+00 0.  1.
</event>
<event>
 7    1  0.1302069E-013  0.7246157E+02  0.7816164E-02  0.1226708E+00
        -11   -1    0    0    0    0  0.00000000000E+00  0.00000000000E+00  0.45593999997E+02  0.45594000000E+02  0.51100000000E-03 0. -1.
         11   -1    0    0    0    0 -0.00000000000E+00 -0.00000000000E+00 -0.45593999997E+02  0.45594000000E+02  0.51100000000E-03 0.  1.
    9900012    2    1    2    0    0  0.16241224670E+01  0.18276281125E+02 -0.37441920258E+01  0.72461569494E+02  0.69999998958E+02 0.  0.
         12    1    1    2    0    0 -0.16241224670E+01 -0.18276281125E+02  0.37441920258E+01  0.18726430506E+02  0.00000000000E+00 0. -1.
         11    1    3    3    0    0 -0.33815542820E+01  0.26730710069E+01  0.23232822109E+02  0.23629308949E+02  0.51100000000E-03 0. -1.
        -11    1    3    3    0    0  0.12512341556E+01 -0.11171724741E+02 -0.16218374435E+02  0.19733440911E+02  0.51100000000E-03 0.  1.
        -12    1    3    3    0    0  0.37544425935E+01  0.26774934860E+02 -0.10758639700E+02  0.29098819635E+02  0.00000000000E+00 0.  1.
</event>
<event>
 7    1  0.1302069E-013  0.7246151E+02  0.7816164E-02  0.1226708E+00
        -11   -1    0    0    0    0  0.00000000000E+00  0.00000000000E+00  0.45593999997E+02  0.45594000000E+02  0.51100000000E-03 0.  1.
         11   -1    0    0    0    0 -0.00000000000E+00 -0.00000000000E+00 -0.45593999997E+02  0.45594000000E+02  0.51100000000E-03 0. -1.
    9900012    2    1    2    0    0 -0.16667078059E+02 -0.79549298169E+01 -0.30998376098E+01  0.72461510937E+02  0.69999922677E+02 0.  0.
         12    1    1    2    0    0  0.16667078059E+02  0.79549298169E+01  0.30998376098E+01  0.18726489063E+02  0.00000000000E+00 0. -1.
         11    1    3    3    0    0 -0.30650694185E+02 -0.14928598897E+02 -0.16235216818E+02  0.37761228587E+02  0.51100000000E-03 0. -1.
        -11    1    3    3    0    0  0.20968819250E+02  0.28556891401E+01  0.24752339005E+01  0.21306645075E+02  0.51100000000E-03 0.  1.
        -12    1    3    3    0    0 -0.69852031243E+01  0.41179799401E+01  0.10660145308E+02  0.13393637275E+02  0.00000000000E+00 0.  1.
</event>
<event>
 7    1  0.1302069E-013  0.7246171E+02  0.7816164E-02  0.1226708E+00
        -11   -1    0    0    0    0  0.00000000000E+00  0.00000000000E+00  0.45593999997E+02  0.45594000000E+02  0.51100000000E-03 0.  1.
         11   -1    0    0    0    0 -0.00000000000E+00 -0.00000000000E+00 -0.45593999997E+02  0.45594000000E+02  0.51100000000E-03 0. -1.
    9900012    2    1    2    0    0  0.12905417082E+02 -0.13568820975E+02 -0.10559303602E+00  0.72461712525E+02  0.70000185282E+02 0.  0.
         12    1    1    2    0    0 -0.12905417082E+02  0.13568820975E+02  0.10559303602E+00  0.18726287475E+02  0.00000000000E+00 0. -1.
         11    1    3    3    0    0  0.12304415681E+02  0.24739432005E+02  0.56518421589E+01  0.28202508066E+02  0.51100000000E-03 0. -1.
        -11    1    3    3    0    0 -0.90856295402E+01 -0.27098166165E+02 -0.65005390638E+00  0.28588141667E+02  0.51100000000E-03 0.  1.
         12    1    3    3    0    0  0.96866309415E+01 -0.11210086815E+02 -0.51073812886E+01  0.15671062792E+02  0.00000000000E+00 0. -1.
</event>
<event>
 7    1  0.1302069E-013  0.7246155E+02  0.7816164E-02  0.1226708E+00
        -11   -1    0    0    0    0  0.00000000000E+00  0.00000000000E+00  0.45593999997E+02  0.45594000000E+02  0.51100000000E-03 0. -1.
         11   -1    0    0    0    0 -0.00000000000E+00 -0.00000000000E+00 -0.45593999997E+02  0.45594000000E+02  0.51100000000E-03 0.  1.
    9900012    2    1    2    0    0 -0.15967557598E+02  0.71410361076E+01 -0.66874956415E+01  0.72461551049E+02  0.69999974930E+02 0.  0.
         12    1    1    2    0    0  0.15967557598E+02 -0.71410361076E+01  0.66874956415E+01  0.18726448951E+02  0.00000000000E+00 0. -1.
         11    1    3    3    0    0  0.11866472956E+02  0.17072344569E+02  0.10109853783E+02  0.23118980801E+02  0.51100000000E-03 0. -1.
        -11    1    3    3    0    0 -0.27407804673E+02  0.33903226893E+01 -0.21719499195E+02  0.35134295076E+02  0.51100000000E-03 0.  1.
        -12    1    3    3    0    0 -0.42622588121E+00 -0.13321631151E+02  0.49221497708E+01  0.14208275173E+02  0.00000000000E+00 0.  1.
</event>
<event>
 7    1  0.1302069E-013  0.7246157E+02  0.7816164E-02  0.1226708E+00
        -11   -1    0    0    0    0  0.00000000000E+00  0.00000000000E+00  0.45593999997E+02  0.45594000000E+02  0.51100000000E-03 0. -1.
         11   -1    0    0    0    0 -0.00000000000E+00 -0.00000000000E+00 -0.45593999997E+02  0.45594000000E+02  0.51100000000E-03 0.  1.
    9900012    2    1    2    0    0  0.18781605780E+01 -0.11058042674E+02 -0.14995716290E+02  0.72461566757E+02  0.69999995392E+02 0.  0.
         12    1    1    2    0    0 -0.18781605780E+01  0.11058042674E+02  0.14995716290E+02  0.18726433243E+02  0.00000000000E+00 0. -1.
         11    1    3    3    0    0  0.26905684525E+01 -0.33330178983E+02 -0.13713433598E+01  0.33466708420E+02  0.51100000000E-03 0. -1.
        -11    1    3    3    0    0  0.98022122000E+00  0.99380816611E+01 -0.21875762521E+02  0.24047355091E+02  0.51100000000E-03 0.  1.
         12    1    3    3    0    0 -0.17926290945E+01  0.12334054647E+02  0.82513895906E+01  0.14947503246E+02  0.00000000000E+00 0. -1.
</event>
<event>
 7    1  0.1302069E-013  0.7246157E+02  0.7816164E-02  0.1226708E+00
        -11   -1    0    0    0    0  0.00000000000E+00  0.00000000000E+00  0.45593999997E+02  0.45594000000E+02  0.51100000000E-03 0.  1.
         11   -1    0    0    0    0 -0.00000000000E+00 -0.00000000000E+00 -0.45593999997E+02  0.45594000000E+02  0.51100000000E-03 0. -1.
    9900012    2    1    2    0    0 -0.20018140167E+01  0.30427025271E+01  0.18368824746E+02  0.72461574271E+02  0.70000005180E+02 0.  0.
         12    1    1    2    0    0  0.20018140167E+01 -0.30427025271E+01 -0.18368824746E+02  0.18726425729E+02  0.00000000000E+00 0. -1.
         11    1    3    3    0    0 -0.48400165278E+01  0.20462432458E+02 -0.52755103053E+01  0.21678743306E+02  0.51100000000E-03 0. -1.
        -11    1    3    3    0    0 -0.29887139774E+01 -0.28691760389E+02  0.67015974537E+01  0.29615214573E+02  0.51100000000E-03 0.  1.
        -12    1    3    3    0    0  0.58269164885E+01  0.11272030459E+02  0.16942737598E+02  0.21167616393E+02  0.00000000000E+00 0.  1.
</event>
<event>
 7    1  0.1302069E-013  0.7246156E+02  0.7816164E-02  0.1226708E+00
        -11   -1    0    0    0    0  0.00000000000E+00  0.00000000000E+00  0.45593999997E+02  0.45594000000E+02  0.51100000000E-03 0. -1.
         11   -1    0    0    0    0 -0.00000000000E+00 -0.00000000000E+00 -0.45593999997E+02  0.45594000000E+02  0.51100000000E-03 0.  1.
    9900012    2    1    2    0    0  0.79096960287E+01  0.10045451117E+02 -0.13682297216E+02  0.72461557825E+02  0.69999983757E+02 0.  0.
         12    1    1    2    0    0 -0.79096960287E+01 -0.10045451117E+02  0.13682297216E+02  0.18726442175E+02  0.00000000000E+00 0. -1.
         11    1    3    3    0    0  0.34851448645E+02 -0.60916661010E+01 -0.74561295268E+01  0.36156959722E+02  0.51100000000E-03 0.  1.
        -11    1    3    3    0    0 -0.25122083955E+02  0.13726111257E+02 -0.10989529108E+02  0.30664229695E+02  0.51100000000E-03 0. -1.
        -12    1    3    3    0    0 -0.18196686607E+01  0.24110059609E+01  0.47633614190E+01  0.56403684087E+01  0.00000000000E+00 0.  1.
</event>
<event>
 7    1  0.1302069E-013  0.7246153E+02  0.7816164E-02  0.1226708E+00
        -11   -1    0    0    0    0  0.00000000000E+00  0.00000000000E+00  0.45593999997E+02  0.45594000000E+02  0.51100000000E-03 0. -1.
         11   -1    0    0    0    0 -0.00000000000E+00 -0.00000000000E+00 -0.45593999997E+02  0.45594000000E+02  0.51100000000E-03 0.  1.
    9900012    2    1    2    0    0  0.10113714322E+02 -0.10709352426E+02 -0.11563004601E+02  0.72461534178E+02  0.69999952952E+02 0.  0.
         12    1    1    2    0    0 -0.10113714322E+02  0.10709352426E+02  0.11563004601E+02  0.18726465822E+02  0.00000000000E+00 0. -1.
         11    1    3    3    0    0 -0.39979029316E+01 -0.33737173964E+01  0.12454864275E+02  0.13508843077E+02  0.51100000000E-03 0. -1.
        -11    1    3    3    0    0  0.23633767122E+02  0.16041336528E+02 -0.11722962200E+02  0.30875674389E+02  0.51100000000E-03 0.  1.
        -12    1    3    3    0    0 -0.95221498679E+01 -0.23376971557E+02 -0.12294906676E+02  0.28077016712E+02  0.00000000000E+00 0.  1.
</event>
<event>
 7    1  0.1302069E-013  0.7246155E+02  0.7816164E-02  0.1226708E+00
        -11   -1    0    0    0    0  0.00000000000E+00  0.00000000000E+00  0.45593999997E+02  0.45594000000E+02  0.51100000000E-03 0.  1.
         11   -1    0    0    0    0 -0.00000000000E+00 -0.00000000000E+00 -0.45593999997E+02  0.45594000000E+02  0.51100000000E-03 0. -1.
    9900012    2    1    2    0    0  0.11153732310E+01 -0.11148640498E+02  0.15004788203E+02  0.72461550485E+02  0.69999974195E+02 0.  0.
         12    1    1    2    0    0 -0.11153732310E+01  0.11148640498E+02 -0.15004788203E+02  0.18726449515E+02  0.00000000000E+00 0. -1.
         11    1    3    3    0    0  0.11895120993E+02  0.15509931545E+02 -0.82922956455E+01  0.21232382045E+02  0.51100000000E-03 0. -1.
        -11    1    3    3    0    0 -0.27458872602E+01 -0.18706516271E+02  0.31860288064E+02  0.37047963556E+02  0.51100000000E-03 0.  1.
         12    1    3    3    0    0 -0.80338605016E+01 -0.79520557719E+01 -0.85632042153E+01  0.14181204885E+02  0.00000000000E+00 0. -1.
</event>
<event>
 7    1  0.1302069E-013  0.7246137E+02  0.7816164E-02  0.1226709E+00
        -11   -1    0    0    0    0  0.00000000000E+00  0.00000000000E+00  0.45593999997E+02  0.45594000000E+02  0.51100000000E-03 0.  1.
         11   -1    0    0    0    0 -0.00000000000E+00 -0.00000000000E+00 -0.45593999997E+02  0.45594000000E+02  0.51100000000E-03 0. -1.
    9900012    2    1    2    0    0 -0.15316301104E+02 -0.99232111580E+01 -0.41985256382E+01  0.72461366113E+02  0.69999734016E+02 0.  0.
         12    1    1    2    0    0  0.15316301104E+02  0.99232111580E+01  0.41985256382E+01  0.18726633887E+02  0.00000000000E+00 0. -1.
         11    1    3    3    0    0 -0.28431814561E+01  0.41932120220E+01 -0.24292647437E+02  0.24815306317E+02  0.51100000000E-03 0. -1.
        -11    1    3    3    0    0  0.66525932466E+01  0.16728327031E+00  0.22679454582E+02  0.23635622289E+02  0.51100000000E-03 0.  1.
        -12    1    3    3    0    0 -0.19125712894E+02 -0.14283706450E+02 -0.25853327829E+01  0.24010437507E+02  0.00000000000E+00 0.  1.
</event>
<event>
 7    1  0.1302069E-013  0.7246155E+02  0.7816164E-02  0.1226708E+00
        -11   -1    0    0    0    0  0.00000000000E+00  0.00000000000E+00  0.45593999997E+02  0.45594000000E+02  0.51100000000E-03 0.  1.
         11   -1    0    0    0    0 -0.00000000000E+00 -0.00000000000E+00 -0.45593999997E+02  0.45594000000E+02  0.51100000000E-03 0. -1.
    9900012    2    1    2    0    0  0.14295983748E+00 -0.11591067708E+02  0.14707365080E+02  0.72461551439E+02  0.69999975437E+02 0.  0.
         12    1    1    2    0    0 -0.14295983748E+00  0.11591067708E+02 -0.14707365080E+02  0.18726448561E+02  0.00000000000E+00 0. -1.
         11    1    3    3    0    0 -0.45473785798E+01 -0.60032026866E+01  0.35047325523E+02  0.35847344685E+02  0.51100000000E-03 0. -1.
        -11    1    3    3    0    0 -0.90739306669E+01 -0.11904489224E+02 -0.12807753965E+02  0.19700041709E+02  0.51100000000E-03 0.  1.
         12    1    3    3    0    0  0.13764269084E+02  0.63166242025E+01 -0.75322064773E+01  0.16914165045E+02  0.00000000000E+00 0. -1.
</event>
<event>
 7    1  0.1302069E-013  0.7246154E+02  0.7816164E-02  0.1226708E+00
        -11   -1    0    0    0    0  0.00000000000E+00  0.00000000000E+00  0.45593999997E+02  0.45594000000E+02  0.51100000000E-03 0.  1.
         11   -1    0    0    0    0 -0.00000000000E+00 -0.00000000000E+00 -0.45593999997E+02  0.45594000000E+02  0.51100000000E-03 0. -1.
    9900012    2    1    2    0    0  0.42756089978E+01 -0.18220443238E+02 -0.64408498576E+00  0.72461541991E+02  0.69999963129E+02 0.  0.
         12    1    1    2    0    0 -0.42756089978E+01  0.18220443238E+02  0.64408498576E+00  0.18726458009E+02  0.00000000000E+00 0. -1.
         11    1    3    3    0    0 -0.20612981360E+02  0.52839798522E+01  0.14427522982E+02  0.25709314718E+02  0.51100000000E-03 0. -1.
        -11    1    3    3    0    0  0.24655327614E+02 -0.23685453571E+02 -0.26114411568E+01  0.34288562463E+02  0.51100000000E-03 0.  1.
        -12    1    3    3    0    0  0.23326274397E+00  0.18103048022E+00 -0.12460166811E+02  0.12463664810E+02  0.00000000000E+00 0.  1.
</event>
<event>
 7    1  0.1302069E-013  0.7246096E+02  0.7816164E-02  0.1226710E+00
        -11   -1    0    0    0    0  0.00000000000E+00  0.00000000000E+00  0.45593999997E+02  0.45594000000E+02  0.51100000000E-03 0. -1.
         11   -1    0    0    0    0 -0.00000000000E+00 -0.00000000000E+00 -0.45593999997E+02  0.45594000000E+02  0.51100000000E-03 0.  1.
    9900012    2    1    2    0    0  0.62215400085E+01 -0.58726481801E+01 -0.16658527598E+02  0.72460958097E+02  0.69999202495E+02 0.  0.
         12    1    1    2    0    0 -0.62215400085E+01  0.58726481801E+01  0.16658527598E+02  0.18727041903E+02  0.00000000000E+00 0. -1.
         11    1    3    3    0    0  0.18887183509E+02 -0.29140133165E+02 -0.13346713012E+02  0.37202255446E+02  0.51100000000E-03 0. -1.
        -11    1    3    3    0    0 -0.39665175175E+01 -0.20358803062E+01 -0.69483352562E+01  0.82557515062E+01  0.51100000000E-03 0.  1.
         12    1    3    3    0    0 -0.86991259832E+01  0.25303365291E+02  0.36365206703E+01  0.27002951145E+02  0.00000000000E+00 0. -1.
</event>
<event>
 7    1  0.1302069E-013  0.7246159E+02  0.7816164E-02  0.1226708E+00
        -11   -1    0    0    0    0  0.00000000000E+00  0.00000000000E+00  0.45593999997E+02  0.45594000000E+02  0.51100000000E-03 0.  1.
         11   -1    0    0    0    0 -0.00000000000E+00 -0.00000000000E+00 -0.45593999997E+02  0.45594000000E+02  0.51100000000E-03 0. -1.
    9900012    2    1    2    0    0  0.18344919588E+01 -0.17770830080E+02  0.56134337347E+01  0.72461590820E+02  0.70000026739E+02 0.  0.
         12    1    1    2    0    0 -0.18344919588E+01  0.17770830080E+02 -0.56134337347E+01  0.18726409180E+02  0.00000000000E+00 0. -1.
         11    1    3    3    0    0  0.10036426153E+01  0.17768811740E+02 -0.26861118041E+01  0.17998699009E+02  0.51100000000E-03 0. -1.
        -11    1    3    3    0    0 -0.19583263275E+02 -0.19921570143E+02  0.20472410888E+01  0.28010075934E+02  0.51100000000E-03 0.  1.
        -12    1    3    3    0    0  0.20414112619E+02 -0.15618071676E+02  0.62523044501E+01  0.26452815877E+02  0.00000000000E+00 0.  1.
</event>
<event>
 7    1  0.1302069E-013  0.7246155E+02  0.7816164E-02  0.1226708E+00
        -11   -1    0    0    0    0  0.00000000000E+00  0.00000000000E+00  0.45593999997E+02  0.45594000000E+02  0.51100000000E-03 0.  1.
         11   -1    0    0    0    0 -0.00000000000E+00 -0.00000000000E+00 -0.45593999997E+02  0.45594000000E+02  0.51100000000E-03 0. -1.
    9900012    2    1    2    0    0  0.69985400570E+01 -0.84744831723E+01  0.15161907869E+02  0.72461551373E+02  0.69999975351E+02 0.  0.
         12    1    1    2    0    0 -0.69985400570E+01  0.84744831723E+01 -0.15161907869E+02  0.18726448627E+02  0.00000000000E+00 0. -1.
         11    1    3    3    0    0  0.14929016755E+02 -0.30728326627E+02 -0.92591091475E+01  0.35395433336E+02  0.51100000000E-03 0. -1.
        -11    1    3    3    0    0  0.14334360243E+01  0.16217849740E+02  0.11121823430E+02  0.19717209380E+02  0.51100000000E-03 0.  1.
        -12    1    3    3    0    0 -0.93639127224E+01  0.60359937137E+01  0.13299193586E+02  0.17348908658E+02  0.00000000000E+00 0.  1.
</event>
<event>
 7    1  0.1302069E-013  0.7246143E+02  0.7816164E-02  0.1226708E+00
        -11   -1    0    0    0    0  0.00000000000E+00  0.00000000000E+00  0.45593999997E+02  0.45594000000E+02  0.51100000000E-03 0. -1.
         11   -1    0    0    0    0 -0.00000000000E+00 -0.00000000000E+00 -0.45593999997E+02  0.45594000000E+02  0.51100000000E-03 0.  1.
    9900012    2    1    2    0    0  0.86562970886E+01 -0.88808492434E+01 -0.14031510480E+02  0.72461434674E+02  0.69999823329E+02 0.  0.
         12    1    1    2    0    0 -0.86562970886E+01  0.88808492434E+01  0.14031510480E+02  0.18726565326E+02  0.00000000000E+00 0. -1.
         11    1    3    3    0    0  0.19118615977E+02  0.11289936984E+02 -0.48539304835E+01  0.22727621859E+02  0.51100000000E-03 0. -1.
        -11    1    3    3    0    0 -0.10331113489E+02  0.21532256610E+01 -0.21705120214E+02  0.24134633423E+02  0.51100000000E-03 0.  1.
        -12    1    3    3    0    0 -0.13120539982E+00 -0.22324011888E+02  0.12527540218E+02  0.25599179392E+02  0.00000000000E+00 0.  1.
</event>
<event>
 7    1  0.1302069E-013  0.7246165E+02  0.7816164E-02  0.1226708E+00
        -11   -1    0    0    0    0  0.00000000000E+00  0.00000000000E+00  0.45593999997E+02  0.45594000000E+02  0.51100000000E-03 0. -1.
         11   -1    0    0    0    0 -0.00000000000E+00 -0.00000000000E+00 -0.45593999997E+02  0.45594000000E+02  0.51100000000E-03 0.  1.
    9900012    2    1    2    0    0 -0.15700908868E+02  0.53787947741E+01 -0.86733061062E+01  0.72461649279E+02  0.70000102893E+02 0.  0.
         12    1    1    2    0    0  0.15700908868E+02 -0.53787947741E+01  0.86733061062E+01  0.18726350721E+02  0.00000000000E+00 0. -1.
         11    1    3    3    0    0  0.29427729282E+01 -0.22042098094E+02  0.18348737599E+02  0.28830368930E+02  0.51100000000E-03 0. -1.
        -11    1    3    3    0    0 -0.72219509127E+01  0.10880868164E+02 -0.54645971176E+01  0.14156683542E+02  0.51100000000E-03 0.  1.
         12    1    3    3    0    0 -0.11421730883E+02  0.16540024704E+02 -0.21557446588E+02  0.29474596807E+02  0.00000000000E+00 0. -1.
</event>
<event>
 7    1  0.1302069E-013  0.7246164E+02  0.7816164E-02  0.1226708E+00
        -11   -1    0    0    0    0  0.00000000000E+00  0.00000000000E+00  0.45593999997E+02  0.45594000000E+02  0.51100000000E-03 0.  1.
         11   -1    0    0    0    0 -0.00000000000E+00 -0.00000000000E+00 -0.45593999997E+02  0.45594000000E+02  0.51100000000E-03 0. -1.
    9900012    2    1    2    0    0  0.14355630259E+02 -0.11959321144E+02  0.12518380921E+01  0.72461639410E+02  0.70000090036E+02 0.  0.
         12    1    1    2    0    0 -0.14355630259E+02  0.11959321144E+02 -0.12518380921E+01  0.18726360590E+02  0.00000000000E+00 0. -1.
         11    1    3    3    0    0  0.76932058033E+01 -0.32738256891E+02  0.25988939322E+01  0.33730299876E+02  0.51100000000E-03 0. -1.
        -11    1    3    3    0    0  0.87787997436E+01  0.19189882229E+02 -0.14312616864E+02  0.25498429494E+02  0.51100000000E-03 0.  1.
         12    1    3    3    0    0 -0.21163752882E+01  0.15890535180E+01  0.12965561024E+02  0.13232910039E+02  0.00000000000E+00 0. -1.
</event>
<event>
 7    1  0.1302069E-013  0.7246151E+02  0.7816164E-02  0.1226708E+00
        -11   -1    0    0    0    0  0.00000000000E+00  0.00000000000E+00  0.45593999997E+02  0.45594000000E+02  0.51100000000E-03 0. -1.
         11   -1    0    0    0    0 -0.00000000000E+00 -0.00000000000E+00 -0.45593999997E+02  0.45594000000E+02  0.51100000000E-03 0.  1.
    9900012    2    1    2    0    0 -0.17513253031E+01  0.18641282389E+02 -0.34195378123E+00  0.72461508556E+02  0.69999919574E+02 0.  0.
         12    1    1    2    0    0  0.17513253031E+01 -0.18641282389E+02  0.34195378123E+00  0.18726491444E+02  0.00000000000E+00 0. -1.
         11    1    3    3    0    0 -0.28773311148E+02 -0.19779932828E+01  0.28313446696E+01  0.28979862056E+02  0.51100000000E-03 0. -1.
        -11    1    3    3    0    0  0.26658028532E+02  0.63868377869E+01 -0.78189754647E+01  0.28505763622E+02  0.51100000000E-03 0.  1.
        -12    1    3    3    0    0  0.36395731345E+00  0.14232437885E+02  0.46456770139E+01  0.14975882878E+02  0.00000000000E+00 0.  1.
</event>
<event>
 7    1  0.1302069E-013  0.7246161E+02  0.7816164E-02  0.1226708E+00
        -11   -1    0    0    0    0  0.00000000000E+00  0.00000000000E+00  0.45593999997E+02  0.45594000000E+02  0.51100000000E-03 0.  1.
         11   -1    0    0    0    0 -0.00000000000E+00 -0.00000000000E+00 -0.45593999997E+02  0.45594000000E+02  0.51100000000E-03 0. -1.
    9900012    2    1    2    0    0  0.24429629221E+00 -0.17445619127E+02  0.68020816878E+01  0.72461611595E+02  0.70000053801E+02 0.  0.
         12    1    1    2    0    0 -0.24429629221E+00  0.17445619127E+02 -0.68020816878E+01  0.18726388405E+02  0.00000000000E+00 0. -1.
         11    1    3    3    0    0  0.59623619289E+01  0.22818257736E+02  0.11597421913E+02  0.26281606518E+02  0.51100000000E-03 0.  1.
        -11    1    3    3    0    0 -0.12039737665E+02 -0.36349186161E+02 -0.23929759698E+01  0.38365934784E+02  0.51100000000E-03 0. -1.
         12    1    3    3    0    0  0.63216720280E+01 -0.39146907020E+01 -0.24023642549E+01  0.78140702924E+01  0.00000000000E+00 0. -1.
</event>
<event>
 7    1  0.1302069E-013  0.7246159E+02  0.7816164E-02  0.1226708E+00
        -11   -1    0    0    0    0  0.00000000000E+00  0.00000000000E+00  0.45593999997E+02  0.45594000000E+02  0.51100000000E-03 0.  1.
         11   -1    0    0    0    0 -0.00000000000E+00 -0.00000000000E+00 -0.45593999997E+02  0.45594000000E+02  0.51100000000E-03 0. -1.
    9900012    2    1    2    0    0 -0.10123567439E+02  0.10577115637E+02  0.11675458268E+02  0.72461593012E+02  0.70000029594E+02 0.  0.
         12    1    1    2    0    0  0.10123567439E+02 -0.10577115637E+02 -0.11675458268E+02  0.18726406988E+02  0.00000000000E+00 0. -1.
         11    1    3    3    0    0 -0.19783058131E+02  0.21727014782E+02 -0.10657621860E+02  0.31257278581E+02  0.51100000000E-03 0. -1.
        -11    1    3    3    0    0  0.99701432398E+01 -0.11898535513E+02  0.29849252408E+02  0.33644565284E+02  0.51100000000E-03 0.  1.
        -12    1    3    3    0    0 -0.31065254841E+00  0.74863636874E+00 -0.75161722798E+01  0.75597491465E+01  0.00000000000E+00 0.  1.
</event>
<event>
 7    1  0.1302069E-013  0.7246111E+02  0.7816164E-02  0.1226709E+00
        -11   -1    0    0    0    0  0.00000000000E+00  0.00000000000E+00  0.45593999997E+02  0.45594000000E+02  0.51100000000E-03 0.  1.
         11   -1    0    0    0    0 -0.00000000000E+00 -0.00000000000E+00 -0.45593999997E+02  0.45594000000E+02  0.51100000000E-03 0. -1.
    9900012    2    1    2    0    0  0.10356029558E+02 -0.13361858695E+02  0.80566511284E+01  0.72461114424E+02  0.69999406141E+02 0.  0.
         12    1    1    2    0    0 -0.10356029558E+02  0.13361858695E+02 -0.80566511284E+01  0.18726885576E+02  0.00000000000E+00 0. -1.
         11    1    3    3    0    0 -0.49815392906E+01 -0.13080847736E+02 -0.26643674272E+02  0.30096672410E+02  0.51100000000E-03 0. -1.
        -11    1    3    3    0    0 -0.63428813050E+00  0.67242889196E+01  0.11548258747E+02  0.13378365493E+02  0.51100000000E-03 0.  1.
         12    1    3    3    0    0  0.15971856979E+02 -0.70052998788E+01  0.23152066653E+02  0.28986076521E+02  0.00000000000E+00 0. -1.
</event>
<event>
 7    1  0.1302069E-013  0.7246157E+02  0.7816164E-02  0.1226708E+00
        -11   -1    0    0    0    0  0.00000000000E+00  0.00000000000E+00  0.45593999997E+02  0.45594000000E+02  0.51100000000E-03 0.  1.
         11   -1    0    0    0    0 -0.00000000000E+00 -0.00000000000E+00 -0.45593999997E+02  0.45594000000E+02  0.51100000000E-03 0. -1.
    9900012    2    1    2    0    0 -0.10731167842E+02  0.44769013437E+00  0.15340173417E+02  0.72461566539E+02  0.69999995108E+02 0.  0.
         12    1    1    2    0    0  0.10731167842E+02 -0.44769013437E+00 -0.15340173417E+02  0.18726433461E+02  0.00000000000E+00 0. -1.
         11    1    3    3    0    0 -0.51089075997E+01  0.68364594844E+01 -0.19791418911E+02  0.21553152390E+02  0.51100000000E-03 0. -1.
        -11    1    3    3    0    0  0.12125669775E+02  0.64308758576E+01  0.20146246786E+02  0.24377434066E+02  0.51100000000E-03 0.  1.
         12    1    3    3    0    0 -0.17747930018E+02 -0.12819645208E+02  0.14985345542E+02  0.26530980083E+02  0.00000000000E+00 0. -1.
</event>
<event>
 7    1  0.1302069E-013  0.7246144E+02  0.7816164E-02  0.1226708E+00
        -11   -1    0    0    0    0  0.00000000000E+00  0.00000000000E+00  0.45593999997E+02  0.45594000000E+02  0.51100000000E-03 0.  1.
         11   -1    0    0    0    0 -0.00000000000E+00 -0.00000000000E+00 -0.45593999997E+02  0.45594000000E+02  0.51100000000E-03 0. -1.
    9900012    2    1    2    0    0  0.16470048616E+02  0.87139190557E+01  0.18678994061E+01  0.72461443057E+02  0.69999834250E+02 0.  0.
         12    1    1    2    0    0 -0.16470048616E+02 -0.87139190557E+01 -0.18678994061E+01  0.18726556943E+02  0.00000000000E+00 0. -1.
         11    1    3    3    0    0 -0.78317499640E+00 -0.11036994553E+02 -0.18838824095E+02  0.21847881027E+02  0.51100000000E-03 0. -1.
        -11    1    3    3    0    0 -0.15220138994E+01  0.21555011323E+02  0.23064002745E+02  0.31605114497E+02  0.51100000000E-03 0.  1.
        -12    1    3    3    0    0  0.18775237512E+02 -0.18040977145E+01 -0.23572792445E+01  0.19008447534E+02  0.00000000000E+00 0.  1.
</event>
<event>
 7    1  0.1302069E-013  0.7246154E+02  0.7816164E-02  0.1226708E+00
        -11   -1    0    0    0    0  0.00000000000E+00  0.00000000000E+00  0.45593999997E+02  0.45594000000E+02  0.51100000000E-03 0. -1.
         11   -1    0    0    0    0 -0.00000000000E+00 -0.00000000000E+00 -0.45593999997E+02  0.45594000000E+02  0.51100000000E-03 0.  1.
    9900012    2    1    2    0    0 -0.13077953307E+02 -0.91600620062E+01  0.97847190180E+01  0.72461539445E+02  0.69999959813E+02 0.  0.
         12    1    1    2    0    0  0.13077953307E+02  0.91600620062E+01 -0.97847190180E+01  0.18726460555E+02  0.00000000000E+00 0. -1.
         11    1    3    3    0    0  0.28885992752E+01  0.69900495849E+01  0.21536140329E+02  0.22825646530E+02  0.51100000000E-03 0. -1.
        -11    1    3    3    0    0  0.67135298896E+01 -0.23362966024E+02 -0.42105608564E+01  0.24670396997E+02  0.51100000000E-03 0.  1.
        -12    1    3    3    0    0 -0.22680082472E+02  0.72128544329E+01 -0.75408604550E+01  0.24965495917E+02  0.00000000000E+00 0.  1.
</event>
<event>
 7    1  0.1302069E-013  0.7246163E+02  0.7816164E-02  0.1226708E+00
        -11   -1    0    0    0    0  0.00000000000E+00  0.00000000000E+00  0.45593999997E+02  0.45594000000E+02  0.51100000000E-03 0.  1.
         11   -1    0    0    0    0 -0.00000000000E+00 -0.00000000000E+00 -0.45593999997E+02  0.45594000000E+02  0.51100000000E-03 0. -1.
    9900012    2    1    2    0    0  0.13201691429E+02  0.12776987617E+02 -0.36250452067E+01  0.72461627637E+02  0.70000074699E+02 0.  0.
         12    1    1    2    0    0 -0.13201691429E+02 -0.12776987617E+02  0.36250452067E+01  0.18726372363E+02  0.00000000000E+00 0. -1.
         11    1    3    3    0    0 -0.13796556649E+02  0.26739258371E+02 -0.10436669208E+02  0.31847401432E+02  0.51100000000E-03 0. -1.
        -11    1    3    3    0    0  0.26045406874E+02 -0.97156147934E+01  0.14818083982E+02  0.31501301611E+02  0.51100000000E-03 0.  1.
         12    1    3    3    0    0  0.95284120383E+00 -0.42466559604E+01 -0.80064599815E+01  0.91129245932E+01  0.00000000000E+00 0. -1.
</event>
<event>
 7    1  0.1782789E-013  0.7246118E+02  0.7816164E-02  0.1226709E+00
        -11   -1    0    0    0    0  0.00000000000E+00  0.00000000000E+00  0.45593999997E+02  0.45594000000E+02  0.51100000000E-03 0. -1.
         11   -1    0    0    0    0 -0.00000000000E+00 -0.00000000000E+00 -0.45593999997E+02  0.45594000000E+02  0.51100000000E-03 0.  1.
    9900012    2    1    2    0    0 -0.40623562364E+00  0.73699281985E+01 -0.17210835747E+02  0.72461181366E+02  0.69999493347E+02 0.  0.
         12    1    1    2    0    0  0.40623562364E+00 -0.73699281985E+01  0.17210835747E+02  0.18726818634E+02  0.00000000000E+00 0. -1.
         11    1    3    3    0    0  0.68378126519E+01  0.14328412825E+02  0.52807345609E+01  0.16731564592E+02  0.51100000000E-03 0. -1.
        -11    1    3    3    0    0  0.12069682581E+00 -0.26155243584E+02 -0.12777014788E+01  0.26186711439E+02  0.51100000000E-03 0.  1.
        -12    1    3    3    0    0 -0.73647451014E+01  0.19196758958E+02 -0.21213868829E+02  0.29542905335E+02  0.00000000000E+00 0.  1.
</event>
<event>
 7    1  0.1302069E-013  0.7246160E+02  0.7816164E-02  0.1226708E+00
        -11   -1    0    0    0    0  0.00000000000E+00  0.00000000000E+00  0.45593999997E+02  0.45594000000E+02  0.51100000000E-03 0.  1.
         11   -1    0    0    0    0 -0.00000000000E+00 -0.00000000000E+00 -0.45593999997E+02  0.45594000000E+02  0.51100000000E-03 0. -1.
    9900012    2    1    2    0    0  0.10140105129E+02  0.83931052024E+00  0.15721066877E+02  0.72461598372E+02  0.70000036577E+02 0.  0.
         12    1    1    2    0    0 -0.10140105129E+02 -0.83931052024E+00 -0.15721066877E+02  0.18726401628E+02  0.00000000000E+00 0. -1.
         11    1    3    3    0    0  0.13630259793E+02 -0.16549129272E+02  0.42989934182E+01  0.21866389880E+02  0.51100000000E-03 0. -1.
        -11    1    3    3    0    0  0.95135147708E+01  0.23143425665E+02  0.21642152030E+02  0.33083347164E+02  0.51100000000E-03 0.  1.
        -12    1    3    3    0    0 -0.13003669435E+02 -0.57549858727E+01 -0.10220078572E+02  0.17511861328E+02  0.00000000000E+00 0.  1.
</event>
<event>
 7    1  0.1302069E-013  0.7246155E+02  0.7816164E-02  0.1226708E+00
        -11   -1    0    0    0    0  0.00000000000E+00  0.00000000000E+00  0.45593999997E+02  0.45594000000E+02  0.51100000000E-03 0.  1.
         11   -1    0    0    0    0 -0.00000000000E+00 -0.00000000000E+00 -0.45593999997E+02  0.45594000000E+02  0.51100000000E-03 0. -1.
    9900012    2    1    2    0    0  0.11650492990E+02  0.84414636579E+01  0.11986977457E+02  0.72461550145E+02  0.69999973752E+02 0.  0.
         12    1    1    2    0    0 -0.11650492990E+02 -0.84414636579E+01 -0.11986977457E+02  0.18726449855E+02  0.00000000000E+00 0. -1.
         11    1    3    3    0    0  0.88448816847E+01  0.27553723425E+02 -0.11348860432E+02  0.31084340752E+02  0.51100000000E-03 0. -1.
        -11    1    3    3    0    0  0.14419332668E+02 -0.66816191825E+01  0.57256095248E+01  0.16892122252E+02  0.51100000000E-03 0.  1.
         12    1    3    3    0    0 -0.11613721363E+02 -0.12430640585E+02  0.17610228365E+02  0.24485087141E+02  0.00000000000E+00 0. -1.
</event>
<event>
 7    1  0.1302069E-013  0.7246150E+02  0.7816164E-02  0.1226708E+00
        -11   -1    0    0    0    0  0.00000000000E+00  0.00000000000E+00  0.45593999997E+02  0.45594000000E+02  0.51100000000E-03 0. -1.
         11   -1    0    0    0    0 -0.00000000000E+00 -0.00000000000E+00 -0.45593999997E+02  0.45594000000E+02  0.51100000000E-03 0.  1.
    9900012    2    1    2    0    0  0.41484858183E+01 -0.14472511885E+02 -0.11136353721E+02  0.72461497148E+02  0.69999904714E+02 0.  0.
         12    1    1    2    0    0 -0.41484858183E+01  0.14472511885E+02  0.11136353721E+02  0.18726502852E+02  0.00000000000E+00 0. -1.
         11    1    3    3    0    0  0.19989983517E+02 -0.58817784523E+01  0.11434130590E+01  0.20868688327E+02  0.51100000000E-03 0. -1.
        -11    1    3    3    0    0 -0.13825755931E+02 -0.16304446304E+02 -0.27248438409E+02  0.34633277240E+02  0.51100000000E-03 0.  1.
        -12    1    3    3    0    0 -0.20157417679E+01  0.77137128712E+01  0.14968671629E+02  0.16959531582E+02  0.00000000000E+00 0.  1.
</event>
<event>
 7    1  0.1302069E-013  0.7246152E+02  0.7816164E-02  0.1226708E+00
        -11   -1    0    0    0    0  0.00000000000E+00  0.00000000000E+00  0.45593999997E+02  0.45594000000E+02  0.51100000000E-03 0.  1.
         11   -1    0    0    0    0 -0.00000000000E+00 -0.00000000000E+00 -0.45593999997E+02  0.45594000000E+02  0.51100000000E-03 0. -1.
    9900012    2    1    2    0    0 -0.13601056872E+02 -0.10073746969E+02  0.80132268890E+01  0.72461523257E+02  0.69999938725E+02 0.  0.
         12    1    1    2    0    0  0.13601056872E+02  0.10073746969E+02 -0.80132268890E+01  0.18726476743E+02  0.00000000000E+00 0. -1.
         11    1    3    3    0    0  0.66603559693E+01  0.15130412780E+02 -0.61445251162E+01  0.17636465680E+02  0.51100000000E-03 0.  1.
        -11    1    3    3    0    0 -0.11607083658E+02 -0.27748577657E+02 -0.78113354571E+01  0.31076114862E+02  0.51100000000E-03 0. -1.
        -12    1    3    3    0    0 -0.86543291842E+01  0.25444179085E+01  0.21969087462E+02  0.23748942714E+02  0.00000000000E+00 0.  1.
</event>
<event>
 7    1  0.1302069E-013  0.7246155E+02  0.7816164E-02  0.1226708E+00
        -11   -1    0    0    0    0  0.00000000000E+00  0.00000000000E+00  0.45593999997E+02  0.45594000000E+02  0.51100000000E-03 0.  1.
         11   -1    0    0    0    0 -0.00000000000E+00 -0.00000000000E+00 -0.45593999997E+02  0.45594000000E+02  0.51100000000E-03 0. -1.
    9900012    2    1    2    0    0 -0.16601164253E+02 -0.18326605777E+01  0.84689114850E+01  0.72461554499E+02  0.69999979424E+02 0.  0.
         12    1    1    2    0    0  0.16601164253E+02  0.18326605777E+01 -0.84689114850E+01  0.18726445501E+02  0.00000000000E+00 0. -1.
         11    1    3    3    0    0  0.51736828574E+01 -0.96331842984E+01 -0.27100701553E+02  0.29223505248E+02  0.51100000000E-03 0. -1.
        -11    1    3    3    0    0 -0.18378811192E+02  0.42993103795E+01  0.32149662595E+02  0.37280900952E+02  0.51100000000E-03 0.  1.
         12    1    3    3    0    0 -0.33960359190E+01  0.35012133412E+01  0.34199504438E+01  0.59571482995E+01  0.00000000000E+00 0. -1.
</event>
<event>
 7    1  0.1302069E-013  0.7246154E+02  0.7816164E-02  0.1226708E+00
        -11   -1    0    0    0    0  0.00000000000E+00  0.00000000000E+00  0.45593999997E+02  0.45594000000E+02  0.51100000000E-03 0. -1.
         11   -1    0    0    0    0 -0.00000000000E+00 -0.00000000000E+00 -0.45593999997E+02  0.45594000000E+02  0.51100000000E-03 0.  1.
    9900012    2    1    2    0    0 -0.94443160986E+01  0.14784186385E+02 -0.65507896378E+01  0.72461544956E+02  0.69999966992E+02 0.  0.
         12    1    1    2    0    0  0.94443160986E+01 -0.14784186385E+02  0.65507896378E+01  0.18726455044E+02  0.00000000000E+00 0. -1.
         11    1    3    3    0    0 -0.17494731170E+01 -0.99674374885E+01  0.17610271134E+02  0.20310886636E+02  0.51100000000E-03 0. -1.
        -11    1    3    3    0    0  0.12843453374E+02  0.21181719191E+02 -0.17261223176E+02  0.30192206746E+02  0.51100000000E-03 0.  1.
        -12    1    3    3    0    0 -0.20538296355E+02  0.35699046834E+01 -0.68998375960E+01  0.21958451573E+02  0.00000000000E+00 0.  1.
</event>
<event>
 7    1  0.1302069E-013  0.7246159E+02  0.7816164E-02  0.1226708E+00
        -11   -1    0    0    0    0  0.00000000000E+00  0.00000000000E+00  0.45593999997E+02  0.45594000000E+02  0.51100000000E-03 0. -1.
         11   -1    0    0    0    0 -0.00000000000E+00 -0.00000000000E+00 -0.45593999997E+02  0.45594000000E+02  0.51100000000E-03 0.  1.
    9900012    2    1    2    0    0 -0.15535020027E+02 -0.10133719786E+02 -0.25786082323E+01  0.72461592326E+02  0.70000028701E+02 0.  0.
         12    1    1    2    0    0  0.15535020027E+02  0.10133719786E+02  0.25786082323E+01  0.18726407674E+02  0.00000000000E+00 0. -1.
         11    1    3    3    0    0  0.24705461511E+02 -0.12298847001E+02  0.69823447649E-01  0.27597578546E+02  0.51100000000E-03 0. -1.
        -11    1    3    3    0    0 -0.27353079482E+02  0.23666566152E+01  0.74977424184E+01  0.28460642338E+02  0.51100000000E-03 0.  1.
        -12    1    3    3    0    0 -0.12887402055E+02 -0.20152940009E+00 -0.10146174098E+02  0.16403371442E+02  0.00000000000E+00 0.  1.
</event>
<event>
 7    1  0.1302069E-013  0.7246150E+02  0.7816164E-02  0.1226708E+00
        -11   -1    0    0    0    0  0.00000000000E+00  0.00000000000E+00  0.45593999997E+02  0.45594000000E+02  0.51100000000E-03 0. -1.
         11   -1    0    0    0    0 -0.00000000000E+00 -0.00000000000E+00 -0.45593999997E+02  0.45594000000E+02  0.51100000000E-03 0.  1.
    9900012    2    1    2    0    0  0.86002109820E+01  0.96848779011E+01 -0.13524839276E+02  0.72461500959E+02  0.69999909677E+02 0.  0.
         12    1    1    2    0    0 -0.86002109820E+01 -0.96848779011E+01  0.13524839276E+02  0.18726499041E+02  0.00000000000E+00 0. -1.
         11    1    3    3    0    0  0.18928168806E+02  0.31919050444E+02 -0.65568457329E+01  0.37684129045E+02  0.51100000000E-03 0. -1.
        -11    1    3    3    0    0 -0.12182581757E+02 -0.67555619677E+01 -0.12010228755E+02  0.18392892941E+02  0.51100000000E-03 0.  1.
        -12    1    3    3    0    0  0.18546239324E+01 -0.15478610576E+02  0.50422352111E+01  0.16384478973E+02  0.00000000000E+00 0.  1.
</event>
<event>
 7    1  0.1302069E-013  0.7246155E+02  0.7816164E-02  0.1226708E+00
        -11   -1    0    0    0    0  0.00000000000E+00  0.00000000000E+00  0.45593999997E+02  0.45594000000E+02  0.51100000000E-03 0.  1.
         11   -1    0    0    0    0 -0.00000000000E+00 -0.00000000000E+00 -0.45593999997E+02  0.45594000000E+02  0.51100000000E-03 0. -1.
    9900012    2    1    2    0    0 -0.31869533939E+01  0.45538746308E+01  0.17882544212E+02  0.72461552564E+02  0.69999976903E+02 0.  0.
         12    1    1    2    0    0  0.31869533939E+01 -0.45538746308E+01 -0.17882544212E+02  0.18726447436E+02  0.00000000000E+00 0. -1.
         11    1    3    3    0    0 -0.12277313645E+01  0.15712600009E+02 -0.16779801187E+02  0.23020748283E+02  0.51100000000E-03 0. -1.
        -11    1    3    3    0    0 -0.14903125580E+02 -0.52077430062E+01  0.30910736769E+02  0.34708750872E+02  0.51100000000E-03 0.  1.
         12    1    3    3    0    0  0.12943903551E+02 -0.59509823718E+01  0.37516086309E+01  0.14732053409E+02  0.00000000000E+00 0. -1.
</event>
<event>
 7    1  0.1302069E-013  0.7246131E+02  0.7816164E-02  0.1226709E+00
        -11   -1    0    0    0    0  0.00000000000E+00  0.00000000000E+00  0.45593999997E+02  0.45594000000E+02  0.51100000000E-03 0. -1.
         11   -1    0    0    0    0 -0.00000000000E+00 -0.00000000000E+00 -0.45593999997E+02  0.45594000000E+02  0.51100000000E-03 0.  1.
    9900012    2    1    2    0    0 -0.69065802256E+01 -0.16379593121E+02 -0.58904140889E+01  0.72461310508E+02  0.69999661579E+02 0.  0.
         12    1    1    2    0    0  0.69065802256E+01  0.16379593121E+02  0.58904140889E+01  0.18726689492E+02  0.00000000000E+00 0. -1.
         11    1    3    3    0    0  0.52115260085E+01 -0.98352563337E+00  0.25807297983E+01  0.58980922815E+01  0.51100000000E-03 0. -1.
        -11    1    3    3    0    0 -0.23845168143E+02  0.23165711563E+01  0.19883479134E+02  0.31133764443E+02  0.51100000000E-03 0.  1.
        -12    1    3    3    0    0  0.11727061908E+02 -0.17712638644E+02 -0.28354623021E+02  0.35429453783E+02  0.00000000000E+00 0.  1.
</event>
<event>
 7    1  0.1302069E-013  0.7246156E+02  0.7816164E-02  0.1226708E+00
        -11   -1    0    0    0    0  0.00000000000E+00  0.00000000000E+00  0.45593999997E+02  0.45594000000E+02  0.51100000000E-03 0.  1.
         11   -1    0    0    0    0 -0.00000000000E+00 -0.00000000000E+00 -0.45593999997E+02  0.45594000000E+02  0.51100000000E-03 0. -1.
    9900012    2    1    2    0    0  0.12032710023E+01  0.23006870603E+01  0.18545581051E+02  0.72461558838E+02  0.69999985076E+02 0.  0.
         12    1    1    2    0    0 -0.12032710023E+01 -0.23006870603E+01 -0.18545581051E+02  0.18726441162E+02  0.00000000000E+00 0. -1.
         11    1    3    3    0    0  0.76710098692E+01  0.35908511296E+01 -0.11790851353E+02  0.14517671305E+02  0.51100000000E-03 0. -1.
        -11    1    3    3    0    0 -0.22148966861E+02 -0.75553707783E+01  0.33399143004E+02  0.40781896893E+02  0.51100000000E-03 0.  1.
        -12    1    3    3    0    0  0.15681227994E+02  0.62652067090E+01 -0.30627105995E+01  0.17161990640E+02  0.00000000000E+00 0.  1.
</event>
<event>
 7    1  0.1302069E-013  0.7246157E+02  0.7816164E-02  0.1226708E+00
        -11   -1    0    0    0    0  0.00000000000E+00  0.00000000000E+00  0.45593999997E+02  0.45594000000E+02  0.51100000000E-03 0.  1.
         11   -1    0    0    0    0 -0.00000000000E+00 -0.00000000000E+00 -0.45593999997E+02  0.45594000000E+02  0.51100000000E-03 0. -1.
    9900012    2    1    2    0    0 -0.10416805085E+01 -0.12485615899E+02  0.13917740175E+02  0.72461569634E+02  0.69999999140E+02 0.  0.
         12    1    1    2    0    0  0.10416805085E+01  0.12485615899E+02 -0.13917740175E+02  0.18726430366E+02  0.00000000000E+00 0. -1.
         11    1    3    3    0    0 -0.44211659731E+01 -0.27225232489E+02 -0.17301111140E+02  0.32558999364E+02  0.51100000000E-03 0. -1.
        -11    1    3    3    0    0  0.97414455953E+01  0.11150207389E+01  0.11779282368E+02  0.15326138682E+02  0.51100000000E-03 0.  1.
         12    1    3    3    0    0 -0.63619601306E+01  0.13624595851E+02  0.19439568947E+02  0.24576431589E+02  0.00000000000E+00 0. -1.
</event>
<event>
 7    1  0.1302069E-013  0.7246160E+02  0.7816164E-02  0.1226708E+00
        -11   -1    0    0    0    0  0.00000000000E+00  0.00000000000E+00  0.45593999997E+02  0.45594000000E+02  0.51100000000E-03 0.  1.
         11   -1    0    0    0    0 -0.00000000000E+00 -0.00000000000E+00 -0.45593999997E+02  0.45594000000E+02  0.51100000000E-03 0. -1.
    9900012    2    1    2    0    0 -0.11296134101E+01  0.15026426223E+02 -0.11117939411E+02  0.72461599165E+02  0.70000037609E+02 0.  0.
         12    1    1    2    0    0  0.11296134101E+01 -0.15026426223E+02  0.11117939411E+02  0.18726400835E+02  0.00000000000E+00 0. -1.
         11    1    3    3    0    0 -0.20875793452E+02 -0.11204543923E+02  0.20565663854E+01  0.23781716135E+02  0.51100000000E-03 0. -1.
        -11    1    3    3    0    0  0.17987222726E+02 -0.23915938025E+01 -0.41144376750E+01  0.18606141458E+02  0.51100000000E-03 0.  1.
         12    1    3    3    0    0  0.17589573159E+01  0.28622563948E+02 -0.90600681211E+01  0.30073741573E+02  0.00000000000E+00 0. -1.
</event>
<event>
 7    1  0.1302069E-013  0.7246155E+02  0.7816164E-02  0.1226708E+00
        -11   -1    0    0    0    0  0.00000000000E+00  0.00000000000E+00  0.45593999997E+02  0.45594000000E+02  0.51100000000E-03 0.  1.
         11   -1    0    0    0    0 -0.00000000000E+00 -0.00000000000E+00 -0.45593999997E+02  0.45594000000E+02  0.51100000000E-03 0. -1.
    9900012    2    1    2    0    0  0.89358152396E+01  0.13861950220E+02  0.88700427117E+01  0.72461545034E+02  0.69999967093E+02 0.  0.
         12    1    1    2    0    0 -0.89358152396E+01 -0.13861950220E+02 -0.88700427117E+01  0.18726454966E+02  0.00000000000E+00 0. -1.
         11    1    3    3    0    0  0.15894236072E+01 -0.18088945933E+01 -0.16396826162E+02  0.16572696687E+02  0.51100000000E-03 0. -1.
        -11    1    3    3    0    0 -0.15740979054E+02 -0.36451224795E+01  0.19353334111E+02  0.25211443452E+02  0.51100000000E-03 0.  1.
        -12    1    3    3    0    0  0.23087370687E+02  0.19315967293E+02  0.59135347624E+01  0.30677404894E+02  0.00000000000E+00 0.  1.
</event>
<event>
 7    1  0.1302069E-013  0.7246148E+02  0.7816164E-02  0.1226708E+00
        -11   -1    0    0    0    0  0.00000000000E+00  0.00000000000E+00  0.45593999997E+02  0.45594000000E+02  0.51100000000E-03 0.  1.
         11   -1    0    0    0    0 -0.00000000000E+00 -0.00000000000E+00 -0.45593999997E+02  0.45594000000E+02  0.51100000000E-03 0. -1.
    9900012    2    1    2    0    0  0.86239319426E-01 -0.38558509595E+01  0.18325047003E+02  0.72461484801E+02  0.69999888629E+02 0.  0.
         12    1    1    2    0    0 -0.86239319426E-01  0.38558509595E+01 -0.18325047003E+02  0.18726515199E+02  0.00000000000E+00 0. -1.
         11    1    3    3    0    0 -0.92961396312E+01  0.98298998035E+01 -0.19018022067E+02  0.23339458130E+02  0.51100000000E-03 0. -1.
        -11    1    3    3    0    0  0.62908909894E+01 -0.22080395874E+02  0.26356439452E+02  0.34953985355E+02  0.51100000000E-03 0.  1.
         12    1    3    3    0    0  0.30914879612E+01  0.83946451107E+01  0.10986629618E+02  0.14168041315E+02  0.00000000000E+00 0. -1.
</event>
<event>
 7    1  0.1302069E-013  0.7246158E+02  0.7816164E-02  0.1226708E+00
        -11   -1    0    0    0    0  0.00000000000E+00  0.00000000000E+00  0.45593999997E+02  0.45594000000E+02  0.51100000000E-03 0.  1.
         11   -1    0    0    0    0 -0.00000000000E+00 -0.00000000000E+00 -0.45593999997E+02  0.45594000000E+02  0.51100000000E-03 0. -1.
    9900012    2    1    2    0    0 -0.11584246604E+02 -0.10708250886E+02 -0.10090456474E+02  0.72461582343E+02  0.70000015696E+02 0.  0.
         12    1    1    2    0    0  0.11584246604E+02  0.10708250886E+02  0.10090456474E+02  0.18726417657E+02  0.00000000000E+00 0. -1.
         11    1    3    3    0    0  0.12506811877E+02 -0.13431221291E+02 -0.31855415142E+01  0.18627015964E+02  0.51100000000E-03 0. -1.
        -11    1    3    3    0    0 -0.17985393641E+02  0.10377375341E+02  0.17743306890E+02  0.27312803647E+02  0.51100000000E-03 0.  1.
        -12    1    3    3    0    0 -0.61056648407E+01 -0.76544049356E+01 -0.24648221850E+02  0.26521762732E+02  0.00000000000E+00 0.  1.
</event>
<event>
 7    1  0.1302069E-013  0.7246149E+02  0.7816164E-02  0.1226708E+00
        -11   -1    0    0    0    0  0.00000000000E+00  0.00000000000E+00  0.45593999997E+02  0.45594000000E+02  0.51100000000E-03 0.  1.
         11   -1    0    0    0    0 -0.00000000000E+00 -0.00000000000E+00 -0.45593999997E+02  0.45594000000E+02  0.51100000000E-03 0. -1.
    9900012    2    1    2    0    0 -0.87476088288E+01 -0.63184870147E+01  0.15304848078E+02  0.72461486361E+02  0.69999890662E+02 0.  0.
         12    1    1    2    0    0  0.87476088288E+01  0.63184870147E+01 -0.15304848078E+02  0.18726513639E+02  0.00000000000E+00 0. -1.
         11    1    3    3    0    0  0.13723083328E+02  0.25291773775E+01 -0.28803843899E+01  0.14248381267E+02  0.51100000000E-03 0. -1.
        -11    1    3    3    0    0 -0.33561055093E+02 -0.15023869123E+02  0.91799604499E+00  0.36781840348E+02  0.51100000000E-03 0.  1.
        -12    1    3    3    0    0  0.11090362936E+02  0.61762047309E+01  0.17267236422E+02  0.21431264746E+02  0.00000000000E+00 0.  1.
</event>
<event>
 7    1  0.1302069E-013  0.7246154E+02  0.7816164E-02  0.1226708E+00
        -11   -1    0    0    0    0  0.00000000000E+00  0.00000000000E+00  0.45593999997E+02  0.45594000000E+02  0.51100000000E-03 0.  1.
         11   -1    0    0    0    0 -0.00000000000E+00 -0.00000000000E+00 -0.45593999997E+02  0.45594000000E+02  0.51100000000E-03 0. -1.
    9900012    2    1    2    0    0 -0.19144307467E+01  0.12241482552E+02  0.14041411590E+02  0.72461543325E+02  0.69999964868E+02 0.  0.
         12    1    1    2    0    0  0.19144307467E+01 -0.12241482552E+02 -0.14041411590E+02  0.18726456675E+02  0.00000000000E+00 0. -1.
         11    1    3    3    0    0  0.15193611735E+02 -0.21291167880E+02 -0.78934823511E+00  0.26168353753E+02  0.51100000000E-03 0. -1.
        -11    1    3    3    0    0 -0.21468002456E+02  0.19516355485E+02  0.11705092550E+02  0.31285339262E+02  0.51100000000E-03 0.  1.
        -12    1    3    3    0    0  0.43599599746E+01  0.14016294947E+02  0.31256672753E+01  0.15007850310E+02  0.00000000000E+00 0.  1.
</event>
<event>
 7    1  0.1302069E-013  0.7246160E+02  0.7816164E-02  0.1226708E+00
        -11   -1    0    0    0    0  0.00000000000E+00  0.00000000000E+00  0.45593999997E+02  0.45594000000E+02  0.51100000000E-03 0. -1.
         11   -1    0    0    0    0 -0.00000000000E+00 -0.00000000000E+00 -0.45593999997E+02  0.45594000000E+02  0.51100000000E-03 0.  1.
    9900012    2    1    2    0    0  0.50839176554E+01  0.48109916722E+01 -0.17369113010E+02  0.72461602953E+02  0.70000042545E+02 0.  0.
         12    1    1    2    0    0 -0.50839176554E+01 -0.48109916722E+01  0.17369113010E+02  0.18726397047E+02  0.00000000000E+00 0. -1.
         11    1    3    3    0    0 -0.12896418364E+02  0.13917405797E+01  0.33662455929E+01  0.13400976013E+02  0.51100000000E-03 0. -1.
        -11    1    3    3    0    0 -0.32593732320E+01 -0.77341113385E+01 -0.31621367316E+02  0.32716217129E+02  0.51100000000E-03 0.  1.
        -12    1    3    3    0    0  0.21239709251E+02  0.11153362431E+02  0.10886008713E+02  0.26344409811E+02  0.00000000000E+00 0.  1.
</event>
<event>
 7    1  0.1302069E-013  0.7246213E+02  0.7816164E-02  0.1226707E+00
        -11   -1    0    0    0    0  0.00000000000E+00  0.00000000000E+00  0.45593999997E+02  0.45594000000E+02  0.51100000000E-03 0. -1.
         11   -1    0    0    0    0 -0.00000000000E+00 -0.00000000000E+00 -0.45593999997E+02  0.45594000000E+02  0.51100000000E-03 0.  1.
    9900012    2    1    2    0    0  0.77572789285E+01  0.24311978569E+01 -0.16869263819E+02  0.72462131230E+02  0.70000730720E+02 0.  0.
         12    1    1    2    0    0 -0.77572789285E+01 -0.24311978569E+01  0.16869263819E+02  0.18725868770E+02  0.00000000000E+00 0. -1.
         11    1    3    3    0    0 -0.22018361806E+01  0.30167354074E+02 -0.14492174900E+01  0.30282297898E+02  0.51100000000E-03 0. -1.
        -11    1    3    3    0    0 -0.86279349182E+01 -0.11084993850E+02 -0.32613940445E+01  0.14420646344E+02  0.51100000000E-03 0.  1.
         12    1    3    3    0    0  0.18587050027E+02 -0.16651162367E+02 -0.12158652284E+02  0.27759186989E+02  0.00000000000E+00 0. -1.
</event>
<event>
 7    1  0.1545141E-013  0.7246158E+02  0.7816164E-02  0.1226708E+00
        -11   -1    0    0    0    0  0.00000000000E+00  0.00000000000E+00  0.45593999997E+02  0.45594000000E+02  0.51100000000E-03 0. -1.
         11   -1    0    0    0    0 -0.00000000000E+00 -0.00000000000E+00 -0.45593999997E+02  0.45594000000E+02  0.51100000000E-03 0.  1.
    9900012    2    1    2    0    0  0.24283193280E+01  0.91414500989E+01 -0.16162178690E+02  0.72461578434E+02  0.70000010604E+02 0.  0.
         12    1    1    2    0    0 -0.24283193280E+01 -0.91414500989E+01  0.16162178690E+02  0.18726421566E+02  0.00000000000E+00 0. -1.
         11    1    3    3    0    0  0.15091773267E+02 -0.86990730450E+00  0.61401323814E+01  0.16316236852E+02  0.51100000000E-03 0. -1.
        -11    1    3    3    0    0 -0.22475377322E+02 -0.13282931297E+02 -0.92458412665E+01  0.27695928051E+02  0.51100000000E-03 0.  1.
        -12    1    3    3    0    0  0.98119233823E+01  0.23294288701E+02 -0.13056469805E+02  0.28449413532E+02  0.00000000000E+00 0.  1.
</event>
<event>
 7    1  0.1302069E-013  0.7246165E+02  0.7816164E-02  0.1226708E+00
        -11   -1    0    0    0    0  0.00000000000E+00  0.00000000000E+00  0.45593999997E+02  0.45594000000E+02  0.51100000000E-03 0.  1.
         11   -1    0    0    0    0 -0.00000000000E+00 -0.00000000000E+00 -0.45593999997E+02  0.45594000000E+02  0.51100000000E-03 0. -1.
    9900012    2    1    2    0    0  0.69923278712E+01  0.24830456528E+01 -0.17193542272E+02  0.72461653303E+02  0.70000108134E+02 0.  0.
         12    1    1    2    0    0 -0.69923278712E+01 -0.24830456528E+01  0.17193542272E+02  0.18726346697E+02  0.00000000000E+00 0. -1.
         11    1    3    3    0    0  0.24632170071E+02 -0.11462967876E+02 -0.22143602241E+02  0.35049715482E+02  0.51100000000E-03 0. -1.
        -11    1    3    3    0    0 -0.18233029192E+02  0.17698154078E+01 -0.76753156463E+01  0.19861673409E+02  0.51100000000E-03 0.  1.
         12    1    3    3    0    0  0.59318699225E+00  0.12176198121E+02  0.12625375615E+02  0.17550264411E+02  0.00000000000E+00 0. -1.
</event>
<event>
 7    1  0.1302069E-013  0.7246157E+02  0.7816164E-02  0.1226708E+00
        -11   -1    0    0    0    0  0.00000000000E+00  0.00000000000E+00  0.45593999997E+02  0.45594000000E+02  0.51100000000E-03 0.  1.
         11   -1    0    0    0    0 -0.00000000000E+00 -0.00000000000E+00 -0.45593999997E+02  0.45594000000E+02  0.51100000000E-03 0. -1.
    9900012    2    1    2    0    0  0.14014673969E+02 -0.11150406507E+02  0.54714180378E+01  0.72461573030E+02  0.70000003563E+02 0.  0.
         12    1    1    2    0    0 -0.14014673969E+02  0.11150406507E+02 -0.54714180378E+01  0.18726426970E+02  0.00000000000E+00 0. -1.
         11    1    3    3    0    0  0.31159893167E+02 -0.64749572339E+01  0.14736255024E+02  0.35071658441E+02  0.51100000000E-03 0. -1.
        -11    1    3    3    0    0 -0.13884677173E+02 -0.16983032484E+02 -0.51765157162E+00  0.21942552631E+02  0.51100000000E-03 0.  1.
         12    1    3    3    0    0 -0.32605420246E+01  0.12307583211E+02 -0.87471854143E+01  0.15447361958E+02  0.00000000000E+00 0. -1.
</event>
<event>
 7    1  0.1302069E-013  0.7246155E+02  0.7816164E-02  0.1226708E+00
        -11   -1    0    0    0    0  0.00000000000E+00  0.00000000000E+00  0.45593999997E+02  0.45594000000E+02  0.51100000000E-03 0.  1.
         11   -1    0    0    0    0 -0.00000000000E+00 -0.00000000000E+00 -0.45593999997E+02  0.45594000000E+02  0.51100000000E-03 0. -1.
    9900012    2    1    2    0    0 -0.36243364658E+01  0.63167102086E+01  0.17252338454E+02  0.72461552798E+02  0.69999977208E+02 0.  0.
         12    1    1    2    0    0  0.36243364658E+01 -0.63167102086E+01 -0.17252338454E+02  0.18726447202E+02  0.00000000000E+00 0. -1.
         11    1    3    3    0    0 -0.19530516372E+02 -0.24870485980E+02  0.12645601988E+02  0.34057207645E+02  0.51100000000E-03 0. -1.
        -11    1    3    3    0    0  0.11025924695E+02  0.84170275508E+01  0.59159010681E+01  0.15080293561E+02  0.51100000000E-03 0.  1.
         12    1    3    3    0    0  0.48802552116E+01  0.22770168638E+02 -0.13091646026E+01  0.23324051593E+02  0.00000000000E+00 0. -1.
</event>
<event>
 7    1  0.1302069E-013  0.7246156E+02  0.7816164E-02  0.1226708E+00
        -11   -1    0    0    0    0  0.00000000000E+00  0.00000000000E+00  0.45593999997E+02  0.45594000000E+02  0.51100000000E-03 0.  1.
         11   -1    0    0    0    0 -0.00000000000E+00 -0.00000000000E+00 -0.45593999997E+02  0.45594000000E+02  0.51100000000E-03 0. -1.
    9900012    2    1    2    0    0  0.10716447470E+02  0.14448614967E+02 -0.52033581147E+01  0.72461557291E+02  0.69999983061E+02 0.  0.
         12    1    1    2    0    0 -0.10716447470E+02 -0.14448614967E+02  0.52033581147E+01  0.18726442709E+02  0.00000000000E+00 0. -1.
         11    1    3    3    0    0 -0.77576261195E+01  0.15661317649E+01  0.58945639954E+01  0.98681009658E+01  0.51100000000E-03 0. -1.
        -11    1    3    3    0    0  0.35191254074E+02  0.21609715956E+02 -0.12422299465E+01  0.41315219018E+02  0.51100000000E-03 0.  1.
        -12    1    3    3    0    0 -0.16717180484E+02 -0.87272327539E+01 -0.98556921635E+01  0.21278237307E+02  0.00000000000E+00 0.  1.
</event>
<event>
 7    1  0.1302069E-013  0.7246154E+02  0.7816164E-02  0.1226708E+00
        -11   -1    0    0    0    0  0.00000000000E+00  0.00000000000E+00  0.45593999997E+02  0.45594000000E+02  0.51100000000E-03 0. -1.
         11   -1    0    0    0    0 -0.00000000000E+00 -0.00000000000E+00 -0.45593999997E+02  0.45594000000E+02  0.51100000000E-03 0.  1.
    9900012    2    1    2    0    0  0.15513424596E+02  0.78111188912E+00 -0.10459628253E+02  0.72461540066E+02  0.69999960622E+02 0.  0.
         12    1    1    2    0    0 -0.15513424596E+02 -0.78111188912E+00  0.10459628253E+02  0.18726459934E+02  0.00000000000E+00 0. -1.
         11    1    3    3    0    0  0.23225173191E+02  0.22210227445E+02 -0.97590818356E-01  0.32135842873E+02  0.51100000000E-03 0. -1.
        -11    1    3    3    0    0  0.76554893218E+01 -0.18613679798E+02 -0.13704264962E+02  0.24349178031E+02  0.51100000000E-03 0.  1.
        -12    1    3    3    0    0 -0.15367237917E+02 -0.28154357580E+01  0.33422275276E+01  0.15976519162E+02  0.00000000000E+00 0.  1.
</event>
<event>
 7    1  0.1302069E-013  0.7246143E+02  0.7816164E-02  0.1226708E+00
        -11   -1    0    0    0    0  0.00000000000E+00  0.00000000000E+00  0.45593999997E+02  0.45594000000E+02  0.51100000000E-03 0. -1.
         11   -1    0    0    0    0 -0.00000000000E+00 -0.00000000000E+00 -0.45593999997E+02  0.45594000000E+02  0.51100000000E-03 0.  1.
    9900012    2    1    2    0    0  0.12114805621E+02  0.13089764546E+02  0.57073519756E+01  0.72461432838E+02  0.69999820938E+02 0.  0.
         12    1    1    2    0    0 -0.12114805621E+02 -0.13089764546E+02 -0.57073519756E+01  0.18726567162E+02  0.00000000000E+00 0. -1.
         11    1    3    3    0    0  0.52460727471E+01  0.13292571348E+02  0.20913752763E+02  0.25329800378E+02  0.51100000000E-03 0. -1.
        -11    1    3    3    0    0  0.34123398728E+00 -0.14275491235E+02 -0.24996606708E+02  0.28787782787E+02  0.51100000000E-03 0.  1.
        -12    1    3    3    0    0  0.65274988862E+01  0.14072684433E+02  0.97902059201E+01  0.18343849673E+02  0.00000000000E+00 0.  1.
</event>
<event>
 7    1  0.1302069E-013  0.7246144E+02  0.7816164E-02  0.1226708E+00
        -11   -1    0    0    0    0  0.00000000000E+00  0.00000000000E+00  0.45593999997E+02  0.45594000000E+02  0.51100000000E-03 0.  1.
         11   -1    0    0    0    0 -0.00000000000E+00 -0.00000000000E+00 -0.45593999997E+02  0.45594000000E+02  0.51100000000E-03 0. -1.
    9900012    2    1    2    0    0  0.23629488968E+01 -0.13578592305E+02  0.12677636636E+02  0.72461436857E+02  0.69999826173E+02 0.  0.
         12    1    1    2    0    0 -0.23629488968E+01  0.13578592305E+02 -0.12677636636E+02  0.18726563143E+02  0.00000000000E+00 0. -1.
         11    1    3    3    0    0 -0.14157072777E+02 -0.34085192351E+02  0.33511708999E+01  0.37060132135E+02  0.51100000000E-03 0. -1.
        -11    1    3    3    0    0  0.18651782775E+02  0.74021807615E+01  0.93175985713E+01  0.22124622576E+02  0.51100000000E-03 0.  1.
         12    1    3    3    0    0 -0.21317611016E+01  0.13104419285E+02  0.88671649919E-02  0.13276682146E+02  0.00000000000E+00 0. -1.
</event>
<event>
 7    1  0.1302069E-013  0.7246147E+02  0.7816164E-02  0.1226708E+00
        -11   -1    0    0    0    0  0.00000000000E+00  0.00000000000E+00  0.45593999997E+02  0.45594000000E+02  0.51100000000E-03 0.  1.
         11   -1    0    0    0    0 -0.00000000000E+00 -0.00000000000E+00 -0.45593999997E+02  0.45594000000E+02  0.51100000000E-03 0. -1.
    9900012    2    1    2    0    0 -0.24161760532E+01  0.73500549003E+01  0.17053494797E+02  0.72461470729E+02  0.69999870297E+02 0.  0.
         12    1    1    2    0    0  0.24161760532E+01 -0.73500549003E+01 -0.17053494797E+02  0.18726529271E+02  0.00000000000E+00 0. -1.
         11    1    3    3    0    0 -0.68191234840E+01 -0.19186413387E+02 -0.11499964514E+02  0.23385210878E+02  0.51100000000E-03 0. -1.
        -11    1    3    3    0    0  0.13941140482E+01  0.25215077062E+02  0.55719419316E+01  0.25860978372E+02  0.51100000000E-03 0.  1.
        -12    1    3    3    0    0  0.30088333826E+01  0.13213912253E+01  0.22981517379E+02  0.23215281479E+02  0.00000000000E+00 0.  1.
</event>
<event>
 7    1  0.1302069E-013  0.7246159E+02  0.7816164E-02  0.1226708E+00
        -11   -1    0    0    0    0  0.00000000000E+00  0.00000000000E+00  0.45593999997E+02  0.45594000000E+02  0.51100000000E-03 0.  1.
         11   -1    0    0    0    0 -0.00000000000E+00 -0.00000000000E+00 -0.45593999997E+02  0.45594000000E+02  0.51100000000E-03 0. -1.
    9900012    2    1    2    0    0 -0.12936421709E+02  0.11637993085E+02 -0.69198679171E+01  0.72461589194E+02  0.70000024620E+02 0.  0.
         12    1    1    2    0    0  0.12936421709E+02 -0.11637993085E+02  0.69198679171E+01  0.18726410806E+02  0.00000000000E+00 0. -1.
         11    1    3    3    0    0  0.12748360160E+02  0.26064879185E+02 -0.22395630821E+02  0.36653279442E+02  0.51100000000E-03 0. -1.
        -11    1    3    3    0    0 -0.15833969946E+02 -0.99665161106E+01  0.16500627715E+02  0.24946277536E+02  0.51100000000E-03 0.  1.
         12    1    3    3    0    0 -0.98508119232E+01 -0.44603699901E+01 -0.10248648118E+01  0.10862032217E+02  0.00000000000E+00 0. -1.
</event>
<event>
 7    1  0.1302069E-013  0.7246160E+02  0.7816164E-02  0.1226708E+00
        -11   -1    0    0    0    0  0.00000000000E+00  0.00000000000E+00  0.45593999997E+02  0.45594000000E+02  0.51100000000E-03 0.  1.
         11   -1    0    0    0    0 -0.00000000000E+00 -0.00000000000E+00 -0.45593999997E+02  0.45594000000E+02  0.51100000000E-03 0. -1.
    9900012    2    1    2    0    0  0.12012499258E+02 -0.22813555616E+01  0.14183556259E+02  0.72461601793E+02  0.70000041033E+02 0.  0.
         12    1    1    2    0    0 -0.12012499258E+02  0.22813555616E+01 -0.14183556259E+02  0.18726398207E+02  0.00000000000E+00 0. -1.
         11    1    3    3    0    0 -0.12511949167E+02 -0.11105200262E+02  0.10472692188E+02  0.19737062262E+02  0.51100000000E-03 0. -1.
        -11    1    3    3    0    0  0.21013431144E+02  0.21113913812E+02 -0.12308021534E+02  0.32231181165E+02  0.51100000000E-03 0.  1.
        -12    1    3    3    0    0  0.35110172807E+01 -0.12290069112E+02  0.16018885605E+02  0.20493358367E+02  0.00000000000E+00 0.  1.
</event>
<event>
 7    1  0.1302069E-013  0.7246162E+02  0.7816164E-02  0.1226708E+00
        -11   -1    0    0    0    0  0.00000000000E+00  0.00000000000E+00  0.45593999997E+02  0.45594000000E+02  0.51100000000E-03 0. -1.
         11   -1    0    0    0    0 -0.00000000000E+00 -0.00000000000E+00 -0.45593999997E+02  0.45594000000E+02  0.51100000000E-03 0.  1.
    9900012    2    1    2    0    0  0.61951409794E+01  0.17372171365E+02  0.32411949307E+01  0.72461616092E+02  0.70000059661E+02 0.  0.
         12    1    1    2    0    0 -0.61951409794E+01 -0.17372171365E+02 -0.32411949307E+01  0.18726383908E+02  0.00000000000E+00 0. -1.
         11    1    3    3    0    0  0.27054822847E+02 -0.12290404721E+02  0.13014791373E+02  0.32440750334E+02  0.51100000000E-03 0. -1.
        -11    1    3    3    0    0 -0.19633952961E+02  0.16680108178E+02 -0.61513665888E+01  0.26486929397E+02  0.51100000000E-03 0.  1.
        -12    1    3    3    0    0 -0.12257289070E+01  0.12982467908E+02 -0.36222298537E+01  0.13533936362E+02  0.00000000000E+00 0.  1.
</event>
<event>
 7    1  0.1302069E-013  0.7246159E+02  0.7816164E-02  0.1226708E+00
        -11   -1    0    0    0    0  0.00000000000E+00  0.00000000000E+00  0.45593999997E+02  0.45594000000E+02  0.51100000000E-03 0.  1.
         11   -1    0    0    0    0 -0.00000000000E+00 -0.00000000000E+00 -0.45593999997E+02  0.45594000000E+02  0.51100000000E-03 0. -1.
    9900012    2    1    2    0    0 -0.18366456959E+02 -0.34586076469E+01 -0.11789260824E+01  0.72461586174E+02  0.70000020686E+02 0.  0.
         12    1    1    2    0    0  0.18366456959E+02  0.34586076469E+01  0.11789260824E+01  0.18726413826E+02  0.00000000000E+00 0. -1.
         11    1    3    3    0    0 -0.94193161498E+01  0.28617175443E+02  0.27607726420E+01  0.30253728909E+02  0.51100000000E-03 0. -1.
        -11    1    3    3    0    0 -0.83685511854E+01 -0.45572662861E+01  0.77706685795E+01  0.12295715326E+02  0.51100000000E-03 0.  1.
         12    1    3    3    0    0 -0.57858962352E+00 -0.27518516803E+02 -0.11710367304E+02  0.29912141939E+02  0.00000000000E+00 0. -1.
</event>
<event>
 7    1  0.1513883E-013  0.7246161E+02  0.7816164E-02  0.1226708E+00
        -11   -1    0    0    0    0  0.00000000000E+00  0.00000000000E+00  0.45593999997E+02  0.45594000000E+02  0.51100000000E-03 0.  1.
         11   -1    0    0    0    0 -0.00000000000E+00 -0.00000000000E+00 -0.45593999997E+02  0.45594000000E+02  0.51100000000E-03 0. -1.
    9900012    2    1    2    0    0  0.10621808636E+02  0.15149259628E+02  0.28904481267E+01  0.72461612832E+02  0.70000055413E+02 0.  0.
         12    1    1    2    0    0 -0.10621808636E+02 -0.15149259628E+02 -0.28904481267E+01  0.18726387168E+02  0.00000000000E+00 0. -1.
         11    1    3    3    0    0  0.24729386389E+00 -0.11053604554E+02 -0.16405730336E+02  0.19783612309E+02  0.51100000000E-03 0. -1.
        -11    1    3    3    0    0  0.73976270038E+01  0.34900245579E+02  0.54962397102E+01  0.36096546621E+02  0.51100000000E-03 0.  1.
        -12    1    3    3    0    0  0.29768877684E+01 -0.86973813967E+01  0.13799938752E+02  0.16581453902E+02  0.00000000000E+00 0.  1.
</event>
<event>
 7    1  0.1302069E-013  0.7246158E+02  0.7816164E-02  0.1226708E+00
        -11   -1    0    0    0    0  0.00000000000E+00  0.00000000000E+00  0.45593999997E+02  0.45594000000E+02  0.51100000000E-03 0. -1.
         11   -1    0    0    0    0 -0.00000000000E+00 -0.00000000000E+00 -0.45593999997E+02  0.45594000000E+02  0.51100000000E-03 0.  1.
    9900012    2    1    2    0    0 -0.20838092998E+01 -0.18199673316E+02 -0.38869431986E+01  0.72461582899E+02  0.70000016420E+02 0.  0.
         12    1    1    2    0    0  0.20838092998E+01  0.18199673316E+02  0.38869431986E+01  0.18726417101E+02  0.00000000000E+00 0. -1.
         11    1    3    3    0    0  0.13132513131E+02  0.12591670410E+02 -0.24784827812E+02  0.30745743686E+02  0.51100000000E-03 0. -1.
        -11    1    3    3    0    0 -0.50242081411E+01 -0.41329248340E+01  0.82290709573E+01  0.10490059304E+02  0.51100000000E-03 0.  1.
         12    1    3    3    0    0 -0.10192114290E+02 -0.26658418891E+02  0.12668813656E+02  0.31225779909E+02  0.00000000000E+00 0. -1.
</event>
<event>
 7    1  0.1302069E-013  0.7246157E+02  0.7816164E-02  0.1226708E+00
        -11   -1    0    0    0    0  0.00000000000E+00  0.00000000000E+00  0.45593999997E+02  0.45594000000E+02  0.51100000000E-03 0.  1.
         11   -1    0    0    0    0 -0.00000000000E+00 -0.00000000000E+00 -0.45593999997E+02  0.45594000000E+02  0.51100000000E-03 0. -1.
    9900012    2    1    2    0    0  0.14105828679E+02  0.12968430792E+01 -0.12248381783E+02  0.72461573192E+02  0.70000003775E+02 0.  0.
         12    1    1    2    0    0 -0.14105828679E+02 -0.12968430792E+01  0.12248381783E+02  0.18726426808E+02  0.00000000000E+00 0. -1.
         11    1    3    3    0    0  0.13088711247E+02 -0.20054622233E+02 -0.19297665950E+02  0.30755522210E+02  0.51100000000E-03 0. -1.
        -11    1    3    3    0    0 -0.57535186279E+01  0.65073499825E+01  0.19391677137E+02  0.21248193402E+02  0.51100000000E-03 0.  1.
         12    1    3    3    0    0  0.67706360595E+01  0.14844115330E+02 -0.12342392969E+02  0.20457857580E+02  0.00000000000E+00 0. -1.
</event>
<event>
 7    1  0.1302069E-013  0.7246156E+02  0.7816164E-02  0.1226708E+00
        -11   -1    0    0    0    0  0.00000000000E+00  0.00000000000E+00  0.45593999997E+02  0.45594000000E+02  0.51100000000E-03 0. -1.
         11   -1    0    0    0    0 -0.00000000000E+00 -0.00000000000E+00 -0.45593999997E+02  0.45594000000E+02  0.51100000000E-03 0.  1.
    9900012    2    1    2    0    0  0.42333895679E+01 -0.10837440015E+02 -0.14673367487E+02  0.72461563961E+02  0.69999991749E+02 0.  0.
         12    1    1    2    0    0 -0.42333895679E+01  0.10837440015E+02  0.14673367487E+02  0.18726436039E+02  0.00000000000E+00 0. -1.
         11    1    3    3    0    0 -0.55389405192E+01  0.19427359321E+02  0.23115125724E+01  0.20333352967E+02  0.51100000000E-03 0. -1.
        -11    1    3    3    0    0  0.93970586743E+01 -0.37789920612E+02 -0.69123697898E+01  0.39549509074E+02  0.51100000000E-03 0.  1.
        -12    1    3    3    0    0  0.37527141273E+00  0.75251212758E+01 -0.10072510270E+02  0.12578701920E+02  0.00000000000E+00 0.  1.
</event>
<event>
 7    1  0.1302069E-013  0.7246228E+02  0.7816164E-02  0.1226706E+00
        -11   -1    0    0    0    0  0.00000000000E+00  0.00000000000E+00  0.45593999997E+02  0.45594000000E+02  0.51100000000E-03 0. -1.
         11   -1    0    0    0    0 -0.00000000000E+00 -0.00000000000E+00 -0.45593999997E+02  0.45594000000E+02  0.51100000000E-03 0.  1.
    9900012    2    1    2    0    0  0.85289445751E+01 -0.15302654543E+02  0.66135169286E+01  0.72462276041E+02  0.70000919360E+02 0.  0.
         12    1    1    2    0    0 -0.85289445751E+01  0.15302654543E+02 -0.66135169286E+01  0.18725723959E+02  0.00000000000E+00 0. -1.
         11    1    3    3    0    0 -0.93552926062E+00  0.93054355421E+01  0.21554777198E+02  0.23496271320E+02  0.51100000000E-03 0. -1.
        -11    1    3    3    0    0  0.19389712948E+02 -0.26868860149E+02 -0.29929891915E+01  0.33269424379E+02  0.51100000000E-03 0.  1.
         12    1    3    3    0    0 -0.99252391122E+01  0.22607700648E+01 -0.11948271077E+02  0.15696580343E+02  0.00000000000E+00 0. -1.
</event>
<event>
 7    1  0.1302069E-013  0.7246155E+02  0.7816164E-02  0.1226708E+00
        -11   -1    0    0    0    0  0.00000000000E+00  0.00000000000E+00  0.45593999997E+02  0.45594000000E+02  0.51100000000E-03 0. -1.
         11   -1    0    0    0    0 -0.00000000000E+00 -0.00000000000E+00 -0.45593999997E+02  0.45594000000E+02  0.51100000000E-03 0.  1.
    9900012    2    1    2    0    0  0.99671037540E+01 -0.35284148324E+01 -0.15455971371E+02  0.72461550270E+02  0.69999973915E+02 0.  0.
         12    1    1    2    0    0 -0.99671037540E+01  0.35284148324E+01  0.15455971371E+02  0.18726449730E+02  0.00000000000E+00 0. -1.
         11    1    3    3    0    0  0.64478971780E+00 -0.10643049902E+02  0.52852725463E+00  0.10675654843E+02  0.51100000000E-03 0. -1.
        -11    1    3    3    0    0 -0.20300643317E+02  0.15830183165E+02  0.23901709919E+01  0.25853892081E+02  0.51100000000E-03 0.  1.
        -12    1    3    3    0    0  0.29622957353E+02 -0.87155480955E+01 -0.18374669617E+02  0.35932003346E+02  0.00000000000E+00 0.  1.
</event>
<event>
 7    1  0.1302069E-013  0.7246159E+02  0.7816164E-02  0.1226708E+00
        -11   -1    0    0    0    0  0.00000000000E+00  0.00000000000E+00  0.45593999997E+02  0.45594000000E+02  0.51100000000E-03 0.  1.
         11   -1    0    0    0    0 -0.00000000000E+00 -0.00000000000E+00 -0.45593999997E+02  0.45594000000E+02  0.51100000000E-03 0. -1.
    9900012    2    1    2    0    0 -0.16324562490E+02 -0.49213428142E+01  0.77438682552E+01  0.72461589476E+02  0.70000024987E+02 0.  0.
         12    1    1    2    0    0  0.16324562490E+02  0.49213428142E+01 -0.77438682552E+01  0.18726410524E+02  0.00000000000E+00 0. -1.
         11    1    3    3    0    0  0.63594727139E+01 -0.29640030721E+01 -0.17801843309E+02  0.19134623928E+02  0.51100000000E-03 0. -1.
        -11    1    3    3    0    0 -0.85502300666E+01  0.17353689966E+02  0.21730201827E+02  0.29093962627E+02  0.51100000000E-03 0.  1.
        -12    1    3    3    0    0 -0.14133805137E+02 -0.19311029708E+02  0.38155097373E+01  0.24233002921E+02  0.00000000000E+00 0.  1.
</event>
<event>
 7    1  0.1302069E-013  0.7246153E+02  0.7816164E-02  0.1226708E+00
        -11   -1    0    0    0    0  0.00000000000E+00  0.00000000000E+00  0.45593999997E+02  0.45594000000E+02  0.51100000000E-03 0.  1.
         11   -1    0    0    0    0 -0.00000000000E+00 -0.00000000000E+00 -0.45593999997E+02  0.45594000000E+02  0.51100000000E-03 0. -1.
    9900012    2    1    2    0    0  0.16029841778E+02 -0.78026025045E+01  0.57309993787E+01  0.72461527104E+02  0.69999943736E+02 0.  0.
         12    1    1    2    0    0 -0.16029841778E+02  0.78026025045E+01 -0.57309993787E+01  0.18726472896E+02  0.00000000000E+00 0. -1.
         11    1    3    3    0    0  0.24184857797E+02 -0.16460134754E+01 -0.20605041244E+02  0.31814846093E+02  0.51100000000E-03 0. -1.
        -11    1    3    3    0    0  0.90088551127E+01 -0.97358560696E+01  0.13425727183E+02  0.18873169169E+02  0.51100000000E-03 0.  1.
         12    1    3    3    0    0 -0.17163871132E+02  0.35792670405E+01  0.12910313440E+02  0.21773511841E+02  0.00000000000E+00 0. -1.
</event>
<event>
 7    1  0.1302069E-013  0.7246156E+02  0.7816164E-02  0.1226708E+00
        -11   -1    0    0    0    0  0.00000000000E+00  0.00000000000E+00  0.45593999997E+02  0.45594000000E+02  0.51100000000E-03 0.  1.
         11   -1    0    0    0    0 -0.00000000000E+00 -0.00000000000E+00 -0.45593999997E+02  0.45594000000E+02  0.51100000000E-03 0. -1.
    9900012    2    1    2    0    0 -0.16601229850E+02 -0.21101305313E+01  0.84039242696E+01  0.72461563433E+02  0.69999991061E+02 0.  0.
         12    1    1    2    0    0  0.16601229850E+02  0.21101305313E+01 -0.84039242696E+01  0.18726436567E+02  0.00000000000E+00 0. -1.
         11    1    3    3    0    0  0.28844029461E+01 -0.26314166076E+02 -0.40343126869E+01  0.26777430716E+02  0.51100000000E-03 0. -1.
        -11    1    3    3    0    0 -0.23564875390E+02  0.53400247325E+01  0.34989094562E+01  0.24414372487E+02  0.51100000000E-03 0.  1.
         12    1    3    3    0    0  0.40792425939E+01  0.18864010812E+02  0.89393275003E+01  0.21269760230E+02  0.00000000000E+00 0. -1.
</event>
<event>
 7    1  0.1302069E-013  0.7246152E+02  0.7816164E-02  0.1226708E+00
        -11   -1    0    0    0    0  0.00000000000E+00  0.00000000000E+00  0.45593999997E+02  0.45594000000E+02  0.51100000000E-03 0. -1.
         11   -1    0    0    0    0 -0.00000000000E+00 -0.00000000000E+00 -0.45593999997E+02  0.45594000000E+02  0.51100000000E-03 0.  1.
    9900012    2    1    2    0    0  0.10380661542E+02 -0.13440944535E+02 -0.78907540009E+01  0.72461518143E+02  0.69999932063E+02 0.  0.
         12    1    1    2    0    0 -0.10380661542E+02  0.13440944535E+02  0.78907540009E+01  0.18726481857E+02  0.00000000000E+00 0. -1.
         11    1    3    3    0    0 -0.18644736333E+02 -0.30996223825E+01  0.15155193890E+02  0.24226302936E+02  0.51100000000E-03 0. -1.
        -11    1    3    3    0    0  0.89492368328E+01 -0.15773154346E+02 -0.20358266338E+02  0.27264266842E+02  0.51100000000E-03 0.  1.
         12    1    3    3    0    0  0.20076161042E+02  0.54318321934E+01 -0.26876815535E+01  0.20970948365E+02  0.00000000000E+00 0. -1.
</event>
<event>
 7    1  0.1302069E-013  0.7246158E+02  0.7816164E-02  0.1226708E+00
        -11   -1    0    0    0    0  0.00000000000E+00  0.00000000000E+00  0.45593999997E+02  0.45594000000E+02  0.51100000000E-03 0. -1.
         11   -1    0    0    0    0 -0.00000000000E+00 -0.00000000000E+00 -0.45593999997E+02  0.45594000000E+02  0.51100000000E-03 0.  1.
    9900012    2    1    2    0    0 -0.47437099705E+01 -0.80594782871E+01 -0.16224076819E+02  0.72461584348E+02  0.70000018307E+02 0.  0.
         12    1    1    2    0    0  0.47437099705E+01  0.80594782871E+01  0.16224076819E+02  0.18726415652E+02  0.00000000000E+00 0. -1.
         11    1    3    3    0    0 -0.10955577757E+02 -0.22445420175E+02 -0.32075363469E+02  0.40652804488E+02  0.51100000000E-03 0.  1.
        -11    1    3    3    0    0  0.78709998900E+01  0.24771463966E+01  0.17807932271E+02  0.19626801716E+02  0.51100000000E-03 0. -1.
        -12    1    3    3    0    0 -0.16591321034E+01  0.11908795492E+02 -0.19566456222E+01  0.12181978144E+02  0.00000000000E+00 0.  1.
</event>
<event>
 7    1  0.1302069E-013  0.7246151E+02  0.7816164E-02  0.1226708E+00
        -11   -1    0    0    0    0  0.00000000000E+00  0.00000000000E+00  0.45593999997E+02  0.45594000000E+02  0.51100000000E-03 0. -1.
         11   -1    0    0    0    0 -0.00000000000E+00 -0.00000000000E+00 -0.45593999997E+02  0.45594000000E+02  0.51100000000E-03 0.  1.
    9900012    2    1    2    0    0  0.98877201215E+00  0.15736538476E+02 -0.10102723687E+02  0.72461512364E+02  0.69999924535E+02 0.  0.
         12    1    1    2    0    0 -0.98877201215E+00 -0.15736538476E+02  0.10102723687E+02  0.18726487636E+02  0.00000000000E+00 0. -1.
         11    1    3    3    0    0 -0.15610670299E+02  0.12426920684E+02  0.44362629239E+01  0.20440200925E+02  0.51100000000E-03 0. -1.
        -11    1    3    3    0    0  0.28054417879E+02  0.10871206619E+02  0.24428318351E+01  0.30186104808E+02  0.51100000000E-03 0.  1.
        -12    1    3    3    0    0 -0.11454975568E+02 -0.75615888272E+01 -0.16981818446E+02  0.21835206630E+02  0.00000000000E+00 0.  1.
</event>
<event>
 7    1  0.1302069E-013  0.7246161E+02  0.7816164E-02  0.1226708E+00
        -11   -1    0    0    0    0  0.00000000000E+00  0.00000000000E+00  0.45593999997E+02  0.45594000000E+02  0.51100000000E-03 0. -1.
         11   -1    0    0    0    0 -0.00000000000E+00 -0.00000000000E+00 -0.45593999997E+02  0.45594000000E+02  0.51100000000E-03 0.  1.
    9900012    2    1    2    0    0 -0.19142735104E+01 -0.18627991468E+02  0.10527702388E+00  0.72461612403E+02  0.70000054854E+02 0.  0.
         12    1    1    2    0    0  0.19142735104E+01  0.18627991468E+02 -0.10527702388E+00  0.18726387597E+02  0.00000000000E+00 0. -1.
         11    1    3    3    0    0  0.27034306132E+01 -0.16694461684E+02  0.26034303978E+02  0.31045105441E+02  0.51100000000E-03 0. -1.
        -11    1    3    3    0    0 -0.12113997361E+02 -0.13649439543E+02 -0.16587817870E+02  0.24661951136E+02  0.51100000000E-03 0.  1.
         12    1    3    3    0    0  0.74962932371E+01  0.11715909759E+02 -0.93412090836E+01  0.16754555826E+02  0.00000000000E+00 0. -1.
</event>
<event>
 8    1  0.1302069E-013  0.7246098E+02  0.7816164E-02  0.1226710E+00
        -11   -1    0    0    0    0  0.00000000000E+00  0.00000000000E+00  0.45593999997E+02  0.45594000000E+02  0.51100000000E-03 0. -1.
         11   -1    0    0    0    0 -0.00000000000E+00 -0.00000000000E+00 -0.45593999997E+02  0.45594000000E+02  0.51100000000E-03 0.  1.
    9900012    2    1    2    0    0  0.16314597326E+02  0.30579153146E+01  0.86708980525E+01  0.72460976611E+02  0.69999226613E+02 0.  0.
         24    2    3    3    0    0 -0.24738444161E+00  0.12510118338E+02  0.69514624729E+01  0.53314179462E+02  0.51356739006E+02 0.  0.
         12    1    1    2    0    0 -0.16314597326E+02 -0.30579153146E+01 -0.86708980525E+01  0.18727023389E+02  0.00000000000E+00 0. -1.
         11    1    3    3    0    0  0.16561981768E+02 -0.94522030238E+01  0.17194355795E+01  0.19146797149E+02  0.51100000000E-03 0. -1.
        -11    1    4    4    0    0  0.18453490927E+02  0.23262351230E+02 -0.24273437958E+01  0.29791950428E+02  0.51100000000E-03 0.  1.
         12    1    4    4    0    0 -0.18700875368E+02 -0.10752232892E+02  0.93788062688E+01  0.23522229034E+02  0.00000000000E+00 0. -1.
</event>
<event>
 7    1  0.1302069E-013  0.7246160E+02  0.7816164E-02  0.1226708E+00
        -11   -1    0    0    0    0  0.00000000000E+00  0.00000000000E+00  0.45593999997E+02  0.45594000000E+02  0.51100000000E-03 0. -1.
         11   -1    0    0    0    0 -0.00000000000E+00 -0.00000000000E+00 -0.45593999997E+02  0.45594000000E+02  0.51100000000E-03 0.  1.
    9900012    2    1    2    0    0  0.15362265782E+02  0.84288322061E+01 -0.66055885073E+01  0.72461595598E+02  0.70000032962E+02 0.  0.
         12    1    1    2    0    0 -0.15362265782E+02 -0.84288322061E+01  0.66055885073E+01  0.18726404402E+02  0.00000000000E+00 0. -1.
         11    1    3    3    0    0 -0.62553797636E+01  0.13458649988E+02  0.72092728339E+01  0.16499656073E+02  0.51100000000E-03 0. -1.
        -11    1    3    3    0    0  0.11175964660E+02 -0.19524242855E+02  0.11273696027E+02  0.25163355649E+02  0.51100000000E-03 0.  1.
        -12    1    3    3    0    0  0.10441680886E+02  0.14494425073E+02 -0.25088557368E+02  0.30798583875E+02  0.00000000000E+00 0.  1.
</event>
<event>
 7    1  0.1302069E-013  0.7246155E+02  0.7816164E-02  0.1226708E+00
        -11   -1    0    0    0    0  0.00000000000E+00  0.00000000000E+00  0.45593999997E+02  0.45594000000E+02  0.51100000000E-03 0.  1.
         11   -1    0    0    0    0 -0.00000000000E+00 -0.00000000000E+00 -0.45593999997E+02  0.45594000000E+02  0.51100000000E-03 0. -1.
    9900012    2    1    2    0    0  0.55379464053E-01 -0.18602393807E+02 -0.21512472550E+01  0.72461548468E+02  0.69999971567E+02 0.  0.
         12    1    1    2    0    0 -0.55379464053E-01  0.18602393807E+02  0.21512472550E+01  0.18726451532E+02  0.00000000000E+00 0. -1.
         11    1    3    3    0    0 -0.24032420330E+02 -0.17865531876E+02  0.17814327983E+02  0.34843718772E+02  0.51100000000E-03 0. -1.
        -11    1    3    3    0    0  0.18001220611E+02  0.89875807027E+01 -0.15101733513E+02  0.25157164103E+02  0.51100000000E-03 0.  1.
         12    1    3    3    0    0  0.60865791826E+01 -0.97244426333E+01 -0.48638417256E+01  0.12460665592E+02  0.00000000000E+00 0. -1.
</event>
<event>
 7    1  0.1302069E-013  0.7246159E+02  0.7816164E-02  0.1226708E+00
        -11   -1    0    0    0    0  0.00000000000E+00  0.00000000000E+00  0.45593999997E+02  0.45594000000E+02  0.51100000000E-03 0. -1.
         11   -1    0    0    0    0 -0.00000000000E+00 -0.00000000000E+00 -0.45593999997E+02  0.45594000000E+02  0.51100000000E-03 0.  1.
    9900012    2    1    2    0    0 -0.15147965349E+02  0.31776654607E+01 -0.10541340476E+02  0.72461594285E+02  0.70000031252E+02 0.  0.
         12    1    1    2    0    0  0.15147965349E+02 -0.31776654607E+01  0.10541340476E+02  0.18726405715E+02  0.00000000000E+00 0. -1.
         11    1    3    3    0    0 -0.21126103337E+02  0.15196307220E+02 -0.33252062332E+02  0.42224869981E+02  0.51100000000E-03 0.  1.
        -11    1    3    3    0    0 -0.69310167374E+00 -0.10586910109E+02  0.20468206659E+02  0.23054512350E+02  0.51100000000E-03 0. -1.
        -12    1    3    3    0    0  0.66712396619E+01 -0.14317316509E+01  0.22425151957E+01  0.71822119538E+01  0.00000000000E+00 0.  1.
</event>
<event>
 7    1  0.1302069E-013  0.7246153E+02  0.7816164E-02  0.1226708E+00
        -11   -1    0    0    0    0  0.00000000000E+00  0.00000000000E+00  0.45593999997E+02  0.45594000000E+02  0.51100000000E-03 0. -1.
         11   -1    0    0    0    0 -0.00000000000E+00 -0.00000000000E+00 -0.45593999997E+02  0.45594000000E+02  0.51100000000E-03 0.  1.
    9900012    2    1    2    0    0 -0.14906181005E+02 -0.10972095718E+02 -0.28459771599E+01  0.72461529361E+02  0.69999946677E+02 0.  0.
         12    1    1    2    0    0  0.14906181005E+02  0.10972095718E+02  0.28459771599E+01  0.18726470639E+02  0.00000000000E+00 0. -1.
         11    1    3    3    0    0  0.32734263336E+01 -0.19281460528E+02 -0.23709319090E+02  0.30734701105E+02  0.51100000000E-03 0. -1.
        -11    1    3    3    0    0 -0.99066628373E+00  0.14726946920E+02  0.11634632849E+01  0.14806013384E+02  0.51100000000E-03 0.  1.
         12    1    3    3    0    0 -0.17188941055E+02 -0.64175821101E+01  0.19699878645E+02  0.26920814872E+02  0.00000000000E+00 0. -1.
</event>
<event>
 7    1  0.1302069E-013  0.7246156E+02  0.7816164E-02  0.1226708E+00
        -11   -1    0    0    0    0  0.00000000000E+00  0.00000000000E+00  0.45593999997E+02  0.45594000000E+02  0.51100000000E-03 0. -1.
         11   -1    0    0    0    0 -0.00000000000E+00 -0.00000000000E+00 -0.45593999997E+02  0.45594000000E+02  0.51100000000E-03 0.  1.
    9900012    2    1    2    0    0  0.14041497219E+02  0.54698308487E+01 -0.11117407877E+02  0.72461562764E+02  0.69999990190E+02 0.  0.
         12    1    1    2    0    0 -0.14041497219E+02 -0.54698308487E+01  0.11117407877E+02  0.18726437236E+02  0.00000000000E+00 0. -1.
         11    1    3    3    0    0  0.54411209507E+01  0.10900805389E+02  0.17647390073E+02  0.21444433590E+02  0.51100000000E-03 0. -1.
        -11    1    3    3    0    0  0.17892777130E+02 -0.18643656714E+02 -0.15649116981E+02  0.30209804231E+02  0.51100000000E-03 0.  1.
         12    1    3    3    0    0 -0.92924008619E+01  0.13212682174E+02 -0.13115680969E+02  0.20807324943E+02  0.00000000000E+00 0. -1.
</event>
<event>
 7    1  0.1302069E-013  0.7246155E+02  0.7816164E-02  0.1226708E+00
        -11   -1    0    0    0    0  0.00000000000E+00  0.00000000000E+00  0.45593999997E+02  0.45594000000E+02  0.51100000000E-03 0.  1.
         11   -1    0    0    0    0 -0.00000000000E+00 -0.00000000000E+00 -0.45593999997E+02  0.45594000000E+02  0.51100000000E-03 0. -1.
    9900012    2    1    2    0    0 -0.17232801064E+02  0.50018656365E+01 -0.53564595884E+01  0.72461554751E+02  0.69999979751E+02 0.  0.
         12    1    1    2    0    0  0.17232801064E+02 -0.50018656365E+01  0.53564595884E+01  0.18726445249E+02  0.00000000000E+00 0. -1.
         11    1    3    3    0    0  0.95827865298E+01 -0.26493412380E+02  0.45987095691E+01  0.28546082519E+02  0.51100000000E-03 0. -1.
        -11    1    3    3    0    0 -0.19080025332E+02  0.26817066855E+02 -0.41518406093E+01  0.33172883837E+02  0.51100000000E-03 0.  1.
        -12    1    3    3    0    0 -0.77355622620E+01  0.46782111612E+01 -0.58033285482E+01  0.10742588395E+02  0.00000000000E+00 0.  1.
</event>
<event>
 7    1  0.1302069E-013  0.7246161E+02  0.7816164E-02  0.1226708E+00
        -11   -1    0    0    0    0  0.00000000000E+00  0.00000000000E+00  0.45593999997E+02  0.45594000000E+02  0.51100000000E-03 0.  1.
         11   -1    0    0    0    0 -0.00000000000E+00 -0.00000000000E+00 -0.45593999997E+02  0.45594000000E+02  0.51100000000E-03 0. -1.
    9900012    2    1    2    0    0  0.14376762836E+02 -0.90922582466E+01  0.78305328471E+01  0.72461609148E+02  0.70000050614E+02 0.  0.
         12    1    1    2    0    0 -0.14376762836E+02  0.90922582466E+01 -0.78305328471E+01  0.18726390852E+02  0.00000000000E+00 0. -1.
         11    1    3    3    0    0  0.36666854362E+00 -0.20847637128E+02  0.10591793721E+02  0.23386844895E+02  0.51100000000E-03 0. -1.
        -11    1    3    3    0    0 -0.10486911674E+02  0.15439604403E+02 -0.12492707235E+02  0.22459395248E+02  0.51100000000E-03 0.  1.
        -12    1    3    3    0    0  0.24497005967E+02 -0.36842255212E+01  0.97314463609E+01  0.26615369005E+02  0.00000000000E+00 0.  1.
</event>
<event>
 7    1  0.1302069E-013  0.7246158E+02  0.7816164E-02  0.1226708E+00
        -11   -1    0    0    0    0  0.00000000000E+00  0.00000000000E+00  0.45593999997E+02  0.45594000000E+02  0.51100000000E-03 0.  1.
         11   -1    0    0    0    0 -0.00000000000E+00 -0.00000000000E+00 -0.45593999997E+02  0.45594000000E+02  0.51100000000E-03 0. -1.
    9900012    2    1    2    0    0 -0.10833816014E+02  0.41569203873E+01  0.14697861225E+02  0.72461583335E+02  0.70000016988E+02 0.  0.
         12    1    1    2    0    0  0.10833816014E+02 -0.41569203873E+01 -0.14697861225E+02  0.18726416665E+02  0.00000000000E+00 0. -1.
         11    1    3    3    0    0 -0.15006992891E+02  0.26193653050E+02  0.80741701900E+01  0.31249152313E+02  0.51100000000E-03 0.  1.
        -11    1    3    3    0    0  0.58758522549E+01 -0.23869339736E+02  0.17421027404E+02  0.30129109101E+02  0.51100000000E-03 0. -1.
         12    1    3    3    0    0 -0.17026753786E+01  0.18326070729E+01 -0.10797336370E+02  0.11083321921E+02  0.00000000000E+00 0. -1.
</event>
<event>
 7    1  0.1302069E-013  0.7246155E+02  0.7816164E-02  0.1226708E+00
        -11   -1    0    0    0    0  0.00000000000E+00  0.00000000000E+00  0.45593999997E+02  0.45594000000E+02  0.51100000000E-03 0. -1.
         11   -1    0    0    0    0 -0.00000000000E+00 -0.00000000000E+00 -0.45593999997E+02  0.45594000000E+02  0.51100000000E-03 0.  1.
    9900012    2    1    2    0    0  0.17771438202E+02  0.54529044288E+01  0.22631143825E+01  0.72461551613E+02  0.69999975664E+02 0.  0.
         12    1    1    2    0    0 -0.17771438202E+02 -0.54529044288E+01 -0.22631143825E+01  0.18726448387E+02  0.00000000000E+00 0. -1.
         11    1    3    3    0    0  0.20186374298E+02  0.19950041825E+02 -0.13895426104E+02  0.31600264920E+02  0.51100000000E-03 0.  1.
        -11    1    3    3    0    0 -0.90153328148E+01 -0.24107846268E+02  0.95047843850E+01  0.27437299501E+02  0.51100000000E-03 0. -1.
         12    1    3    3    0    0  0.66003967191E+01  0.96107088721E+01  0.66537561018E+01  0.13423987192E+02  0.00000000000E+00 0. -1.
</event>
<event>
 7    1  0.1302069E-013  0.7246158E+02  0.7816164E-02  0.1226708E+00
        -11   -1    0    0    0    0  0.00000000000E+00  0.00000000000E+00  0.45593999997E+02  0.45594000000E+02  0.51100000000E-03 0. -1.
         11   -1    0    0    0    0 -0.00000000000E+00 -0.00000000000E+00 -0.45593999997E+02  0.45594000000E+02  0.51100000000E-03 0.  1.
    9900012    2    1    2    0    0  0.27256788892E+01  0.14658657317E+02 -0.11330199200E+02  0.72461575524E+02  0.70000006812E+02 0.  0.
         12    1    1    2    0    0 -0.27256788892E+01 -0.14658657317E+02  0.11330199200E+02  0.18726424476E+02  0.00000000000E+00 0. -1.
         11    1    3    3    0    0  0.79590515338E+01 -0.10858845198E+01  0.21370654975E+02  0.22830473951E+02  0.51100000000E-03 0. -1.
        -11    1    3    3    0    0 -0.96646173646E+01  0.39243978373E+00 -0.32224828207E+02  0.33645183772E+02  0.51100000000E-03 0.  1.
         12    1    3    3    0    0  0.44312447199E+01  0.15352102053E+02 -0.47602596851E+00  0.15985917801E+02  0.00000000000E+00 0. -1.
</event>
<event>
 7    1  0.1302069E-013  0.7246134E+02  0.7816164E-02  0.1226709E+00
        -11   -1    0    0    0    0  0.00000000000E+00  0.00000000000E+00  0.45593999997E+02  0.45594000000E+02  0.51100000000E-03 0. -1.
         11   -1    0    0    0    0 -0.00000000000E+00 -0.00000000000E+00 -0.45593999997E+02  0.45594000000E+02  0.51100000000E-03 0.  1.
    9900012    2    1    2    0    0 -0.12490960200E+02 -0.11352142648E+02 -0.81112651378E+01  0.72461338483E+02  0.69999698023E+02 0.  0.
         12    1    1    2    0    0  0.12490960200E+02  0.11352142648E+02  0.81112651378E+01  0.18726661517E+02  0.00000000000E+00 0. -1.
         11    1    3    3    0    0 -0.32209062464E+02 -0.28183994080E+02  0.13792957114E+01  0.42821299420E+02  0.51100000000E-03 0. -1.
        -11    1    3    3    0    0  0.74965601940E+01  0.46425323240E+01 -0.86598118599E+01  0.12358958809E+02  0.51100000000E-03 0.  1.
         12    1    3    3    0    0  0.12221542070E+02  0.12189319108E+02 -0.83074898935E+00  0.17281080255E+02  0.00000000000E+00 0. -1.
</event>
<event>
 7    1  0.1302069E-013  0.7246157E+02  0.7816164E-02  0.1226708E+00
        -11   -1    0    0    0    0  0.00000000000E+00  0.00000000000E+00  0.45593999997E+02  0.45594000000E+02  0.51100000000E-03 0.  1.
         11   -1    0    0    0    0 -0.00000000000E+00 -0.00000000000E+00 -0.45593999997E+02  0.45594000000E+02  0.51100000000E-03 0. -1.
    9900012    2    1    2    0    0 -0.14484550683E+02  0.11738771418E+02  0.17544385548E+01  0.72461574353E+02  0.70000005287E+02 0.  0.
         12    1    1    2    0    0  0.14484550683E+02 -0.11738771418E+02 -0.17544385548E+01  0.18726425647E+02  0.00000000000E+00 0. -1.
         11    1    3    3    0    0 -0.17807309142E+02 -0.11426545594E+02 -0.67259915143E+01  0.22201467636E+02  0.51100000000E-03 0. -1.
        -11    1    3    3    0    0 -0.97861889076E+01  0.21735131538E+02  0.21228220020E+02  0.31919003146E+02  0.51100000000E-03 0.  1.
        -12    1    3    3    0    0  0.13108947367E+02  0.14301854742E+01 -0.12747789951E+02  0.18341103571E+02  0.00000000000E+00 0.  1.
</event>
<event>
 7    1  0.1302069E-013  0.7246156E+02  0.7816164E-02  0.1226708E+00
        -11   -1    0    0    0    0  0.00000000000E+00  0.00000000000E+00  0.45593999997E+02  0.45594000000E+02  0.51100000000E-03 0.  1.
         11   -1    0    0    0    0 -0.00000000000E+00 -0.00000000000E+00 -0.45593999997E+02  0.45594000000E+02  0.51100000000E-03 0. -1.
    9900012    2    1    2    0    0 -0.37580141542E+01 -0.14893099018E+02  0.10712267073E+02  0.72461555207E+02  0.69999980347E+02 0.  0.
         12    1    1    2    0    0  0.37580141542E+01  0.14893099018E+02 -0.10712267073E+02  0.18726444793E+02  0.00000000000E+00 0. -1.
         11    1    3    3    0    0  0.16090198965E+02 -0.22805856260E+02  0.93202679512E+01  0.29425651690E+02  0.51100000000E-03 0. -1.
        -11    1    3    3    0    0 -0.21132060202E+02  0.72041648098E+01  0.16559839441E+02  0.27797342347E+02  0.51100000000E-03 0.  1.
         12    1    3    3    0    0  0.12838470832E+01  0.70859243233E+00 -0.15167840320E+02  0.15238561170E+02  0.00000000000E+00 0. -1.
</event>
<event>
 7    1  0.1302069E-013  0.7246160E+02  0.7816164E-02  0.1226708E+00
        -11   -1    0    0    0    0  0.00000000000E+00  0.00000000000E+00  0.45593999997E+02  0.45594000000E+02  0.51100000000E-03 0.  1.
         11   -1    0    0    0    0 -0.00000000000E+00 -0.00000000000E+00 -0.45593999997E+02  0.45594000000E+02  0.51100000000E-03 0. -1.
    9900012    2    1    2    0    0 -0.70721411928E+01  0.84824813059E+01  0.15123176752E+02  0.72461597643E+02  0.70000035627E+02 0.  0.
         12    1    1    2    0    0  0.70721411928E+01 -0.84824813059E+01 -0.15123176752E+02  0.18726402357E+02  0.00000000000E+00 0. -1.
         11    1    3    3    0    0  0.17958255020E+02 -0.74465589124E+01  0.95913587394E+01  0.21678199320E+02  0.51100000000E-03 0. -1.
        -11    1    3    3    0    0 -0.31101074824E+02  0.24710851072E+01 -0.63420990548E+01  0.31837169119E+02  0.51100000000E-03 0.  1.
        -12    1    3    3    0    0  0.60706786110E+01  0.13457955111E+02  0.11873917067E+02  0.18946229205E+02  0.00000000000E+00 0.  1.
</event>
<event>
 7    1  0.1302069E-013  0.7246164E+02  0.7816164E-02  0.1226708E+00
        -11   -1    0    0    0    0  0.00000000000E+00  0.00000000000E+00  0.45593999997E+02  0.45594000000E+02  0.51100000000E-03 0.  1.
         11   -1    0    0    0    0 -0.00000000000E+00 -0.00000000000E+00 -0.45593999997E+02  0.45594000000E+02  0.51100000000E-03 0. -1.
    9900012    2    1    2    0    0 -0.76999021175E+01  0.57123913769E+01  0.16085909045E+02  0.72461644838E+02  0.70000097107E+02 0.  0.
         12    1    1    2    0    0  0.76999021175E+01 -0.57123913769E+01 -0.16085909045E+02  0.18726355162E+02  0.00000000000E+00 0. -1.
         11    1    3    3    0    0 -0.24528946694E+02  0.42469329453E+01  0.21879148327E+02  0.33142160417E+02  0.51100000000E-03 0. -1.
        -11    1    3    3    0    0  0.23343922394E+02 -0.10093271188E+02 -0.19568498697E+01  0.25507687031E+02  0.51100000000E-03 0.  1.
        -12    1    3    3    0    0 -0.65148778179E+01  0.11558729619E+02 -0.38363894129E+01  0.13811797389E+02  0.00000000000E+00 0.  1.
</event>
<event>
 7    1  0.1302069E-013  0.7246156E+02  0.7816164E-02  0.1226708E+00
        -11   -1    0    0    0    0  0.00000000000E+00  0.00000000000E+00  0.45593999997E+02  0.45594000000E+02  0.51100000000E-03 0. -1.
         11   -1    0    0    0    0 -0.00000000000E+00 -0.00000000000E+00 -0.45593999997E+02  0.45594000000E+02  0.51100000000E-03 0.  1.
    9900012    2    1    2    0    0  0.17025429178E+02 -0.27677528519E+01  0.72906736040E+01  0.72461558369E+02  0.69999984465E+02 0.  0.
         12    1    1    2    0    0 -0.17025429178E+02  0.27677528519E+01 -0.72906736040E+01  0.18726441631E+02  0.00000000000E+00 0. -1.
         11    1    3    3    0    0 -0.10059786658E+02  0.24065148297E+01  0.10960622188E+02  0.15070695413E+02  0.51100000000E-03 0. -1.
        -11    1    3    3    0    0  0.27204995457E+02 -0.23048947574E+02  0.73306987543E+01  0.36401990421E+02  0.51100000000E-03 0.  1.
        -12    1    3    3    0    0 -0.11977962102E+00  0.17874679893E+02 -0.11000647338E+02  0.20988872535E+02  0.00000000000E+00 0.  1.
</event>
<event>
 7    1  0.1302069E-013  0.7246161E+02  0.7816164E-02  0.1226708E+00
        -11   -1    0    0    0    0  0.00000000000E+00  0.00000000000E+00  0.45593999997E+02  0.45594000000E+02  0.51100000000E-03 0. -1.
         11   -1    0    0    0    0 -0.00000000000E+00 -0.00000000000E+00 -0.45593999997E+02  0.45594000000E+02  0.51100000000E-03 0.  1.
    9900012    2    1    2    0    0 -0.13497649956E+02  0.32666102027E+01 -0.12562662064E+02  0.72461607537E+02  0.70000048515E+02 0.  0.
         12    1    1    2    0    0  0.13497649956E+02 -0.32666102027E+01  0.12562662064E+02  0.18726392463E+02  0.00000000000E+00 0. -1.
         11    1    3    3    0    0 -0.18741623245E+02 -0.52416445556E+01  0.76584275865E+00  0.19475877256E+02  0.51100000000E-03 0. -1.
        -11    1    3    3    0    0 -0.41643786506E+01  0.22180524512E+02 -0.24243180574E+02  0.33121737903E+02  0.51100000000E-03 0.  1.
        -12    1    3    3    0    0  0.94083519393E+01 -0.13672269753E+02  0.10914675751E+02  0.19863992377E+02  0.00000000000E+00 0.  1.
</event>
<event>
 7    1  0.1302069E-013  0.7246161E+02  0.7816164E-02  0.1226708E+00
        -11   -1    0    0    0    0  0.00000000000E+00  0.00000000000E+00  0.45593999997E+02  0.45594000000E+02  0.51100000000E-03 0.  1.
         11   -1    0    0    0    0 -0.00000000000E+00 -0.00000000000E+00 -0.45593999997E+02  0.45594000000E+02  0.51100000000E-03 0. -1.
    9900012    2    1    2    0    0 -0.43379220625E+01 -0.52240581293E+01  0.17451918215E+02  0.72461606846E+02  0.70000047616E+02 0.  0.
         12    1    1    2    0    0  0.43379220625E+01  0.52240581293E+01 -0.17451918215E+02  0.18726393154E+02  0.00000000000E+00 0. -1.
         11    1    3    3    0    0  0.11515580032E+02  0.10236982969E+02  0.30005992752E+02  0.33730757552E+02  0.51100000000E-03 0.  1.
        -11    1    3    3    0    0 -0.82895593218E+01 -0.18149724116E+02 -0.19658897392E+02  0.28010739479E+02  0.51100000000E-03 0. -1.
         12    1    3    3    0    0 -0.75639427729E+01  0.26886830177E+01  0.71048228555E+01  0.10720109815E+02  0.00000000000E+00 0. -1.
</event>
<event>
 7    1  0.1421259E-013  0.7246163E+02  0.7816164E-02  0.1226708E+00
        -11   -1    0    0    0    0  0.00000000000E+00  0.00000000000E+00  0.45593999997E+02  0.45594000000E+02  0.51100000000E-03 0.  1.
         11   -1    0    0    0    0 -0.00000000000E+00 -0.00000000000E+00 -0.45593999997E+02  0.45594000000E+02  0.51100000000E-03 0. -1.
    9900012    2    1    2    0    0 -0.16011488663E+02 -0.97002663417E+01 -0.46240073037E+00  0.72461634876E+02  0.70000084130E+02 0.  0.
         12    1    1    2    0    0  0.16011488663E+02  0.97002663417E+01  0.46240073037E+00  0.18726365124E+02  0.00000000000E+00 0. -1.
         11    1    3    3    0    0  0.96114833540E+01 -0.10143476977E+02 -0.20008083435E+02  0.24404797488E+02  0.51100000000E-03 0. -1.
        -11    1    3    3    0    0 -0.24593677434E+02  0.11613860499E+02  0.20519710323E+01  0.27275287547E+02  0.51100000000E-03 0.  1.
        -12    1    3    3    0    0 -0.10292945834E+01 -0.11170649864E+02  0.17493711672E+02  0.20781549841E+02  0.00000000000E+00 0.  1.
</event>
<event>
 7    1  0.2573990E-013  0.7246148E+02  0.7816164E-02  0.1226708E+00
        -11   -1    0    0    0    0  0.00000000000E+00  0.00000000000E+00  0.45593999997E+02  0.45594000000E+02  0.51100000000E-03 0. -1.
         11   -1    0    0    0    0 -0.00000000000E+00 -0.00000000000E+00 -0.45593999997E+02  0.45594000000E+02  0.51100000000E-03 0.  1.
    9900012    2    1    2    0    0 -0.61040250694E+01  0.24927988583E+01 -0.17527391519E+02  0.72461478122E+02  0.69999879928E+02 0.  0.
         12    1    1    2    0    0  0.61040250694E+01 -0.24927988583E+01  0.17527391519E+02  0.18726521878E+02  0.00000000000E+00 0. -1.
         11    1    3    3    0    0  0.72715439812E+00  0.74784516648E+01  0.15009051395E+02  0.16784743575E+02  0.51100000000E-03 0. -1.
        -11    1    3    3    0    0 -0.10428127635E+02  0.10047952121E+02 -0.36879106649E+02  0.39620394941E+02  0.51100000000E-03 0.  1.
        -12    1    3    3    0    0  0.35969481679E+01 -0.15033604927E+02  0.43426637346E+01  0.16056339606E+02  0.00000000000E+00 0.  1.
</event>
<event>
 7    1  0.1302069E-013  0.7246132E+02  0.7816164E-02  0.1226709E+00
        -11   -1    0    0    0    0  0.00000000000E+00  0.00000000000E+00  0.45593999997E+02  0.45594000000E+02  0.51100000000E-03 0. -1.
         11   -1    0    0    0    0 -0.00000000000E+00 -0.00000000000E+00 -0.45593999997E+02  0.45594000000E+02  0.51100000000E-03 0.  1.
    9900012    2    1    2    0    0  0.73425572427E+01  0.46419674664E+01 -0.16589985365E+02  0.72461317880E+02  0.69999671183E+02 0.  0.
         12    1    1    2    0    0 -0.73425572427E+01 -0.46419674664E+01  0.16589985365E+02  0.18726682120E+02  0.00000000000E+00 0. -1.
         11    1    3    3    0    0  0.17271675068E+02 -0.22021932361E+02 -0.20595196869E+02  0.34748214327E+02  0.51100000000E-03 0. -1.
        -11    1    3    3    0    0 -0.14290589720E+02  0.59665719211E+01  0.56801868232E+01  0.16495013114E+02  0.51100000000E-03 0.  1.
        -12    1    3    3    0    0  0.43614718939E+01  0.20697327906E+02 -0.16749753185E+01  0.21218090439E+02  0.00000000000E+00 0.  1.
</event>
<event>
 7    1  0.1302069E-013  0.7246169E+02  0.7816164E-02  0.1226708E+00
        -11   -1    0    0    0    0  0.00000000000E+00  0.00000000000E+00  0.45593999997E+02  0.45594000000E+02  0.51100000000E-03 0. -1.
         11   -1    0    0    0    0 -0.00000000000E+00 -0.00000000000E+00 -0.45593999997E+02  0.45594000000E+02  0.51100000000E-03 0.  1.
    9900012    2    1    2    0    0 -0.14471683593E+02 -0.10511385826E+02 -0.55457813809E+01  0.72461693660E+02  0.70000160707E+02 0.  0.
         12    1    1    2    0    0  0.14471683593E+02  0.10511385826E+02  0.55457813809E+01  0.18726306340E+02  0.00000000000E+00 0. -1.
         11    1    3    3    0    0  0.14202481022E+00 -0.12599623616E+02 -0.26436794873E+02  0.29286085599E+02  0.51100000000E-03 0. -1.
        -11    1    3    3    0    0 -0.18243030145E+01  0.16223620640E+02  0.17282990331E+02  0.23774686185E+02  0.51100000000E-03 0.  1.
         12    1    3    3    0    0 -0.12789405389E+02 -0.14135382850E+02  0.36080231616E+01  0.19400921876E+02  0.00000000000E+00 0. -1.
</event>
<event>
 7    1  0.1302069E-013  0.7246168E+02  0.7816164E-02  0.1226708E+00
        -11   -1    0    0    0    0  0.00000000000E+00  0.00000000000E+00  0.45593999997E+02  0.45594000000E+02  0.51100000000E-03 0.  1.
         11   -1    0    0    0    0 -0.00000000000E+00 -0.00000000000E+00 -0.45593999997E+02  0.45594000000E+02  0.51100000000E-03 0. -1.
    9900012    2    1    2    0    0 -0.11202205022E+02  0.14888972968E+02  0.18719108885E+01  0.72461682589E+02  0.70000146285E+02 0.  0.
         12    1    1    2    0    0  0.11202205022E+02 -0.14888972968E+02 -0.18719108885E+01  0.18726317411E+02  0.00000000000E+00 0. -1.
         11    1    3    3    0    0  0.55133383147E+01 -0.18863341344E+02 -0.11118639470E+02  0.22579784985E+02  0.51100000000E-03 0. -1.
        -11    1    3    3    0    0 -0.12617515266E+02  0.88912928738E+01  0.18496294791E+02  0.24090863449E+02  0.51100000000E-03 0.  1.
         12    1    3    3    0    0 -0.40980280701E+01  0.24861021439E+02 -0.55057444324E+01  0.25791034155E+02  0.00000000000E+00 0. -1.
</event>
<event>
 7    1  0.1302069E-013  0.7246149E+02  0.7816164E-02  0.1226708E+00
        -11   -1    0    0    0    0  0.00000000000E+00  0.00000000000E+00  0.45593999997E+02  0.45594000000E+02  0.51100000000E-03 0. -1.
         11   -1    0    0    0    0 -0.00000000000E+00 -0.00000000000E+00 -0.45593999997E+02  0.45594000000E+02  0.51100000000E-03 0.  1.
    9900012    2    1    2    0    0  0.69120966535E+01 -0.15894060000E+02 -0.70911119332E+01  0.72461492267E+02  0.69999898355E+02 0.  0.
         12    1    1    2    0    0 -0.69120966535E+01  0.15894060000E+02  0.70911119332E+01  0.18726507733E+02  0.00000000000E+00 0. -1.
         11    1    3    3    0    0  0.28328292558E+02  0.54835431435E+01  0.14108015607E+02  0.32118491703E+02  0.51100000000E-03 0. -1.
        -11    1    3    3    0    0 -0.96853934006E+01 -0.17735820463E+02 -0.65880694485E+01  0.21254854320E+02  0.51100000000E-03 0.  1.
         12    1    3    3    0    0 -0.11730802504E+02 -0.36417826801E+01 -0.14611058092E+02  0.19088146244E+02  0.00000000000E+00 0. -1.
</event>
<event>
 7    1  0.1302069E-013  0.7246154E+02  0.7816164E-02  0.1226708E+00
        -11   -1    0    0    0    0  0.00000000000E+00  0.00000000000E+00  0.45593999997E+02  0.45594000000E+02  0.51100000000E-03 0.  1.
         11   -1    0    0    0    0 -0.00000000000E+00 -0.00000000000E+00 -0.45593999997E+02  0.45594000000E+02  0.51100000000E-03 0. -1.
    9900012    2    1    2    0    0  0.13213366544E+02  0.16208465353E+01  0.13170426486E+02  0.72461539236E+02  0.69999959541E+02 0.  0.
         12    1    1    2    0    0 -0.13213366544E+02 -0.16208465353E+01 -0.13170426486E+02  0.18726460764E+02  0.00000000000E+00 0. -1.
         11    1    3    3    0    0  0.24504509561E+02  0.69050156038E+01 -0.11057656670E+02  0.27756476733E+02  0.51100000000E-03 0. -1.
        -11    1    3    3    0    0 -0.18840086866E+01 -0.16802946187E+02  0.24574032265E+02  0.29829038726E+02  0.51100000000E-03 0.  1.
        -12    1    3    3    0    0 -0.94071343310E+01  0.11518777118E+02 -0.34594910912E+00  0.14876023777E+02  0.00000000000E+00 0.  1.
</event>
<event>
 7    1  0.1302069E-013  0.7246175E+02  0.7816164E-02  0.1226708E+00
        -11   -1    0    0    0    0  0.00000000000E+00  0.00000000000E+00  0.45593999997E+02  0.45594000000E+02  0.51100000000E-03 0.  1.
         11   -1    0    0    0    0 -0.00000000000E+00 -0.00000000000E+00 -0.45593999997E+02  0.45594000000E+02  0.51100000000E-03 0. -1.
    9900012    2    1    2    0    0 -0.83231238739E+01 -0.44976400214E+01  0.16160738098E+02  0.72461745365E+02  0.70000228061E+02 0.  0.
         12    1    1    2    0    0  0.83231238739E+01  0.44976400214E+01 -0.16160738098E+02  0.18726254635E+02  0.00000000000E+00 0. -1.
         11    1    3    3    0    0  0.85648954100E+01 -0.26799594966E+02  0.90046732679E+01  0.29540816926E+02  0.51100000000E-03 0. -1.
        -11    1    3    3    0    0 -0.18710173480E+01  0.14716549965E+02  0.17677730666E+02  0.23077688588E+02  0.51100000000E-03 0.  1.
        -12    1    3    3    0    0 -0.15017001936E+02  0.75854049794E+01 -0.10521665835E+02  0.19843239851E+02  0.00000000000E+00 0.  1.
</event>
<event>
 7    1  0.1302069E-013  0.7246158E+02  0.7816164E-02  0.1226708E+00
        -11   -1    0    0    0    0  0.00000000000E+00  0.00000000000E+00  0.45593999997E+02  0.45594000000E+02  0.51100000000E-03 0. -1.
         11   -1    0    0    0    0 -0.00000000000E+00 -0.00000000000E+00 -0.45593999997E+02  0.45594000000E+02  0.51100000000E-03 0.  1.
    9900012    2    1    2    0    0  0.18589981871E+02 -0.72028740465E+00  0.21383514367E+01  0.72461580514E+02  0.70000013313E+02 0.  0.
         12    1    1    2    0    0 -0.18589981871E+02  0.72028740465E+00 -0.21383514367E+01  0.18726419486E+02  0.00000000000E+00 0. -1.
         11    1    3    3    0    0  0.19195520717E+02 -0.23067668164E+02  0.80055285428E+01  0.31059198599E+02  0.51100000000E-03 0. -1.
        -11    1    3    3    0    0 -0.15060263210E+02  0.11493380990E+02 -0.11869044650E+02  0.22355839409E+02  0.51100000000E-03 0.  1.
         12    1    3    3    0    0  0.14454724364E+02  0.10853999768E+02  0.60018675439E+01  0.19046542506E+02  0.00000000000E+00 0. -1.
</event>
<event>
 7    1  0.1302069E-013  0.7246163E+02  0.7816164E-02  0.1226708E+00
        -11   -1    0    0    0    0  0.00000000000E+00  0.00000000000E+00  0.45593999997E+02  0.45594000000E+02  0.51100000000E-03 0. -1.
         11   -1    0    0    0    0 -0.00000000000E+00 -0.00000000000E+00 -0.45593999997E+02  0.45594000000E+02  0.51100000000E-03 0.  1.
    9900012    2    1    2    0    0  0.10268775721E+02  0.11805464528E+01 -0.15615227417E+02  0.72461634308E+02  0.70000083390E+02 0.  0.
         12    1    1    2    0    0 -0.10268775721E+02 -0.11805464528E+01  0.15615227417E+02  0.18726365692E+02  0.00000000000E+00 0. -1.
         11    1    3    3    0    0  0.24974273006E+02 -0.95938431374E+01 -0.32858798783E+02  0.42372830872E+02  0.51100000000E-03 0. -1.
        -11    1    3    3    0    0 -0.10620029085E+02  0.12294720490E+02  0.48559606630E+01  0.16956577601E+02  0.51100000000E-03 0.  1.
         12    1    3    3    0    0 -0.40854682003E+01 -0.15203309002E+01  0.12387610703E+02  0.13132225836E+02  0.00000000000E+00 0. -1.
</event>
<event>
 7    1  0.1302069E-013  0.7246170E+02  0.7816164E-02  0.1226708E+00
        -11   -1    0    0    0    0  0.00000000000E+00  0.00000000000E+00  0.45593999997E+02  0.45594000000E+02  0.51100000000E-03 0.  1.
         11   -1    0    0    0    0 -0.00000000000E+00 -0.00000000000E+00 -0.45593999997E+02  0.45594000000E+02  0.51100000000E-03 0. -1.
    9900012    2    1    2    0    0  0.76367836610E+00  0.66543204946E+01  0.17487455501E+02  0.72461700691E+02  0.70000169866E+02 0.  0.
         12    1    1    2    0    0 -0.76367836610E+00 -0.66543204946E+01 -0.17487455501E+02  0.18726299309E+02  0.00000000000E+00 0. -1.
         11    1    3    3    0    0  0.32275050319E+02 -0.19097666542E+01  0.19375779299E+02  0.37692796467E+02  0.51100000000E-03 0. -1.
        -11    1    3    3    0    0 -0.16307136451E+02 -0.16651385094E+01 -0.99797115413E+00  0.16422281576E+02  0.51100000000E-03 0.  1.
         12    1    3    3    0    0 -0.15204235502E+02  0.10229225658E+02 -0.89035264346E+00  0.18346622648E+02  0.00000000000E+00 0. -1.
</event>
<event>
 7    1  0.1302069E-013  0.7246157E+02  0.7816164E-02  0.1226708E+00
        -11   -1    0    0    0    0  0.00000000000E+00  0.00000000000E+00  0.45593999997E+02  0.45594000000E+02  0.51100000000E-03 0.  1.
         11   -1    0    0    0    0 -0.00000000000E+00 -0.00000000000E+00 -0.45593999997E+02  0.45594000000E+02  0.51100000000E-03 0. -1.
    9900012    2    1    2    0    0 -0.98530952597E+01 -0.28554949575E+01  0.15666581966E+02  0.72461571399E+02  0.70000001439E+02 0.  0.
         12    1    1    2    0    0  0.98530952597E+01  0.28554949575E+01 -0.15666581966E+02  0.18726428601E+02  0.00000000000E+00 0. -1.
         11    1    3    3    0    0 -0.35503500620E+02 -0.10922503115E+02 -0.43338597224E+01  0.37397619857E+02  0.51100000000E-03 0. -1.
        -11    1    3    3    0    0  0.12744410204E+02  0.64703183349E+01  0.16008631257E+02  0.21460691643E+02  0.51100000000E-03 0.  1.
         12    1    3    3    0    0  0.12905995156E+02  0.15966898230E+01  0.39918104319E+01  0.13603259899E+02  0.00000000000E+00 0. -1.
</event>
<event>
 7    1  0.1302069E-013  0.7246157E+02  0.7816164E-02  0.1226708E+00
        -11   -1    0    0    0    0  0.00000000000E+00  0.00000000000E+00  0.45593999997E+02  0.45594000000E+02  0.51100000000E-03 0.  1.
         11   -1    0    0    0    0 -0.00000000000E+00 -0.00000000000E+00 -0.45593999997E+02  0.45594000000E+02  0.51100000000E-03 0. -1.
    9900012    2    1    2    0    0 -0.88926378393E+01  0.13181974616E+02  0.98911953875E+01  0.72461569248E+02  0.69999998637E+02 0.  0.
         12    1    1    2    0    0  0.88926378393E+01 -0.13181974616E+02 -0.98911953875E+01  0.18726430752E+02  0.00000000000E+00 0. -1.
         11    1    3    3    0    0 -0.84318523220E+01 -0.26495057668E+02 -0.26233524192E+01  0.27927874832E+02  0.51100000000E-03 0. -1.
        -11    1    3    3    0    0 -0.10016252424E+01  0.15945131890E+02 -0.28893327360E+01  0.16235723822E+02  0.51100000000E-03 0.  1.
         12    1    3    3    0    0  0.54083972517E+00  0.23731900395E+02  0.15403880543E+02  0.28297970594E+02  0.00000000000E+00 0. -1.
</event>
<event>
 7    1  0.1302069E-013  0.7246159E+02  0.7816164E-02  0.1226708E+00
        -11   -1    0    0    0    0  0.00000000000E+00  0.00000000000E+00  0.45593999997E+02  0.45594000000E+02  0.51100000000E-03 0. -1.
         11   -1    0    0    0    0 -0.00000000000E+00 -0.00000000000E+00 -0.45593999997E+02  0.45594000000E+02  0.51100000000E-03 0.  1.
    9900012    2    1    2    0    0 -0.14788218423E+01 -0.18017039015E+02 -0.48864820389E+01  0.72461593093E+02  0.70000029700E+02 0.  0.
         12    1    1    2    0    0  0.14788218423E+01  0.18017039015E+02  0.48864820389E+01  0.18726406907E+02  0.00000000000E+00 0. -1.
         11    1    3    3    0    0 -0.15324870768E+02 -0.28468380679E+02  0.15613646172E+02  0.35903848117E+02  0.51100000000E-03 0. -1.
        -11    1    3    3    0    0 -0.23721700003E+01 -0.57460843383E+01 -0.89329284704E+01  0.10883100985E+02  0.51100000000E-03 0.  1.
         12    1    3    3    0    0  0.16218218926E+02  0.16197426002E+02 -0.11567199740E+02  0.25674643991E+02  0.00000000000E+00 0. -1.
</event>
<event>
 7    1  0.1302069E-013  0.7246157E+02  0.7816164E-02  0.1226708E+00
        -11   -1    0    0    0    0  0.00000000000E+00  0.00000000000E+00  0.45593999997E+02  0.45594000000E+02  0.51100000000E-03 0. -1.
         11   -1    0    0    0    0 -0.00000000000E+00 -0.00000000000E+00 -0.45593999997E+02  0.45594000000E+02  0.51100000000E-03 0.  1.
    9900012    2    1    2    0    0 -0.16917389228E+02  0.61065561563E+01 -0.52144902456E+01  0.72461574957E+02  0.70000006074E+02 0.  0.
         12    1    1    2    0    0  0.16917389228E+02 -0.61065561563E+01  0.52144902456E+01  0.18726425043E+02  0.00000000000E+00 0. -1.
         11    1    3    3    0    0 -0.21115041531E+01 -0.42510660236E+01  0.23969363450E+02  0.24434819348E+02  0.51100000000E-03 0. -1.
        -11    1    3    3    0    0 -0.13142287489E+02 -0.10543008213E+02 -0.99084923762E+01  0.19546175177E+02  0.51100000000E-03 0.  1.
         12    1    3    3    0    0 -0.16635975858E+01  0.20900630393E+02 -0.19275361319E+02  0.28480580432E+02  0.00000000000E+00 0. -1.
</event>
<event>
 7    1  0.1302069E-013  0.7246152E+02  0.7816164E-02  0.1226708E+00
        -11   -1    0    0    0    0  0.00000000000E+00  0.00000000000E+00  0.45593999997E+02  0.45594000000E+02  0.51100000000E-03 0.  1.
         11   -1    0    0    0    0 -0.00000000000E+00 -0.00000000000E+00 -0.45593999997E+02  0.45594000000E+02  0.51100000000E-03 0. -1.
    9900012    2    1    2    0    0  0.66973019338E+01  0.17198237397E+02 -0.31698604936E+01  0.72461515057E+02  0.69999928043E+02 0.  0.
         12    1    1    2    0    0 -0.66973019338E+01 -0.17198237397E+02  0.31698604936E+01  0.18726484943E+02  0.00000000000E+00 0. -1.
         11    1    3    3    0    0 -0.15716688936E+02 -0.82680073207E+01  0.18009363720E+02  0.25292517431E+02  0.51100000000E-03 0.  1.
        -11    1    3    3    0    0  0.78405053511E+01  0.25018169235E+02 -0.19108045631E+02  0.32442252143E+02  0.51100000000E-03 0. -1.
        -12    1    3    3    0    0  0.14573485518E+02  0.44807548288E+00 -0.20711785826E+01  0.14726745483E+02  0.00000000000E+00 0.  1.
</event>
<event>
 7    1  0.1302069E-013  0.7246207E+02  0.7816164E-02  0.1226707E+00
        -11   -1    0    0    0    0  0.00000000000E+00  0.00000000000E+00  0.45593999997E+02  0.45594000000E+02  0.51100000000E-03 0. -1.
         11   -1    0    0    0    0 -0.00000000000E+00 -0.00000000000E+00 -0.45593999997E+02  0.45594000000E+02  0.51100000000E-03 0.  1.
    9900012    2    1    2    0    0  0.18606283234E+02 -0.19848518207E+01 -0.72585560044E+00  0.72462074685E+02  0.70000657060E+02 0.  0.
         12    1    1    2    0    0 -0.18606283234E+02  0.19848518207E+01  0.72585560044E+00  0.18725925315E+02  0.00000000000E+00 0. -1.
         11    1    3    3    0    0 -0.34016371143E+01 -0.35462682600E+01  0.93922517342E+01  0.10600072949E+02  0.51100000000E-03 0. -1.
        -11    1    3    3    0    0 -0.19053747676E+01  0.79586845465E+01 -0.29378798222E+02  0.30497293289E+02  0.51100000000E-03 0.  1.
        -12    1    3    3    0    0  0.23913295116E+02 -0.63972681072E+01  0.19260690887E+02  0.31364708447E+02  0.00000000000E+00 0.  1.
</event>
<event>
 7    1  0.1302069E-013  0.7246154E+02  0.7816164E-02  0.1226708E+00
        -11   -1    0    0    0    0  0.00000000000E+00  0.00000000000E+00  0.45593999997E+02  0.45594000000E+02  0.51100000000E-03 0. -1.
         11   -1    0    0    0    0 -0.00000000000E+00 -0.00000000000E+00 -0.45593999997E+02  0.45594000000E+02  0.51100000000E-03 0.  1.
    9900012    2    1    2    0    0 -0.16165965935E+02 -0.48199053061E+01 -0.81308181843E+01  0.72461544219E+02  0.69999966032E+02 0.  0.
         12    1    1    2    0    0  0.16165965935E+02  0.48199053061E+01  0.81308181843E+01  0.18726455781E+02  0.00000000000E+00 0. -1.
         11    1    3    3    0    0  0.47752236090E+01 -0.88276320233E+01  0.15805106531E+01  0.10160111310E+02  0.51100000000E-03 0. -1.
        -11    1    3    3    0    0 -0.15010510954E+02  0.21370361028E+02  0.16065813726E+02  0.30661346033E+02  0.51100000000E-03 0.  1.
        -12    1    3    3    0    0 -0.59306785898E+01 -0.17362634311E+02 -0.25777142564E+02  0.31640086876E+02  0.00000000000E+00 0.  1.
</event>
<event>
 7    1  0.1302069E-013  0.7246162E+02  0.7816164E-02  0.1226708E+00
        -11   -1    0    0    0    0  0.00000000000E+00  0.00000000000E+00  0.45593999997E+02  0.45594000000E+02  0.51100000000E-03 0.  1.
         11   -1    0    0    0    0 -0.00000000000E+00 -0.00000000000E+00 -0.45593999997E+02  0.45594000000E+02  0.51100000000E-03 0. -1.
    9900012    2    1    2    0    0 -0.29509723837E+01 -0.61029822741E+01  0.17456306042E+02  0.72461621512E+02  0.70000066721E+02 0.  0.
         12    1    1    2    0    0  0.29509723837E+01  0.61029822741E+01 -0.17456306042E+02  0.18726378488E+02  0.00000000000E+00 0. -1.
         11    1    3    3    0    0 -0.67315476854E+01 -0.16362681586E+02 -0.16337771212E+02  0.24082646270E+02  0.51100000000E-03 0. -1.
        -11    1    3    3    0    0  0.10917906201E+02 -0.42393746590E+01  0.29376956636E+02  0.31625599674E+02  0.51100000000E-03 0.  1.
         12    1    3    3    0    0 -0.71373308997E+01  0.14499073970E+02  0.44171206181E+01  0.16753375568E+02  0.00000000000E+00 0. -1.
</event>
<event>
 7    1  0.1302069E-013  0.7246163E+02  0.7816164E-02  0.1226708E+00
        -11   -1    0    0    0    0  0.00000000000E+00  0.00000000000E+00  0.45593999997E+02  0.45594000000E+02  0.51100000000E-03 0.  1.
         11   -1    0    0    0    0 -0.00000000000E+00 -0.00000000000E+00 -0.45593999997E+02  0.45594000000E+02  0.51100000000E-03 0. -1.
    9900012    2    1    2    0    0 -0.69660102227E+01 -0.31128104958E+01  0.17101525705E+02  0.72461626378E+02  0.70000073059E+02 0.  0.
         12    1    1    2    0    0  0.69660102227E+01  0.31128104958E+01 -0.17101525705E+02  0.18726373622E+02  0.00000000000E+00 0. -1.
         11    1    3    3    0    0 -0.32099666387E+02  0.12537887457E+01  0.28750888086E+02  0.43111183403E+02  0.51100000000E-03 0. -1.
        -11    1    3    3    0    0  0.12464812317E+02 -0.48514156959E+01 -0.97015897333E+01  0.16523577820E+02  0.51100000000E-03 0.  1.
         12    1    3    3    0    0  0.12668843847E+02  0.48481645437E+00 -0.19477726484E+01  0.12826865155E+02  0.00000000000E+00 0. -1.
</event>
<event>
 7    1  0.1302069E-013  0.7246154E+02  0.7816164E-02  0.1226708E+00
        -11   -1    0    0    0    0  0.00000000000E+00  0.00000000000E+00  0.45593999997E+02  0.45594000000E+02  0.51100000000E-03 0.  1.
         11   -1    0    0    0    0 -0.00000000000E+00 -0.00000000000E+00 -0.45593999997E+02  0.45594000000E+02  0.51100000000E-03 0. -1.
    9900012    2    1    2    0    0  0.80047487826E+01  0.12929962044E+02  0.10927959875E+02  0.72461542018E+02  0.69999963165E+02 0.  0.
         12    1    1    2    0    0 -0.80047487826E+01 -0.12929962044E+02 -0.10927959875E+02  0.18726457982E+02  0.00000000000E+00 0. -1.
         11    1    3    3    0    0  0.32252443196E+02  0.11445842561E+02  0.52861058165E+01  0.34629038667E+02  0.51100000000E-03 0. -1.
        -11    1    3    3    0    0 -0.16727989027E+02  0.50618518296E+01 -0.99828357832E+01  0.20127219663E+02  0.51100000000E-03 0.  1.
         12    1    3    3    0    0 -0.75197053861E+01 -0.35777323465E+01  0.15624689841E+02  0.17705283688E+02  0.00000000000E+00 0. -1.
</event>
<event>
 7    1  0.1302069E-013  0.7246158E+02  0.7816164E-02  0.1226708E+00
        -11   -1    0    0    0    0  0.00000000000E+00  0.00000000000E+00  0.45593999997E+02  0.45594000000E+02  0.51100000000E-03 0.  1.
         11   -1    0    0    0    0 -0.00000000000E+00 -0.00000000000E+00 -0.45593999997E+02  0.45594000000E+02  0.51100000000E-03 0. -1.
    9900012    2    1    2    0    0 -0.12941392118E+02 -0.77019833458E+01  0.11130081900E+02  0.72461577477E+02  0.70000009357E+02 0.  0.
         12    1    1    2    0    0  0.12941392118E+02  0.77019833458E+01 -0.11130081900E+02  0.18726422523E+02  0.00000000000E+00 0. -1.
         11    1    3    3    0    0  0.77388464391E+01 -0.21099866014E+02 -0.83179720036E+01  0.23964197223E+02  0.51100000000E-03 0. -1.
        -11    1    3    3    0    0 -0.45654835623E+01  0.24128536254E+02  0.14486315892E+02  0.28511107490E+02  0.51100000000E-03 0.  1.
        -12    1    3    3    0    0 -0.16114754995E+02 -0.10730653585E+02  0.49617380119E+01  0.19986272764E+02  0.00000000000E+00 0.  1.
</event>
<event>
 7    1  0.1302069E-013  0.7246157E+02  0.7816164E-02  0.1226708E+00
        -11   -1    0    0    0    0  0.00000000000E+00  0.00000000000E+00  0.45593999997E+02  0.45594000000E+02  0.51100000000E-03 0.  1.
         11   -1    0    0    0    0 -0.00000000000E+00 -0.00000000000E+00 -0.45593999997E+02  0.45594000000E+02  0.51100000000E-03 0. -1.
    9900012    2    1    2    0    0  0.95571588547E+01  0.12168702323E+02  0.10548107259E+02  0.72461570326E+02  0.70000000041E+02 0.  0.
         12    1    1    2    0    0 -0.95571588547E+01 -0.12168702323E+02 -0.10548107259E+02  0.18726429674E+02  0.00000000000E+00 0. -1.
         11    1    3    3    0    0  0.13565467161E+02  0.93044345329E+01  0.72940886000E+01  0.17994391627E+02  0.51100000000E-03 0. -1.
        -11    1    3    3    0    0  0.15071807782E+01 -0.24037012192E+02 -0.71160724189E+01  0.25113503060E+02  0.51100000000E-03 0.  1.
        -12    1    3    3    0    0 -0.55154890845E+01  0.26901279982E+02  0.10370091078E+02  0.29353675638E+02  0.00000000000E+00 0.  1.
</event>
<event>
 7    1  0.1302069E-013  0.7246158E+02  0.7816164E-02  0.1226708E+00
        -11   -1    0    0    0    0  0.00000000000E+00  0.00000000000E+00  0.45593999997E+02  0.45594000000E+02  0.51100000000E-03 0. -1.
         11   -1    0    0    0    0 -0.00000000000E+00 -0.00000000000E+00 -0.45593999997E+02  0.45594000000E+02  0.51100000000E-03 0.  1.
    9900012    2    1    2    0    0 -0.13818391209E+02  0.18343281457E+01 -0.12504641467E+02  0.72461581400E+02  0.70000014468E+02 0.  0.
         12    1    1    2    0    0  0.13818391209E+02 -0.18343281457E+01  0.12504641467E+02  0.18726418600E+02  0.00000000000E+00 0. -1.
         11    1    3    3    0    0  0.52347276941E+01 -0.12605336996E+02 -0.10035527763E+02  0.16941331487E+02  0.51100000000E-03 0. -1.
        -11    1    3    3    0    0  0.13418933150E+02  0.52694110133E+01  0.12047792772E+02  0.18787862312E+02  0.51100000000E-03 0.  1.
        -12    1    3    3    0    0 -0.32472052053E+02  0.91702541280E+01 -0.14516906476E+02  0.36732387602E+02  0.00000000000E+00 0.  1.
</event>
<event>
 7    1  0.1302069E-013  0.7246158E+02  0.7816164E-02  0.1226708E+00
        -11   -1    0    0    0    0  0.00000000000E+00  0.00000000000E+00  0.45593999997E+02  0.45594000000E+02  0.51100000000E-03 0. -1.
         11   -1    0    0    0    0 -0.00000000000E+00 -0.00000000000E+00 -0.45593999997E+02  0.45594000000E+02  0.51100000000E-03 0.  1.
    9900012    2    1    2    0    0 -0.13241848373E+01 -0.10766924124E+02 -0.15264290357E+02  0.72461583347E+02  0.70000017003E+02 0.  0.
         12    1    1    2    0    0  0.13241848373E+01  0.10766924124E+02  0.15264290357E+02  0.18726416653E+02  0.00000000000E+00 0. -1.
         11    1    3    3    0    0 -0.38785087252E+01 -0.12842870714E+02 -0.68810353088E+01  0.15077493335E+02  0.51100000000E-03 0. -1.
        -11    1    3    3    0    0  0.14906886371E+02  0.54770739608E+01  0.20414768836E+02  0.25864577850E+02  0.51100000000E-03 0.  1.
        -12    1    3    3    0    0 -0.12352562483E+02 -0.34011273711E+01 -0.28798023884E+02  0.31519512162E+02  0.00000000000E+00 0.  1.
</event>
<event>
 7    1  0.1302069E-013  0.7246156E+02  0.7816164E-02  0.1226708E+00
        -11   -1    0    0    0    0  0.00000000000E+00  0.00000000000E+00  0.45593999997E+02  0.45594000000E+02  0.51100000000E-03 0.  1.
         11   -1    0    0    0    0 -0.00000000000E+00 -0.00000000000E+00 -0.45593999997E+02  0.45594000000E+02  0.51100000000E-03 0. -1.
    9900012    2    1    2    0    0 -0.13115566281E+02  0.79105368752E+01  0.10774261322E+02  0.72461564686E+02  0.69999992695E+02 0.  0.
         12    1    1    2    0    0  0.13115566281E+02 -0.79105368752E+01 -0.10774261322E+02  0.18726435314E+02  0.00000000000E+00 0. -1.
         11    1    3    3    0    0  0.99734249355E+01 -0.14927644771E+02 -0.61094733072E+01  0.18963898537E+02  0.51100000000E-03 0. -1.
        -11    1    3    3    0    0 -0.14705840954E+02  0.19790103582E+02  0.29246574315E+02  0.38252739345E+02  0.51100000000E-03 0.  1.
        -12    1    3    3    0    0 -0.83831502620E+01  0.30480780644E+01 -0.12362839686E+02  0.15244926805E+02  0.00000000000E+00 0.  1.
</event>
<event>
 7    1  0.1302069E-013  0.7246158E+02  0.7816164E-02  0.1226708E+00
        -11   -1    0    0    0    0  0.00000000000E+00  0.00000000000E+00  0.45593999997E+02  0.45594000000E+02  0.51100000000E-03 0. -1.
         11   -1    0    0    0    0 -0.00000000000E+00 -0.00000000000E+00 -0.45593999997E+02  0.45594000000E+02  0.51100000000E-03 0.  1.
    9900012    2    1    2    0    0 -0.14429697727E+02 -0.77336496004E+01 -0.90913803467E+01  0.72461582584E+02  0.70000016010E+02 0.  0.
         12    1    1    2    0    0  0.14429697727E+02  0.77336496004E+01  0.90913803467E+01  0.18726417416E+02  0.00000000000E+00 0. -1.
         11    1    3    3    0    0  0.19783504360E+02  0.52181290397E+01  0.12150980113E+01  0.20496155222E+02  0.51100000000E-03 0. -1.
        -11    1    3    3    0    0 -0.17854493414E+02 -0.16837366961E+02 -0.20779234654E+02  0.32156748192E+02  0.51100000000E-03 0.  1.
         12    1    3    3    0    0 -0.16358708673E+02  0.38855883206E+01  0.10472756296E+02  0.19808679170E+02  0.00000000000E+00 0. -1.
</event>
<event>
 7    1  0.1444268E-013  0.7246161E+02  0.7816164E-02  0.1226708E+00
        -11   -1    0    0    0    0  0.00000000000E+00  0.00000000000E+00  0.45593999997E+02  0.45594000000E+02  0.51100000000E-03 0. -1.
         11   -1    0    0    0    0 -0.00000000000E+00 -0.00000000000E+00 -0.45593999997E+02  0.45594000000E+02  0.51100000000E-03 0.  1.
    9900012    2    1    2    0    0 -0.18637731059E+00  0.89616448056E+01 -0.16441770981E+02  0.72461610943E+02  0.70000052952E+02 0.  0.
         12    1    1    2    0    0  0.18637731059E+00 -0.89616448056E+01  0.16441770981E+02  0.18726389057E+02  0.00000000000E+00 0. -1.
         11    1    3    3    0    0 -0.22076434158E+01 -0.17334692083E+02 -0.10431993629E+01  0.17505813441E+02  0.51100000000E-03 0. -1.
        -11    1    3    3    0    0 -0.20426775641E+02  0.20425746023E+02 -0.12839986901E+02  0.31612173724E+02  0.51100000000E-03 0.  1.
        -12    1    3    3    0    0  0.22448041746E+02  0.58705908650E+01 -0.25585847174E+01  0.23343623778E+02  0.00000000000E+00 0.  1.
</event>
<event>
 7    1  0.1302069E-013  0.7246171E+02  0.7816164E-02  0.1226708E+00
        -11   -1    0    0    0    0  0.00000000000E+00  0.00000000000E+00  0.45593999997E+02  0.45594000000E+02  0.51100000000E-03 0.  1.
         11   -1    0    0    0    0 -0.00000000000E+00 -0.00000000000E+00 -0.45593999997E+02  0.45594000000E+02  0.51100000000E-03 0. -1.
    9900012    2    1    2    0    0 -0.13405037038E+02  0.76880221180E+01  0.10577012473E+02  0.72461711128E+02  0.70000183462E+02 0.  0.
         12    1    1    2    0    0  0.13405037038E+02 -0.76880221180E+01 -0.10577012473E+02  0.18726288872E+02  0.00000000000E+00 0. -1.
         11    1    3    3    0    0  0.20590014789E+02  0.62666147313E+01 -0.10473140769E+02  0.23935451679E+02  0.51100000000E-03 0. -1.
        -11    1    3    3    0    0 -0.26278726125E+02  0.51157602562E+00  0.27782670177E+02  0.38245390823E+02  0.51100000000E-03 0.  1.
        -12    1    3    3    0    0 -0.77163257018E+01  0.90983136112E+00 -0.67325169347E+01  0.10280868627E+02  0.00000000000E+00 0.  1.
</event>
<event>
 7    1  0.1302069E-013  0.7246167E+02  0.7816164E-02  0.1226708E+00
        -11   -1    0    0    0    0  0.00000000000E+00  0.00000000000E+00  0.45593999997E+02  0.45594000000E+02  0.51100000000E-03 0.  1.
         11   -1    0    0    0    0 -0.00000000000E+00 -0.00000000000E+00 -0.45593999997E+02  0.45594000000E+02  0.51100000000E-03 0. -1.
    9900012    2    1    2    0    0 -0.25517749661E+01  0.17375525019E+02  0.65003874697E+01  0.72461669275E+02  0.70000128941E+02 0.  0.
         12    1    1    2    0    0  0.25517749661E+01 -0.17375525019E+02 -0.65003874697E+01  0.18726330725E+02  0.00000000000E+00 0. -1.
         11    1    3    3    0    0 -0.13899978298E+02 -0.72682452141E+01  0.53393515058E+01  0.16569413386E+02  0.51100000000E-03 0. -1.
        -11    1    3    3    0    0  0.16951206289E+02  0.37140164499E+02  0.62118254069E+01  0.41295544418E+02  0.51100000000E-03 0.  1.
        -12    1    3    3    0    0 -0.56030029572E+01 -0.12496394266E+02 -0.50507894431E+01  0.14596711472E+02  0.00000000000E+00 0.  1.
</event>
<event>
 7    1  0.1302069E-013  0.7246146E+02  0.7816164E-02  0.1226708E+00
        -11   -1    0    0    0    0  0.00000000000E+00  0.00000000000E+00  0.45593999997E+02  0.45594000000E+02  0.51100000000E-03 0. -1.
         11   -1    0    0    0    0 -0.00000000000E+00 -0.00000000000E+00 -0.45593999997E+02  0.45594000000E+02  0.51100000000E-03 0.  1.
    9900012    2    1    2    0    0 -0.16233969224E+02 -0.59447816216E+01 -0.71973055277E+01  0.72461457549E+02  0.69999853128E+02 0.  0.
         12    1    1    2    0    0  0.16233969224E+02  0.59447816216E+01  0.71973055277E+01  0.18726542451E+02  0.00000000000E+00 0. -1.
         11    1    3    3    0    0 -0.40039916139E+01 -0.10367273020E+02  0.14930873251E+02  0.18612986730E+02  0.51100000000E-03 0. -1.
        -11    1    3    3    0    0 -0.22115354686E+02  0.16173532449E+02 -0.26255302026E+02  0.37947502546E+02  0.51100000000E-03 0.  1.
        -12    1    3    3    0    0  0.98853770758E+01 -0.11751041051E+02  0.41271232469E+01  0.15900968273E+02  0.00000000000E+00 0.  1.
</event>
<event>
 7    1  0.1302069E-013  0.7246164E+02  0.7816164E-02  0.1226708E+00
        -11   -1    0    0    0    0  0.00000000000E+00  0.00000000000E+00  0.45593999997E+02  0.45594000000E+02  0.51100000000E-03 0. -1.
         11   -1    0    0    0    0 -0.00000000000E+00 -0.00000000000E+00 -0.45593999997E+02  0.45594000000E+02  0.51100000000E-03 0.  1.
    9900012    2    1    2    0    0  0.12426064634E+02 -0.13904162646E+02 -0.17157609998E+01  0.72461637380E+02  0.70000087391E+02 0.  0.
         12    1    1    2    0    0 -0.12426064634E+02  0.13904162646E+02  0.17157609998E+01  0.18726362620E+02  0.00000000000E+00 0. -1.
         11    1    3    3    0    0  0.92355190146E+01  0.10648678705E+02 -0.43267793830E+01  0.14744836036E+02  0.51100000000E-03 0. -1.
        -11    1    3    3    0    0 -0.22164496457E+02 -0.20788942859E+02  0.82137680598E+01  0.31478739402E+02  0.51100000000E-03 0.  1.
        -12    1    3    3    0    0  0.25355042076E+02 -0.37638984917E+01 -0.56027496767E+01  0.26238061942E+02  0.00000000000E+00 0.  1.
</event>
<event>
 7    1  0.1302069E-013  0.7246157E+02  0.7816164E-02  0.1226708E+00
        -11   -1    0    0    0    0  0.00000000000E+00  0.00000000000E+00  0.45593999997E+02  0.45594000000E+02  0.51100000000E-03 0.  1.
         11   -1    0    0    0    0 -0.00000000000E+00 -0.00000000000E+00 -0.45593999997E+02  0.45594000000E+02  0.51100000000E-03 0. -1.
    9900012    2    1    2    0    0 -0.13152650752E+02  0.87721447405E+01  0.10036762713E+02  0.72461565451E+02  0.69999993691E+02 0.  0.
         12    1    1    2    0    0  0.13152650752E+02 -0.87721447405E+01 -0.10036762713E+02  0.18726434549E+02  0.00000000000E+00 0. -1.
         11    1    3    3    0    0  0.11446659548E+02  0.37900021393E+01 -0.25174661263E+02  0.27913324793E+02  0.51100000000E-03 0. -1.
        -11    1    3    3    0    0 -0.36772924559E+01  0.50135951424E+01  0.62092306001E+01  0.87871019662E+01  0.51100000000E-03 0.  1.
         12    1    3    3    0    0 -0.20922017844E+02 -0.31452541218E-01  0.29002193376E+02  0.35761138692E+02  0.00000000000E+00 0. -1.
</event>
<event>
 7    1  0.1302069E-013  0.7246155E+02  0.7816164E-02  0.1226708E+00
        -11   -1    0    0    0    0  0.00000000000E+00  0.00000000000E+00  0.45593999997E+02  0.45594000000E+02  0.51100000000E-03 0.  1.
         11   -1    0    0    0    0 -0.00000000000E+00 -0.00000000000E+00 -0.45593999997E+02  0.45594000000E+02  0.51100000000E-03 0. -1.
    9900012    2    1    2    0    0 -0.16525771213E+02 -0.70413304274E+01  0.52913637068E+01  0.72461548701E+02  0.69999971870E+02 0.  0.
         12    1    1    2    0    0  0.16525771213E+02  0.70413304274E+01 -0.52913637068E+01  0.18726451299E+02  0.00000000000E+00 0. -1.
         11    1    3    3    0    0 -0.21042294578E+02 -0.17467294407E+02 -0.82173877418E+01  0.28555384721E+02  0.51100000000E-03 0. -1.
        -11    1    3    3    0    0  0.22460019823E+02  0.57701466001E+01  0.64458914098E+01  0.24068581149E+02  0.51100000000E-03 0.  1.
         12    1    3    3    0    0 -0.17943496459E+02  0.46558173796E+01  0.70628600387E+01  0.19837582830E+02  0.00000000000E+00 0. -1.
</event>
<event>
 7    1  0.1302069E-013  0.7246156E+02  0.7816164E-02  0.1226708E+00
        -11   -1    0    0    0    0  0.00000000000E+00  0.00000000000E+00  0.45593999997E+02  0.45594000000E+02  0.51100000000E-03 0. -1.
         11   -1    0    0    0    0 -0.00000000000E+00 -0.00000000000E+00 -0.45593999997E+02  0.45594000000E+02  0.51100000000E-03 0.  1.
    9900012    2    1    2    0    0 -0.13608027411E+02 -0.55989104971E+01 -0.11582454486E+02  0.72461562520E+02  0.69999989872E+02 0.  0.
         12    1    1    2    0    0  0.13608027411E+02  0.55989104971E+01  0.11582454486E+02  0.18726437480E+02  0.00000000000E+00 0. -1.
         11    1    3    3    0    0  0.88888777269E+01 -0.13554281952E+02  0.16667346587E+02  0.23249325775E+02  0.51100000000E-03 0. -1.
        -11    1    3    3    0    0 -0.28525243797E+02  0.46023292519E+01 -0.11501722383E+02  0.31099205557E+02  0.51100000000E-03 0.  1.
         12    1    3    3    0    0  0.60283386587E+01  0.33530422032E+01 -0.16748078690E+02  0.18113031188E+02  0.00000000000E+00 0. -1.
</event>
<event>
 7    1  0.1302069E-013  0.7246154E+02  0.7816164E-02  0.1226708E+00
        -11   -1    0    0    0    0  0.00000000000E+00  0.00000000000E+00  0.45593999997E+02  0.45594000000E+02  0.51100000000E-03 0.  1.
         11   -1    0    0    0    0 -0.00000000000E+00 -0.00000000000E+00 -0.45593999997E+02  0.45594000000E+02  0.51100000000E-03 0. -1.
    9900012    2    1    2    0    0 -0.80263679646E+01  0.14203293537E+02  0.91936958902E+01  0.72461543472E+02  0.69999965058E+02 0.  0.
         12    1    1    2    0    0  0.80263679646E+01 -0.14203293537E+02 -0.91936958902E+01  0.18726456528E+02  0.00000000000E+00 0. -1.
         11    1    3    3    0    0 -0.17708314624E+02  0.14325297252E+02 -0.90965836168E+01  0.24526442504E+02  0.51100000000E-03 0.  1.
        -11    1    3    3    0    0  0.21811057687E+02 -0.13902081739E+02  0.92214840096E+01  0.27459531709E+02  0.51100000000E-03 0. -1.
         12    1    3    3    0    0 -0.12129111028E+02  0.13780078023E+02  0.90687954974E+01  0.20475569258E+02  0.00000000000E+00 0. -1.
</event>
<event>
 7    1  0.1302069E-013  0.7246152E+02  0.7816164E-02  0.1226708E+00
        -11   -1    0    0    0    0  0.00000000000E+00  0.00000000000E+00  0.45593999997E+02  0.45594000000E+02  0.51100000000E-03 0.  1.
         11   -1    0    0    0    0 -0.00000000000E+00 -0.00000000000E+00 -0.45593999997E+02  0.45594000000E+02  0.51100000000E-03 0. -1.
    9900012    2    1    2    0    0 -0.15542621240E+02 -0.68260458274E+01  0.79065107374E+01  0.72461524392E+02  0.69999940204E+02 0.  0.
         12    1    1    2    0    0  0.15542621240E+02  0.68260458274E+01 -0.79065107374E+01  0.18726475608E+02  0.00000000000E+00 0. -1.
         11    1    3    3    0    0 -0.16418424444E+02 -0.34160705172E+02  0.14200632581E+02  0.40474391966E+02  0.51100000000E-03 0. -1.
        -11    1    3    3    0    0  0.62716980547E+01  0.13449862941E+02  0.19398735017E+01  0.14966499895E+02  0.51100000000E-03 0.  1.
         12    1    3    3    0    0 -0.53958948511E+01  0.13884796404E+02 -0.82339953454E+01  0.17020632531E+02  0.00000000000E+00 0. -1.
</event>
<event>
 7    1  0.1302069E-013  0.7246160E+02  0.7816164E-02  0.1226708E+00
        -11   -1    0    0    0    0  0.00000000000E+00  0.00000000000E+00  0.45593999997E+02  0.45594000000E+02  0.51100000000E-03 0. -1.
         11   -1    0    0    0    0 -0.00000000000E+00 -0.00000000000E+00 -0.45593999997E+02  0.45594000000E+02  0.51100000000E-03 0.  1.
    9900012    2    1    2    0    0 -0.59663365097E+01  0.15319424099E+01 -0.17684292966E+02  0.72461595204E+02  0.70000032449E+02 0.  0.
         12    1    1    2    0    0  0.59663365097E+01 -0.15319424099E+01  0.17684292966E+02  0.18726404796E+02  0.00000000000E+00 0. -1.
         11    1    3    3    0    0  0.23559718377E+02  0.16148584378E+02 -0.60391122767E+01  0.29194314254E+02  0.51100000000E-03 0. -1.
        -11    1    3    3    0    0 -0.14086505262E+02  0.53434492027E+01 -0.97840946096E+01  0.17964147279E+02  0.51100000000E-03 0.  1.
         12    1    3    3    0    0 -0.15439549625E+02 -0.19960091170E+02 -0.18610860796E+01  0.25303133671E+02  0.00000000000E+00 0. -1.
</event>
<event>
 7    1  0.1302069E-013  0.7246187E+02  0.7816164E-02  0.1226707E+00
        -11   -1    0    0    0    0  0.00000000000E+00  0.00000000000E+00  0.45593999997E+02  0.45594000000E+02  0.51100000000E-03 0.  1.
         11   -1    0    0    0    0 -0.00000000000E+00 -0.00000000000E+00 -0.45593999997E+02  0.45594000000E+02  0.51100000000E-03 0. -1.
    9900012    2    1    2    0    0  0.11580891303E+02 -0.12555774318E+02  0.76748490596E+01  0.72461873327E+02  0.70000394755E+02 0.  0.
         12    1    1    2    0    0 -0.11580891303E+02  0.12555774318E+02 -0.76748490596E+01  0.18726126673E+02  0.00000000000E+00 0. -1.
         11    1    3    3    0    0  0.14805402837E+02 -0.33510071738E+02 -0.67663459552E+01  0.37254641307E+02  0.51100000000E-03 0.  1.
        -11    1    3    3    0    0  0.32525519581E+01  0.15786268999E+02  0.19653943878E+02  0.25417767277E+02  0.51100000000E-03 0. -1.
         12    1    3    3    0    0 -0.64770634926E+01  0.51680284210E+01 -0.52127488628E+01  0.97894647430E+01  0.00000000000E+00 0. -1.
</event>
<event>
 7    1  0.1302069E-013  0.7246155E+02  0.7816164E-02  0.1226708E+00
        -11   -1    0    0    0    0  0.00000000000E+00  0.00000000000E+00  0.45593999997E+02  0.45594000000E+02  0.51100000000E-03 0.  1.
         11   -1    0    0    0    0 -0.00000000000E+00 -0.00000000000E+00 -0.45593999997E+02  0.45594000000E+02  0.51100000000E-03 0. -1.
    9900012    2    1    2    0    0 -0.17935419326E+01 -0.15114050470E+02 -0.10910017111E+02  0.72461553791E+02  0.69999978501E+02 0.  0.
         12    1    1    2    0    0  0.17935419326E+01  0.15114050470E+02  0.10910017111E+02  0.18726446209E+02  0.00000000000E+00 0. -1.
         11    1    3    3    0    0 -0.65767152834E+01 -0.37198110310E+02 -0.16782673937E+02  0.41335344916E+02  0.51100000000E-03 0. -1.
        -11    1    3    3    0    0  0.90181520992E+01  0.10344454653E+01  0.22412067402E+01  0.93498744708E+01  0.51100000000E-03 0.  1.
         12    1    3    3    0    0 -0.42349787485E+01  0.21049614375E+02  0.36314500862E+01  0.21776334404E+02  0.00000000000E+00 0. -1.
</event>
<event>
 7    1  0.1302069E-013  0.7246157E+02  0.7816164E-02  0.1226708E+00
        -11   -1    0    0    0    0  0.00000000000E+00  0.00000000000E+00  0.45593999997E+02  0.45594000000E+02  0.51100000000E-03 0.  1.
         11   -1    0    0    0    0 -0.00000000000E+00 -0.00000000000E+00 -0.45593999997E+02  0.45594000000E+02  0.51100000000E-03 0. -1.
    9900012    2    1    2    0    0 -0.13538713504E+02  0.82253622207E+01  0.99862875391E+01  0.72461567189E+02  0.69999995955E+02 0.  0.
         12    1    1    2    0    0  0.13538713504E+02 -0.82253622207E+01 -0.99862875391E+01  0.18726432811E+02  0.00000000000E+00 0. -1.
         11    1    3    3    0    0  0.22128150646E+02  0.82542077674E+01 -0.42618304988E+01  0.23998962402E+02  0.51100000000E-03 0. -1.
        -11    1    3    3    0    0 -0.21172490325E+02  0.13037107482E+02  0.14808797320E+02  0.28940300558E+02  0.51100000000E-03 0.  1.
        -12    1    3    3    0    0 -0.14494373825E+02 -0.13065953029E+02 -0.56067928262E+00  0.19522304229E+02  0.00000000000E+00 0.  1.
</event>
<event>
 8    1  0.1302069E-013  0.7246155E+02  0.7816164E-02  0.1226708E+00
        -11   -1    0    0    0    0  0.00000000000E+00  0.00000000000E+00  0.45593999997E+02  0.45594000000E+02  0.51100000000E-03 0.  1.
         11   -1    0    0    0    0 -0.00000000000E+00 -0.00000000000E+00 -0.45593999997E+02  0.45594000000E+02  0.51100000000E-03 0. -1.
    9900012    2    1    2    0    0 -0.48085195492E+01 -0.18083837658E+02 -0.72990411587E+00  0.72461553334E+02  0.69999977906E+02 0.  0.
         24    2    3    3    0    0 -0.16868089346E+02 -0.21977147795E+02 -0.25477947134E+00  0.59780195710E+02  0.52972440223E+02 0.  0.
         12    1    1    2    0    0  0.48085195492E+01  0.18083837658E+02  0.72990411587E+00  0.18726446666E+02  0.00000000000E+00 0. -1.
         11    1    3    3    0    0  0.12059569797E+02  0.38933101364E+01 -0.47512464453E+00  0.12681357624E+02  0.51100000000E-03 0. -1.
        -11    1    4    4    0    0 -0.24870899674E+02 -0.10233020879E+02 -0.21354429474E+02  0.34340763319E+02  0.51100000000E-03 0.  1.
         12    1    4    4    0    0  0.80028103282E+01 -0.11744126916E+02  0.21099650003E+02  0.25439432391E+02  0.00000000000E+00 0. -1.
</event>
<event>
 7    1  0.1302069E-013  0.7246158E+02  0.7816164E-02  0.1226708E+00
        -11   -1    0    0    0    0  0.00000000000E+00  0.00000000000E+00  0.45593999997E+02  0.45594000000E+02  0.51100000000E-03 0.  1.
         11   -1    0    0    0    0 -0.00000000000E+00 -0.00000000000E+00 -0.45593999997E+02  0.45594000000E+02  0.51100000000E-03 0. -1.
    9900012    2    1    2    0    0  0.14182475451E+02  0.10988882852E+02  0.53647644639E+01  0.72461578719E+02  0.70000010974E+02 0.  0.
         12    1    1    2    0    0 -0.14182475451E+02 -0.10988882852E+02 -0.53647644639E+01  0.18726421281E+02  0.00000000000E+00 0. -1.
         11    1    3    3    0    0  0.11750405366E+02 -0.10361862787E+02  0.24844854725E+02  0.29371874868E+02  0.51100000000E-03 0.  1.
        -11    1    3    3    0    0 -0.66388055247E+01  0.26665456279E+02 -0.16914687619E+02  0.32268048514E+02  0.51100000000E-03 0. -1.
        -12    1    3    3    0    0  0.90708756095E+01 -0.53147106406E+01 -0.25654026425E+01  0.10821655337E+02  0.00000000000E+00 0.  1.
</event>
<event>
 7    1  0.1302069E-013  0.7246141E+02  0.7816164E-02  0.1226708E+00
        -11   -1    0    0    0    0  0.00000000000E+00  0.00000000000E+00  0.45593999997E+02  0.45594000000E+02  0.51100000000E-03 0. -1.
         11   -1    0    0    0    0 -0.00000000000E+00 -0.00000000000E+00 -0.45593999997E+02  0.45594000000E+02  0.51100000000E-03 0.  1.
    9900012    2    1    2    0    0 -0.10465920301E+02 -0.11913522655E+02 -0.99608065265E+01  0.72461409908E+02  0.69999791067E+02 0.  0.
         12    1    1    2    0    0  0.10465920301E+02  0.11913522655E+02  0.99608065265E+01  0.18726590092E+02  0.00000000000E+00 0. -1.
         11    1    3    3    0    0  0.79739727259E+00  0.60079451507E+01  0.12992792938E+02  0.14336802849E+02  0.51100000000E-03 0. -1.
        -11    1    3    3    0    0 -0.83829535465E+01 -0.27008592557E+02  0.48855873494E+01  0.28698553031E+02  0.51100000000E-03 0.  1.
        -12    1    3    3    0    0 -0.28803640271E+01  0.90871247512E+01 -0.27839186814E+02  0.29426054028E+02  0.00000000000E+00 0.  1.
</event>
<event>
 7    1  0.1302069E-013  0.7246147E+02  0.7816164E-02  0.1226708E+00
        -11   -1    0    0    0    0  0.00000000000E+00  0.00000000000E+00  0.45593999997E+02  0.45594000000E+02  0.51100000000E-03 0. -1.
         11   -1    0    0    0    0 -0.00000000000E+00 -0.00000000000E+00 -0.45593999997E+02  0.45594000000E+02  0.51100000000E-03 0.  1.
    9900012    2    1    2    0    0 -0.41831440648E+00  0.13918442356E+02 -0.12521381004E+02  0.72461467838E+02  0.69999866532E+02 0.  0.
         12    1    1    2    0    0  0.41831440648E+00 -0.13918442356E+02  0.12521381004E+02  0.18726532162E+02  0.00000000000E+00 0. -1.
         11    1    3    3    0    0  0.23226812643E+02  0.13751595933E+02 -0.18689486475E+01  0.27057054266E+02  0.51100000000E-03 0. -1.
        -11    1    3    3    0    0 -0.25512911779E+02 -0.77856584939E+01 -0.19740555863E+02  0.33184555017E+02  0.51100000000E-03 0.  1.
         12    1    3    3    0    0  0.18677847298E+01  0.79525049164E+01  0.90881235064E+01  0.12219858555E+02  0.00000000000E+00 0. -1.
</event>
<event>
 7    1  0.1302069E-013  0.7246150E+02  0.7816164E-02  0.1226708E+00
        -11   -1    0    0    0    0  0.00000000000E+00  0.00000000000E+00  0.45593999997E+02  0.45594000000E+02  0.51100000000E-03 0.  1.
         11   -1    0    0    0    0 -0.00000000000E+00 -0.00000000000E+00 -0.45593999997E+02  0.45594000000E+02  0.51100000000E-03 0. -1.
    9900012    2    1    2    0    0  0.32846936856E+01 -0.60713861564E+01  0.17407779630E+02  0.72461501819E+02  0.69999910799E+02 0.  0.
         12    1    1    2    0    0 -0.32846936856E+01  0.60713861564E+01 -0.17407779630E+02  0.18726498181E+02  0.00000000000E+00 0. -1.
         11    1    3    3    0    0  0.17053873218E+01  0.20060710915E+02 -0.14890768046E+02  0.25041474429E+02  0.51100000000E-03 0. -1.
        -11    1    3    3    0    0 -0.91058835491E+01 -0.10248220455E+02  0.21333571205E+02  0.25358714446E+02  0.51100000000E-03 0.  1.
         12    1    3    3    0    0  0.10685189913E+02 -0.15883876616E+02  0.10964976471E+02  0.22061312944E+02  0.00000000000E+00 0. -1.
</event>
<event>
 7    1  0.1302069E-013  0.7246159E+02  0.7816164E-02  0.1226708E+00
        -11   -1    0    0    0    0  0.00000000000E+00  0.00000000000E+00  0.45593999997E+02  0.45594000000E+02  0.51100000000E-03 0.  1.
         11   -1    0    0    0    0 -0.00000000000E+00 -0.00000000000E+00 -0.45593999997E+02  0.45594000000E+02  0.51100000000E-03 0. -1.
    9900012    2    1    2    0    0  0.13713933574E+02 -0.34763038886E+01 -0.12268738835E+02  0.72461585090E+02  0.70000019274E+02 0.  0.
         12    1    1    2    0    0 -0.13713933574E+02  0.34763038886E+01  0.12268738835E+02  0.18726414910E+02  0.00000000000E+00 0. -1.
         11    1    3    3    0    0  0.33904349996E+02  0.40949447290E+01 -0.19274161750E+02  0.39214370229E+02  0.51100000000E-03 0. -1.
        -11    1    3    3    0    0 -0.18893860426E+02  0.17961117047E+01  0.12097499423E+02  0.22506742803E+02  0.51100000000E-03 0.  1.
         12    1    3    3    0    0 -0.12965559968E+01 -0.93673603223E+01 -0.50920765082E+01  0.10740472058E+02  0.00000000000E+00 0. -1.
</event>
<event>
 7    1  0.1302069E-013  0.7246157E+02  0.7816164E-02  0.1226708E+00
        -11   -1    0    0    0    0  0.00000000000E+00  0.00000000000E+00  0.45593999997E+02  0.45594000000E+02  0.51100000000E-03 0.  1.
         11   -1    0    0    0    0 -0.00000000000E+00 -0.00000000000E+00 -0.45593999997E+02  0.45594000000E+02  0.51100000000E-03 0. -1.
    9900012    2    1    2    0    0 -0.63766817935E+01  0.15785241210E+02 -0.78002011435E+01  0.72461573522E+02  0.70000004204E+02 0.  0.
         12    1    1    2    0    0  0.63766817935E+01 -0.15785241210E+02  0.78002011435E+01  0.18726426478E+02  0.00000000000E+00 0. -1.
         11    1    3    3    0    0 -0.16941773570E+02 -0.63436220338E+01 -0.15730079402E+02  0.23972914517E+02  0.51100000000E-03 0. -1.
        -11    1    3    3    0    0 -0.79041625849E+01  0.20552518698E+02  0.17031783100E+02  0.27838165292E+02  0.51100000000E-03 0.  1.
        -12    1    3    3    0    0  0.18469254362E+02  0.15763445465E+01 -0.91019048422E+01  0.20650493712E+02  0.00000000000E+00 0.  1.
</event>
<event>
 7    1  0.1302069E-013  0.7246156E+02  0.7816164E-02  0.1226708E+00
        -11   -1    0    0    0    0  0.00000000000E+00  0.00000000000E+00  0.45593999997E+02  0.45594000000E+02  0.51100000000E-03 0. -1.
         11   -1    0    0    0    0 -0.00000000000E+00 -0.00000000000E+00 -0.45593999997E+02  0.45594000000E+02  0.51100000000E-03 0.  1.
    9900012    2    1    2    0    0 -0.12360535149E+02  0.10612808035E+02  0.92339052357E+01  0.72461560684E+02  0.69999987480E+02 0.  0.
         12    1    1    2    0    0  0.12360535149E+02 -0.10612808035E+02 -0.92339052357E+01  0.18726439316E+02  0.00000000000E+00 0. -1.
         11    1    3    3    0    0 -0.31144275718E+01 -0.94552193165E+01  0.13013067465E+02  0.16384161759E+02  0.51100000000E-03 0. -1.
        -11    1    3    3    0    0  0.64099576844E+01  0.29617662760E+02  0.11293492226E+02  0.32339395044E+02  0.51100000000E-03 0.  1.
        -12    1    3    3    0    0 -0.15656065262E+02 -0.95496354089E+01 -0.15072654455E+02  0.23738003881E+02  0.00000000000E+00 0.  1.
</event>
<event>
 7    1  0.1302069E-013  0.7246160E+02  0.7816164E-02  0.1226708E+00
        -11   -1    0    0    0    0  0.00000000000E+00  0.00000000000E+00  0.45593999997E+02  0.45594000000E+02  0.51100000000E-03 0.  1.
         11   -1    0    0    0    0 -0.00000000000E+00 -0.00000000000E+00 -0.45593999997E+02  0.45594000000E+02  0.51100000000E-03 0. -1.
    9900012    2    1    2    0    0 -0.95898287665E+01 -0.15156447131E+02 -0.53847195580E+01  0.72461603920E+02  0.70000043804E+02 0.  0.
         12    1    1    2    0    0  0.95898287665E+01  0.15156447131E+02  0.53847195580E+01  0.18726396080E+02  0.00000000000E+00 0. -1.
         11    1    3    3    0    0  0.61318021507E+01  0.17223511113E+02 -0.15004673354E+02  0.23651396479E+02  0.51100000000E-03 0. -1.
        -11    1    3    3    0    0 -0.24434215764E+02 -0.23200653714E+02  0.14080228073E+01  0.33723638019E+02  0.51100000000E-03 0.  1.
         12    1    3    3    0    0  0.87125848464E+01 -0.91793045302E+01  0.82119309889E+01  0.15086569422E+02  0.00000000000E+00 0. -1.
</event>
<event>
 7    1  0.1302069E-013  0.7246156E+02  0.7816164E-02  0.1226708E+00
        -11   -1    0    0    0    0  0.00000000000E+00  0.00000000000E+00  0.45593999997E+02  0.45594000000E+02  0.51100000000E-03 0.  1.
         11   -1    0    0    0    0 -0.00000000000E+00 -0.00000000000E+00 -0.45593999997E+02  0.45594000000E+02  0.51100000000E-03 0. -1.
    9900012    2    1    2    0    0  0.91012198117E+01  0.15524170546E+02 -0.51814512109E+01  0.72461561207E+02  0.69999988162E+02 0.  0.
         12    1    1    2    0    0 -0.91012198117E+01 -0.15524170546E+02  0.51814512109E+01  0.18726438793E+02  0.00000000000E+00 0. -1.
         11    1    3    3    0    0  0.21642795098E+02 -0.19043249608E+02  0.32481189201E+01  0.29010450049E+02  0.51100000000E-03 0. -1.
        -11    1    3    3    0    0  0.10999722214E+01  0.10714318963E+02 -0.11554044822E+02  0.15795648823E+02  0.51100000000E-03 0.  1.
         12    1    3    3    0    0 -0.13641547508E+02  0.23853101191E+02  0.31244746911E+01  0.27655462335E+02  0.00000000000E+00 0. -1.
</event>
<event>
 8    1  0.1302069E-013  0.7246145E+02  0.7816164E-02  0.1226708E+00
        -11   -1    0    0    0    0  0.00000000000E+00  0.00000000000E+00  0.45593999997E+02  0.45594000000E+02  0.51100000000E-03 0.  1.
         11   -1    0    0    0    0 -0.00000000000E+00 -0.00000000000E+00 -0.45593999997E+02  0.45594000000E+02  0.51100000000E-03 0. -1.
    9900012    2    1    2    0    0  0.53734410442E+01  0.14625549434E+02  0.10387649077E+02  0.72461446173E+02  0.69999838308E+02 0.  0.
        -24    2    3    3    0    0 -0.18832895660E+01  0.22699629894E+02  0.18635362418E+01  0.58658858940E+02  0.54023781688E+02 0.  0.
         12    1    1    2    0    0 -0.53734410442E+01 -0.14625549434E+02 -0.10387649077E+02  0.18726553827E+02  0.00000000000E+00 0. -1.
         11    1    4    4    0    0  0.14641823363E+02  0.13932207990E+02 -0.20980965110E+02  0.29132289784E+02  0.51100000000E-03 0. -1.
        -11    1    3    3    0    0  0.72567306102E+01 -0.80740804600E+01  0.85241128354E+01  0.13802587233E+02  0.51100000000E-03 0.  1.
        -12    1    4    4    0    0 -0.16525112929E+02  0.87674219040E+01  0.22844501351E+02  0.29526569156E+02  0.00000000000E+00 0.  1.
</event>
<event>
 7    1  0.1302069E-013  0.7246154E+02  0.7816164E-02  0.1226708E+00
        -11   -1    0    0    0    0  0.00000000000E+00  0.00000000000E+00  0.45593999997E+02  0.45594000000E+02  0.51100000000E-03 0. -1.
         11   -1    0    0    0    0 -0.00000000000E+00 -0.00000000000E+00 -0.45593999997E+02  0.45594000000E+02  0.51100000000E-03 0.  1.
    9900012    2    1    2    0    0  0.30814458888E+01  0.16533693912E+02 -0.82354117419E+01  0.72461538784E+02  0.69999958951E+02 0.  0.
         12    1    1    2    0    0 -0.30814458888E+01 -0.16533693912E+02  0.82354117419E+01  0.18726461216E+02  0.00000000000E+00 0. -1.
         11    1    3    3    0    0 -0.78437377236E+01 -0.64789703667E+01  0.21744887862E+01  0.10403349472E+02  0.51100000000E-03 0. -1.
        -11    1    3    3    0    0  0.38987118924E+00  0.34757511030E+02  0.10085456618E+02  0.36193272966E+02  0.51100000000E-03 0.  1.
        -12    1    3    3    0    0  0.10535312423E+02 -0.11744846751E+02 -0.20495357146E+02  0.25864916346E+02  0.00000000000E+00 0.  1.
</event>
<event>
 7    1  0.1302069E-013  0.7246160E+02  0.7816164E-02  0.1226708E+00
        -11   -1    0    0    0    0  0.00000000000E+00  0.00000000000E+00  0.45593999997E+02  0.45594000000E+02  0.51100000000E-03 0. -1.
         11   -1    0    0    0    0 -0.00000000000E+00 -0.00000000000E+00 -0.45593999997E+02  0.45594000000E+02  0.51100000000E-03 0.  1.
    9900012    2    1    2    0    0  0.12202639046E+01 -0.16638628265E+02 -0.85055894937E+01  0.72461600261E+02  0.70000039037E+02 0.  0.
         12    1    1    2    0    0 -0.12202639046E+01  0.16638628265E+02  0.85055894937E+01  0.18726399739E+02  0.00000000000E+00 0. -1.
         11    1    3    3    0    0  0.22271996779E+02  0.10624655523E+02 -0.20164735512E+02  0.31867565078E+02  0.51100000000E-03 0.  1.
        -11    1    3    3    0    0 -0.16321646570E+02 -0.12914496240E+02 -0.10667501122E+01  0.20840305083E+02  0.51100000000E-03 0. -1.
         12    1    3    3    0    0 -0.47300863045E+01 -0.14348787548E+02  0.12725896130E+02  0.19753730100E+02  0.00000000000E+00 0. -1.
</event>
<event>
 7    1  0.1302069E-013  0.7246159E+02  0.7816164E-02  0.1226708E+00
        -11   -1    0    0    0    0  0.00000000000E+00  0.00000000000E+00  0.45593999997E+02  0.45594000000E+02  0.51100000000E-03 0. -1.
         11   -1    0    0    0    0 -0.00000000000E+00 -0.00000000000E+00 -0.45593999997E+02  0.45594000000E+02  0.51100000000E-03 0.  1.
    9900012    2    1    2    0    0 -0.54511593553E+01 -0.13743376552E+02 -0.11492736967E+02  0.72461587093E+02  0.70000021883E+02 0.  0.
         12    1    1    2    0    0  0.54511593553E+01  0.13743376552E+02  0.11492736967E+02  0.18726412907E+02  0.00000000000E+00 0. -1.
         11    1    3    3    0    0 -0.12640216761E+02  0.16854019017E+02 -0.24466980188E+01  0.21208945476E+02  0.51100000000E-03 0. -1.
        -11    1    3    3    0    0 -0.61177143219E+01 -0.20834685451E+02 -0.21514937037E+02  0.30568007170E+02  0.51100000000E-03 0.  1.
         12    1    3    3    0    0  0.13306771727E+02 -0.97627101171E+01  0.12468898089E+02  0.20684634446E+02  0.00000000000E+00 0. -1.
</event>
<event>
 8    1  0.1302069E-013  0.7246149E+02  0.7816164E-02  0.1226708E+00
        -11   -1    0    0    0    0  0.00000000000E+00  0.00000000000E+00  0.45593999997E+02  0.45594000000E+02  0.51100000000E-03 0.  1.
         11   -1    0    0    0    0 -0.00000000000E+00 -0.00000000000E+00 -0.45593999997E+02  0.45594000000E+02  0.51100000000E-03 0. -1.
    9900012    2    1    2    0    0  0.11601437723E+02  0.80702035484E+01  0.12286607280E+02  0.72461487751E+02  0.69999892472E+02 0.  0.
         24    2    3    3    0    0 -0.60831546815E+01  0.11349394752E+02  0.15950078409E+02  0.54106136367E+02  0.50072502026E+02 0.  0.
         12    1    1    2    0    0 -0.11601437723E+02 -0.80702035484E+01 -0.12286607280E+02  0.18726512249E+02  0.00000000000E+00 0. -1.
         11    1    3    3    0    0  0.17684592404E+02 -0.32791912039E+01 -0.36634711289E+01  0.18355351384E+02  0.51100000000E-03 0. -1.
        -11    1    4    4    0    0 -0.35608664563E+01 -0.14412097219E+02  0.22912461344E+02  0.27301450534E+02  0.51100000000E-03 0.  1.
         12    1    4    4    0    0 -0.25222882251E+01  0.25761491971E+02 -0.69623829347E+01  0.26804685833E+02  0.00000000000E+00 0. -1.
</event>
<event>
 7    1  0.1302069E-013  0.7246188E+02  0.7816164E-02  0.1226707E+00
        -11   -1    0    0    0    0  0.00000000000E+00  0.00000000000E+00  0.45593999997E+02  0.45594000000E+02  0.51100000000E-03 0.  1.
         11   -1    0    0    0    0 -0.00000000000E+00 -0.00000000000E+00 -0.45593999997E+02  0.45594000000E+02  0.51100000000E-03 0. -1.
    9900012    2    1    2    0    0 -0.11767537130E+02 -0.86065176019E+01  0.11752469206E+02  0.72461878998E+02  0.70000402143E+02 0.  0.
         12    1    1    2    0    0  0.11767537130E+02  0.86065176019E+01 -0.11752469206E+02  0.18726121002E+02  0.00000000000E+00 0. -1.
         11    1    3    3    0    0 -0.57603503086E+00  0.40555905304E+01 -0.20010780762E+02  0.20425743019E+02  0.51100000000E-03 0. -1.
        -11    1    3    3    0    0  0.54306793392E+01 -0.21287945417E+02  0.21223960998E+02  0.30547101645E+02  0.51100000000E-03 0.  1.
         12    1    3    3    0    0 -0.16622181438E+02  0.86258372851E+01  0.10539288970E+02  0.21489034334E+02  0.00000000000E+00 0. -1.
</event>
<event>
 7    1  0.1302069E-013  0.7246157E+02  0.7816164E-02  0.1226708E+00
        -11   -1    0    0    0    0  0.00000000000E+00  0.00000000000E+00  0.45593999997E+02  0.45594000000E+02  0.51100000000E-03 0. -1.
         11   -1    0    0    0    0 -0.00000000000E+00 -0.00000000000E+00 -0.45593999997E+02  0.45594000000E+02  0.51100000000E-03 0.  1.
    9900012    2    1    2    0    0 -0.16964589426E+02  0.72219709012E+01 -0.32749247585E+01  0.72461567071E+02  0.69999995801E+02 0.  0.
         12    1    1    2    0    0  0.16964589426E+02 -0.72219709012E+01  0.32749247585E+01  0.18726432929E+02  0.00000000000E+00 0. -1.
         11    1    3    3    0    0  0.20509203387E+00  0.98829792085E+01  0.97272927472E+01  0.13868509842E+02  0.51100000000E-03 0. -1.
        -11    1    3    3    0    0 -0.18153315239E+02 -0.26073107191E+02  0.50219610771E-01  0.31770305240E+02  0.51100000000E-03 0.  1.
        -12    1    3    3    0    0  0.98363377946E+00  0.23412098884E+02 -0.13052437116E+02  0.26822751989E+02  0.00000000000E+00 0.  1.
</event>
<event>
 7    1  0.1302069E-013  0.7246158E+02  0.7816164E-02  0.1226708E+00
        -11   -1    0    0    0    0  0.00000000000E+00  0.00000000000E+00  0.45593999997E+02  0.45594000000E+02  0.51100000000E-03 0.  1.
         11   -1    0    0    0    0 -0.00000000000E+00 -0.00000000000E+00 -0.45593999997E+02  0.45594000000E+02  0.51100000000E-03 0. -1.
    9900012    2    1    2    0    0  0.11256684677E+02  0.48603502385E+01  0.14154249113E+02  0.72461582235E+02  0.70000015554E+02 0.  0.
         12    1    1    2    0    0 -0.11256684677E+02 -0.48603502385E+01 -0.14154249113E+02  0.18726417765E+02  0.00000000000E+00 0. -1.
         11    1    3    3    0    0  0.17898181423E+02  0.10571323249E+02  0.33975839993E+02  0.39830333628E+02  0.51100000000E-03 0. -1.
        -11    1    3    3    0    0 -0.10100719044E+02 -0.10918083673E+02 -0.36812472595E+01  0.15322553897E+02  0.51100000000E-03 0.  1.
         12    1    3    3    0    0  0.34592222983E+01  0.52071106623E+01 -0.16140343620E+02  0.17308694709E+02  0.00000000000E+00 0. -1.
</event>
<event>
 7    1  0.1302069E-013  0.7246117E+02  0.7816164E-02  0.1226709E+00
        -11   -1    0    0    0    0  0.00000000000E+00  0.00000000000E+00  0.45593999997E+02  0.45594000000E+02  0.51100000000E-03 0.  1.
         11   -1    0    0    0    0 -0.00000000000E+00 -0.00000000000E+00 -0.45593999997E+02  0.45594000000E+02  0.51100000000E-03 0. -1.
    9900012    2    1    2    0    0 -0.17329692127E+02  0.69575965259E+01 -0.14027732054E+01  0.72461170281E+02  0.69999478907E+02 0.  0.
         12    1    1    2    0    0  0.17329692127E+02 -0.69575965259E+01  0.14027732054E+01  0.18726829719E+02  0.00000000000E+00 0. -1.
         11    1    3    3    0    0  0.84304752201E+01  0.22230781139E+02  0.41352826211E+01  0.24132573528E+02  0.51100000000E-03 0. -1.
        -11    1    3    3    0    0 -0.19964191967E+02 -0.27175558846E+02  0.62350926253E+00  0.33726380232E+02  0.51100000000E-03 0.  1.
        -12    1    3    3    0    0 -0.57959753807E+01  0.11902374233E+02 -0.61615650890E+01  0.14602216521E+02  0.00000000000E+00 0.  1.
</event>
<event>
 7    1  0.1302069E-013  0.7246159E+02  0.7816164E-02  0.1226708E+00
        -11   -1    0    0    0    0  0.00000000000E+00  0.00000000000E+00  0.45593999997E+02  0.45594000000E+02  0.51100000000E-03 0.  1.
         11   -1    0    0    0    0 -0.00000000000E+00 -0.00000000000E+00 -0.45593999997E+02  0.45594000000E+02  0.51100000000E-03 0. -1.
    9900012    2    1    2    0    0  0.44754382606E+01  0.52911290382E+01  0.17396924878E+02  0.72461585786E+02  0.70000020181E+02 0.  0.
         12    1    1    2    0    0 -0.44754382606E+01 -0.52911290382E+01 -0.17396924878E+02  0.18726414214E+02  0.00000000000E+00 0. -1.
         11    1    3    3    0    0  0.23861019661E+02  0.32325599857E-01  0.33713602988E+02  0.41303224219E+02  0.51100000000E-03 0. -1.
        -11    1    3    3    0    0 -0.11558853061E+02 -0.31932021422E+00  0.73284110960E+00  0.11586462180E+02  0.51100000000E-03 0.  1.
         12    1    3    3    0    0 -0.78267283391E+01  0.55781236526E+01 -0.17049519220E+02  0.19571899387E+02  0.00000000000E+00 0. -1.
</event>
<event>
 7    1  0.1302069E-013  0.7246176E+02  0.7816164E-02  0.1226708E+00
        -11   -1    0    0    0    0  0.00000000000E+00  0.00000000000E+00  0.45593999997E+02  0.45594000000E+02  0.51100000000E-03 0.  1.
         11   -1    0    0    0    0 -0.00000000000E+00 -0.00000000000E+00 -0.45593999997E+02  0.45594000000E+02  0.51100000000E-03 0. -1.
    9900012    2    1    2    0    0  0.71319719665E+00  0.18363990097E+01  0.18622323848E+02  0.72461762870E+02  0.70000250865E+02 0.  0.
         12    1    1    2    0    0 -0.71319719665E+00 -0.18363990097E+01 -0.18622323848E+02  0.18726237130E+02  0.00000000000E+00 0. -1.
         11    1    3    3    0    0  0.54806829703E+01  0.29011957072E+02  0.23106873554E+02  0.37492121101E+02  0.51100000000E-03 0. -1.
        -11    1    3    3    0    0  0.40341034228E+01 -0.93497787145E+01  0.66707988849E+01  0.12173409977E+02  0.51100000000E-03 0.  1.
         12    1    3    3    0    0 -0.88015891965E+01 -0.17825779348E+02 -0.11155348591E+02  0.22796231792E+02  0.00000000000E+00 0. -1.
</event>
<event>
 7    1  0.1302069E-013  0.7246157E+02  0.7816164E-02  0.1226708E+00
        -11   -1    0    0    0    0  0.00000000000E+00  0.00000000000E+00  0.45593999997E+02  0.45594000000E+02  0.51100000000E-03 0. -1.
         11   -1    0    0    0    0 -0.00000000000E+00 -0.00000000000E+00 -0.45593999997E+02  0.45594000000E+02  0.51100000000E-03 0.  1.
    9900012    2    1    2    0    0 -0.64186049519E+01  0.64895603481E+01 -0.16351337197E+02  0.72461571852E+02  0.70000002030E+02 0.  0.
         12    1    1    2    0    0  0.64186049519E+01 -0.64895603481E+01  0.16351337197E+02  0.18726428148E+02  0.00000000000E+00 0. -1.
         11    1    3    3    0    0 -0.25347284086E+02  0.17527709776E+02 -0.85181231907E+01  0.31972861046E+02  0.51100000000E-03 0. -1.
        -11    1    3    3    0    0  0.26536153494E+02 -0.57428057591E+00 -0.73562764237E+01  0.27542912764E+02  0.51100000000E-03 0.  1.
         12    1    3    3    0    0 -0.76074743597E+01 -0.10463868852E+02 -0.47693758257E+00  0.12945798042E+02  0.00000000000E+00 0. -1.
</event>
<event>
 7    1  0.1302069E-013  0.7246158E+02  0.7816164E-02  0.1226708E+00
        -11   -1    0    0    0    0  0.00000000000E+00  0.00000000000E+00  0.45593999997E+02  0.45594000000E+02  0.51100000000E-03 0. -1.
         11   -1    0    0    0    0 -0.00000000000E+00 -0.00000000000E+00 -0.45593999997E+02  0.45594000000E+02  0.51100000000E-03 0.  1.
    9900012    2    1    2    0    0  0.13258787730E+02 -0.99120670176E+01  0.87540995792E+01  0.72461580586E+02  0.70000013407E+02 0.  0.
         12    1    1    2    0    0 -0.13258787730E+02  0.99120670176E+01 -0.87540995792E+01  0.18726419414E+02  0.00000000000E+00 0. -1.
         11    1    3    3    0    0  0.19670611785E+02 -0.18506167811E+02  0.12675379395E+01  0.27037342098E+02  0.51100000000E-03 0.  1.
        -11    1    3    3    0    0 -0.17986854864E+02 -0.33977077166E+01  0.18037296547E+02  0.25698549232E+02  0.51100000000E-03 0. -1.
         12    1    3    3    0    0  0.11575030809E+02  0.11991808510E+02 -0.10550734907E+02  0.19725689256E+02  0.00000000000E+00 0. -1.
</event>
<event>
 7    1  0.1302069E-013  0.7246159E+02  0.7816164E-02  0.1226708E+00
        -11   -1    0    0    0    0  0.00000000000E+00  0.00000000000E+00  0.45593999997E+02  0.45594000000E+02  0.51100000000E-03 0.  1.
         11   -1    0    0    0    0 -0.00000000000E+00 -0.00000000000E+00 -0.45593999997E+02  0.45594000000E+02  0.51100000000E-03 0. -1.
    9900012    2    1    2    0    0 -0.11903713369E+02  0.13514095565E+02 -0.51331678155E+01  0.72461585962E+02  0.70000020410E+02 0.  0.
         12    1    1    2    0    0  0.11903713369E+02 -0.13514095565E+02  0.51331678155E+01  0.18726414038E+02  0.00000000000E+00 0. -1.
         11    1    3    3    0    0 -0.64007331650E+01  0.39265844841E+02  0.17668076290E-01  0.39784120809E+02  0.51100000000E-03 0. -1.
        -11    1    3    3    0    0 -0.10845297102E+02 -0.12578305165E+02 -0.75794448560E+01  0.18256018587E+02  0.51100000000E-03 0.  1.
         12    1    3    3    0    0  0.53423168973E+01 -0.13173444111E+02  0.24286089642E+01  0.14421446566E+02  0.00000000000E+00 0. -1.
</event>
<event>
 7    1  0.1302069E-013  0.7246156E+02  0.7816164E-02  0.1226708E+00
        -11   -1    0    0    0    0  0.00000000000E+00  0.00000000000E+00  0.45593999997E+02  0.45594000000E+02  0.51100000000E-03 0.  1.
         11   -1    0    0    0    0 -0.00000000000E+00 -0.00000000000E+00 -0.45593999997E+02  0.45594000000E+02  0.51100000000E-03 0. -1.
    9900012    2    1    2    0    0 -0.59550353495E+00 -0.12862441115E+01  0.18672717465E+02  0.72461563449E+02  0.69999991083E+02 0.  0.
         12    1    1    2    0    0  0.59550353495E+00  0.12862441115E+01 -0.18672717465E+02  0.18726436551E+02  0.00000000000E+00 0. -1.
         11    1    3    3    0    0 -0.18893968685E+02  0.78216785727E+01  0.18473522226E+02  0.27557788954E+02  0.51100000000E-03 0. -1.
        -11    1    3    3    0    0  0.29483760097E+02  0.13059755315E+01 -0.13448818913E+01  0.29543296856E+02  0.51100000000E-03 0.  1.
         12    1    3    3    0    0 -0.11185294948E+02 -0.10413898216E+02  0.15440771296E+01  0.15360477639E+02  0.00000000000E+00 0. -1.
</event>
<event>
 7    1  0.1302069E-013  0.7246161E+02  0.7816164E-02  0.1226708E+00
        -11   -1    0    0    0    0  0.00000000000E+00  0.00000000000E+00  0.45593999997E+02  0.45594000000E+02  0.51100000000E-03 0.  1.
         11   -1    0    0    0    0 -0.00000000000E+00 -0.00000000000E+00 -0.45593999997E+02  0.45594000000E+02  0.51100000000E-03 0. -1.
    9900012    2    1    2    0    0  0.15095343682E+02 -0.21927389724E+01  0.10862783662E+02  0.72461612895E+02  0.70000055496E+02 0.  0.
         12    1    1    2    0    0 -0.15095343682E+02  0.21927389724E+01 -0.10862783662E+02  0.18726387105E+02  0.00000000000E+00 0. -1.
         11    1    3    3    0    0 -0.79159440314E+00  0.22722286606E+02 -0.12386357055E+02  0.25891133070E+02  0.51100000000E-03 0. -1.
        -11    1    3    3    0    0  0.10284018789E+02  0.38285694378E+01  0.77765215466E+01  0.13449657023E+02  0.51100000000E-03 0.  1.
         12    1    3    3    0    0  0.56029192963E+01 -0.28743595016E+02  0.15472619171E+02  0.33120822803E+02  0.00000000000E+00 0. -1.
</event>
<event>
 7    1  0.1314813E-013  0.7246153E+02  0.7816164E-02  0.1226708E+00
        -11   -1    0    0    0    0  0.00000000000E+00  0.00000000000E+00  0.45593999997E+02  0.45594000000E+02  0.51100000000E-03 0. -1.
         11   -1    0    0    0    0 -0.00000000000E+00 -0.00000000000E+00 -0.45593999997E+02  0.45594000000E+02  0.51100000000E-03 0.  1.
    9900012    2    1    2    0    0  0.79356175957E+01 -0.73600691615E+00 -0.16945943856E+02  0.72461528203E+02  0.69999945168E+02 0.  0.
         12    1    1    2    0    0 -0.79356175957E+01  0.73600691615E+00  0.16945943856E+02  0.18726471797E+02  0.00000000000E+00 0. -1.
         11    1    3    3    0    0  0.14274008263E+01  0.12078810572E+02  0.20507689351E+02  0.23843247697E+02  0.51100000000E-03 0. -1.
        -11    1    3    3    0    0  0.98916769345E+01 -0.20324385742E+02 -0.25181617636E+02  0.33838436657E+02  0.51100000000E-03 0.  1.
        -12    1    3    3    0    0 -0.33834601651E+01  0.75095682540E+01 -0.12272015571E+02  0.14779843849E+02  0.00000000000E+00 0.  1.
</event>
<event>
 7    1  0.1302069E-013  0.7246170E+02  0.7816164E-02  0.1226708E+00
        -11   -1    0    0    0    0  0.00000000000E+00  0.00000000000E+00  0.45593999997E+02  0.45594000000E+02  0.51100000000E-03 0.  1.
         11   -1    0    0    0    0 -0.00000000000E+00 -0.00000000000E+00 -0.45593999997E+02  0.45594000000E+02  0.51100000000E-03 0. -1.
    9900012    2    1    2    0    0  0.67627496939E+01  0.39730654956E+01  0.17004532553E+02  0.72461704045E+02  0.70000174235E+02 0.  0.
         12    1    1    2    0    0 -0.67627496939E+01 -0.39730654956E+01 -0.17004532553E+02  0.18726295955E+02  0.00000000000E+00 0. -1.
         11    1    3    3    0    0 -0.29206676339E+02  0.18267699107E+01 -0.27349988841E+01  0.29391278472E+02  0.51100000000E-03 0. -1.
        -11    1    3    3    0    0  0.94767162463E+01  0.48255550943E+01  0.10338757081E+02  0.14831858650E+02  0.51100000000E-03 0.  1.
         12    1    3    3    0    0  0.26492709786E+02 -0.26792595094E+01  0.94007743563E+01  0.28238566923E+02  0.00000000000E+00 0. -1.
</event>
<event>
 7    1  0.1302069E-013  0.7246159E+02  0.7816164E-02  0.1226708E+00
        -11   -1    0    0    0    0  0.00000000000E+00  0.00000000000E+00  0.45593999997E+02  0.45594000000E+02  0.51100000000E-03 0. -1.
         11   -1    0    0    0    0 -0.00000000000E+00 -0.00000000000E+00 -0.45593999997E+02  0.45594000000E+02  0.51100000000E-03 0.  1.
    9900012    2    1    2    0    0 -0.10815297982E+02  0.13514716991E+02  0.71456379910E+01  0.72461591159E+02  0.70000027180E+02 0.  0.
         12    1    1    2    0    0  0.10815297982E+02 -0.13514716991E+02 -0.71456379910E+01  0.18726408841E+02  0.00000000000E+00 0. -1.
         11    1    3    3    0    0 -0.10900467141E+02  0.22947220798E+02  0.63540015449E-01  0.25404707513E+02  0.51100000000E-03 0. -1.
        -11    1    3    3    0    0  0.77866439277E+01 -0.17776532667E+02 -0.13437413534E+02  0.23605105805E+02  0.51100000000E-03 0.  1.
        -12    1    3    3    0    0 -0.77014747695E+01  0.83440288600E+01  0.20519511510E+02  0.23451777840E+02  0.00000000000E+00 0.  1.
</event>
<event>
 7    1  0.1302069E-013  0.7246134E+02  0.7816164E-02  0.1226709E+00
        -11   -1    0    0    0    0  0.00000000000E+00  0.00000000000E+00  0.45593999997E+02  0.45594000000E+02  0.51100000000E-03 0. -1.
         11   -1    0    0    0    0 -0.00000000000E+00 -0.00000000000E+00 -0.45593999997E+02  0.45594000000E+02  0.51100000000E-03 0.  1.
    9900012    2    1    2    0    0  0.51639792494E+01  0.14640217185E+02 -0.10473065916E+02  0.72461341179E+02  0.69999701534E+02 0.  0.
         12    1    1    2    0    0 -0.51639792494E+01 -0.14640217185E+02  0.10473065916E+02  0.18726658821E+02  0.00000000000E+00 0. -1.
         11    1    3    3    0    0 -0.14586672897E+02 -0.53060247100E+01  0.17043399428E+02  0.23052166682E+02  0.51100000000E-03 0. -1.
        -11    1    3    3    0    0  0.41298127514E+01  0.23869428407E+02 -0.11954395340E+02  0.27013191852E+02  0.51100000000E-03 0.  1.
         12    1    3    3    0    0  0.15620839395E+02 -0.39231865120E+01 -0.15562070004E+02  0.22395982645E+02  0.00000000000E+00 0. -1.
</event>
<event>
 7    1  0.1302069E-013  0.7246151E+02  0.7816164E-02  0.1226708E+00
        -11   -1    0    0    0    0  0.00000000000E+00  0.00000000000E+00  0.45593999997E+02  0.45594000000E+02  0.51100000000E-03 0.  1.
         11   -1    0    0    0    0 -0.00000000000E+00 -0.00000000000E+00 -0.45593999997E+02  0.45594000000E+02  0.51100000000E-03 0. -1.
    9900012    2    1    2    0    0 -0.41384889655E-02  0.18717886296E+02  0.56764738067E+00  0.72461507855E+02  0.69999918661E+02 0.  0.
         12    1    1    2    0    0  0.41384889655E-02 -0.18717886296E+02 -0.56764738067E+00  0.18726492145E+02  0.00000000000E+00 0. -1.
         11    1    3    3    0    0  0.78594508304E+01  0.42305507359E+02 -0.28586288812E+00  0.43030322310E+02  0.51100000000E-03 0. -1.
        -11    1    3    3    0    0 -0.10093632801E+02 -0.16705535740E+02 -0.49736520288E+01  0.20141836119E+02  0.51100000000E-03 0.  1.
        -12    1    3    3    0    0  0.22300434818E+01 -0.68820853231E+01  0.58271622976E+01  0.92893494265E+01  0.00000000000E+00 0.  1.
</event>
<event>
 7    1  0.2412396E-013  0.7246176E+02  0.7816164E-02  0.1226708E+00
        -11   -1    0    0    0    0  0.00000000000E+00  0.00000000000E+00  0.45593999997E+02  0.45594000000E+02  0.51100000000E-03 0. -1.
         11   -1    0    0    0    0 -0.00000000000E+00 -0.00000000000E+00 -0.45593999997E+02  0.45594000000E+02  0.51100000000E-03 0.  1.
    9900012    2    1    2    0    0 -0.21939469217E+01  0.67826332219E+01 -0.17316306316E+02  0.72461762231E+02  0.70000250033E+02 0.  0.
         12    1    1    2    0    0  0.21939469217E+01 -0.67826332219E+01  0.17316306316E+02  0.18726237769E+02  0.00000000000E+00 0. -1.
         11    1    3    3    0    0  0.10946511492E+02 -0.21734981293E+01  0.11101042477E+02  0.15741135674E+02  0.51100000000E-03 0. -1.
        -11    1    3    3    0    0 -0.12045550951E+01 -0.95929007110E+01 -0.32831796694E+02  0.34225744279E+02  0.51100000000E-03 0.  1.
        -12    1    3    3    0    0 -0.11935903318E+02  0.18549032062E+02  0.44144479004E+01  0.22494882279E+02  0.00000000000E+00 0.  1.
</event>
<event>
 7    1  0.1302069E-013  0.7246161E+02  0.7816164E-02  0.1226708E+00
        -11   -1    0    0    0    0  0.00000000000E+00  0.00000000000E+00  0.45593999997E+02  0.45594000000E+02  0.51100000000E-03 0.  1.
         11   -1    0    0    0    0 -0.00000000000E+00 -0.00000000000E+00 -0.45593999997E+02  0.45594000000E+02  0.51100000000E-03 0. -1.
    9900012    2    1    2    0    0 -0.56869577470E+01  0.26315417679E+01  0.17646846924E+02  0.72461609348E+02  0.70000050874E+02 0.  0.
         12    1    1    2    0    0  0.56869577470E+01 -0.26315417679E+01 -0.17646846924E+02  0.18726390652E+02  0.00000000000E+00 0. -1.
         11    1    3    3    0    0 -0.15314889850E+01 -0.75340590016E+01 -0.85082611464E+01  0.11467258240E+02  0.51100000000E-03 0. -1.
        -11    1    3    3    0    0  0.10002352773E+02  0.27737036804E+02  0.24557082938E+02  0.38372393649E+02  0.51100000000E-03 0.  1.
        -12    1    3    3    0    0 -0.14157821535E+02 -0.17571436035E+02  0.15980251326E+01  0.22621957459E+02  0.00000000000E+00 0.  1.
</event>
<event>
 7    1  0.1302069E-013  0.7246155E+02  0.7816164E-02  0.1226708E+00
        -11   -1    0    0    0    0  0.00000000000E+00  0.00000000000E+00  0.45593999997E+02  0.45594000000E+02  0.51100000000E-03 0. -1.
         11   -1    0    0    0    0 -0.00000000000E+00 -0.00000000000E+00 -0.45593999997E+02  0.45594000000E+02  0.51100000000E-03 0.  1.
    9900012    2    1    2    0    0 -0.85632520033E+01 -0.11344472650E+02 -0.12192357232E+02  0.72461550271E+02  0.69999973916E+02 0.  0.
         12    1    1    2    0    0  0.85632520033E+01  0.11344472650E+02  0.12192357232E+02  0.18726449729E+02  0.00000000000E+00 0. -1.
         11    1    3    3    0    0 -0.17510566683E+02  0.76650195050E+01  0.17282733302E+01  0.19192691279E+02  0.51100000000E-03 0. -1.
        -11    1    3    3    0    0  0.72832288913E+01 -0.17216590073E+02 -0.30899762377E+02  0.36114425262E+02  0.51100000000E-03 0.  1.
        -12    1    3    3    0    0  0.16640857886E+01 -0.17929020823E+01  0.16979131815E+02  0.17154433729E+02  0.00000000000E+00 0.  1.
</event>
<event>
 7    1  0.1302069E-013  0.7246163E+02  0.7816164E-02  0.1226708E+00
        -11   -1    0    0    0    0  0.00000000000E+00  0.00000000000E+00  0.45593999997E+02  0.45594000000E+02  0.51100000000E-03 0. -1.
         11   -1    0    0    0    0 -0.00000000000E+00 -0.00000000000E+00 -0.45593999997E+02  0.45594000000E+02  0.51100000000E-03 0.  1.
    9900012    2    1    2    0    0  0.16414034130E+01  0.13254902788E+02 -0.13125934251E+02  0.72461633479E+02  0.70000082310E+02 0.  0.
         12    1    1    2    0    0 -0.16414034130E+01 -0.13254902788E+02  0.13125934251E+02  0.18726366521E+02  0.00000000000E+00 0. -1.
         11    1    3    3    0    0  0.25073877560E+01 -0.19554357578E+02  0.67196196649E+01  0.20828182406E+02  0.51100000000E-03 0. -1.
        -11    1    3    3    0    0 -0.80212508290E+01  0.52017963560E+01 -0.21017538664E+02  0.23089739755E+02  0.51100000000E-03 0.  1.
         12    1    3    3    0    0  0.71552664860E+01  0.27607464010E+02  0.11719847478E+01  0.28543711318E+02  0.00000000000E+00 0. -1.
</event>
<event>
 7    1  0.1302069E-013  0.7246157E+02  0.7816164E-02  0.1226708E+00
        -11   -1    0    0    0    0  0.00000000000E+00  0.00000000000E+00  0.45593999997E+02  0.45594000000E+02  0.51100000000E-03 0.  1.
         11   -1    0    0    0    0 -0.00000000000E+00 -0.00000000000E+00 -0.45593999997E+02  0.45594000000E+02  0.51100000000E-03 0. -1.
    9900012    2    1    2    0    0  0.11270189149E+02 -0.14948376266E+02  0.45594678491E+00  0.72461574716E+02  0.70000005760E+02 0.  0.
         12    1    1    2    0    0 -0.11270189149E+02  0.14948376266E+02 -0.45594678491E+00  0.18726425284E+02  0.00000000000E+00 0. -1.
         11    1    3    3    0    0  0.19001478817E+01 -0.27271129684E+02  0.12400472608E+02  0.30018274391E+02  0.51100000000E-03 0.  1.
        -11    1    3    3    0    0  0.46180800081E+01  0.10607674364E+02 -0.25486596777E+02  0.27989570091E+02  0.51100000000E-03 0. -1.
        -12    1    3    3    0    0  0.47519612595E+01  0.17150790541E+01  0.13542070953E+02  0.14453730234E+02  0.00000000000E+00 0.  1.
</event>
<event>
 8    1  0.1302069E-013  0.7246158E+02  0.7816164E-02  0.1226708E+00
        -11   -1    0    0    0    0  0.00000000000E+00  0.00000000000E+00  0.45593999997E+02  0.45594000000E+02  0.51100000000E-03 0. -1.
         11   -1    0    0    0    0 -0.00000000000E+00 -0.00000000000E+00 -0.45593999997E+02  0.45594000000E+02  0.51100000000E-03 0.  1.
    9900012    2    1    2    0    0 -0.14765337181E+02 -0.39024048658E+01 -0.10836730899E+02  0.72461583301E+02  0.70000016943E+02 0.  0.
         24    2    3    3    0    0 -0.14748239613E+01 -0.95038800951E+01  0.32357055264E+01  0.52310957167E+02  0.51317322678E+02 0.  0.
         12    1    1    2    0    0  0.14765337181E+02  0.39024048658E+01  0.10836730899E+02  0.18726416699E+02  0.00000000000E+00 0. -1.
         11    1    3    3    0    0 -0.13290513220E+02  0.56014752293E+01 -0.14072436426E+02  0.20150626134E+02  0.51100000000E-03 0. -1.
        -11    1    4    4    0    0  0.22292426482E+02  0.18668289086E+01 -0.78760530307E+01  0.23716440295E+02  0.51100000000E-03 0.  1.
         12    1    4    4    0    0 -0.23767250444E+02 -0.11370709004E+02  0.11111758557E+02  0.28594516872E+02  0.00000000000E+00 0. -1.
</event>
<event>
 7    1  0.1302069E-013  0.7246165E+02  0.7816164E-02  0.1226708E+00
        -11   -1    0    0    0    0  0.00000000000E+00  0.00000000000E+00  0.45593999997E+02  0.45594000000E+02  0.51100000000E-03 0.  1.
         11   -1    0    0    0    0 -0.00000000000E+00 -0.00000000000E+00 -0.45593999997E+02  0.45594000000E+02  0.51100000000E-03 0. -1.
    9900012    2    1    2    0    0  0.21067708130E+01  0.10468159697E+02  0.15383606886E+02  0.72461649274E+02  0.70000102885E+02 0.  0.
         12    1    1    2    0    0 -0.21067708130E+01 -0.10468159697E+02 -0.15383606886E+02  0.18726350726E+02  0.00000000000E+00 0. -1.
         11    1    3    3    0    0  0.25841203224E+02  0.52239346793E+01 -0.49920374544E+01  0.26832400486E+02  0.51100000000E-03 0. -1.
        -11    1    3    3    0    0 -0.20000545284E+02  0.16374222935E+02  0.50717380305E+01  0.26341213246E+02  0.51100000000E-03 0.  1.
         12    1    3    3    0    0 -0.37338871274E+01 -0.11129997917E+02  0.15303906310E+02  0.19288035542E+02  0.00000000000E+00 0. -1.
</event>
<event>
 7    1  0.1302069E-013  0.7246151E+02  0.7816164E-02  0.1226708E+00
        -11   -1    0    0    0    0  0.00000000000E+00  0.00000000000E+00  0.45593999997E+02  0.45594000000E+02  0.51100000000E-03 0.  1.
         11   -1    0    0    0    0 -0.00000000000E+00 -0.00000000000E+00 -0.45593999997E+02  0.45594000000E+02  0.51100000000E-03 0. -1.
    9900012    2    1    2    0    0 -0.61734422251E+01  0.81962917332E+01  0.15664956830E+02  0.72461509149E+02  0.69999920347E+02 0.  0.
         12    1    1    2    0    0  0.61734422251E+01 -0.81962917332E+01 -0.15664956830E+02  0.18726490851E+02  0.00000000000E+00 0. -1.
         11    1    3    3    0    0 -0.45814983664E+01 -0.17264775945E+02 -0.12689373311E+02  0.21910792113E+02  0.51100000000E-03 0. -1.
        -11    1    3    3    0    0  0.13160103469E+02  0.10695856735E+02  0.23739895775E+02  0.29174857776E+02  0.51100000000E-03 0.  1.
         12    1    3    3    0    0 -0.14752047328E+02  0.14765210944E+02  0.46144343669E+01  0.21375859260E+02  0.00000000000E+00 0. -1.
</event>
<event>
 7    1  0.1302069E-013  0.7246151E+02  0.7816164E-02  0.1226708E+00
        -11   -1    0    0    0    0  0.00000000000E+00  0.00000000000E+00  0.45593999997E+02  0.45594000000E+02  0.51100000000E-03 0.  1.
         11   -1    0    0    0    0 -0.00000000000E+00 -0.00000000000E+00 -0.45593999997E+02  0.45594000000E+02  0.51100000000E-03 0. -1.
    9900012    2    1    2    0    0  0.67121887496E+01 -0.65477217389E+01  0.16209727892E+02  0.72461510310E+02  0.69999921859E+02 0.  0.
         12    1    1    2    0    0 -0.67121887496E+01  0.65477217389E+01 -0.16209727892E+02  0.18726489690E+02  0.00000000000E+00 0. -1.
         11    1    3    3    0    0  0.20436519990E+02 -0.19134955489E+02 -0.60969051522E+00  0.28003028294E+02  0.51100000000E-03 0. -1.
        -11    1    3    3    0    0 -0.12797086130E+02  0.64783390422E+01  0.28126836865E+02  0.31572982793E+02  0.51100000000E-03 0.  1.
        -12    1    3    3    0    0 -0.92724510986E+00  0.61088947080E+01 -0.11307418457E+02  0.12885499223E+02  0.00000000000E+00 0.  1.
</event>
<event>
 7    1  0.1302069E-013  0.7246153E+02  0.7816164E-02  0.1226708E+00
        -11   -1    0    0    0    0  0.00000000000E+00  0.00000000000E+00  0.45593999997E+02  0.45594000000E+02  0.51100000000E-03 0.  1.
         11   -1    0    0    0    0 -0.00000000000E+00 -0.00000000000E+00 -0.45593999997E+02  0.45594000000E+02  0.51100000000E-03 0. -1.
    9900012    2    1    2    0    0 -0.14697638943E+02 -0.99074410435E+01 -0.60417335316E+01  0.72461534167E+02  0.69999952938E+02 0.  0.
         12    1    1    2    0    0  0.14697638943E+02  0.99074410435E+01  0.60417335316E+01  0.18726465833E+02  0.00000000000E+00 0. -1.
         11    1    3    3    0    0 -0.31419653567E+01 -0.22862108559E+02 -0.37092922421E+01  0.23373206953E+02  0.51100000000E-03 0. -1.
        -11    1    3    3    0    0  0.10799673298E+02  0.18969170397E+02 -0.10906716494E+02  0.24401205582E+02  0.51100000000E-03 0.  1.
        -12    1    3    3    0    0 -0.22355346884E+02 -0.60145028812E+01  0.85742752046E+01  0.24687121633E+02  0.00000000000E+00 0.  1.
</event>
<event>
 7    1  0.1302069E-013  0.7246171E+02  0.7816164E-02  0.1226708E+00
        -11   -1    0    0    0    0  0.00000000000E+00  0.00000000000E+00  0.45593999997E+02  0.45594000000E+02  0.51100000000E-03 0. -1.
         11   -1    0    0    0    0 -0.00000000000E+00 -0.00000000000E+00 -0.45593999997E+02  0.45594000000E+02  0.51100000000E-03 0.  1.
    9900012    2    1    2    0    0 -0.44207072987E+01 -0.20442746876E+01 -0.18081820606E+02  0.72461709699E+02  0.70000181600E+02 0.  0.
         12    1    1    2    0    0  0.44207072987E+01  0.20442746876E+01  0.18081820606E+02  0.18726290301E+02  0.00000000000E+00 0. -1.
         11    1    3    3    0    0  0.16417218798E+02 -0.17047464964E+02  0.39262683902E+01  0.23990763192E+02  0.51100000000E-03 0. -1.
        -11    1    3    3    0    0 -0.19122392997E+01  0.19937967636E+02 -0.20798900775E+02  0.28875136127E+02  0.51100000000E-03 0.  1.
         12    1    3    3    0    0 -0.18925686797E+02 -0.49347773595E+01 -0.12091882204E+01  0.19595810381E+02  0.00000000000E+00 0. -1.
</event>
<event>
 7    1  0.1302069E-013  0.7246151E+02  0.7816164E-02  0.1226708E+00
        -11   -1    0    0    0    0  0.00000000000E+00  0.00000000000E+00  0.45593999997E+02  0.45594000000E+02  0.51100000000E-03 0.  1.
         11   -1    0    0    0    0 -0.00000000000E+00 -0.00000000000E+00 -0.45593999997E+02  0.45594000000E+02  0.51100000000E-03 0. -1.
    9900012    2    1    2    0    0  0.83434927567E+01 -0.16555989610E+02  0.26394497148E+01  0.72461511857E+02  0.69999923875E+02 0.  0.
         12    1    1    2    0    0 -0.83434927567E+01  0.16555989610E+02 -0.26394497148E+01  0.18726488143E+02  0.00000000000E+00 0. -1.
         11    1    3    3    0    0 -0.20200273887E+02 -0.18994066844E+02  0.46735274120E+01  0.28118810414E+02  0.51100000000E-03 0. -1.
        -11    1    3    3    0    0  0.25738780357E+02 -0.10827080326E+02 -0.86823392453E+01  0.29241981767E+02  0.51100000000E-03 0.  1.
         12    1    3    3    0    0  0.28049862868E+01  0.13265157559E+02  0.66482615480E+01  0.15100719676E+02  0.00000000000E+00 0. -1.
</event>
<event>
 7    1  0.1302069E-013  0.7246155E+02  0.7816164E-02  0.1226708E+00
        -11   -1    0    0    0    0  0.00000000000E+00  0.00000000000E+00  0.45593999997E+02  0.45594000000E+02  0.51100000000E-03 0. -1.
         11   -1    0    0    0    0 -0.00000000000E+00 -0.00000000000E+00 -0.45593999997E+02  0.45594000000E+02  0.51100000000E-03 0.  1.
    9900012    2    1    2    0    0  0.12506901552E+02 -0.13712184237E+02 -0.24966467685E+01  0.72461552711E+02  0.69999977094E+02 0.  0.
         12    1    1    2    0    0 -0.12506901552E+02  0.13712184237E+02  0.24966467685E+01  0.18726447289E+02  0.00000000000E+00 0. -1.
         11    1    3    3    0    0  0.14706291674E+02  0.13355847681E+02  0.12670572976E+02  0.23562620862E+02  0.51100000000E-03 0. -1.
        -11    1    3    3    0    0  0.24496748337E+01 -0.10187145483E+02 -0.26190531661E+02  0.28208558787E+02  0.51100000000E-03 0.  1.
        -12    1    3    3    0    0 -0.46490649561E+01 -0.16880886436E+02  0.11023311917E+02  0.20690373062E+02  0.00000000000E+00 0.  1.
</event>
<event>
 7    1  0.1302069E-013  0.7246154E+02  0.7816164E-02  0.1226708E+00
        -11   -1    0    0    0    0  0.00000000000E+00  0.00000000000E+00  0.45593999997E+02  0.45594000000E+02  0.51100000000E-03 0.  1.
         11   -1    0    0    0    0 -0.00000000000E+00 -0.00000000000E+00 -0.45593999997E+02  0.45594000000E+02  0.51100000000E-03 0. -1.
    9900012    2    1    2    0    0  0.18531662137E+02 -0.17671850312E+01  0.20334105900E+01  0.72461542697E+02  0.69999964049E+02 0.  0.
         12    1    1    2    0    0 -0.18531662137E+02  0.17671850312E+01 -0.20334105900E+01  0.18726457303E+02  0.00000000000E+00 0. -1.
         11    1    3    3    0    0  0.10213020406E+02 -0.36180934658E+01 -0.32258946209E+02  0.34029927959E+02  0.51100000000E-03 0. -1.
        -11    1    3    3    0    0  0.72766036317E+01  0.55929590549E+01  0.90399354854E+01  0.12882180920E+02  0.51100000000E-03 0.  1.
         12    1    3    3    0    0  0.10420380991E+01 -0.37420506203E+01  0.25252421313E+02  0.25549433818E+02  0.00000000000E+00 0. -1.
</event>
<event>
 7    1  0.1302069E-013  0.7246153E+02  0.7816164E-02  0.1226708E+00
        -11   -1    0    0    0    0  0.00000000000E+00  0.00000000000E+00  0.45593999997E+02  0.45594000000E+02  0.51100000000E-03 0.  1.
         11   -1    0    0    0    0 -0.00000000000E+00 -0.00000000000E+00 -0.45593999997E+02  0.45594000000E+02  0.51100000000E-03 0. -1.
    9900012    2    1    2    0    0 -0.30471806073E+01  0.30896560300E+01  0.18216735248E+02  0.72461528706E+02  0.69999945824E+02 0.  0.
         12    1    1    2    0    0  0.30471806073E+01 -0.30896560300E+01 -0.18216735248E+02  0.18726471294E+02  0.00000000000E+00 0. -1.
         11    1    3    3    0    0  0.86328874582E+01 -0.52637157531E+01 -0.25806558368E+01  0.10435192102E+02  0.51100000000E-03 0. -1.
        -11    1    3    3    0    0 -0.28456504810E+02  0.87018020935E+01  0.30525905345E+02  0.42630094101E+02  0.51100000000E-03 0.  1.
        -12    1    3    3    0    0  0.16776436744E+02 -0.34843031043E+00 -0.97285142609E+01  0.19396242503E+02  0.00000000000E+00 0.  1.
</event>
<event>
 7    1  0.1302069E-013  0.7246157E+02  0.7816164E-02  0.1226708E+00
        -11   -1    0    0    0    0  0.00000000000E+00  0.00000000000E+00  0.45593999997E+02  0.45594000000E+02  0.51100000000E-03 0.  1.
         11   -1    0    0    0    0 -0.00000000000E+00 -0.00000000000E+00 -0.45593999997E+02  0.45594000000E+02  0.51100000000E-03 0. -1.
    9900012    2    1    2    0    0  0.13514101313E+02  0.11007045469E+02 -0.68478580114E+01  0.72461570986E+02  0.70000000901E+02 0.  0.
         12    1    1    2    0    0 -0.13514101313E+02 -0.11007045469E+02  0.68478580114E+01  0.18726429014E+02  0.00000000000E+00 0. -1.
         11    1    3    3    0    0  0.16422742186E+02  0.21409759613E+02  0.45315429518E+01  0.27360905493E+02  0.51100000000E-03 0. -1.
        -11    1    3    3    0    0 -0.19588658212E+02  0.33660593932E+01 -0.12436790283E+02  0.23446100724E+02  0.51100000000E-03 0.  1.
        -12    1    3    3    0    0  0.16680017339E+02 -0.13768773538E+02  0.10573893198E+01  0.21654564769E+02  0.00000000000E+00 0.  1.
</event>
<event>
 7    1  0.1302069E-013  0.7246155E+02  0.7816164E-02  0.1226708E+00
        -11   -1    0    0    0    0  0.00000000000E+00  0.00000000000E+00  0.45593999997E+02  0.45594000000E+02  0.51100000000E-03 0.  1.
         11   -1    0    0    0    0 -0.00000000000E+00 -0.00000000000E+00 -0.45593999997E+02  0.45594000000E+02  0.51100000000E-03 0. -1.
    9900012    2    1    2    0    0 -0.78437810288E+01 -0.11103932453E+02  0.12878573488E+02  0.72461551542E+02  0.69999975572E+02 0.  0.
         12    1    1    2    0    0  0.78437810288E+01  0.11103932453E+02 -0.12878573488E+02  0.18726448458E+02  0.00000000000E+00 0. -1.
         11    1    3    3    0    0  0.11365778207E+02 -0.30820983176E+02  0.45549826650E+01  0.33164164177E+02  0.51100000000E-03 0. -1.
        -11    1    3    3    0    0 -0.47694688484E+00  0.19657137795E+02  0.38114456531E+01  0.20028920661E+02  0.51100000000E-03 0.  1.
         12    1    3    3    0    0 -0.18732612351E+02  0.59912927633E-01  0.45121451702E+01  0.19268466704E+02  0.00000000000E+00 0. -1.
</event>
<event>
 7    1  0.1302069E-013  0.7246165E+02  0.7816164E-02  0.1226708E+00
        -11   -1    0    0    0    0  0.00000000000E+00  0.00000000000E+00  0.45593999997E+02  0.45594000000E+02  0.51100000000E-03 0.  1.
         11   -1    0    0    0    0 -0.00000000000E+00 -0.00000000000E+00 -0.45593999997E+02  0.45594000000E+02  0.51100000000E-03 0. -1.
    9900012    2    1    2    0    0 -0.38554969074E+01  0.13462176438E+02  0.12433071143E+02  0.72461646674E+02  0.70000099498E+02 0.  0.
         12    1    1    2    0    0  0.38554969074E+01 -0.13462176438E+02 -0.12433071143E+02  0.18726353326E+02  0.00000000000E+00 0. -1.
         11    1    3    3    0    0 -0.10634588361E+02 -0.16966581376E+02  0.92561497580E+01  0.22059820076E+02  0.51100000000E-03 0. -1.
        -11    1    3    3    0    0 -0.48850665979E+01  0.34416069719E+02 -0.56813096383E+01  0.35222251632E+02  0.51100000000E-03 0.  1.
        -12    1    3    3    0    0  0.11664158052E+02 -0.39873119045E+01  0.88582310230E+01  0.15179574966E+02  0.00000000000E+00 0.  1.
</event>
<event>
 7    1  0.1302069E-013  0.7246156E+02  0.7816164E-02  0.1226708E+00
        -11   -1    0    0    0    0  0.00000000000E+00  0.00000000000E+00  0.45593999997E+02  0.45594000000E+02  0.51100000000E-03 0. -1.
         11   -1    0    0    0    0 -0.00000000000E+00 -0.00000000000E+00 -0.45593999997E+02  0.45594000000E+02  0.51100000000E-03 0.  1.
    9900012    2    1    2    0    0 -0.17152576692E+02  0.47521551919E+01 -0.58211568867E+01  0.72461555232E+02  0.69999980379E+02 0.  0.
         12    1    1    2    0    0  0.17152576692E+02 -0.47521551919E+01  0.58211568867E+01  0.18726444768E+02  0.00000000000E+00 0. -1.
         11    1    3    3    0    0 -0.15961700245E+02 -0.39878209425E+01  0.12052483894E+02  0.20394630637E+02  0.51100000000E-03 0. -1.
        -11    1    3    3    0    0 -0.12150480345E+02  0.53840625940E+01 -0.31542777750E+02  0.34228192051E+02  0.51100000000E-03 0.  1.
        -12    1    3    3    0    0  0.10959603898E+02  0.33559135404E+01  0.13669136969E+02  0.17838732544E+02  0.00000000000E+00 0.  1.
</event>
<event>
 7    1  0.1302069E-013  0.7246163E+02  0.7816164E-02  0.1226708E+00
        -11   -1    0    0    0    0  0.00000000000E+00  0.00000000000E+00  0.45593999997E+02  0.45594000000E+02  0.51100000000E-03 0.  1.
         11   -1    0    0    0    0 -0.00000000000E+00 -0.00000000000E+00 -0.45593999997E+02  0.45594000000E+02  0.51100000000E-03 0. -1.
    9900012    2    1    2    0    0 -0.12154419860E+02 -0.75258320898E+00  0.14226050648E+02  0.72461633010E+02  0.70000081699E+02 0.  0.
         12    1    1    2    0    0  0.12154419860E+02  0.75258320898E+00 -0.14226050648E+02  0.18726366990E+02  0.00000000000E+00 0. -1.
         11    1    3    3    0    0 -0.25136823168E+02 -0.20526655612E+02 -0.10907605295E+02  0.34237104480E+02  0.51100000000E-03 0. -1.
        -11    1    3    3    0    0  0.63757144725E+01  0.56738954354E+00  0.13192127435E+02  0.14663011030E+02  0.51100000000E-03 0.  1.
         12    1    3    3    0    0  0.66066888357E+01  0.19206682860E+02  0.11941528507E+02  0.23561517501E+02  0.00000000000E+00 0. -1.
</event>
<event>
 7    1  0.1302069E-013  0.7246160E+02  0.7816164E-02  0.1226708E+00
        -11   -1    0    0    0    0  0.00000000000E+00  0.00000000000E+00  0.45593999997E+02  0.45594000000E+02  0.51100000000E-03 0.  1.
         11   -1    0    0    0    0 -0.00000000000E+00 -0.00000000000E+00 -0.45593999997E+02  0.45594000000E+02  0.51100000000E-03 0. -1.
    9900012    2    1    2    0    0  0.65288846976E+01 -0.64157981596E+01  0.16336744940E+02  0.72461600542E+02  0.70000039403E+02 0.  0.
         12    1    1    2    0    0 -0.65288846976E+01  0.64157981596E+01 -0.16336744940E+02  0.18726399458E+02  0.00000000000E+00 0. -1.
         11    1    3    3    0    0 -0.98675452987E+01 -0.94677133066E+01 -0.24341075997E+02  0.27919420238E+02  0.51100000000E-03 0. -1.
        -11    1    3    3    0    0  0.13419791160E+02 -0.60272957721E+00  0.29981158266E+02  0.32853065747E+02  0.51100000000E-03 0.  1.
         12    1    3    3    0    0  0.29766388359E+01  0.36546447242E+01  0.10696662671E+02  0.11689114557E+02  0.00000000000E+00 0. -1.
</event>
<event>
 7    1  0.1302069E-013  0.7246156E+02  0.7816164E-02  0.1226708E+00
        -11   -1    0    0    0    0  0.00000000000E+00  0.00000000000E+00  0.45593999997E+02  0.45594000000E+02  0.51100000000E-03 0.  1.
         11   -1    0    0    0    0 -0.00000000000E+00 -0.00000000000E+00 -0.45593999997E+02  0.45594000000E+02  0.51100000000E-03 0. -1.
    9900012    2    1    2    0    0  0.10257274668E+02  0.10076470469E+02  0.11997190644E+02  0.72461560828E+02  0.69999987668E+02 0.  0.
         12    1    1    2    0    0 -0.10257274668E+02 -0.10076470469E+02 -0.11997190644E+02  0.18726439172E+02  0.00000000000E+00 0. -1.
         11    1    3    3    0    0  0.14961984352E+02  0.26945115295E+02  0.11578614755E+02  0.32923616659E+02  0.51100000000E-03 0. -1.
        -11    1    3    3    0    0  0.19266287376E+01 -0.25477062845E+02 -0.68653193905E+01  0.26456100243E+02  0.51100000000E-03 0.  1.
        -12    1    3    3    0    0 -0.66313384217E+01  0.86084180189E+01  0.72838952794E+01  0.13081843926E+02  0.00000000000E+00 0.  1.
</event>
<event>
 7    1  0.1302069E-013  0.7246157E+02  0.7816164E-02  0.1226708E+00
        -11   -1    0    0    0    0  0.00000000000E+00  0.00000000000E+00  0.45593999997E+02  0.45594000000E+02  0.51100000000E-03 0.  1.
         11   -1    0    0    0    0 -0.00000000000E+00 -0.00000000000E+00 -0.45593999997E+02  0.45594000000E+02  0.51100000000E-03 0. -1.
    9900012    2    1    2    0    0 -0.51024675627E+01  0.10304868625E+02  0.14780179483E+02  0.72461569529E+02  0.69999999004E+02 0.  0.
         12    1    1    2    0    0  0.51024675627E+01 -0.10304868625E+02 -0.14780179483E+02  0.18726430471E+02  0.00000000000E+00 0. -1.
         11    1    3    3    0    0 -0.26916571117E+02  0.70743221079E+01 -0.14208626515E+02  0.31247926358E+02  0.51100000000E-03 0. -1.
        -11    1    3    3    0    0 -0.30692568168E+01 -0.10185971447E+01  0.70997341130E+01  0.78015448654E+01  0.51100000000E-03 0.  1.
         12    1    3    3    0    0  0.24883360371E+02  0.42491436616E+01  0.21889071886E+02  0.33412098306E+02  0.00000000000E+00 0. -1.
</event>
<event>
 7    1  0.1302069E-013  0.7246158E+02  0.7816164E-02  0.1226708E+00
        -11   -1    0    0    0    0  0.00000000000E+00  0.00000000000E+00  0.45593999997E+02  0.45594000000E+02  0.51100000000E-03 0. -1.
         11   -1    0    0    0    0 -0.00000000000E+00 -0.00000000000E+00 -0.45593999997E+02  0.45594000000E+02  0.51100000000E-03 0.  1.
    9900012    2    1    2    0    0 -0.10786461045E+02  0.25449644752E+00 -0.15305764215E+02  0.72461576729E+02  0.70000008382E+02 0.  0.
         12    1    1    2    0    0  0.10786461045E+02 -0.25449644752E+00  0.15305764215E+02  0.18726423271E+02  0.00000000000E+00 0. -1.
         11    1    3    3    0    0 -0.12470856825E+02 -0.18836596545E+02  0.44273861943E+01  0.23020455863E+02  0.51100000000E-03 0. -1.
        -11    1    3    3    0    0  0.16288439280E+02  0.12718123495E+02 -0.25204950811E+02  0.32593764206E+02  0.51100000000E-03 0.  1.
        -12    1    3    3    0    0 -0.14604043501E+02  0.63729694980E+01  0.54718004018E+01  0.16847356660E+02  0.00000000000E+00 0.  1.
</event>
<event>
 7    1  0.1302069E-013  0.7246159E+02  0.7816164E-02  0.1226708E+00
        -11   -1    0    0    0    0  0.00000000000E+00  0.00000000000E+00  0.45593999997E+02  0.45594000000E+02  0.51100000000E-03 0.  1.
         11   -1    0    0    0    0 -0.00000000000E+00 -0.00000000000E+00 -0.45593999997E+02  0.45594000000E+02  0.51100000000E-03 0. -1.
    9900012    2    1    2    0    0 -0.25956832586E+01 -0.57460371583E+01  0.17633039658E+02  0.72461585442E+02  0.70000019733E+02 0.  0.
         12    1    1    2    0    0  0.25956832586E+01  0.57460371583E+01 -0.17633039658E+02  0.18726414558E+02  0.00000000000E+00 0. -1.
         11    1    3    3    0    0 -0.54488579354E+01  0.24314006976E+02 -0.43972803101E+01  0.25302115769E+02  0.51100000000E-03 0. -1.
        -11    1    3    3    0    0 -0.97115963737E+01 -0.26541779071E+02  0.12014050788E+02  0.30710235378E+02  0.51100000000E-03 0.  1.
        -12    1    3    3    0    0  0.12564771051E+02 -0.35182650635E+01  0.10016269180E+02  0.16449234295E+02  0.00000000000E+00 0.  1.
</event>
<event>
 7    1  0.1302069E-013  0.7246159E+02  0.7816164E-02  0.1226708E+00
        -11   -1    0    0    0    0  0.00000000000E+00  0.00000000000E+00  0.45593999997E+02  0.45594000000E+02  0.51100000000E-03 0. -1.
         11   -1    0    0    0    0 -0.00000000000E+00 -0.00000000000E+00 -0.45593999997E+02  0.45594000000E+02  0.51100000000E-03 0.  1.
    9900012    2    1    2    0    0 -0.17812652211E+02  0.38643378558E+00 -0.57652971638E+01  0.72461586535E+02  0.70000021157E+02 0.  0.
         12    1    1    2    0    0  0.17812652211E+02 -0.38643378558E+00  0.57652971638E+01  0.18726413465E+02  0.00000000000E+00 0. -1.
         11    1    3    3    0    0 -0.27877439741E+02  0.21674220160E+02  0.11071098172E+02  0.37006657253E+02  0.51100000000E-03 0. -1.
        -11    1    3    3    0    0 -0.46136295905E+01 -0.64502758075E+01 -0.11400369926E+02  0.13887406911E+02  0.51100000000E-03 0.  1.
         12    1    3    3    0    0  0.14678417120E+02 -0.14837510567E+02 -0.54360254093E+01  0.21567522371E+02  0.00000000000E+00 0. -1.
</event>
<event>
 7    1  0.1302069E-013  0.7246138E+02  0.7816164E-02  0.1226709E+00
        -11   -1    0    0    0    0  0.00000000000E+00  0.00000000000E+00  0.45593999997E+02  0.45594000000E+02  0.51100000000E-03 0.  1.
         11   -1    0    0    0    0 -0.00000000000E+00 -0.00000000000E+00 -0.45593999997E+02  0.45594000000E+02  0.51100000000E-03 0. -1.
    9900012    2    1    2    0    0 -0.25961817947E+01  0.16848148652E+02  0.77515093222E+01  0.72461383389E+02  0.69999756521E+02 0.  0.
         12    1    1    2    0    0  0.25961817947E+01 -0.16848148652E+02 -0.77515093222E+01  0.18726616611E+02  0.00000000000E+00 0. -1.
         11    1    3    3    0    0 -0.28089063043E+01 -0.67351325184E+01 -0.94354396841E+01  0.11928096535E+02  0.51100000000E-03 0. -1.
        -11    1    3    3    0    0  0.18218415334E+01  0.38949003341E+02  0.22701949654E+01  0.39057620937E+02  0.51100000000E-03 0.  1.
        -12    1    3    3    0    0 -0.16091170237E+01 -0.15365722170E+02  0.14916754041E+02  0.21475665916E+02  0.00000000000E+00 0.  1.
</event>
<event>
 7    1  0.1302069E-013  0.7246157E+02  0.7816164E-02  0.1226708E+00
        -11   -1    0    0    0    0  0.00000000000E+00  0.00000000000E+00  0.45593999997E+02  0.45594000000E+02  0.51100000000E-03 0.  1.
         11   -1    0    0    0    0 -0.00000000000E+00 -0.00000000000E+00 -0.45593999997E+02  0.45594000000E+02  0.51100000000E-03 0. -1.
    9900012    2    1    2    0    0  0.28706576531E+01  0.16413227228E+02  0.85466109835E+01  0.72461567806E+02  0.69999996759E+02 0.  0.
         12    1    1    2    0    0 -0.28706576531E+01 -0.16413227228E+02 -0.85466109835E+01  0.18726432194E+02  0.00000000000E+00 0. -1.
         11    1    3    3    0    0  0.15157234808E+02  0.11302657865E+02  0.26748512692E+02  0.32756293645E+02  0.51100000000E-03 0. -1.
        -11    1    3    3    0    0 -0.70878887290E+01  0.14557767874E+02  0.24806865369E+01  0.16380493828E+02  0.51100000000E-03 0.  1.
         12    1    3    3    0    0 -0.51986884263E+01 -0.94471985111E+01 -0.20682588246E+02  0.23324780333E+02  0.00000000000E+00 0. -1.
</event>
<event>
 7    1  0.1302069E-013  0.7246163E+02  0.7816164E-02  0.1226708E+00
        -11   -1    0    0    0    0  0.00000000000E+00  0.00000000000E+00  0.45593999997E+02  0.45594000000E+02  0.51100000000E-03 0. -1.
         11   -1    0    0    0    0 -0.00000000000E+00 -0.00000000000E+00 -0.45593999997E+02  0.45594000000E+02  0.51100000000E-03 0.  1.
    9900012    2    1    2    0    0  0.37713786800E+00  0.11746935680E+00 -0.18722205829E+02  0.72461627604E+02  0.70000074656E+02 0.  0.
         12    1    1    2    0    0 -0.37713786800E+00 -0.11746935680E+00  0.18722205829E+02  0.18726372396E+02  0.00000000000E+00 0. -1.
         11    1    3    3    0    0 -0.52459466828E+01  0.27963592933E+02 -0.13441624866E+01  0.28483139915E+02  0.51100000000E-03 0. -1.
        -11    1    3    3    0    0 -0.10862016806E+02 -0.16808963548E+02 -0.51181680090E+01  0.20657209606E+02  0.51100000000E-03 0.  1.
         12    1    3    3    0    0  0.16485101357E+02 -0.11037160028E+02 -0.12259875333E+02  0.23321278083E+02  0.00000000000E+00 0. -1.
</event>
<event>
 7    1  0.1302069E-013  0.7246152E+02  0.7816164E-02  0.1226708E+00
        -11   -1    0    0    0    0  0.00000000000E+00  0.00000000000E+00  0.45593999997E+02  0.45594000000E+02  0.51100000000E-03 0. -1.
         11   -1    0    0    0    0 -0.00000000000E+00 -0.00000000000E+00 -0.45593999997E+02  0.45594000000E+02  0.51100000000E-03 0.  1.
    9900012    2    1    2    0    0  0.15477673318E+02  0.62979547628E+01  0.84533043443E+01  0.72461522492E+02  0.69999937728E+02 0.  0.
         12    1    1    2    0    0 -0.15477673318E+02 -0.62979547628E+01 -0.84533043443E+01  0.18726477508E+02  0.00000000000E+00 0. -1.
         11    1    3    3    0    0  0.22976815641E+02 -0.20726488504E+02  0.95691165011E+01  0.32389649174E+02  0.51100000000E-03 0. -1.
        -11    1    3    3    0    0  0.58236861518E+01  0.22335122300E+02 -0.79087901731E+01  0.24399220701E+02  0.51100000000E-03 0.  1.
         12    1    3    3    0    0 -0.13322828475E+02  0.46893209666E+01  0.67929780163E+01  0.15672652617E+02  0.00000000000E+00 0. -1.
</event>
<event>
 7    1  0.1302069E-013  0.7246148E+02  0.7816164E-02  0.1226708E+00
        -11   -1    0    0    0    0  0.00000000000E+00  0.00000000000E+00  0.45593999997E+02  0.45594000000E+02  0.51100000000E-03 0.  1.
         11   -1    0    0    0    0 -0.00000000000E+00 -0.00000000000E+00 -0.45593999997E+02  0.45594000000E+02  0.51100000000E-03 0. -1.
    9900012    2    1    2    0    0  0.24451228044E+01 -0.67708382650E+01  0.17287563652E+02  0.72461475139E+02  0.69999876043E+02 0.  0.
         12    1    1    2    0    0 -0.24451228044E+01  0.67708382650E+01 -0.17287563652E+02  0.18726524861E+02  0.00000000000E+00 0. -1.
         11    1    3    3    0    0 -0.16212269003E+02 -0.18756980822E+02  0.41840882212E+00  0.24795908170E+02  0.51100000000E-03 0. -1.
        -11    1    3    3    0    0  0.29877601681E+02  0.32612769881E+01  0.87782409533E+01  0.31310773294E+02  0.51100000000E-03 0.  1.
        -12    1    3    3    0    0 -0.11220209873E+02  0.87248655689E+01  0.80909138763E+01  0.16354793675E+02  0.00000000000E+00 0.  1.
</event>
<event>
 7    1  0.1302069E-013  0.7246159E+02  0.7816164E-02  0.1226708E+00
        -11   -1    0    0    0    0  0.00000000000E+00  0.00000000000E+00  0.45593999997E+02  0.45594000000E+02  0.51100000000E-03 0.  1.
         11   -1    0    0    0    0 -0.00000000000E+00 -0.00000000000E+00 -0.45593999997E+02  0.45594000000E+02  0.51100000000E-03 0. -1.
    9900012    2    1    2    0    0 -0.52432008094E+01 -0.12636399527E+02  0.12787045271E+02  0.72461594192E+02  0.70000031131E+02 0.  0.
         12    1    1    2    0    0  0.52432008094E+01  0.12636399527E+02 -0.12787045271E+02  0.18726405808E+02  0.00000000000E+00 0. -1.
         11    1    3    3    0    0  0.12155974042E+02 -0.80731791198E+01 -0.21647860115E+02  0.26106967917E+02  0.51100000000E-03 0. -1.
        -11    1    3    3    0    0 -0.97355892543E+01 -0.13386660878E+02  0.29164392366E+02  0.33534253681E+02  0.51100000000E-03 0.  1.
        -12    1    3    3    0    0 -0.76635855973E+01  0.88234404716E+01  0.52705130197E+01  0.12820372594E+02  0.00000000000E+00 0.  1.
</event>
<event>
 7    1  0.1302069E-013  0.7246157E+02  0.7816164E-02  0.1226708E+00
        -11   -1    0    0    0    0  0.00000000000E+00  0.00000000000E+00  0.45593999997E+02  0.45594000000E+02  0.51100000000E-03 0.  1.
         11   -1    0    0    0    0 -0.00000000000E+00 -0.00000000000E+00 -0.45593999997E+02  0.45594000000E+02  0.51100000000E-03 0. -1.
    9900012    2    1    2    0    0 -0.14756897220E+02 -0.69811924734E+01  0.91747501885E+01  0.72461572019E+02  0.70000002246E+02 0.  0.
         12    1    1    2    0    0  0.14756897220E+02  0.69811924734E+01 -0.91747501885E+01  0.18726427981E+02  0.00000000000E+00 0. -1.
         11    1    3    3    0    0  0.23429902510E+02 -0.95831978250E+01 -0.29856920916E+01  0.25489456050E+02  0.51100000000E-03 0. -1.
        -11    1    3    3    0    0 -0.40751982523E+02  0.43530219116E+01  0.14063502487E+02  0.43329608604E+02  0.51100000000E-03 0.  1.
        -12    1    3    3    0    0  0.25651827925E+01 -0.17510165600E+01 -0.19030602072E+01  0.36425073651E+01  0.00000000000E+00 0.  1.
</event>
<event>
 7    1  0.1302069E-013  0.7246153E+02  0.7816164E-02  0.1226708E+00
        -11   -1    0    0    0    0  0.00000000000E+00  0.00000000000E+00  0.45593999997E+02  0.45594000000E+02  0.51100000000E-03 0. -1.
         11   -1    0    0    0    0 -0.00000000000E+00 -0.00000000000E+00 -0.45593999997E+02  0.45594000000E+02  0.51100000000E-03 0.  1.
    9900012    2    1    2    0    0 -0.37510249144E+01  0.35768847419E+01 -0.17994896591E+02  0.72461532216E+02  0.69999950395E+02 0.  0.
         12    1    1    2    0    0  0.37510249144E+01 -0.35768847419E+01  0.17994896591E+02  0.18726467784E+02  0.00000000000E+00 0. -1.
         11    1    3    3    0    0 -0.13835608569E+02 -0.20217507402E+02  0.13418927315E+02  0.27932763569E+02  0.51100000000E-03 0. -1.
        -11    1    3    3    0    0  0.20512195518E+01  0.62114637041E+01 -0.22143925700E+02  0.23089894514E+02  0.51100000000E-03 0.  1.
         12    1    3    3    0    0  0.80333641028E+01  0.17582928440E+02 -0.92698982063E+01  0.21438874133E+02  0.00000000000E+00 0. -1.
</event>
<event>
 7    1  0.1302069E-013  0.7246157E+02  0.7816164E-02  0.1226708E+00
        -11   -1    0    0    0    0  0.00000000000E+00  0.00000000000E+00  0.45593999997E+02  0.45594000000E+02  0.51100000000E-03 0.  1.
         11   -1    0    0    0    0 -0.00000000000E+00 -0.00000000000E+00 -0.45593999997E+02  0.45594000000E+02  0.51100000000E-03 0. -1.
    9900012    2    1    2    0    0 -0.15374351924E+02 -0.10473543498E+02 -0.21478369630E+01  0.72461574444E+02  0.70000005406E+02 0.  0.
         12    1    1    2    0    0  0.15374351924E+02  0.10473543498E+02  0.21478369630E+01  0.18726425556E+02  0.00000000000E+00 0. -1.
         11    1    3    3    0    0 -0.33725332186E+02  0.17542414929E+01  0.75328550785E+01  0.34600856929E+02  0.51100000000E-03 0. -1.
        -11    1    3    3    0    0  0.80932374771E+01 -0.45376663316E+01  0.10462314141E+02  0.13983952447E+02  0.51100000000E-03 0.  1.
         12    1    3    3    0    0  0.10257742785E+02 -0.76901186590E+01 -0.20143006183E+02  0.23876765068E+02  0.00000000000E+00 0. -1.
</event>
<event>
 7    1  0.1302069E-013  0.7246136E+02  0.7816164E-02  0.1226709E+00
        -11   -1    0    0    0    0  0.00000000000E+00  0.00000000000E+00  0.45593999997E+02  0.45594000000E+02  0.51100000000E-03 0. -1.
         11   -1    0    0    0    0 -0.00000000000E+00 -0.00000000000E+00 -0.45593999997E+02  0.45594000000E+02  0.51100000000E-03 0.  1.
    9900012    2    1    2    0    0  0.10410544995E+02  0.32501366826E+01 -0.15223141940E+02  0.72461364262E+02  0.69999731604E+02 0.  0.
         12    1    1    2    0    0 -0.10410544995E+02 -0.32501366826E+01  0.15223141940E+02  0.18726635738E+02  0.00000000000E+00 0. -1.
         11    1    3    3    0    0  0.60222078643E+01 -0.27440072964E+01 -0.17390645013E+02  0.18607286149E+02  0.51100000000E-03 0. -1.
        -11    1    3    3    0    0  0.12326528288E+02  0.27520961497E+02  0.55512761589E+01  0.30662082261E+02  0.51100000000E-03 0.  1.
        -12    1    3    3    0    0 -0.79381911574E+01 -0.21526817518E+02 -0.33837730853E+01  0.23191995852E+02  0.00000000000E+00 0.  1.
</event>
<event>
 7    1  0.1302069E-013  0.7246153E+02  0.7816164E-02  0.1226708E+00
        -11   -1    0    0    0    0  0.00000000000E+00  0.00000000000E+00  0.45593999997E+02  0.45594000000E+02  0.51100000000E-03 0. -1.
         11   -1    0    0    0    0 -0.00000000000E+00 -0.00000000000E+00 -0.45593999997E+02  0.45594000000E+02  0.51100000000E-03 0.  1.
    9900012    2    1    2    0    0  0.35455995704E+00 -0.18629846321E+02 -0.18665188253E+01  0.72461527315E+02  0.69999944011E+02 0.  0.
         12    1    1    2    0    0 -0.35455995704E+00  0.18629846321E+02  0.18665188253E+01  0.18726472685E+02  0.00000000000E+00 0. -1.
         11    1    3    3    0    0 -0.14483387653E+02 -0.16492603569E+01  0.14826574323E+02  0.20792207291E+02  0.51100000000E-03 0. -1.
        -11    1    3    3    0    0  0.81408573588E+01 -0.30957147098E+02 -0.53268119209E+01  0.32449860408E+02  0.51100000000E-03 0.  1.
         12    1    3    3    0    0  0.66970902513E+01  0.13976561134E+02 -0.11366281227E+02  0.19219459615E+02  0.00000000000E+00 0. -1.
</event>
<event>
 7    1  0.1302069E-013  0.7246154E+02  0.7816164E-02  0.1226708E+00
        -11   -1    0    0    0    0  0.00000000000E+00  0.00000000000E+00  0.45593999997E+02  0.45594000000E+02  0.51100000000E-03 0.  1.
         11   -1    0    0    0    0 -0.00000000000E+00 -0.00000000000E+00 -0.45593999997E+02  0.45594000000E+02  0.51100000000E-03 0. -1.
    9900012    2    1    2    0    0  0.35065052770E+00  0.70075440907E+01  0.17362368409E+02  0.72461535658E+02  0.69999954880E+02 0.  0.
         12    1    1    2    0    0 -0.35065052770E+00 -0.70075440907E+01 -0.17362368409E+02  0.18726464342E+02  0.00000000000E+00 0. -1.
         11    1    3    3    0    0 -0.18199703027E+02  0.16930399438E+02  0.51701051360E+01  0.25388926775E+02  0.51100000000E-03 0. -1.
        -11    1    3    3    0    0  0.16737907884E+02  0.10481886431E+02  0.16969041047E+02  0.26037969541E+02  0.51100000000E-03 0.  1.
         12    1    3    3    0    0  0.18124456709E+01 -0.20404741778E+02 -0.47767777744E+01  0.21034639342E+02  0.00000000000E+00 0. -1.
</event>
<event>
 7    1  0.1302069E-013  0.7246155E+02  0.7816164E-02  0.1226708E+00
        -11   -1    0    0    0    0  0.00000000000E+00  0.00000000000E+00  0.45593999997E+02  0.45594000000E+02  0.51100000000E-03 0.  1.
         11   -1    0    0    0    0 -0.00000000000E+00 -0.00000000000E+00 -0.45593999997E+02  0.45594000000E+02  0.51100000000E-03 0. -1.
    9900012    2    1    2    0    0 -0.15217561037E+02  0.99303045334E+01  0.45271314149E+01  0.72461547296E+02  0.69999970040E+02 0.  0.
         12    1    1    2    0    0  0.15217561037E+02 -0.99303045334E+01 -0.45271314149E+01  0.18726452704E+02  0.00000000000E+00 0. -1.
         11    1    3    3    0    0 -0.12406149255E+02  0.26463317966E+02 -0.64728620753E+01  0.29935224749E+02  0.51100000000E-03 0. -1.
        -11    1    3    3    0    0 -0.68963545063E+01  0.63099418721E+00  0.21092505679E+02  0.22200262503E+02  0.51100000000E-03 0.  1.
         12    1    3    3    0    0  0.40849427245E+01 -0.17164007619E+02 -0.10092512189E+02  0.20326060044E+02  0.00000000000E+00 0. -1.
</event>
<event>
 7    1  0.1302069E-013  0.7246159E+02  0.7816164E-02  0.1226708E+00
        -11   -1    0    0    0    0  0.00000000000E+00  0.00000000000E+00  0.45593999997E+02  0.45594000000E+02  0.51100000000E-03 0. -1.
         11   -1    0    0    0    0 -0.00000000000E+00 -0.00000000000E+00 -0.45593999997E+02  0.45594000000E+02  0.51100000000E-03 0.  1.
    9900012    2    1    2    0    0 -0.35109366684E+01 -0.16950801018E+02 -0.71429795309E+01  0.72461588490E+02  0.70000023703E+02 0.  0.
         12    1    1    2    0    0  0.35109366684E+01  0.16950801018E+02  0.71429795309E+01  0.18726411510E+02  0.00000000000E+00 0. -1.
         11    1    3    3    0    0  0.20909182281E+02 -0.14357923090E+02 -0.68404617427E+00  0.25373446328E+02  0.51100000000E-03 0. -1.
        -11    1    3    3    0    0 -0.29594855653E+02 -0.13730945209E+01  0.88191370933E+01  0.30911454980E+02  0.51100000000E-03 0.  1.
        -12    1    3    3    0    0  0.51747367036E+01 -0.12197834071E+01 -0.15278070450E+02  0.16176687182E+02  0.00000000000E+00 0.  1.
</event>
<event>
 7    1  0.1302069E-013  0.7246157E+02  0.7816164E-02  0.1226708E+00
        -11   -1    0    0    0    0  0.00000000000E+00  0.00000000000E+00  0.45593999997E+02  0.45594000000E+02  0.51100000000E-03 0. -1.
         11   -1    0    0    0    0 -0.00000000000E+00 -0.00000000000E+00 -0.45593999997E+02  0.45594000000E+02  0.51100000000E-03 0.  1.
    9900012    2    1    2    0    0 -0.16555414852E+02 -0.84585770034E+01  0.22471656458E+01  0.72461573772E+02  0.70000004530E+02 0.  0.
         12    1    1    2    0    0  0.16555414852E+02  0.84585770034E+01 -0.22471656458E+01  0.18726426228E+02  0.00000000000E+00 0. -1.
         11    1    3    3    0    0  0.73652098355E+01  0.63280474988E+01  0.29366349426E+02  0.30930130616E+02  0.51100000000E-03 0. -1.
        -11    1    3    3    0    0  0.16914676694E+01 -0.93081805436E-01 -0.28259524209E+01  0.32948041589E+01  0.51100000000E-03 0.  1.
         12    1    3    3    0    0 -0.25612092357E+02 -0.14693542697E+02 -0.24293231359E+02  0.38236638997E+02  0.00000000000E+00 0. -1.
</event>
<event>
 7    1  0.1302069E-013  0.7246159E+02  0.7816164E-02  0.1226708E+00
        -11   -1    0    0    0    0  0.00000000000E+00  0.00000000000E+00  0.45593999997E+02  0.45594000000E+02  0.51100000000E-03 0. -1.
         11   -1    0    0    0    0 -0.00000000000E+00 -0.00000000000E+00 -0.45593999997E+02  0.45594000000E+02  0.51100000000E-03 0.  1.
    9900012    2    1    2    0    0  0.11905439890E+02  0.14449710788E+02  0.38036884965E+00  0.72461592942E+02  0.70000029503E+02 0.  0.
         12    1    1    2    0    0 -0.11905439890E+02 -0.14449710788E+02 -0.38036884965E+00  0.18726407058E+02  0.00000000000E+00 0. -1.
         11    1    3    3    0    0 -0.36457937832E+01  0.33863220647E+01  0.23130041476E+02  0.23659201347E+02  0.51100000000E-03 0. -1.
        -11    1    3    3    0    0  0.21521566015E+02  0.21198948613E+02 -0.21271572819E+02  0.36946624155E+02  0.51100000000E-03 0.  1.
         12    1    3    3    0    0 -0.59703323419E+01 -0.10135559890E+02 -0.14780998072E+01  0.11855767440E+02  0.00000000000E+00 0. -1.
</event>
<event>
 7    1  0.1302069E-013  0.7246157E+02  0.7816164E-02  0.1226708E+00
        -11   -1    0    0    0    0  0.00000000000E+00  0.00000000000E+00  0.45593999997E+02  0.45594000000E+02  0.51100000000E-03 0. -1.
         11   -1    0    0    0    0 -0.00000000000E+00 -0.00000000000E+00 -0.45593999997E+02  0.45594000000E+02  0.51100000000E-03 0.  1.
    9900012    2    1    2    0    0  0.36134876776E+01 -0.16549294253E+02 -0.79839117192E+01  0.72461567350E+02  0.69999996164E+02 0.  0.
         12    1    1    2    0    0 -0.36134876776E+01  0.16549294253E+02  0.79839117192E+01  0.18726432650E+02  0.00000000000E+00 0. -1.
         11    1    3    3    0    0 -0.41052234304E+01 -0.72910977731E+01 -0.44090872670E+01  0.94579605064E+01  0.51100000000E-03 0. -1.
        -11    1    3    3    0    0  0.53449057462E+01 -0.22488782512E+02  0.23383403204E+02  0.32880038047E+02  0.51100000000E-03 0.  1.
        -12    1    3    3    0    0  0.23738053618E+01  0.13230586032E+02 -0.26958227656E+02  0.30123568796E+02  0.00000000000E+00 0.  1.
</event>
<event>
 7    1  0.1302069E-013  0.7246155E+02  0.7816164E-02  0.1226708E+00
        -11   -1    0    0    0    0  0.00000000000E+00  0.00000000000E+00  0.45593999997E+02  0.45594000000E+02  0.51100000000E-03 0.  1.
         11   -1    0    0    0    0 -0.00000000000E+00 -0.00000000000E+00 -0.45593999997E+02  0.45594000000E+02  0.51100000000E-03 0. -1.
    9900012    2    1    2    0    0 -0.74076720851E+01 -0.74940067833E+01  0.15480505680E+02  0.72461553474E+02  0.69999978089E+02 0.  0.
         12    1    1    2    0    0  0.74076720851E+01  0.74940067833E+01 -0.15480505680E+02  0.18726446526E+02  0.00000000000E+00 0. -1.
         11    1    3    3    0    0  0.56176459325E+01 -0.24384485438E+01 -0.15027223034E+01  0.63057237258E+01  0.51100000000E-03 0. -1.
        -11    1    3    3    0    0 -0.35070637855E+02  0.10720515980E+02  0.74646448585E+01  0.37424591188E+02  0.51100000000E-03 0.  1.
        -12    1    3    3    0    0  0.22045319838E+02 -0.15776074219E+02  0.95185831245E+01  0.28731238561E+02  0.00000000000E+00 0.  1.
</event>
<event>
 7    1  0.1302069E-013  0.7246156E+02  0.7816164E-02  0.1226708E+00
        -11   -1    0    0    0    0  0.00000000000E+00  0.00000000000E+00  0.45593999997E+02  0.45594000000E+02  0.51100000000E-03 0.  1.
         11   -1    0    0    0    0 -0.00000000000E+00 -0.00000000000E+00 -0.45593999997E+02  0.45594000000E+02  0.51100000000E-03 0. -1.
    9900012    2    1    2    0    0  0.82949206507E+01 -0.46867538913E+00  0.16782560714E+02  0.72461555881E+02  0.69999981224E+02 0.  0.
         12    1    1    2    0    0 -0.82949206507E+01  0.46867538913E+00 -0.16782560714E+02  0.18726444119E+02  0.00000000000E+00 0. -1.
         11    1    3    3    0    0 -0.44933525680E+01 -0.34609085892E+00 -0.40458057151E+01  0.60562810641E+01  0.51100000000E-03 0. -1.
        -11    1    3    3    0    0  0.11969156410E+02  0.24041641319E+02  0.30254345360E+02  0.40454748001E+02  0.51100000000E-03 0.  1.
        -12    1    3    3    0    0  0.81911680858E+00 -0.24164225849E+02 -0.94259789309E+01  0.25950526816E+02  0.00000000000E+00 0.  1.
</event>
<event>
 7    1  0.1302069E-013  0.7246157E+02  0.7816164E-02  0.1226708E+00
        -11   -1    0    0    0    0  0.00000000000E+00  0.00000000000E+00  0.45593999997E+02  0.45594000000E+02  0.51100000000E-03 0.  1.
         11   -1    0    0    0    0 -0.00000000000E+00 -0.00000000000E+00 -0.45593999997E+02  0.45594000000E+02  0.51100000000E-03 0. -1.
    9900012    2    1    2    0    0  0.16455246001E+02 -0.74598094574E+01  0.49249640284E+01  0.72461570848E+02  0.70000000722E+02 0.  0.
         12    1    1    2    0    0 -0.16455246001E+02  0.74598094574E+01 -0.49249640284E+01  0.18726429152E+02  0.00000000000E+00 0. -1.
         11    1    3    3    0    0  0.99091999352E+01  0.16956730856E+02 -0.16460569028E+02  0.25625637507E+02  0.51100000000E-03 0. -1.
        -11    1    3    3    0    0  0.12235619662E+02 -0.26268547849E+02  0.50188157579E+01  0.29409785897E+02  0.51100000000E-03 0.  1.
        -12    1    3    3    0    0 -0.56895735965E+01  0.18520075360E+01  0.16366717298E+02  0.17426147444E+02  0.00000000000E+00 0.  1.
</event>
<event>
 7    1  0.1630269E-013  0.7246161E+02  0.7816164E-02  0.1226708E+00
        -11   -1    0    0    0    0  0.00000000000E+00  0.00000000000E+00  0.45593999997E+02  0.45594000000E+02  0.51100000000E-03 0. -1.
         11   -1    0    0    0    0 -0.00000000000E+00 -0.00000000000E+00 -0.45593999997E+02  0.45594000000E+02  0.51100000000E-03 0.  1.
    9900012    2    1    2    0    0 -0.11873862570E+02  0.36543130616E+01 -0.14011964483E+02  0.72461607796E+02  0.70000048853E+02 0.  0.
         12    1    1    2    0    0  0.11873862570E+02 -0.36543130616E+01  0.14011964483E+02  0.18726392204E+02  0.00000000000E+00 0. -1.
         11    1    3    3    0    0 -0.32331193337E+01 -0.12094699678E+02  0.14615799389E+02  0.19244646346E+02  0.51100000000E-03 0. -1.
        -11    1    3    3    0    0 -0.21028206156E+02  0.18622694868E+02 -0.29161563962E+02  0.40489344663E+02  0.51100000000E-03 0.  1.
         12    1    3    3    0    0  0.12387462919E+02 -0.28736821283E+01  0.53380009051E+00  0.12727616787E+02  0.00000000000E+00 0. -1.
</event>
<event>
 7    1  0.1302069E-013  0.7246158E+02  0.7816164E-02  0.1226708E+00
        -11   -1    0    0    0    0  0.00000000000E+00  0.00000000000E+00  0.45593999997E+02  0.45594000000E+02  0.51100000000E-03 0. -1.
         11   -1    0    0    0    0 -0.00000000000E+00 -0.00000000000E+00 -0.45593999997E+02  0.45594000000E+02  0.51100000000E-03 0.  1.
    9900012    2    1    2    0    0 -0.28675425718E+01  0.37118425565E+01 -0.18129484133E+02  0.72461580949E+02  0.70000013879E+02 0.  0.
         12    1    1    2    0    0  0.28675425718E+01 -0.37118425565E+01  0.18129484133E+02  0.18726419051E+02  0.00000000000E+00 0. -1.
         11    1    3    3    0    0 -0.21384494256E+02  0.11108077576E+02 -0.99520424167E+01  0.26071615419E+02  0.51100000000E-03 0.  1.
        -11    1    3    3    0    0  0.20168401740E+02 -0.13223484088E+02  0.10832845687E+02  0.26438144907E+02  0.51100000000E-03 0. -1.
        -12    1    3    3    0    0 -0.16514500555E+01  0.58272490692E+01 -0.19010287403E+02  0.19951820623E+02  0.00000000000E+00 0.  1.
</event>
<event>
 7    1  0.1302069E-013  0.7246158E+02  0.7816164E-02  0.1226708E+00
        -11   -1    0    0    0    0  0.00000000000E+00  0.00000000000E+00  0.45593999997E+02  0.45594000000E+02  0.51100000000E-03 0.  1.
         11   -1    0    0    0    0 -0.00000000000E+00 -0.00000000000E+00 -0.45593999997E+02  0.45594000000E+02  0.51100000000E-03 0. -1.
    9900012    2    1    2    0    0 -0.10650219178E+02 -0.86313992731E+01  0.12757376301E+02  0.72461578237E+02  0.70000010347E+02 0.  0.
         12    1    1    2    0    0  0.10650219178E+02  0.86313992731E+01 -0.12757376301E+02  0.18726421763E+02  0.00000000000E+00 0. -1.
         11    1    3    3    0    0 -0.22680111700E+02 -0.50684321104E+00 -0.16423456546E+02  0.28006682809E+02  0.51100000000E-03 0. -1.
        -11    1    3    3    0    0 -0.21827004471E+01 -0.87237803052E+01  0.28857275592E+02  0.30225996739E+02  0.51100000000E-03 0.  1.
        -12    1    3    3    0    0  0.14212592969E+02  0.59922424316E+00  0.32355725499E+00  0.14228898689E+02  0.00000000000E+00 0.  1.
</event>
<event>
 7    1  0.1302069E-013  0.7246157E+02  0.7816164E-02  0.1226708E+00
        -11   -1    0    0    0    0  0.00000000000E+00  0.00000000000E+00  0.45593999997E+02  0.45594000000E+02  0.51100000000E-03 0. -1.
         11   -1    0    0    0    0 -0.00000000000E+00 -0.00000000000E+00 -0.45593999997E+02  0.45594000000E+02  0.51100000000E-03 0.  1.
    9900012    2    1    2    0    0 -0.13850219058E+02  0.12579802274E+02 -0.77416869997E+00  0.72461565999E+02  0.69999994405E+02 0.  0.
         12    1    1    2    0    0  0.13850219058E+02 -0.12579802274E+02  0.77416869997E+00  0.18726434001E+02  0.00000000000E+00 0. -1.
         11    1    3    3    0    0  0.83204603139E+01  0.14075605882E+02  0.19352476139E+02  0.25335174634E+02  0.51100000000E-03 0. -1.
        -11    1    3    3    0    0 -0.20710634850E+02 -0.37477276257E+01  0.51822468765E+01  0.21675597828E+02  0.51100000000E-03 0.  1.
        -12    1    3    3    0    0 -0.14600445214E+01  0.22519240181E+01 -0.25308891715E+02  0.25450793537E+02  0.00000000000E+00 0.  1.
</event>
<event>
 7    1  0.1302069E-013  0.7246157E+02  0.7816164E-02  0.1226708E+00
        -11   -1    0    0    0    0  0.00000000000E+00  0.00000000000E+00  0.45593999997E+02  0.45594000000E+02  0.51100000000E-03 0.  1.
         11   -1    0    0    0    0 -0.00000000000E+00 -0.00000000000E+00 -0.45593999997E+02  0.45594000000E+02  0.51100000000E-03 0. -1.
    9900012    2    1    2    0    0  0.46243257896E+01 -0.58568191057E+01  0.17175345912E+02  0.72461568780E+02  0.69999998027E+02 0.  0.
         12    1    1    2    0    0 -0.46243257896E+01  0.58568191057E+01 -0.17175345912E+02  0.18726431220E+02  0.00000000000E+00 0. -1.
         11    1    3    3    0    0 -0.41957836927E+01 -0.20029714764E+01 -0.17538407249E+02  0.18144206365E+02  0.51100000000E-03 0. -1.
        -11    1    3    3    0    0  0.23422453300E+02  0.59705661203E+01  0.20543829540E+02  0.31722356641E+02  0.51100000000E-03 0.  1.
        -12    1    3    3    0    0 -0.14602343818E+02 -0.98244137496E+01  0.14169923621E+02  0.22595005774E+02  0.00000000000E+00 0.  1.
</event>
<event>
 7    1  0.1302069E-013  0.7246145E+02  0.7816164E-02  0.1226708E+00
        -11   -1    0    0    0    0  0.00000000000E+00  0.00000000000E+00  0.45593999997E+02  0.45594000000E+02  0.51100000000E-03 0. -1.
         11   -1    0    0    0    0 -0.00000000000E+00 -0.00000000000E+00 -0.45593999997E+02  0.45594000000E+02  0.51100000000E-03 0.  1.
    9900012    2    1    2    0    0  0.10993298914E+02  0.11183553540E+02  0.10235196935E+02  0.72461448072E+02  0.69999840783E+02 0.  0.
         12    1    1    2    0    0 -0.10993298914E+02 -0.11183553540E+02 -0.10235196935E+02  0.18726551928E+02  0.00000000000E+00 0. -1.
         11    1    3    3    0    0  0.16058087379E+02  0.46723353908E+01  0.84492526809E+01  0.18737202550E+02  0.51100000000E-03 0. -1.
        -11    1    3    3    0    0  0.33878109155E+01  0.24503717214E+02 -0.13924498639E+02  0.28386635636E+02  0.51100000000E-03 0.  1.
        -12    1    3    3    0    0 -0.84525993802E+01 -0.17992499064E+02  0.15710442893E+02  0.25337609886E+02  0.00000000000E+00 0.  1.
</event>
<event>
 7    1  0.1302069E-013  0.7246168E+02  0.7816164E-02  0.1226708E+00
        -11   -1    0    0    0    0  0.00000000000E+00  0.00000000000E+00  0.45593999997E+02  0.45594000000E+02  0.51100000000E-03 0.  1.
         11   -1    0    0    0    0 -0.00000000000E+00 -0.00000000000E+00 -0.45593999997E+02  0.45594000000E+02  0.51100000000E-03 0. -1.
    9900012    2    1    2    0    0  0.46529677359E-01 -0.18696506862E+02  0.10552049956E+01  0.72461681850E+02  0.70000145322E+02 0.  0.
         12    1    1    2    0    0 -0.46529677359E-01  0.18696506862E+02 -0.10552049956E+01  0.18726318150E+02  0.00000000000E+00 0. -1.
         11    1    3    3    0    0  0.57929141970E+01  0.61009413407E+00 -0.15586244003E+02  0.16639142771E+02  0.51100000000E-03 0. -1.
        -11    1    3    3    0    0 -0.14479096767E+02  0.26618489244E+01  0.26415784370E+02  0.30241087067E+02  0.51100000000E-03 0.  1.
        -12    1    3    3    0    0  0.87327122473E+01 -0.21968449921E+02 -0.97743353708E+01  0.25581452012E+02  0.00000000000E+00 0.  1.
</event>
<event>
 7    1  0.1302069E-013  0.7246164E+02  0.7816164E-02  0.1226708E+00
        -11   -1    0    0    0    0  0.00000000000E+00  0.00000000000E+00  0.45593999997E+02  0.45594000000E+02  0.51100000000E-03 0.  1.
         11   -1    0    0    0    0 -0.00000000000E+00 -0.00000000000E+00 -0.45593999997E+02  0.45594000000E+02  0.51100000000E-03 0. -1.
    9900012    2    1    2    0    0  0.16235164338E+02 -0.10150904729E+01  0.92771601512E+01  0.72461637026E+02  0.70000086931E+02 0.  0.
         12    1    1    2    0    0 -0.16235164338E+02  0.10150904729E+01 -0.92771601512E+01  0.18726362974E+02  0.00000000000E+00 0. -1.
         11    1    3    3    0    0 -0.97214690748E+01 -0.24284828884E+01 -0.65898540080E+00  0.10041850035E+02  0.51100000000E-03 0. -1.
        -11    1    3    3    0    0  0.32011865429E+02 -0.12063527073E+02 -0.11756781389E+02  0.36173334413E+02  0.51100000000E-03 0.  1.
        -12    1    3    3    0    0 -0.60552320161E+01  0.13476919489E+02  0.21692926941E+02  0.26246452578E+02  0.00000000000E+00 0.  1.
</event>
<event>
 7    1  0.1302069E-013  0.7246154E+02  0.7816164E-02  0.1226708E+00
        -11   -1    0    0    0    0  0.00000000000E+00  0.00000000000E+00  0.45593999997E+02  0.45594000000E+02  0.51100000000E-03 0.  1.
         11   -1    0    0    0    0 -0.00000000000E+00 -0.00000000000E+00 -0.45593999997E+02  0.45594000000E+02  0.51100000000E-03 0. -1.
    9900012    2    1    2    0    0  0.66180492931E+01 -0.14069433664E+01  0.17461447655E+02  0.72461542239E+02  0.69999963452E+02 0.  0.
         12    1    1    2    0    0 -0.66180492931E+01  0.14069433664E+01 -0.17461447655E+02  0.18726457761E+02  0.00000000000E+00 0. -1.
         11    1    3    3    0    0  0.32209535433E+01  0.11782577562E+02  0.34935284622E+01  0.12704661236E+02  0.51100000000E-03 0.  1.
        -11    1    3    3    0    0  0.28335593328E+02 -0.16645562909E+02  0.65436064113E+01  0.33508198981E+02  0.51100000000E-03 0. -1.
        -12    1    3    3    0    0 -0.24938497578E+02  0.34560419804E+01  0.74243127812E+01  0.26248682022E+02  0.00000000000E+00 0.  1.
</event>
<event>
 7    1  0.1302069E-013  0.7246155E+02  0.7816164E-02  0.1226708E+00
        -11   -1    0    0    0    0  0.00000000000E+00  0.00000000000E+00  0.45593999997E+02  0.45594000000E+02  0.51100000000E-03 0. -1.
         11   -1    0    0    0    0 -0.00000000000E+00 -0.00000000000E+00 -0.45593999997E+02  0.45594000000E+02  0.51100000000E-03 0.  1.
    9900012    2    1    2    0    0 -0.13981028295E+02 -0.38779414283E+01 -0.11839435834E+02  0.72461552852E+02  0.69999977279E+02 0.  0.
         12    1    1    2    0    0  0.13981028295E+02  0.38779414283E+01  0.11839435834E+02  0.18726447148E+02  0.00000000000E+00 0. -1.
         11    1    3    3    0    0 -0.11527726231E+02  0.67788968957E+01 -0.52471384311E+01  0.14365736220E+02  0.51100000000E-03 0. -1.
        -11    1    3    3    0    0  0.23080574288E+02  0.97229792445E+01 -0.24512800767E+01  0.25164618200E+02  0.51100000000E-03 0.  1.
        -12    1    3    3    0    0 -0.25533876352E+02 -0.20379817569E+02 -0.41410173261E+01  0.32931198433E+02  0.00000000000E+00 0.  1.
</event>
<event>
 7    1  0.1302069E-013  0.7246159E+02  0.7816164E-02  0.1226708E+00
        -11   -1    0    0    0    0  0.00000000000E+00  0.00000000000E+00  0.45593999997E+02  0.45594000000E+02  0.51100000000E-03 0. -1.
         11   -1    0    0    0    0 -0.00000000000E+00 -0.00000000000E+00 -0.45593999997E+02  0.45594000000E+02  0.51100000000E-03 0.  1.
    9900012    2    1    2    0    0 -0.15346666656E+02  0.44152820314E+01 -0.97807818367E+01  0.72461585869E+02  0.70000020288E+02 0.  0.
         12    1    1    2    0    0  0.15346666656E+02 -0.44152820314E+01  0.97807818367E+01  0.18726414131E+02  0.00000000000E+00 0. -1.
         11    1    3    3    0    0  0.70913313668E+01 -0.10263364816E+02 -0.18644281857E+02  0.22432852786E+02  0.51100000000E-03 0. -1.
        -11    1    3    3    0    0 -0.28645143357E+02  0.34655852877E+01 -0.69445044853E+01  0.29677949089E+02  0.51100000000E-03 0.  1.
         12    1    3    3    0    0  0.62071453335E+01  0.11213061559E+02  0.15808004505E+02  0.20350783994E+02  0.00000000000E+00 0. -1.
</event>
<event>
 7    1  0.1302069E-013  0.7246159E+02  0.7816164E-02  0.1226708E+00
        -11   -1    0    0    0    0  0.00000000000E+00  0.00000000000E+00  0.45593999997E+02  0.45594000000E+02  0.51100000000E-03 0.  1.
         11   -1    0    0    0    0 -0.00000000000E+00 -0.00000000000E+00 -0.45593999997E+02  0.45594000000E+02  0.51100000000E-03 0. -1.
    9900012    2    1    2    0    0  0.69839347997E+01  0.14713829722E+02  0.92415547477E+01  0.72461589118E+02  0.70000024521E+02 0.  0.
         12    1    1    2    0    0 -0.69839347997E+01 -0.14713829722E+02 -0.92415547477E+01  0.18726410882E+02  0.00000000000E+00 0. -1.
         11    1    3    3    0    0 -0.18713075848E+02  0.66379053192E+01  0.67323472408E+01  0.20965817283E+02  0.51100000000E-03 0. -1.
        -11    1    3    3    0    0  0.32902862435E+02 -0.21045894518E+01  0.12758081388E+02  0.35352458106E+02  0.51100000000E-03 0.  1.
         12    1    3    3    0    0 -0.72058517870E+01  0.10180513855E+02 -0.10248873881E+02  0.16143313729E+02  0.00000000000E+00 0. -1.
</event>
<event>
 7    1  0.1302069E-013  0.7246154E+02  0.7816164E-02  0.1226708E+00
        -11   -1    0    0    0    0  0.00000000000E+00  0.00000000000E+00  0.45593999997E+02  0.45594000000E+02  0.51100000000E-03 0. -1.
         11   -1    0    0    0    0 -0.00000000000E+00 -0.00000000000E+00 -0.45593999997E+02  0.45594000000E+02  0.51100000000E-03 0.  1.
    9900012    2    1    2    0    0  0.13144588484E+02 -0.12593167803E+02 -0.43945672352E+01  0.72461540033E+02  0.69999960579E+02 0.  0.
         12    1    1    2    0    0 -0.13144588484E+02  0.12593167803E+02  0.43945672352E+01  0.18726459967E+02  0.00000000000E+00 0. -1.
         11    1    3    3    0    0  0.25232433828E+02 -0.90038833301E+01  0.12755543629E+02  0.29672369731E+02  0.51100000000E-03 0. -1.
        -11    1    3    3    0    0 -0.21598757015E+02 -0.49835397393E+01  0.10665572754E+01  0.22191879542E+02  0.51100000000E-03 0.  1.
         12    1    3    3    0    0  0.95109116707E+01  0.13942552666E+01 -0.18216668140E+02  0.20597290760E+02  0.00000000000E+00 0. -1.
</event>
<event>
 7    1  0.1302069E-013  0.7246153E+02  0.7816164E-02  0.1226708E+00
        -11   -1    0    0    0    0  0.00000000000E+00  0.00000000000E+00  0.45593999997E+02  0.45594000000E+02  0.51100000000E-03 0.  1.
         11   -1    0    0    0    0 -0.00000000000E+00 -0.00000000000E+00 -0.45593999997E+02  0.45594000000E+02  0.51100000000E-03 0. -1.
    9900012    2    1    2    0    0 -0.18488881403E+02 -0.28055956324E+01 -0.98523792005E+00  0.72461526863E+02  0.69999943423E+02 0.  0.
         12    1    1    2    0    0  0.18488881403E+02  0.28055956324E+01  0.98523792005E+00  0.18726473137E+02  0.00000000000E+00 0. -1.
         11    1    3    3    0    0  0.62531556854E+00  0.24848757590E+02 -0.18064608125E+02  0.30727542048E+02  0.51100000000E-03 0. -1.
        -11    1    3    3    0    0 -0.15454578229E+02 -0.15878759552E+02  0.19080950492E+02  0.29241437466E+02  0.51100000000E-03 0.  1.
         12    1    3    3    0    0 -0.36596187426E+01 -0.11775593670E+02 -0.20015802870E+01  0.12492547349E+02  0.00000000000E+00 0. -1.
</event>
<event>
 7    1  0.1302069E-013  0.7246158E+02  0.7816164E-02  0.1226708E+00
        -11   -1    0    0    0    0  0.00000000000E+00  0.00000000000E+00  0.45593999997E+02  0.45594000000E+02  0.51100000000E-03 0.  1.
         11   -1    0    0    0    0 -0.00000000000E+00 -0.00000000000E+00 -0.45593999997E+02  0.45594000000E+02  0.51100000000E-03 0. -1.
    9900012    2    1    2    0    0  0.18056012964E+02  0.49288576639E+01  0.60456729419E+00  0.72461581665E+02  0.70000014813E+02 0.  0.
         12    1    1    2    0    0 -0.18056012964E+02 -0.49288576639E+01 -0.60456729419E+00  0.18726418335E+02  0.00000000000E+00 0. -1.
         11    1    3    3    0    0 -0.34890577607E+01  0.21424568081E+02  0.65523201629E+00  0.21716697971E+02  0.51100000000E-03 0. -1.
        -11    1    3    3    0    0 -0.11929013164E+02 -0.12068558759E+02 -0.49584158384E+00  0.16976375488E+02  0.51100000000E-03 0.  1.
         12    1    3    3    0    0  0.33474083889E+02 -0.44271516579E+01  0.44517686174E+00  0.33768508205E+02  0.00000000000E+00 0. -1.
</event>
<event>
 7    1  0.1302069E-013  0.7246167E+02  0.7816164E-02  0.1226708E+00
        -11   -1    0    0    0    0  0.00000000000E+00  0.00000000000E+00  0.45593999997E+02  0.45594000000E+02  0.51100000000E-03 0.  1.
         11   -1    0    0    0    0 -0.00000000000E+00 -0.00000000000E+00 -0.45593999997E+02  0.45594000000E+02  0.51100000000E-03 0. -1.
    9900012    2    1    2    0    0 -0.74293747767E+01 -0.76509145230E+00  0.17172491966E+02  0.72461669478E+02  0.70000129205E+02 0.  0.
         12    1    1    2    0    0  0.74293747767E+01  0.76509145230E+00 -0.17172491966E+02  0.18726330522E+02  0.00000000000E+00 0. -1.
         11    1    3    3    0    0 -0.18340288181E+02  0.73616713230E+00 -0.11431284800E+02  0.21623653369E+02  0.51100000000E-03 0. -1.
        -11    1    3    3    0    0  0.13245992062E+02  0.15018246608E+02  0.27633041197E+02  0.34126075118E+02  0.51100000000E-03 0.  1.
        -12    1    3    3    0    0 -0.23350786576E+01 -0.16519505193E+02  0.97073556829E+00  0.16711940991E+02  0.00000000000E+00 0.  1.
</event>
<event>
 7    1  0.1302069E-013  0.7246154E+02  0.7816164E-02  0.1226708E+00
        -11   -1    0    0    0    0  0.00000000000E+00  0.00000000000E+00  0.45593999997E+02  0.45594000000E+02  0.51100000000E-03 0.  1.
         11   -1    0    0    0    0 -0.00000000000E+00 -0.00000000000E+00 -0.45593999997E+02  0.45594000000E+02  0.51100000000E-03 0. -1.
    9900012    2    1    2    0    0 -0.18006161958E+02  0.92257744210E+00 -0.50603546475E+01  0.72461542600E+02  0.69999963923E+02 0.  0.
         12    1    1    2    0    0  0.18006161958E+02 -0.92257744210E+00  0.50603546475E+01  0.18726457400E+02  0.00000000000E+00 0. -1.
         11    1    3    3    0    0  0.50384003426E+01 -0.25208607586E+02 -0.16896555806E+02  0.30762850531E+02  0.51100000000E-03 0. -1.
        -11    1    3    3    0    0 -0.18291781218E+02  0.23522745414E+02  0.16919949053E+02  0.34266506798E+02  0.51100000000E-03 0.  1.
         12    1    3    3    0    0 -0.47527810825E+01  0.26084396143E+01 -0.50837478950E+01  0.74321852708E+01  0.00000000000E+00 0. -1.
</event>
<event>
 7    1  0.1302069E-013  0.7246143E+02  0.7816164E-02  0.1226708E+00
        -11   -1    0    0    0    0  0.00000000000E+00  0.00000000000E+00  0.45593999997E+02  0.45594000000E+02  0.51100000000E-03 0. -1.
         11   -1    0    0    0    0 -0.00000000000E+00 -0.00000000000E+00 -0.45593999997E+02  0.45594000000E+02  0.51100000000E-03 0.  1.
    9900012    2    1    2    0    0 -0.11582164938E+02 -0.15245502564E+01 -0.14636040182E+02  0.72461428762E+02  0.69999815628E+02 0.  0.
         12    1    1    2    0    0  0.11582164938E+02  0.15245502564E+01  0.14636040182E+02  0.18726571238E+02  0.00000000000E+00 0. -1.
         11    1    3    3    0    0  0.35815085121E+01  0.74950294400E+01  0.39675036231E+01  0.92056371202E+01  0.51100000000E-03 0. -1.
        -11    1    3    3    0    0 -0.14176132940E+02 -0.28131538807E+02  0.60182537020E+01  0.32071258140E+02  0.51100000000E-03 0.  1.
        -12    1    3    3    0    0 -0.98754050976E+00  0.19111959110E+02 -0.24621797507E+02  0.31184533502E+02  0.00000000000E+00 0.  1.
</event>
<event>
 7    1  0.1302069E-013  0.7246156E+02  0.7816164E-02  0.1226708E+00
        -11   -1    0    0    0    0  0.00000000000E+00  0.00000000000E+00  0.45593999997E+02  0.45594000000E+02  0.51100000000E-03 0.  1.
         11   -1    0    0    0    0 -0.00000000000E+00 -0.00000000000E+00 -0.45593999997E+02  0.45594000000E+02  0.51100000000E-03 0. -1.
    9900012    2    1    2    0    0 -0.92755289842E+01  0.11199903088E+02  0.11798564491E+02  0.72461564376E+02  0.69999992290E+02 0.  0.
         12    1    1    2    0    0  0.92755289842E+01 -0.11199903088E+02 -0.11798564491E+02  0.18726435624E+02  0.00000000000E+00 0. -1.
         11    1    3    3    0    0 -0.28551029488E+02  0.57222161791E+01  0.11171905444E+01  0.29140232631E+02  0.51100000000E-03 0. -1.
        -11    1    3    3    0    0  0.27159565920E+02 -0.41961409085E+01  0.95382364838E+00  0.27498352666E+02  0.51100000000E-03 0.  1.
        -12    1    3    3    0    0 -0.78840654169E+01  0.96738278178E+01  0.97275502983E+01  0.15822979080E+02  0.00000000000E+00 0.  1.
</event>
<event>
 7    1  0.1302069E-013  0.7246166E+02  0.7816164E-02  0.1226708E+00
        -11   -1    0    0    0    0  0.00000000000E+00  0.00000000000E+00  0.45593999997E+02  0.45594000000E+02  0.51100000000E-03 0.  1.
         11   -1    0    0    0    0 -0.00000000000E+00 -0.00000000000E+00 -0.45593999997E+02  0.45594000000E+02  0.51100000000E-03 0. -1.
    9900012    2    1    2    0    0  0.17465902558E+02  0.67296506050E+01 -0.57447784101E+00  0.72461655610E+02  0.70000111139E+02 0.  0.
         12    1    1    2    0    0 -0.17465902558E+02 -0.67296506050E+01  0.57447784101E+00  0.18726344390E+02  0.00000000000E+00 0. -1.
         11    1    3    3    0    0  0.93760778818E+01  0.17026162303E+02  0.15455332955E+02  0.24832808061E+02  0.51100000000E-03 0. -1.
        -11    1    3    3    0    0 -0.12165696924E+02 -0.19131091746E+02 -0.66922031733E+01  0.23638706323E+02  0.51100000000E-03 0.  1.
         12    1    3    3    0    0  0.20255521600E+02  0.88345800480E+01 -0.93376076226E+01  0.23990141226E+02  0.00000000000E+00 0. -1.
</event>
<event>
 7    1  0.1302069E-013  0.7246156E+02  0.7816164E-02  0.1226708E+00
        -11   -1    0    0    0    0  0.00000000000E+00  0.00000000000E+00  0.45593999997E+02  0.45594000000E+02  0.51100000000E-03 0.  1.
         11   -1    0    0    0    0 -0.00000000000E+00 -0.00000000000E+00 -0.45593999997E+02  0.45594000000E+02  0.51100000000E-03 0. -1.
    9900012    2    1    2    0    0 -0.15655528208E+02  0.88658384725E+01  0.51943116727E+01  0.72461560695E+02  0.69999987495E+02 0.  0.
         12    1    1    2    0    0  0.15655528208E+02 -0.88658384725E+01 -0.51943116727E+01  0.18726439305E+02  0.00000000000E+00 0. -1.
         11    1    3    3    0    0  0.20970669275E+02  0.14273676715E+02 -0.98466334158E+01  0.27211449919E+02  0.51100000000E-03 0. -1.
        -11    1    3    3    0    0 -0.58860494921E+01  0.72869073338E+01  0.42380638041E+01  0.10281331732E+02  0.51100000000E-03 0.  1.
         12    1    3    3    0    0 -0.30740147991E+02 -0.12694745576E+02  0.10802881284E+02  0.34968779044E+02  0.00000000000E+00 0. -1.
</event>
<event>
 7    1  0.1302069E-013  0.7246162E+02  0.7816164E-02  0.1226708E+00
        -11   -1    0    0    0    0  0.00000000000E+00  0.00000000000E+00  0.45593999997E+02  0.45594000000E+02  0.51100000000E-03 0. -1.
         11   -1    0    0    0    0 -0.00000000000E+00 -0.00000000000E+00 -0.45593999997E+02  0.45594000000E+02  0.51100000000E-03 0.  1.
    9900012    2    1    2    0    0 -0.91975288714E+01 -0.15733004056E+02 -0.43076132975E+01  0.72461615237E+02  0.70000058546E+02 0.  0.
         12    1    1    2    0    0  0.91975288714E+01  0.15733004056E+02  0.43076132975E+01  0.18726384763E+02  0.00000000000E+00 0. -1.
         11    1    3    3    0    0 -0.94603163836E+01 -0.21224585446E+02  0.61172674451E+00  0.23245533405E+02  0.51100000000E-03 0.  1.
        -11    1    3    3    0    0  0.14234520394E+02  0.16611508822E+02  0.11711962311E+02  0.24813985122E+02  0.51100000000E-03 0. -1.
         12    1    3    3    0    0 -0.13971732882E+02 -0.11119927433E+02 -0.16631302353E+02  0.24402096709E+02  0.00000000000E+00 0. -1.
</event>
<event>
 7    1  0.1302069E-013  0.7246146E+02  0.7816164E-02  0.1226708E+00
        -11   -1    0    0    0    0  0.00000000000E+00  0.00000000000E+00  0.45593999997E+02  0.45594000000E+02  0.51100000000E-03 0.  1.
         11   -1    0    0    0    0 -0.00000000000E+00 -0.00000000000E+00 -0.45593999997E+02  0.45594000000E+02  0.51100000000E-03 0. -1.
    9900012    2    1    2    0    0  0.15050158897E+02  0.10497855570E+02  0.37377796399E+01  0.72461461318E+02  0.69999858037E+02 0.  0.
         12    1    1    2    0    0 -0.15050158897E+02 -0.10497855570E+02 -0.37377796399E+01  0.18726538682E+02  0.00000000000E+00 0. -1.
         11    1    3    3    0    0 -0.44603570704E+01  0.49980129068E+01  0.48431801006E+00  0.67163593120E+01  0.51100000000E-03 0. -1.
        -11    1    3    3    0    0 -0.38952126569E+01 -0.24035576780E+02  0.11868647092E+02  0.27087754002E+02  0.51100000000E-03 0.  1.
        -12    1    3    3    0    0  0.23405728624E+02  0.29535419444E+02 -0.86151854624E+01  0.38657348004E+02  0.00000000000E+00 0.  1.
</event>
<event>
 7    1  0.1302069E-013  0.7246158E+02  0.7816164E-02  0.1226708E+00
        -11   -1    0    0    0    0  0.00000000000E+00  0.00000000000E+00  0.45593999997E+02  0.45594000000E+02  0.51100000000E-03 0.  1.
         11   -1    0    0    0    0 -0.00000000000E+00 -0.00000000000E+00 -0.45593999997E+02  0.45594000000E+02  0.51100000000E-03 0. -1.
    9900012    2    1    2    0    0 -0.11660483780E+02 -0.14652478951E+02 -0.12978980480E+00  0.72461578378E+02  0.70000010530E+02 0.  0.
         12    1    1    2    0    0  0.11660483780E+02  0.14652478951E+02  0.12978980480E+00  0.18726421622E+02  0.00000000000E+00 0. -1.
         11    1    3    3    0    0  0.25176489817E+02  0.18312377224E+01  0.38701630434E+00  0.25245967063E+02  0.51100000000E-03 0. -1.
        -11    1    3    3    0    0 -0.12140476546E+02 -0.18802154990E+02  0.54664736589E+00  0.22387742777E+02  0.51100000000E-03 0.  1.
         12    1    3    3    0    0 -0.24696497051E+02  0.23184383171E+01 -0.10634534750E+01  0.24827868537E+02  0.00000000000E+00 0. -1.
</event>
<event>
 7    1  0.1302069E-013  0.7246159E+02  0.7816164E-02  0.1226708E+00
        -11   -1    0    0    0    0  0.00000000000E+00  0.00000000000E+00  0.45593999997E+02  0.45594000000E+02  0.51100000000E-03 0.  1.
         11   -1    0    0    0    0 -0.00000000000E+00 -0.00000000000E+00 -0.45593999997E+02  0.45594000000E+02  0.51100000000E-03 0. -1.
    9900012    2    1    2    0    0  0.10252135554E+02 -0.15662630558E+02  0.50430840684E+00  0.72461585330E+02  0.70000019587E+02 0.  0.
         12    1    1    2    0    0 -0.10252135554E+02  0.15662630558E+02 -0.50430840684E+00  0.18726414670E+02  0.00000000000E+00 0. -1.
         11    1    3    3    0    0  0.82304413232E+01 -0.42875808940E+02 -0.24001009736E+01  0.43724542783E+02  0.51100000000E-03 0.  1.
        -11    1    3    3    0    0  0.48671325441E+01  0.16357124605E+02  0.37822936307E+01  0.17479995707E+02  0.51100000000E-03 0. -1.
        -12    1    3    3    0    0 -0.28454383137E+01  0.10856053777E+02 -0.87788425024E+00  0.11257046841E+02  0.00000000000E+00 0.  1.
</event>
<event>
 7    1  0.1302069E-013  0.7246150E+02  0.7816164E-02  0.1226708E+00
        -11   -1    0    0    0    0  0.00000000000E+00  0.00000000000E+00  0.45593999997E+02  0.45594000000E+02  0.51100000000E-03 0. -1.
         11   -1    0    0    0    0 -0.00000000000E+00 -0.00000000000E+00 -0.45593999997E+02  0.45594000000E+02  0.51100000000E-03 0.  1.
    9900012    2    1    2    0    0 -0.13918343765E+02  0.89531611272E+01 -0.87636912439E+01  0.72461503490E+02  0.69999912975E+02 0.  0.
         12    1    1    2    0    0  0.13918343765E+02 -0.89531611272E+01  0.87636912439E+01  0.18726496510E+02  0.00000000000E+00 0. -1.
         11    1    3    3    0    0 -0.32679237235E+02 -0.54488081162E+01 -0.12112389578E+02  0.35275090896E+02  0.51100000000E-03 0. -1.
        -11    1    3    3    0    0  0.11329831721E+02  0.60182594818E+01 -0.12411461522E+02  0.17850179590E+02  0.51100000000E-03 0.  1.
         12    1    3    3    0    0  0.74310617498E+01  0.83837097615E+01  0.15760159856E+02  0.19336233004E+02  0.00000000000E+00 0. -1.
</event>
<event>
 7    1  0.1302069E-013  0.7246159E+02  0.7816164E-02  0.1226708E+00
        -11   -1    0    0    0    0  0.00000000000E+00  0.00000000000E+00  0.45593999997E+02  0.45594000000E+02  0.51100000000E-03 0. -1.
         11   -1    0    0    0    0 -0.00000000000E+00 -0.00000000000E+00 -0.45593999997E+02  0.45594000000E+02  0.51100000000E-03 0.  1.
    9900012    2    1    2    0    0 -0.81814341370E+01  0.16688865305E+02  0.22857126252E+01  0.72461586250E+02  0.70000020786E+02 0.  0.
         12    1    1    2    0    0  0.81814341370E+01 -0.16688865305E+02 -0.22857126252E+01  0.18726413750E+02  0.00000000000E+00 0. -1.
         11    1    3    3    0    0 -0.21743134776E+02 -0.11022798716E+02  0.19733269642E+02  0.31363480873E+02  0.51100000000E-03 0. -1.
        -11    1    3    3    0    0  0.77244218275E+01  0.20833588527E+02 -0.88380710663E+00  0.22237046089E+02  0.51100000000E-03 0.  1.
         12    1    3    3    0    0  0.58372788117E+01  0.68780754940E+01 -0.16563749910E+02  0.18861059289E+02  0.00000000000E+00 0. -1.
</event>
<event>
 7    1  0.1302069E-013  0.7246158E+02  0.7816164E-02  0.1226708E+00
        -11   -1    0    0    0    0  0.00000000000E+00  0.00000000000E+00  0.45593999997E+02  0.45594000000E+02  0.51100000000E-03 0.  1.
         11   -1    0    0    0    0 -0.00000000000E+00 -0.00000000000E+00 -0.45593999997E+02  0.45594000000E+02  0.51100000000E-03 0. -1.
    9900012    2    1    2    0    0  0.17755652802E+01  0.18631359228E+02  0.63151048959E+00  0.72461575241E+02  0.70000006444E+02 0.  0.
         12    1    1    2    0    0 -0.17755652802E+01 -0.18631359228E+02 -0.63151048959E+00  0.18726424759E+02  0.00000000000E+00 0. -1.
         11    1    3    3    0    0 -0.66142926806E+01 -0.16044319467E+02  0.14072280361E+02  0.22342742214E+02  0.51100000000E-03 0. -1.
        -11    1    3    3    0    0  0.12609174312E+02  0.20361534117E+02 -0.22333529146E+02  0.32747058995E+02  0.51100000000E-03 0.  1.
         12    1    3    3    0    0 -0.42193163516E+01  0.14314144579E+02  0.88927592752E+01  0.17371774032E+02  0.00000000000E+00 0. -1.
</event>
<event>
 7    1  0.1302069E-013  0.7246157E+02  0.7816164E-02  0.1226708E+00
        -11   -1    0    0    0    0  0.00000000000E+00  0.00000000000E+00  0.45593999997E+02  0.45594000000E+02  0.51100000000E-03 0.  1.
         11   -1    0    0    0    0 -0.00000000000E+00 -0.00000000000E+00 -0.45593999997E+02  0.45594000000E+02  0.51100000000E-03 0. -1.
    9900012    2    1    2    0    0  0.14031091179E+02 -0.11585967327E+02 -0.44241256072E+01  0.72461573593E+02  0.70000004298E+02 0.  0.
         12    1    1    2    0    0 -0.14031091179E+02  0.11585967327E+02  0.44241256072E+01  0.18726426407E+02  0.00000000000E+00 0. -1.
         11    1    3    3    0    0  0.46847172924E+01 -0.17473889570E+02 -0.14281002337E+02  0.23048436408E+02  0.51100000000E-03 0. -1.
        -11    1    3    3    0    0 -0.72891055768E+01  0.57918751757E+01  0.25148863085E+02  0.26816826675E+02  0.51100000000E-03 0.  1.
         12    1    3    3    0    0  0.16635479463E+02  0.96047067609E-01 -0.15291986355E+02  0.22596310511E+02  0.00000000000E+00 0. -1.
</event>
<event>
 7    1  0.1302069E-013  0.7246157E+02  0.7816164E-02  0.1226708E+00
        -11   -1    0    0    0    0  0.00000000000E+00  0.00000000000E+00  0.45593999997E+02  0.45594000000E+02  0.51100000000E-03 0.  1.
         11   -1    0    0    0    0 -0.00000000000E+00 -0.00000000000E+00 -0.45593999997E+02  0.45594000000E+02  0.51100000000E-03 0. -1.
    9900012    2    1    2    0    0 -0.14365716977E+01  0.17352474169E+02  0.68925483024E+01  0.72461566273E+02  0.69999994762E+02 0.  0.
         12    1    1    2    0    0  0.14365716977E+01 -0.17352474169E+02 -0.68925483024E+01  0.18726433727E+02  0.00000000000E+00 0. -1.
         11    1    3    3    0    0  0.24524312090E+02  0.23852220811E+02 -0.18161792515E+01  0.34258850367E+02  0.51100000000E-03 0. -1.
        -11    1    3    3    0    0 -0.77421218832E+01  0.29030875806E+00  0.15727065817E+02  0.17531837607E+02  0.51100000000E-03 0.  1.
         12    1    3    3    0    0 -0.18218761905E+02 -0.67900554000E+01 -0.70183382627E+01  0.20670878299E+02  0.00000000000E+00 0. -1.
</event>
<event>
 7    1  0.1302069E-013  0.7246166E+02  0.7816164E-02  0.1226708E+00
        -11   -1    0    0    0    0  0.00000000000E+00  0.00000000000E+00  0.45593999997E+02  0.45594000000E+02  0.51100000000E-03 0.  1.
         11   -1    0    0    0    0 -0.00000000000E+00 -0.00000000000E+00 -0.45593999997E+02  0.45594000000E+02  0.51100000000E-03 0. -1.
    9900012    2    1    2    0    0  0.97570907014E+01  0.99097706771E+01  0.12540783851E+02  0.72461664709E+02  0.70000122993E+02 0.  0.
         12    1    1    2    0    0 -0.97570907014E+01 -0.99097706771E+01 -0.12540783851E+02  0.18726335291E+02  0.00000000000E+00 0. -1.
         11    1    3    3    0    0  0.12781653842E+02  0.18346335465E+02  0.24868931486E+02  0.33442823646E+02  0.51100000000E-03 0. -1.
        -11    1    3    3    0    0  0.43673715223E+01  0.13274360243E+02 -0.61408973065E+01  0.15264114578E+02  0.51100000000E-03 0.  1.
         12    1    3    3    0    0 -0.73919346634E+01 -0.21710925030E+02 -0.61872503289E+01  0.23754726485E+02  0.00000000000E+00 0. -1.
</event>
<event>
 7    1  0.1302069E-013  0.7246155E+02  0.7816164E-02  0.1226708E+00
        -11   -1    0    0    0    0  0.00000000000E+00  0.00000000000E+00  0.45593999997E+02  0.45594000000E+02  0.51100000000E-03 0.  1.
         11   -1    0    0    0    0 -0.00000000000E+00 -0.00000000000E+00 -0.45593999997E+02  0.45594000000E+02  0.51100000000E-03 0. -1.
    9900012    2    1    2    0    0 -0.16863211610E+02 -0.75721926052E+01 -0.29956444884E+01  0.72461550989E+02  0.69999974852E+02 0.  0.
         12    1    1    2    0    0  0.16863211610E+02  0.75721926052E+01  0.29956444884E+01  0.18726449011E+02  0.00000000000E+00 0. -1.
         11    1    3    3    0    0  0.54803440043E+01 -0.33065250083E+01 -0.51328712174E+01  0.82044893340E+01  0.51100000000E-03 0. -1.
        -11    1    3    3    0    0 -0.24492242657E+02 -0.20992571851E+02  0.21357377348E+02  0.38687150202E+02  0.51100000000E-03 0.  1.
        -12    1    3    3    0    0  0.21486870433E+01  0.16726904254E+02 -0.19220150619E+02  0.25569911454E+02  0.00000000000E+00 0.  1.
</event>
<event>
 7    1  0.1302069E-013  0.7246157E+02  0.7816164E-02  0.1226708E+00
        -11   -1    0    0    0    0  0.00000000000E+00  0.00000000000E+00  0.45593999997E+02  0.45594000000E+02  0.51100000000E-03 0.  1.
         11   -1    0    0    0    0 -0.00000000000E+00 -0.00000000000E+00 -0.45593999997E+02  0.45594000000E+02  0.51100000000E-03 0. -1.
    9900012    2    1    2    0    0 -0.65830982365E+01 -0.61788303167E+01  0.16406225502E+02  0.72461565163E+02  0.69999993316E+02 0.  0.
         12    1    1    2    0    0  0.65830982365E+01  0.61788303167E+01 -0.16406225502E+02  0.18726434837E+02  0.00000000000E+00 0. -1.
         11    1    3    3    0    0 -0.30319453420E+02 -0.19596178097E+01  0.35358872705E+01  0.30587772993E+02  0.51100000000E-03 0. -1.
        -11    1    3    3    0    0  0.20896104105E+02  0.10201228587E+02  0.13983963383E+02  0.27134175197E+02  0.51100000000E-03 0.  1.
         12    1    3    3    0    0  0.28402510788E+01 -0.14420441094E+02 -0.11136251514E+01  0.14739616973E+02  0.00000000000E+00 0. -1.
</event>
<event>
 7    1  0.1302069E-013  0.7246157E+02  0.7816164E-02  0.1226708E+00
        -11   -1    0    0    0    0  0.00000000000E+00  0.00000000000E+00  0.45593999997E+02  0.45594000000E+02  0.51100000000E-03 0.  1.
         11   -1    0    0    0    0 -0.00000000000E+00 -0.00000000000E+00 -0.45593999997E+02  0.45594000000E+02  0.51100000000E-03 0. -1.
    9900012    2    1    2    0    0 -0.10196604355E+02 -0.15424742232E+02  0.29640887798E+01  0.72461568530E+02  0.69999997702E+02 0.  0.
         12    1    1    2    0    0  0.10196604355E+02  0.15424742232E+02 -0.29640887798E+01  0.18726431470E+02  0.00000000000E+00 0. -1.
         11    1    3    3    0    0  0.86903071438E+01  0.14158304019E+01 -0.15680479089E+01  0.89434215201E+01  0.51100000000E-03 0. -1.
        -11    1    3    3    0    0 -0.24448398654E+02  0.14455696974E+02 -0.77508463411E+01  0.29440906763E+02  0.51100000000E-03 0.  1.
        -12    1    3    3    0    0  0.55614871550E+01 -0.31296269608E+02  0.12282983030E+02  0.34077240247E+02  0.00000000000E+00 0.  1.
</event>
<event>
 7    1  0.1302069E-013  0.7246146E+02  0.7816164E-02  0.1226708E+00
        -11   -1    0    0    0    0  0.00000000000E+00  0.00000000000E+00  0.45593999997E+02  0.45594000000E+02  0.51100000000E-03 0.  1.
         11   -1    0    0    0    0 -0.00000000000E+00 -0.00000000000E+00 -0.45593999997E+02  0.45594000000E+02  0.51100000000E-03 0. -1.
    9900012    2    1    2    0    0 -0.87819231870E+01 -0.15093579028E+02  0.67635075598E+01  0.72461459015E+02  0.69999855038E+02 0.  0.
         12    1    1    2    0    0  0.87819231870E+01  0.15093579028E+02 -0.67635075598E+01  0.18726540985E+02  0.00000000000E+00 0. -1.
         11    1    3    3    0    0  0.51762656468E+01  0.17410732027E+02 -0.64869683298E+01  0.19287510833E+02  0.51100000000E-03 0. -1.
        -11    1    3    3    0    0  0.55920188108E+01 -0.20048674767E+02  0.20168731735E+02  0.28982715096E+02  0.51100000000E-03 0.  1.
        -12    1    3    3    0    0 -0.19550207645E+02 -0.12455636288E+02 -0.69182558453E+01  0.24191233086E+02  0.00000000000E+00 0.  1.
</event>
<event>
 7    1  0.1302069E-013  0.7246156E+02  0.7816164E-02  0.1226708E+00
        -11   -1    0    0    0    0  0.00000000000E+00  0.00000000000E+00  0.45593999997E+02  0.45594000000E+02  0.51100000000E-03 0.  1.
         11   -1    0    0    0    0 -0.00000000000E+00 -0.00000000000E+00 -0.45593999997E+02  0.45594000000E+02  0.51100000000E-03 0. -1.
    9900012    2    1    2    0    0 -0.17637752707E+01  0.15241029387E+02 -0.10736844990E+02  0.72461555588E+02  0.69999980842E+02 0.  0.
         12    1    1    2    0    0  0.17637752707E+01 -0.15241029387E+02  0.10736844990E+02  0.18726444412E+02  0.00000000000E+00 0. -1.
         11    1    3    3    0    0 -0.19399192276E+02  0.22468932657E+02  0.13221334984E+02  0.32495927356E+02  0.51100000000E-03 0. -1.
        -11    1    3    3    0    0  0.14063810456E+02 -0.15404045909E+02 -0.93724476933E+01  0.22867404115E+02  0.51100000000E-03 0.  1.
         12    1    3    3    0    0  0.35716065493E+01  0.81761426399E+01 -0.14585732280E+02  0.17098224117E+02  0.00000000000E+00 0. -1.
</event>
<event>
 7    1  0.1302069E-013  0.7246159E+02  0.7816164E-02  0.1226708E+00
        -11   -1    0    0    0    0  0.00000000000E+00  0.00000000000E+00  0.45593999997E+02  0.45594000000E+02  0.51100000000E-03 0. -1.
         11   -1    0    0    0    0 -0.00000000000E+00 -0.00000000000E+00 -0.45593999997E+02  0.45594000000E+02  0.51100000000E-03 0.  1.
    9900012    2    1    2    0    0  0.17729537973E+02  0.28016203060E+01  0.53378737655E+01  0.72461588453E+02  0.70000023655E+02 0.  0.
         12    1    1    2    0    0 -0.17729537973E+02 -0.28016203060E+01 -0.53378737655E+01  0.18726411547E+02  0.00000000000E+00 0. -1.
         11    1    3    3    0    0 -0.11789379935E+02  0.28408097273E+01  0.26673483565E+01  0.12416699508E+02  0.51100000000E-03 0. -1.
        -11    1    3    3    0    0  0.16214009226E+02 -0.94337896731E+01  0.25712279010E+02  0.31827845905E+02  0.51100000000E-03 0.  1.
        -12    1    3    3    0    0  0.13304908682E+02  0.93946002519E+01 -0.23041753601E+02  0.28217043040E+02  0.00000000000E+00 0.  1.
</event>
<event>
 7    1  0.1302069E-013  0.7246174E+02  0.7816164E-02  0.1226708E+00
        -11   -1    0    0    0    0  0.00000000000E+00  0.00000000000E+00  0.45593999997E+02  0.45594000000E+02  0.51100000000E-03 0. -1.
         11   -1    0    0    0    0 -0.00000000000E+00 -0.00000000000E+00 -0.45593999997E+02  0.45594000000E+02  0.51100000000E-03 0.  1.
    9900012    2    1    2    0    0  0.63082984541E+01 -0.17597794354E+02  0.10935797157E+01  0.72461737369E+02  0.70000217646E+02 0.  0.
         12    1    1    2    0    0 -0.63082984541E+01  0.17597794354E+02 -0.10935797157E+01  0.18726262631E+02  0.00000000000E+00 0. -1.
         11    1    3    3    0    0  0.35342521980E+01  0.53980511831E+01  0.40853565631E+01  0.76367554422E+01  0.51100000000E-03 0. -1.
        -11    1    3    3    0    0 -0.60655586152E+01 -0.41880239942E+02 -0.87098915919E+01  0.43204255701E+02  0.51100000000E-03 0.  1.
        -12    1    3    3    0    0  0.88396048713E+01  0.18884394404E+02  0.57181147445E+01  0.21620726226E+02  0.00000000000E+00 0.  1.
</event>
<event>
 7    1  0.1302069E-013  0.7246161E+02  0.7816164E-02  0.1226708E+00
        -11   -1    0    0    0    0  0.00000000000E+00  0.00000000000E+00  0.45593999997E+02  0.45594000000E+02  0.51100000000E-03 0.  1.
         11   -1    0    0    0    0 -0.00000000000E+00 -0.00000000000E+00 -0.45593999997E+02  0.45594000000E+02  0.51100000000E-03 0. -1.
    9900012    2    1    2    0    0  0.80058065203E+01  0.13072426617E+02  0.10756223864E+02  0.72461611466E+02  0.70000053634E+02 0.  0.
         12    1    1    2    0    0 -0.80058065203E+01 -0.13072426617E+02 -0.10756223864E+02  0.18726388534E+02  0.00000000000E+00 0. -1.
         11    1    3    3    0    0  0.25500158825E+02  0.14240800546E+02  0.23142531007E+02  0.37264396439E+02  0.51100000000E-03 0.  1.
        -11    1    3    3    0    0 -0.21868331447E+02 -0.91551271748E+01 -0.10339473083E+02  0.25863970649E+02  0.51100000000E-03 0. -1.
         12    1    3    3    0    0  0.43739791426E+01  0.79867532460E+01 -0.20468340599E+01  0.93332443781E+01  0.00000000000E+00 0. -1.
</event>
<event>
 7    1  0.1302069E-013  0.7246158E+02  0.7816164E-02  0.1226708E+00
        -11   -1    0    0    0    0  0.00000000000E+00  0.00000000000E+00  0.45593999997E+02  0.45594000000E+02  0.51100000000E-03 0. -1.
         11   -1    0    0    0    0 -0.00000000000E+00 -0.00000000000E+00 -0.45593999997E+02  0.45594000000E+02  0.51100000000E-03 0.  1.
    9900012    2    1    2    0    0 -0.43508744926E+01 -0.60601847748E+01 -0.17176234139E+02  0.72461575687E+02  0.70000007025E+02 0.  0.
         12    1    1    2    0    0  0.43508744926E+01  0.60601847748E+01  0.17176234139E+02  0.18726424313E+02  0.00000000000E+00 0. -1.
         11    1    3    3    0    0  0.11192342472E+02 -0.87696080195E-01  0.29215894299E+00  0.11196498458E+02  0.51100000000E-03 0. -1.
        -11    1    3    3    0    0 -0.44812624781E+01 -0.10076115265E+02 -0.36910690788E+02  0.38522836175E+02  0.51100000000E-03 0.  1.
        -12    1    3    3    0    0 -0.11061954486E+02  0.41036265699E+01  0.19442297706E+02  0.22742241054E+02  0.00000000000E+00 0.  1.
</event>
<event>
 7    1  0.1302069E-013  0.7246154E+02  0.7816164E-02  0.1226708E+00
        -11   -1    0    0    0    0  0.00000000000E+00  0.00000000000E+00  0.45593999997E+02  0.45594000000E+02  0.51100000000E-03 0.  1.
         11   -1    0    0    0    0 -0.00000000000E+00 -0.00000000000E+00 -0.45593999997E+02  0.45594000000E+02  0.51100000000E-03 0. -1.
    9900012    2    1    2    0    0 -0.87283389903E+01 -0.54785318467E+01  0.15635918750E+02  0.72461543638E+02  0.69999965275E+02 0.  0.
         12    1    1    2    0    0  0.87283389903E+01  0.54785318467E+01 -0.15635918750E+02  0.18726456362E+02  0.00000000000E+00 0. -1.
         11    1    3    3    0    0 -0.11338885745E+02  0.66649040464E+01  0.87711198843E+01  0.15808979100E+02  0.51100000000E-03 0. -1.
        -11    1    3    3    0    0 -0.71459896208E+01 -0.37949040632E+01 -0.22872414435E+02  0.24261364488E+02  0.51100000000E-03 0.  1.
        -12    1    3    3    0    0  0.97565363758E+01 -0.83485318299E+01  0.29737213301E+02  0.32391200049E+02  0.00000000000E+00 0.  1.
</event>
<event>
 7    1  0.1302069E-013  0.7246156E+02  0.7816164E-02  0.1226708E+00
        -11   -1    0    0    0    0  0.00000000000E+00  0.00000000000E+00  0.45593999997E+02  0.45594000000E+02  0.51100000000E-03 0. -1.
         11   -1    0    0    0    0 -0.00000000000E+00 -0.00000000000E+00 -0.45593999997E+02  0.45594000000E+02  0.51100000000E-03 0.  1.
    9900012    2    1    2    0    0 -0.18286417480E+02 -0.48375433100E+00  0.40065547182E+01  0.72461559782E+02  0.69999986306E+02 0.  0.
         12    1    1    2    0    0  0.18286417480E+02  0.48375433100E+00 -0.40065547182E+01  0.18726440218E+02  0.00000000000E+00 0. -1.
         11    1    3    3    0    0  0.22018256850E+02  0.37959810880E+01  0.69185866765E+01  0.23389740250E+02  0.51100000000E-03 0.  1.
        -11    1    3    3    0    0 -0.43524635699E+02 -0.11664883922E+01  0.33198493926E+00  0.43541529856E+02  0.51100000000E-03 0. -1.
         12    1    3    3    0    0  0.32199613695E+01 -0.31132470267E+01 -0.32440168975E+01  0.55302896761E+01  0.00000000000E+00 0. -1.
</event>
<event>
 7    1  0.1302069E-013  0.7246155E+02  0.7816164E-02  0.1226708E+00
        -11   -1    0    0    0    0  0.00000000000E+00  0.00000000000E+00  0.45593999997E+02  0.45594000000E+02  0.51100000000E-03 0. -1.
         11   -1    0    0    0    0 -0.00000000000E+00 -0.00000000000E+00 -0.45593999997E+02  0.45594000000E+02  0.51100000000E-03 0.  1.
    9900012    2    1    2    0    0  0.62223958680E+01 -0.50139819249E+00 -0.17655316298E+02  0.72461553352E+02  0.69999977929E+02 0.  0.
         12    1    1    2    0    0 -0.62223958680E+01  0.50139819249E+00  0.17655316298E+02  0.18726446648E+02  0.00000000000E+00 0. -1.
         11    1    3    3    0    0  0.26783545990E+02 -0.14930062788E+02 -0.11553625854E+02  0.32768145832E+02  0.51100000000E-03 0. -1.
        -11    1    3    3    0    0 -0.14607996179E+02  0.23808453530E+02 -0.60664544257E+01  0.28583874500E+02  0.51100000000E-03 0.  1.
        -12    1    3    3    0    0 -0.59531539430E+01 -0.93797889349E+01 -0.35236018618E-01  0.11109533019E+02  0.00000000000E+00 0.  1.
</event>
<event>
 7    1  0.1302069E-013  0.7246139E+02  0.7816164E-02  0.1226709E+00
        -11   -1    0    0    0    0  0.00000000000E+00  0.00000000000E+00  0.45593999997E+02  0.45594000000E+02  0.51100000000E-03 0.  1.
         11   -1    0    0    0    0 -0.00000000000E+00 -0.00000000000E+00 -0.45593999997E+02  0.45594000000E+02  0.51100000000E-03 0. -1.
    9900012    2    1    2    0    0 -0.34707312737E+01 -0.12544897536E+02 -0.13463491227E+02  0.72461387232E+02  0.69999761527E+02 0.  0.
         12    1    1    2    0    0  0.34707312737E+01  0.12544897536E+02  0.13463491227E+02  0.18726612768E+02  0.00000000000E+00 0. -1.
         11    1    3    3    0    0  0.69481643175E+00 -0.14330175643E+01 -0.33562944424E+02  0.33600707550E+02  0.51100000000E-03 0. -1.
        -11    1    3    3    0    0 -0.14356885679E+01 -0.21923211364E+02  0.11632027458E+02  0.24859454162E+02  0.51100000000E-03 0.  1.
         12    1    3    3    0    0 -0.27298591376E+01  0.10811331393E+02  0.84674257397E+01  0.14001225520E+02  0.00000000000E+00 0. -1.
</event>
<event>
 7    1  0.1302069E-013  0.7246157E+02  0.7816164E-02  0.1226708E+00
        -11   -1    0    0    0    0  0.00000000000E+00  0.00000000000E+00  0.45593999997E+02  0.45594000000E+02  0.51100000000E-03 0.  1.
         11   -1    0    0    0    0 -0.00000000000E+00 -0.00000000000E+00 -0.45593999997E+02  0.45594000000E+02  0.51100000000E-03 0. -1.
    9900012    2    1    2    0    0 -0.12443415435E+02 -0.10722118977E+02 -0.89931501082E+01  0.72461570230E+02  0.69999999916E+02 0.  0.
         12    1    1    2    0    0  0.12443415435E+02  0.10722118977E+02  0.89931501082E+01  0.18726429770E+02  0.00000000000E+00 0. -1.
         11    1    3    3    0    0 -0.17760318274E+02 -0.17385072144E+02 -0.30091718331E+02  0.39027953457E+02  0.51100000000E-03 0. -1.
        -11    1    3    3    0    0  0.13247482665E+02 -0.12167596587E+01  0.58668817649E+01  0.14539484273E+02  0.51100000000E-03 0.  1.
         12    1    3    3    0    0 -0.79305798262E+01  0.78797128259E+01  0.15231686458E+02  0.18894132500E+02  0.00000000000E+00 0. -1.
</event>
<event>
 7    1  0.1302069E-013  0.7246157E+02  0.7816164E-02  0.1226708E+00
        -11   -1    0    0    0    0  0.00000000000E+00  0.00000000000E+00  0.45593999997E+02  0.45594000000E+02  0.51100000000E-03 0.  1.
         11   -1    0    0    0    0 -0.00000000000E+00 -0.00000000000E+00 -0.45593999997E+02  0.45594000000E+02  0.51100000000E-03 0. -1.
    9900012    2    1    2    0    0  0.16480444189E+02  0.42052065148E+00 -0.88824149994E+01  0.72461570161E+02  0.69999999827E+02 0.  0.
         12    1    1    2    0    0 -0.16480444189E+02 -0.42052065148E+00  0.88824149994E+01  0.18726429839E+02  0.00000000000E+00 0. -1.
         11    1    3    3    0    0 -0.19532145877E+02  0.92921195587E+00 -0.19721188687E+02  0.27772170259E+02  0.51100000000E-03 0. -1.
        -11    1    3    3    0    0  0.26957269062E+01  0.13819864905E+01  0.10905956736E+02  0.11318865791E+02  0.51100000000E-03 0.  1.
         12    1    3    3    0    0  0.33316863159E+02 -0.18906777949E+01 -0.67183048287E-01  0.33370534111E+02  0.00000000000E+00 0. -1.
</event>
<event>
 7    1  0.1310701E-013  0.7246160E+02  0.7816164E-02  0.1226708E+00
        -11   -1    0    0    0    0  0.00000000000E+00  0.00000000000E+00  0.45593999997E+02  0.45594000000E+02  0.51100000000E-03 0.  1.
         11   -1    0    0    0    0 -0.00000000000E+00 -0.00000000000E+00 -0.45593999997E+02  0.45594000000E+02  0.51100000000E-03 0. -1.
    9900012    2    1    2    0    0  0.16939419485E+02  0.64884948906E+01 -0.46511745672E+01  0.72461603569E+02  0.70000043347E+02 0.  0.
         12    1    1    2    0    0 -0.16939419485E+02 -0.64884948906E+01  0.46511745672E+01  0.18726396431E+02  0.00000000000E+00 0. -1.
         11    1    3    3    0    0 -0.98927932861E+01 -0.20127676070E+01  0.10500695999E+02  0.14566509848E+02  0.51100000000E-03 0. -1.
        -11    1    3    3    0    0  0.43767502106E+01  0.13782065414E+02 -0.27983173367E+02  0.31498559672E+02  0.51100000000E-03 0.  1.
        -12    1    3    3    0    0  0.22455462560E+02 -0.52808029167E+01  0.12831302801E+02  0.26396534049E+02  0.00000000000E+00 0.  1.
</event>
<event>
 7    1  0.1302069E-013  0.7246154E+02  0.7816164E-02  0.1226708E+00
        -11   -1    0    0    0    0  0.00000000000E+00  0.00000000000E+00  0.45593999997E+02  0.45594000000E+02  0.51100000000E-03 0.  1.
         11   -1    0    0    0    0 -0.00000000000E+00 -0.00000000000E+00 -0.45593999997E+02  0.45594000000E+02  0.51100000000E-03 0. -1.
    9900012    2    1    2    0    0  0.69207454651E+01 -0.98222238438E+01  0.14363413383E+02  0.72461536291E+02  0.69999955704E+02 0.  0.
         12    1    1    2    0    0 -0.69207454651E+01  0.98222238438E+01 -0.14363413383E+02  0.18726463709E+02  0.00000000000E+00 0. -1.
         11    1    3    3    0    0  0.16044952159E+02  0.20724856102E+02 -0.89461662135E+01  0.27694657254E+02  0.51100000000E-03 0. -1.
        -11    1    3    3    0    0 -0.14736677312E+02 -0.16700751842E+02  0.18839038748E+02  0.29171804049E+02  0.51100000000E-03 0.  1.
         12    1    3    3    0    0  0.56124706180E+01 -0.13846328104E+02  0.44705408485E+01  0.15595074988E+02  0.00000000000E+00 0. -1.
</event>
<event>
 7    1  0.1302069E-013  0.7246157E+02  0.7816164E-02  0.1226708E+00
        -11   -1    0    0    0    0  0.00000000000E+00  0.00000000000E+00  0.45593999997E+02  0.45594000000E+02  0.51100000000E-03 0.  1.
         11   -1    0    0    0    0 -0.00000000000E+00 -0.00000000000E+00 -0.45593999997E+02  0.45594000000E+02  0.51100000000E-03 0. -1.
    9900012    2    1    2    0    0 -0.98877239402E+01  0.14943927255E+02  0.54397872498E+01  0.72461565960E+02  0.69999994354E+02 0.  0.
         12    1    1    2    0    0  0.98877239402E+01 -0.14943927255E+02 -0.54397872498E+01  0.18726434040E+02  0.00000000000E+00 0. -1.
         11    1    3    3    0    0 -0.12214272403E+02  0.31361134924E+02 -0.13064360820E+02  0.36102448088E+02  0.51100000000E-03 0. -1.
        -11    1    3    3    0    0 -0.11316274129E+02 -0.12200264402E+02  0.71321061701E+01  0.18104459404E+02  0.51100000000E-03 0.  1.
         12    1    3    3    0    0  0.13642822592E+02 -0.42169432674E+01  0.11372041899E+02  0.18254658467E+02  0.00000000000E+00 0. -1.
</event>
<event>
 7    1  0.1302069E-013  0.7246162E+02  0.7816164E-02  0.1226708E+00
        -11   -1    0    0    0    0  0.00000000000E+00  0.00000000000E+00  0.45593999997E+02  0.45594000000E+02  0.51100000000E-03 0. -1.
         11   -1    0    0    0    0 -0.00000000000E+00 -0.00000000000E+00 -0.45593999997E+02  0.45594000000E+02  0.51100000000E-03 0.  1.
    9900012    2    1    2    0    0 -0.16377163938E+02 -0.53421174729E+01  0.73435482576E+01  0.72461617040E+02  0.70000060895E+02 0.  0.
         12    1    1    2    0    0  0.16377163938E+02  0.53421174729E+01 -0.73435482576E+01  0.18726382960E+02  0.00000000000E+00 0. -1.
         11    1    3    3    0    0 -0.10441317234E+02  0.29302333092E+02  0.66553085844E+01  0.31811019519E+02  0.51100000000E-03 0. -1.
        -11    1    3    3    0    0  0.70634926385E+01 -0.71793392977E+01  0.18602906848E+01  0.10241900346E+02  0.51100000000E-03 0.  1.
         12    1    3    3    0    0 -0.12999339342E+02 -0.27465111268E+02 -0.11720510116E+01  0.30408697175E+02  0.00000000000E+00 0. -1.
</event>
<event>
 7    1  0.1302069E-013  0.7246119E+02  0.7816164E-02  0.1226709E+00
        -11   -1    0    0    0    0  0.00000000000E+00  0.00000000000E+00  0.45593999997E+02  0.45594000000E+02  0.51100000000E-03 0. -1.
         11   -1    0    0    0    0 -0.00000000000E+00 -0.00000000000E+00 -0.45593999997E+02  0.45594000000E+02  0.51100000000E-03 0.  1.
    9900012    2    1    2    0    0  0.75696283628E+01  0.64057684237E+01 -0.15885850270E+02  0.72461190836E+02  0.69999505684E+02 0.  0.
         12    1    1    2    0    0 -0.75696283628E+01 -0.64057684237E+01  0.15885850270E+02  0.18726809164E+02  0.00000000000E+00 0. -1.
         11    1    3    3    0    0 -0.12141974012E+02  0.28475311777E+02 -0.12019847839E+02  0.33207644542E+02  0.51100000000E-03 0. -1.
        -11    1    3    3    0    0  0.25797325529E+02 -0.18302475334E+02 -0.13235210336E+01  0.31658084529E+02  0.51100000000E-03 0.  1.
         12    1    3    3    0    0 -0.60857231548E+01 -0.37670680191E+01 -0.25424813976E+01  0.75954617657E+01  0.00000000000E+00 0. -1.
</event>
<event>
 7    1  0.1302069E-013  0.7246157E+02  0.7816164E-02  0.1226708E+00
        -11   -1    0    0    0    0  0.00000000000E+00  0.00000000000E+00  0.45593999997E+02  0.45594000000E+02  0.51100000000E-03 0.  1.
         11   -1    0    0    0    0 -0.00000000000E+00 -0.00000000000E+00 -0.45593999997E+02  0.45594000000E+02  0.51100000000E-03 0. -1.
    9900012    2    1    2    0    0 -0.13064458672E+02  0.75595710976E+01  0.11083869804E+02  0.72461565064E+02  0.69999993187E+02 0.  0.
         12    1    1    2    0    0  0.13064458672E+02 -0.75595710976E+01 -0.11083869804E+02  0.18726434936E+02  0.00000000000E+00 0. -1.
         11    1    3    3    0    0  0.18418353694E+02  0.12214330436E+02  0.11875175126E+01  0.22132234837E+02  0.51100000000E-03 0. -1.
        -11    1    3    3    0    0 -0.15956338530E+02 -0.10132783455E+02 -0.12404895504E+02  0.22608836161E+02  0.51100000000E-03 0.  1.
        -12    1    3    3    0    0 -0.15526473836E+02  0.54780241165E+01  0.22301247796E+02  0.27720494066E+02  0.00000000000E+00 0.  1.
</event>
<event>
 7    1  0.1302069E-013  0.7246142E+02  0.7816164E-02  0.1226708E+00
        -11   -1    0    0    0    0  0.00000000000E+00  0.00000000000E+00  0.45593999997E+02  0.45594000000E+02  0.51100000000E-03 0. -1.
         11   -1    0    0    0    0 -0.00000000000E+00 -0.00000000000E+00 -0.45593999997E+02  0.45594000000E+02  0.51100000000E-03 0.  1.
    9900012    2    1    2    0    0  0.28506943527E+01 -0.14497992479E+02  0.11505066721E+02  0.72461419840E+02  0.69999804005E+02 0.  0.
         12    1    1    2    0    0 -0.28506943527E+01  0.14497992479E+02 -0.11505066721E+02  0.18726580160E+02  0.00000000000E+00 0. -1.
         11    1    3    3    0    0  0.84729602226E+00  0.18216306281E+02  0.18565602464E+02  0.26023706888E+02  0.51100000000E-03 0. -1.
        -11    1    3    3    0    0 -0.40233646552E+01 -0.23010521602E+02 -0.18854015808E+02  0.30019085260E+02  0.51100000000E-03 0.  1.
        -12    1    3    3    0    0  0.60267629856E+01 -0.97037771588E+01  0.11793480065E+02  0.16418627692E+02  0.00000000000E+00 0.  1.
</event>
<event>
 7    1  0.1302069E-013  0.7246159E+02  0.7816164E-02  0.1226708E+00
        -11   -1    0    0    0    0  0.00000000000E+00  0.00000000000E+00  0.45593999997E+02  0.45594000000E+02  0.51100000000E-03 0.  1.
         11   -1    0    0    0    0 -0.00000000000E+00 -0.00000000000E+00 -0.45593999997E+02  0.45594000000E+02  0.51100000000E-03 0. -1.
    9900012    2    1    2    0    0  0.14610492490E+02 -0.87547712792E+01  0.77824109981E+01  0.72461589989E+02  0.70000025656E+02 0.  0.
         12    1    1    2    0    0 -0.14610492490E+02  0.87547712792E+01 -0.77824109981E+01  0.18726410011E+02  0.00000000000E+00 0. -1.
         11    1    3    3    0    0 -0.24430503361E+02  0.17629755816E+01 -0.27242362245E+01  0.24645061182E+02  0.51100000000E-03 0. -1.
        -11    1    3    3    0    0  0.23262883894E+02  0.38309810490E+01 -0.97311408997E+00  0.23596294925E+02  0.51100000000E-03 0.  1.
        -12    1    3    3    0    0  0.15778111957E+02 -0.14348727910E+02  0.11479761313E+02  0.24220233883E+02  0.00000000000E+00 0.  1.
</event>
<event>
 7    1  0.1302069E-013  0.7246162E+02  0.7816164E-02  0.1226708E+00
        -11   -1    0    0    0    0  0.00000000000E+00  0.00000000000E+00  0.45593999997E+02  0.45594000000E+02  0.51100000000E-03 0. -1.
         11   -1    0    0    0    0 -0.00000000000E+00 -0.00000000000E+00 -0.45593999997E+02  0.45594000000E+02  0.51100000000E-03 0.  1.
    9900012    2    1    2    0    0 -0.17374698235E+02  0.65555761094E+01  0.24127794159E+01  0.72461622310E+02  0.70000067760E+02 0.  0.
         12    1    1    2    0    0  0.17374698235E+02 -0.65555761094E+01 -0.24127794159E+01  0.18726377690E+02  0.00000000000E+00 0. -1.
         11    1    3    3    0    0  0.13156077065E+02 -0.16311238705E+02  0.45621025652E-01  0.20955690239E+02  0.51100000000E-03 0.  1.
        -11    1    3    3    0    0 -0.31485147921E+02  0.60396008206E+01 -0.61157239046E+01  0.32637300697E+02  0.51100000000E-03 0. -1.
         12    1    3    3    0    0  0.95437262091E+00  0.16827213994E+02  0.84828822949E+01  0.18868631374E+02  0.00000000000E+00 0. -1.
</event>
<event>
 7    1  0.1302069E-013  0.7246158E+02  0.7816164E-02  0.1226708E+00
        -11   -1    0    0    0    0  0.00000000000E+00  0.00000000000E+00  0.45593999997E+02  0.45594000000E+02  0.51100000000E-03 0.  1.
         11   -1    0    0    0    0 -0.00000000000E+00 -0.00000000000E+00 -0.45593999997E+02  0.45594000000E+02  0.51100000000E-03 0. -1.
    9900012    2    1    2    0    0  0.17792985006E+02  0.38836128974E+01  0.43596115416E+01  0.72461575425E+02  0.70000006684E+02 0.  0.
         12    1    1    2    0    0 -0.17792985006E+02 -0.38836128974E+01 -0.43596115416E+01  0.18726424575E+02  0.00000000000E+00 0. -1.
         11    1    3    3    0    0 -0.12033431959E+01 -0.14256516135E+02 -0.26852057548E+02  0.30425799611E+02  0.51100000000E-03 0. -1.
        -11    1    3    3    0    0  0.17663284000E+02  0.13384145055E+02  0.20280112221E+02  0.30040138023E+02  0.51100000000E-03 0.  1.
         12    1    3    3    0    0  0.13330442020E+01  0.47559839773E+01  0.10931556869E+02  0.11995637791E+02  0.00000000000E+00 0. -1.
</event>
<event>
 7    1  0.1302069E-013  0.7246155E+02  0.7816164E-02  0.1226708E+00
        -11   -1    0    0    0    0  0.00000000000E+00  0.00000000000E+00  0.45593999997E+02  0.45594000000E+02  0.51100000000E-03 0.  1.
         11   -1    0    0    0    0 -0.00000000000E+00 -0.00000000000E+00 -0.45593999997E+02  0.45594000000E+02  0.51100000000E-03 0. -1.
    9900012    2    1    2    0    0 -0.27050288796E+01 -0.10896941865E+02  0.14987305877E+02  0.72461551840E+02  0.69999975960E+02 0.  0.
         12    1    1    2    0    0  0.27050288796E+01  0.10896941865E+02 -0.14987305877E+02  0.18726448160E+02  0.00000000000E+00 0. -1.
         11    1    3    3    0    0 -0.26690120580E+02  0.51958113828E+01  0.34493561313E+01  0.27409068763E+02  0.51100000000E-03 0. -1.
        -11    1    3    3    0    0  0.56341413438E+01 -0.22929485265E+01  0.19751495526E+02  0.20666947946E+02  0.51100000000E-03 0.  1.
         12    1    3    3    0    0  0.18350950356E+02 -0.13799804721E+02 -0.82135457811E+01  0.24385535131E+02  0.00000000000E+00 0. -1.
</event>
<event>
 7    1  0.1302069E-013  0.7246162E+02  0.7816164E-02  0.1226708E+00
        -11   -1    0    0    0    0  0.00000000000E+00  0.00000000000E+00  0.45593999997E+02  0.45594000000E+02  0.51100000000E-03 0. -1.
         11   -1    0    0    0    0 -0.00000000000E+00 -0.00000000000E+00 -0.45593999997E+02  0.45594000000E+02  0.51100000000E-03 0.  1.
    9900012    2    1    2    0    0  0.60757711057E+01 -0.43182994151E+01 -0.17178900698E+02  0.72461619315E+02  0.70000063858E+02 0.  0.
         12    1    1    2    0    0 -0.60757711057E+01  0.43182994151E+01  0.17178900698E+02  0.18726380685E+02  0.00000000000E+00 0. -1.
         11    1    3    3    0    0 -0.10609645080E+01 -0.18003814194E+02  0.18825597124E+01  0.18133036220E+02  0.51100000000E-03 0. -1.
        -11    1    3    3    0    0 -0.71704245808E+01  0.13543882611E+02  0.12434580109E+02  0.19735007667E+02  0.51100000000E-03 0.  1.
        -12    1    3    3    0    0  0.14307160195E+02  0.14163216709E+00 -0.31496040520E+02  0.34593575428E+02  0.00000000000E+00 0.  1.
</event>
<event>
 7    1  0.1302069E-013  0.7246154E+02  0.7816164E-02  0.1226708E+00
        -11   -1    0    0    0    0  0.00000000000E+00  0.00000000000E+00  0.45593999997E+02  0.45594000000E+02  0.51100000000E-03 0.  1.
         11   -1    0    0    0    0 -0.00000000000E+00 -0.00000000000E+00 -0.45593999997E+02  0.45594000000E+02  0.51100000000E-03 0. -1.
    9900012    2    1    2    0    0  0.17841596065E+02 -0.54567957536E+01 -0.16065598124E+01  0.72461542661E+02  0.69999964002E+02 0.  0.
         12    1    1    2    0    0 -0.17841596065E+02  0.54567957536E+01  0.16065598124E+01  0.18726457339E+02  0.00000000000E+00 0. -1.
         11    1    3    3    0    0  0.77198319200E+01 -0.51212949580E+01 -0.29413556605E+02  0.30837976253E+02  0.51100000000E-03 0. -1.
        -11    1    3    3    0    0  0.16423749832E+02 -0.10095497475E+02  0.15920046692E+02  0.25002130204E+02  0.51100000000E-03 0.  1.
         12    1    3    3    0    0 -0.63019856869E+01  0.97599966797E+01  0.11886950101E+02  0.16621436204E+02  0.00000000000E+00 0. -1.
</event>
<event>
 7    1  0.1302069E-013  0.7246155E+02  0.7816164E-02  0.1226708E+00
        -11   -1    0    0    0    0  0.00000000000E+00  0.00000000000E+00  0.45593999997E+02  0.45594000000E+02  0.51100000000E-03 0.  1.
         11   -1    0    0    0    0 -0.00000000000E+00 -0.00000000000E+00 -0.45593999997E+02  0.45594000000E+02  0.51100000000E-03 0. -1.
    9900012    2    1    2    0    0  0.74566986683E+01  0.17174853190E+02  0.31917808037E+00  0.72461553146E+02  0.69999977661E+02 0.  0.
         12    1    1    2    0    0 -0.74566986683E+01 -0.17174853190E+02 -0.31917808037E+00  0.18726446854E+02  0.00000000000E+00 0. -1.
         11    1    3    3    0    0  0.57629853186E+00 -0.19489563330E+02 -0.15036637166E+02  0.24622665500E+02  0.51100000000E-03 0. -1.
        -11    1    3    3    0    0  0.12515043485E+02  0.27460936510E+02  0.14177812464E+01  0.30211578101E+02  0.51100000000E-03 0.  1.
         12    1    3    3    0    0 -0.56346433483E+01  0.92034800105E+01  0.13938034000E+02  0.17627309544E+02  0.00000000000E+00 0. -1.
</event>
<event>
 7    1  0.1302069E-013  0.7246161E+02  0.7816164E-02  0.1226708E+00
        -11   -1    0    0    0    0  0.00000000000E+00  0.00000000000E+00  0.45593999997E+02  0.45594000000E+02  0.51100000000E-03 0.  1.
         11   -1    0    0    0    0 -0.00000000000E+00 -0.00000000000E+00 -0.45593999997E+02  0.45594000000E+02  0.51100000000E-03 0. -1.
    9900012    2    1    2    0    0  0.66298991462E+01  0.16546731062E+02  0.57382739992E+01  0.72461610598E+02  0.70000052503E+02 0.  0.
         12    1    1    2    0    0 -0.66298991462E+01 -0.16546731062E+02 -0.57382739992E+01  0.18726389402E+02  0.00000000000E+00 0. -1.
         11    1    3    3    0    0 -0.13976436398E+02  0.23798568739E+02 -0.17844148586E+02  0.32865274797E+02  0.51100000000E-03 0. -1.
        -11    1    3    3    0    0  0.74520213054E+01 -0.94963747012E+01  0.23308825287E+02  0.26249096947E+02  0.51100000000E-03 0.  1.
         12    1    3    3    0    0  0.13154314239E+02  0.22445370241E+01  0.27359729823E+00  0.13347238854E+02  0.00000000000E+00 0. -1.
</event>
<event>
 7    1  0.1302069E-013  0.7246175E+02  0.7816164E-02  0.1226708E+00
        -11   -1    0    0    0    0  0.00000000000E+00  0.00000000000E+00  0.45593999997E+02  0.45594000000E+02  0.51100000000E-03 0.  1.
         11   -1    0    0    0    0 -0.00000000000E+00 -0.00000000000E+00 -0.45593999997E+02  0.45594000000E+02  0.51100000000E-03 0. -1.
    9900012    2    1    2    0    0  0.10460324065E+02  0.37176226093E+01  0.15080887112E+02  0.72461754955E+02  0.70000240555E+02 0.  0.
         12    1    1    2    0    0 -0.10460324065E+02 -0.37176226093E+01 -0.15080887112E+02  0.18726245045E+02  0.00000000000E+00 0. -1.
         11    1    3    3    0    0 -0.79479662705E+01  0.24967390756E+02 -0.11207363189E+02  0.28498171150E+02  0.51100000000E-03 0. -1.
        -11    1    3    3    0    0  0.37395753954E+01 -0.18467031174E+02  0.20777951409E+02  0.28048866814E+02  0.51100000000E-03 0.  1.
        -12    1    3    3    0    0  0.14668714940E+02 -0.27827369718E+01  0.55102988912E+01  0.15914716991E+02  0.00000000000E+00 0.  1.
</event>
<event>
 7    1  0.1302069E-013  0.7246157E+02  0.7816164E-02  0.1226708E+00
        -11   -1    0    0    0    0  0.00000000000E+00  0.00000000000E+00  0.45593999997E+02  0.45594000000E+02  0.51100000000E-03 0.  1.
         11   -1    0    0    0    0 -0.00000000000E+00 -0.00000000000E+00 -0.45593999997E+02  0.45594000000E+02  0.51100000000E-03 0. -1.
    9900012    2    1    2    0    0  0.18705844722E+02 -0.15341236130E+00  0.86431049080E+00  0.72461569621E+02  0.69999999123E+02 0.  0.
         12    1    1    2    0    0 -0.18705844722E+02  0.15341236130E+00 -0.86431049080E+00  0.18726430379E+02  0.00000000000E+00 0. -1.
         11    1    3    3    0    0  0.26525444406E+02 -0.13053300999E+02 -0.15987322885E+02  0.33609260051E+02  0.51100000000E-03 0. -1.
        -11    1    3    3    0    0  0.12914432854E+01  0.38785569553E+01  0.23882224597E+02  0.24229562146E+02  0.51100000000E-03 0.  1.
        -12    1    3    3    0    0 -0.91110429696E+01  0.90213316822E+01 -0.70305912208E+01  0.14622747424E+02  0.00000000000E+00 0.  1.
</event>
<event>
 7    1  0.1302069E-013  0.7246172E+02  0.7816164E-02  0.1226708E+00
        -11   -1    0    0    0    0  0.00000000000E+00  0.00000000000E+00  0.45593999997E+02  0.45594000000E+02  0.51100000000E-03 0.  1.
         11   -1    0    0    0    0 -0.00000000000E+00 -0.00000000000E+00 -0.45593999997E+02  0.45594000000E+02  0.51100000000E-03 0. -1.
    9900012    2    1    2    0    0 -0.28929859955E+01  0.91733053047E+01  0.16067191680E+02  0.72461720426E+02  0.70000195575E+02 0.  0.
         12    1    1    2    0    0  0.28929859955E+01 -0.91733053047E+01 -0.16067191680E+02  0.18726279574E+02  0.00000000000E+00 0. -1.
         11    1    3    3    0    0  0.13373155364E+02  0.15427498811E+02 -0.63549167441E+00  0.20426768072E+02  0.51100000000E-03 0. -1.
        -11    1    3    3    0    0  0.75384374265E+01 -0.20185868893E+02  0.93594581349E+01  0.23492483875E+02  0.51100000000E-03 0.  1.
        -12    1    3    3    0    0 -0.23804578786E+02  0.13931675387E+02  0.73432252196E+01  0.28542468479E+02  0.00000000000E+00 0.  1.
</event>
<event>
 7    1  0.1302069E-013  0.7246157E+02  0.7816164E-02  0.1226708E+00
        -11   -1    0    0    0    0  0.00000000000E+00  0.00000000000E+00  0.45593999997E+02  0.45594000000E+02  0.51100000000E-03 0. -1.
         11   -1    0    0    0    0 -0.00000000000E+00 -0.00000000000E+00 -0.45593999997E+02  0.45594000000E+02  0.51100000000E-03 0.  1.
    9900012    2    1    2    0    0  0.31723155452E+00  0.18684151283E+02  0.12169317368E+01  0.72461573008E+02  0.70000003535E+02 0.  0.
         12    1    1    2    0    0 -0.31723155452E+00 -0.18684151283E+02 -0.12169317368E+01  0.18726426992E+02  0.00000000000E+00 0. -1.
         11    1    3    3    0    0 -0.28512469970E+01  0.11903966714E+02  0.11944241169E+02  0.17102600105E+02  0.51100000000E-03 0. -1.
        -11    1    3    3    0    0 -0.22573557951E+02 -0.87325918679E+01 -0.59780638246E+01  0.24931123654E+02  0.51100000000E-03 0.  1.
        -12    1    3    3    0    0  0.25742036503E+02  0.15512776437E+02 -0.47492456074E+01  0.30427849249E+02  0.00000000000E+00 0.  1.
</event>
<event>
 7    1  0.1302069E-013  0.7246159E+02  0.7816164E-02  0.1226708E+00
        -11   -1    0    0    0    0  0.00000000000E+00  0.00000000000E+00  0.45593999997E+02  0.45594000000E+02  0.51100000000E-03 0.  1.
         11   -1    0    0    0    0 -0.00000000000E+00 -0.00000000000E+00 -0.45593999997E+02  0.45594000000E+02  0.51100000000E-03 0. -1.
    9900012    2    1    2    0    0  0.70268072633E+01 -0.78335110367E+01  0.15489947200E+02  0.72461591381E+02  0.70000027470E+02 0.  0.
         12    1    1    2    0    0 -0.70268072633E+01  0.78335110367E+01 -0.15489947200E+02  0.18726408619E+02  0.00000000000E+00 0. -1.
         11    1    3    3    0    0 -0.11743988274E+02 -0.82358938147E+01  0.30638294915E+01  0.14667592131E+02  0.51100000000E-03 0. -1.
        -11    1    3    3    0    0  0.29672325368E+02 -0.16116220324E+02 -0.11624847779E+01  0.33786547936E+02  0.51100000000E-03 0.  1.
        -12    1    3    3    0    0 -0.10901529831E+02  0.16518603102E+02  0.13588602487E+02  0.24007451315E+02  0.00000000000E+00 0.  1.
</event>
<event>
 7    1  0.1302069E-013  0.7246182E+02  0.7816164E-02  0.1226707E+00
        -11   -1    0    0    0    0  0.00000000000E+00  0.00000000000E+00  0.45593999997E+02  0.45594000000E+02  0.51100000000E-03 0. -1.
         11   -1    0    0    0    0 -0.00000000000E+00 -0.00000000000E+00 -0.45593999997E+02  0.45594000000E+02  0.51100000000E-03 0.  1.
    9900012    2    1    2    0    0  0.60021229938E+01  0.12941267048E+02 -0.12131285938E+02  0.72461815878E+02  0.70000319918E+02 0.  0.
         12    1    1    2    0    0 -0.60021229938E+01 -0.12941267048E+02  0.12131285938E+02  0.18726184122E+02  0.00000000000E+00 0. -1.
         11    1    3    3    0    0 -0.13521009528E+02 -0.33503307099E+00  0.62006938117E+01  0.14878795308E+02  0.51100000000E-03 0. -1.
        -11    1    3    3    0    0  0.23120470713E+02  0.18523411676E+02  0.78428973837E+01  0.30646108819E+02  0.51100000000E-03 0.  1.
        -12    1    3    3    0    0 -0.35973381912E+01 -0.52471115566E+01 -0.26174877133E+02  0.26936911751E+02  0.00000000000E+00 0.  1.
</event>
<event>
 7    1  0.1302069E-013  0.7246142E+02  0.7816164E-02  0.1226708E+00
        -11   -1    0    0    0    0  0.00000000000E+00  0.00000000000E+00  0.45593999997E+02  0.45594000000E+02  0.51100000000E-03 0. -1.
         11   -1    0    0    0    0 -0.00000000000E+00 -0.00000000000E+00 -0.45593999997E+02  0.45594000000E+02  0.51100000000E-03 0.  1.
    9900012    2    1    2    0    0 -0.17057829611E+02 -0.19821034179E+01 -0.74690310597E+01  0.72461422364E+02  0.69999807293E+02 0.  0.
         12    1    1    2    0    0  0.17057829611E+02  0.19821034179E+01  0.74690310597E+01  0.18726577636E+02  0.00000000000E+00 0. -1.
         11    1    3    3    0    0 -0.10629756486E+02  0.15069155059E+02  0.10920030252E+02  0.21431710573E+02  0.51100000000E-03 0. -1.
        -11    1    3    3    0    0  0.18332526634E+02 -0.12839296853E+02 -0.10345991310E+02  0.24657019546E+02  0.51100000000E-03 0.  1.
         12    1    3    3    0    0 -0.24760599759E+02 -0.42119616240E+01 -0.80430700016E+01  0.26372692244E+02  0.00000000000E+00 0. -1.
</event>
<event>
 7    1  0.1302069E-013  0.7246170E+02  0.7816164E-02  0.1226708E+00
        -11   -1    0    0    0    0  0.00000000000E+00  0.00000000000E+00  0.45593999997E+02  0.45594000000E+02  0.51100000000E-03 0. -1.
         11   -1    0    0    0    0 -0.00000000000E+00 -0.00000000000E+00 -0.45593999997E+02  0.45594000000E+02  0.51100000000E-03 0.  1.
    9900012    2    1    2    0    0  0.14965380092E+02 -0.33260626287E+01 -0.10754018763E+02  0.72461702623E+02  0.70000172382E+02 0.  0.
         12    1    1    2    0    0 -0.14965380092E+02  0.33260626287E+01  0.10754018763E+02  0.18726297377E+02  0.00000000000E+00 0. -1.
         11    1    3    3    0    0 -0.40519648420E+01  0.12698102125E+02  0.77406366681E+01  0.15413554845E+02  0.51100000000E-03 0. -1.
        -11    1    3    3    0    0 -0.37333170850E+01 -0.26004034697E+02 -0.18627419691E+02  0.32204475490E+02  0.51100000000E-03 0.  1.
         12    1    3    3    0    0  0.22750662019E+02  0.99798699434E+01  0.13276426007E+00  0.24843672288E+02  0.00000000000E+00 0. -1.
</event>
<event>
 7    1  0.1302069E-013  0.7246155E+02  0.7816164E-02  0.1226708E+00
        -11   -1    0    0    0    0  0.00000000000E+00  0.00000000000E+00  0.45593999997E+02  0.45594000000E+02  0.51100000000E-03 0. -1.
         11   -1    0    0    0    0 -0.00000000000E+00 -0.00000000000E+00 -0.45593999997E+02  0.45594000000E+02  0.51100000000E-03 0.  1.
    9900012    2    1    2    0    0  0.13698439397E+02 -0.12033074834E+02  0.42705565565E+01  0.72461553857E+02  0.69999978587E+02 0.  0.
         12    1    1    2    0    0 -0.13698439397E+02  0.12033074834E+02 -0.42705565565E+01  0.18726446143E+02  0.00000000000E+00 0. -1.
         11    1    3    3    0    0  0.46570271920E+01  0.17419803515E+02 -0.18421298139E+02  0.25777542205E+02  0.51100000000E-03 0. -1.
        -11    1    3    3    0    0 -0.47250653736E+01 -0.10369063228E+02  0.19975098449E+02  0.22996701357E+02  0.51100000000E-03 0.  1.
        -12    1    3    3    0    0  0.13766477578E+02 -0.19083815121E+02  0.27167562465E+01  0.23687310294E+02  0.00000000000E+00 0.  1.
</event>
<event>
 7    1  0.1302069E-013  0.7246158E+02  0.7816164E-02  0.1226708E+00
        -11   -1    0    0    0    0  0.00000000000E+00  0.00000000000E+00  0.45593999997E+02  0.45594000000E+02  0.51100000000E-03 0.  1.
         11   -1    0    0    0    0 -0.00000000000E+00 -0.00000000000E+00 -0.45593999997E+02  0.45594000000E+02  0.51100000000E-03 0. -1.
    9900012    2    1    2    0    0  0.84719148612E-01 -0.14106927689E+02  0.12315287638E+02  0.72461577604E+02  0.70000009522E+02 0.  0.
         12    1    1    2    0    0 -0.84719148612E-01  0.14106927689E+02 -0.12315287638E+02  0.18726422396E+02  0.00000000000E+00 0. -1.
         11    1    3    3    0    0 -0.72980164422E+01 -0.22747893577E+02 -0.75943321875E+01  0.25067939441E+02  0.51100000000E-03 0.  1.
        -11    1    3    3    0    0  0.16146101279E+02 -0.23208802949E+01  0.27095507176E+02  0.31626722582E+02  0.51100000000E-03 0. -1.
        -12    1    3    3    0    0 -0.87633656884E+01  0.10961846183E+02 -0.71858873505E+01  0.15766915581E+02  0.00000000000E+00 0.  1.
</event>
<event>
 7    1  0.1302069E-013  0.7246159E+02  0.7816164E-02  0.1226708E+00
        -11   -1    0    0    0    0  0.00000000000E+00  0.00000000000E+00  0.45593999997E+02  0.45594000000E+02  0.51100000000E-03 0. -1.
         11   -1    0    0    0    0 -0.00000000000E+00 -0.00000000000E+00 -0.45593999997E+02  0.45594000000E+02  0.51100000000E-03 0.  1.
    9900012    2    1    2    0    0 -0.16472922544E+02  0.83789470091E+01  0.30189963999E+01  0.72461594328E+02  0.70000031308E+02 0.  0.
         12    1    1    2    0    0  0.16472922544E+02 -0.83789470091E+01 -0.30189963999E+01  0.18726405672E+02  0.00000000000E+00 0. -1.
         11    1    3    3    0    0  0.11789362100E+02 -0.12208719966E+02 -0.43197120748E+01  0.17512904231E+02  0.51100000000E-03 0. -1.
        -11    1    3    3    0    0 -0.31141845199E+02  0.29259447766E+02  0.12412426919E+02  0.44497170115E+02  0.51100000000E-03 0.  1.
        -12    1    3    3    0    0  0.28795605547E+01 -0.86717807912E+01 -0.50737184446E+01  0.10451519982E+02  0.00000000000E+00 0.  1.
</event>
<event>
 7    1  0.1302069E-013  0.7246158E+02  0.7816164E-02  0.1226708E+00
        -11   -1    0    0    0    0  0.00000000000E+00  0.00000000000E+00  0.45593999997E+02  0.45594000000E+02  0.51100000000E-03 0. -1.
         11   -1    0    0    0    0 -0.00000000000E+00 -0.00000000000E+00 -0.45593999997E+02  0.45594000000E+02  0.51100000000E-03 0.  1.
    9900012    2    1    2    0    0  0.92851829162E+00  0.26872353932E+01 -0.18509338284E+02  0.72461575249E+02  0.70000006454E+02 0.  0.
         12    1    1    2    0    0 -0.92851829162E+00 -0.26872353932E+01  0.18509338284E+02  0.18726424751E+02  0.00000000000E+00 0. -1.
         11    1    3    3    0    0 -0.21461834299E+02  0.22418077285E+02  0.78010950835E+01  0.32000587579E+02  0.51100000000E-03 0. -1.
        -11    1    3    3    0    0  0.11235318489E+02 -0.14173707375E+02 -0.13343922192E+02  0.22476356956E+02  0.51100000000E-03 0.  1.
         12    1    3    3    0    0  0.11155034101E+02 -0.55571345173E+01 -0.12966511175E+02  0.17984630714E+02  0.00000000000E+00 0. -1.
</event>
<event>
 7    1  0.1302069E-013  0.7246161E+02  0.7816164E-02  0.1226708E+00
        -11   -1    0    0    0    0  0.00000000000E+00  0.00000000000E+00  0.45593999997E+02  0.45594000000E+02  0.51100000000E-03 0.  1.
         11   -1    0    0    0    0 -0.00000000000E+00 -0.00000000000E+00 -0.45593999997E+02  0.45594000000E+02  0.51100000000E-03 0. -1.
    9900012    2    1    2    0    0 -0.17686756175E+02  0.41965159905E+01 -0.44995145765E+01  0.72461608947E+02  0.70000050353E+02 0.  0.
         12    1    1    2    0    0  0.17686756175E+02 -0.41965159905E+01  0.44995145765E+01  0.18726391053E+02  0.00000000000E+00 0. -1.
         11    1    3    3    0    0 -0.14975317569E+02  0.58260717119E+01  0.13413019940E+02  0.20931133559E+02  0.51100000000E-03 0. -1.
        -11    1    3    3    0    0  0.20178389347E+02  0.92407415204E+01 -0.12993824725E+02  0.25717662836E+02  0.51100000000E-03 0.  1.
        -12    1    3    3    0    0 -0.22889827953E+02 -0.10870297242E+02 -0.49187097915E+01  0.25812812552E+02  0.00000000000E+00 0.  1.
</event>
<event>
 7    1  0.1302069E-013  0.7246172E+02  0.7816164E-02  0.1226708E+00
        -11   -1    0    0    0    0  0.00000000000E+00  0.00000000000E+00  0.45593999997E+02  0.45594000000E+02  0.51100000000E-03 0.  1.
         11   -1    0    0    0    0 -0.00000000000E+00 -0.00000000000E+00 -0.45593999997E+02  0.45594000000E+02  0.51100000000E-03 0. -1.
    9900012    2    1    2    0    0 -0.46707124793E+01 -0.14745953313E+01  0.18074393466E+02  0.72461716716E+02  0.70000190742E+02 0.  0.
         12    1    1    2    0    0  0.46707124793E+01  0.14745953313E+01 -0.18074393466E+02  0.18726283284E+02  0.00000000000E+00 0. -1.
         11    1    3    3    0    0  0.85197285474E+01  0.20724221453E+02 -0.19907249775E+00  0.22408006593E+02  0.51100000000E-03 0. -1.
        -11    1    3    3    0    0 -0.25396447524E+02 -0.13659505116E+02  0.19947059304E+02  0.35063468196E+02  0.51100000000E-03 0.  1.
        -12    1    3    3    0    0  0.12206006497E+02 -0.85393116681E+01 -0.16735933400E+01  0.14990241927E+02  0.00000000000E+00 0.  1.
</event>
<event>
 7    1  0.1302069E-013  0.7246155E+02  0.7816164E-02  0.1226708E+00
        -11   -1    0    0    0    0  0.00000000000E+00  0.00000000000E+00  0.45593999997E+02  0.45594000000E+02  0.51100000000E-03 0. -1.
         11   -1    0    0    0    0 -0.00000000000E+00 -0.00000000000E+00 -0.45593999997E+02  0.45594000000E+02  0.51100000000E-03 0.  1.
    9900012    2    1    2    0    0  0.91138424538E+01  0.16339312153E+02 -0.80291560811E+00  0.72461550273E+02  0.69999973918E+02 0.  0.
         12    1    1    2    0    0 -0.91138424538E+01 -0.16339312153E+02  0.80291560811E+00  0.18726449727E+02  0.00000000000E+00 0. -1.
         11    1    3    3    0    0  0.27635598203E+02 -0.13209057243E+02  0.85509428798E+01  0.31801322389E+02  0.51100000000E-03 0. -1.
        -11    1    3    3    0    0 -0.17537475161E+02  0.14815934875E+02  0.40448659788E+00  0.22961676135E+02  0.51100000000E-03 0.  1.
        -12    1    3    3    0    0 -0.98428058829E+00  0.14732434521E+02 -0.97583450858E+01  0.17698551748E+02  0.00000000000E+00 0.  1.
</event>
<event>
 7    1  0.1302069E-013  0.7246158E+02  0.7816164E-02  0.1226708E+00
        -11   -1    0    0    0    0  0.00000000000E+00  0.00000000000E+00  0.45593999997E+02  0.45594000000E+02  0.51100000000E-03 0.  1.
         11   -1    0    0    0    0 -0.00000000000E+00 -0.00000000000E+00 -0.45593999997E+02  0.45594000000E+02  0.51100000000E-03 0. -1.
    9900012    2    1    2    0    0  0.75000602306E+01  0.11570497439E+02 -0.12670891058E+02  0.72461580304E+02  0.70000013039E+02 0.  0.
         12    1    1    2    0    0 -0.75000602306E+01 -0.11570497439E+02  0.12670891058E+02  0.18726419696E+02  0.00000000000E+00 0. -1.
         11    1    3    3    0    0  0.89677527407E+01 -0.33516413354E+01 -0.22996503161E+02  0.24909701860E+02  0.51100000000E-03 0. -1.
        -11    1    3    3    0    0  0.13330001682E+02  0.24805060938E+02  0.30394397877E+01  0.28323456488E+02  0.51100000000E-03 0.  1.
         12    1    3    3    0    0 -0.14797694192E+02 -0.98829221636E+01  0.72861723152E+01  0.19228421955E+02  0.00000000000E+00 0. -1.
</event>
<event>
 7    1  0.1302069E-013  0.7246159E+02  0.7816164E-02  0.1226708E+00
        -11   -1    0    0    0    0  0.00000000000E+00  0.00000000000E+00  0.45593999997E+02  0.45594000000E+02  0.51100000000E-03 0. -1.
         11   -1    0    0    0    0 -0.00000000000E+00 -0.00000000000E+00 -0.45593999997E+02  0.45594000000E+02  0.51100000000E-03 0.  1.
    9900012    2    1    2    0    0 -0.70796533581E+01 -0.14783354143E+02 -0.90558964087E+01  0.72461593213E+02  0.70000029856E+02 0.  0.
         12    1    1    2    0    0  0.70796533581E+01  0.14783354143E+02  0.90558964087E+01  0.18726406787E+02  0.00000000000E+00 0. -1.
         11    1    3    3    0    0 -0.40399886346E+01  0.64372068786E+01  0.15905386289E+02  0.17627831796E+02  0.51100000000E-03 0. -1.
        -11    1    3    3    0    0 -0.80609999371E+01 -0.32902537302E+02 -0.25027622019E+02  0.42118149830E+02  0.51100000000E-03 0.  1.
        -12    1    3    3    0    0  0.50213352136E+01  0.11681976281E+02  0.66339321320E-01  0.12715611588E+02  0.00000000000E+00 0.  1.
</event>
<event>
 7    1  0.1302069E-013  0.7246156E+02  0.7816164E-02  0.1226708E+00
        -11   -1    0    0    0    0  0.00000000000E+00  0.00000000000E+00  0.45593999997E+02  0.45594000000E+02  0.51100000000E-03 0.  1.
         11   -1    0    0    0    0 -0.00000000000E+00 -0.00000000000E+00 -0.45593999997E+02  0.45594000000E+02  0.51100000000E-03 0. -1.
    9900012    2    1    2    0    0 -0.52817393314E+01 -0.16646932684E+01  0.17888870186E+02  0.72461557450E+02  0.69999983268E+02 0.  0.
         12    1    1    2    0    0  0.52817393314E+01  0.16646932684E+01 -0.17888870186E+02  0.18726442550E+02  0.00000000000E+00 0. -1.
         11    1    3    3    0    0 -0.13038019532E+02 -0.67304347630E+01 -0.23444237241E+02  0.27657204586E+02  0.51100000000E-03 0. -1.
        -11    1    3    3    0    0  0.58866943047E+00  0.89057749387E+01  0.25279841795E+02  0.26809135764E+02  0.51100000000E-03 0.  1.
         12    1    3    3    0    0  0.71676107706E+01 -0.38400334441E+01  0.16053265633E+02  0.17995217100E+02  0.00000000000E+00 0. -1.
</event>
<event>
 7    1  0.1302069E-013  0.7246154E+02  0.7816164E-02  0.1226708E+00
        -11   -1    0    0    0    0  0.00000000000E+00  0.00000000000E+00  0.45593999997E+02  0.45594000000E+02  0.51100000000E-03 0.  1.
         11   -1    0    0    0    0 -0.00000000000E+00 -0.00000000000E+00 -0.45593999997E+02  0.45594000000E+02  0.51100000000E-03 0. -1.
    9900012    2    1    2    0    0 -0.12328692914E+02  0.69731894192E+00  0.14078262559E+02  0.72461537458E+02  0.69999957224E+02 0.  0.
         12    1    1    2    0    0  0.12328692914E+02 -0.69731894192E+00 -0.14078262559E+02  0.18726462542E+02  0.00000000000E+00 0. -1.
         11    1    3    3    0    0  0.13175084285E+02 -0.24356036214E+02 -0.34770134085E+00  0.27693324872E+02  0.51100000000E-03 0. -1.
        -11    1    3    3    0    0 -0.29337267872E+02  0.18211556274E+02  0.12080348327E+02  0.36582384888E+02  0.51100000000E-03 0.  1.
         12    1    3    3    0    0  0.38334906730E+01  0.68417988820E+01  0.23456155726E+01  0.81858276976E+01  0.00000000000E+00 0. -1.
</event>
<event>
 7    1  0.1302069E-013  0.7246160E+02  0.7816164E-02  0.1226708E+00
        -11   -1    0    0    0    0  0.00000000000E+00  0.00000000000E+00  0.45593999997E+02  0.45594000000E+02  0.51100000000E-03 0. -1.
         11   -1    0    0    0    0 -0.00000000000E+00 -0.00000000000E+00 -0.45593999997E+02  0.45594000000E+02  0.51100000000E-03 0.  1.
    9900012    2    1    2    0    0  0.51937162053E+01 -0.16828991223E+02 -0.63630408172E+01  0.72461603602E+02  0.70000043389E+02 0.  0.
         12    1    1    2    0    0 -0.51937162053E+01  0.16828991223E+02  0.63630408172E+01  0.18726396398E+02  0.00000000000E+00 0. -1.
         11    1    3    3    0    0  0.11251880446E+02  0.22275119482E+02 -0.17457212129E+02  0.30455541648E+02  0.51100000000E-03 0. -1.
        -11    1    3    3    0    0 -0.11646954802E+01 -0.25146459676E+02  0.36139423351E+01  0.25431506626E+02  0.51100000000E-03 0.  1.
         12    1    3    3    0    0 -0.48934687601E+01 -0.13957651029E+02  0.74802289771E+01  0.16574555328E+02  0.00000000000E+00 0. -1.
</event>
<event>
 7    1  0.1302069E-013  0.7246156E+02  0.7816164E-02  0.1226708E+00
        -11   -1    0    0    0    0  0.00000000000E+00  0.00000000000E+00  0.45593999997E+02  0.45594000000E+02  0.51100000000E-03 0. -1.
         11   -1    0    0    0    0 -0.00000000000E+00 -0.00000000000E+00 -0.45593999997E+02  0.45594000000E+02  0.51100000000E-03 0.  1.
    9900012    2    1    2    0    0 -0.15477166428E+02 -0.74774557434E+01 -0.74313145518E+01  0.72461562512E+02  0.69999989862E+02 0.  0.
         12    1    1    2    0    0  0.15477166428E+02  0.74774557434E+01  0.74313145518E+01  0.18726437488E+02  0.00000000000E+00 0. -1.
         11    1    3    3    0    0 -0.36573327454E+02 -0.96432213909E+01  0.67117629049E+01  0.38414160948E+02  0.51100000000E-03 0. -1.
        -11    1    3    3    0    0  0.20651521655E+02 -0.51686993741E+01 -0.15804690178E+02  0.26513940329E+02  0.51100000000E-03 0.  1.
        -12    1    3    3    0    0  0.44463937016E+00  0.73344650216E+01  0.16616127215E+01  0.75334612337E+01  0.00000000000E+00 0.  1.
</event>
<event>
 7    1  0.1302069E-013  0.7246160E+02  0.7816164E-02  0.1226708E+00
        -11   -1    0    0    0    0  0.00000000000E+00  0.00000000000E+00  0.45593999997E+02  0.45594000000E+02  0.51100000000E-03 0. -1.
         11   -1    0    0    0    0 -0.00000000000E+00 -0.00000000000E+00 -0.45593999997E+02  0.45594000000E+02  0.51100000000E-03 0.  1.
    9900012    2    1    2    0    0 -0.31257381541E+01 -0.16534793055E+02 -0.82163630543E+01  0.72461595053E+02  0.70000032253E+02 0.  0.
         12    1    1    2    0    0  0.31257381541E+01  0.16534793055E+02  0.82163630543E+01  0.18726404947E+02  0.00000000000E+00 0. -1.
         11    1    3    3    0    0 -0.11330569098E+02 -0.71533841498E+01 -0.23293457826E+01  0.13600682075E+02  0.51100000000E-03 0. -1.
        -11    1    3    3    0    0  0.11809435069E+02  0.11728509383E+02 -0.25082101372E+02  0.30102034790E+02  0.51100000000E-03 0.  1.
        -12    1    3    3    0    0 -0.36046041253E+01 -0.21109918288E+02  0.19195084100E+02  0.28758878188E+02  0.00000000000E+00 0.  1.
</event>
<event>
 7    1  0.1302069E-013  0.7246156E+02  0.7816164E-02  0.1226708E+00
        -11   -1    0    0    0    0  0.00000000000E+00  0.00000000000E+00  0.45593999997E+02  0.45594000000E+02  0.51100000000E-03 0.  1.
         11   -1    0    0    0    0 -0.00000000000E+00 -0.00000000000E+00 -0.45593999997E+02  0.45594000000E+02  0.51100000000E-03 0. -1.
    9900012    2    1    2    0    0 -0.21828416980E+00  0.18723319720E+02  0.26292478538E+00  0.72461562037E+02  0.69999989244E+02 0.  0.
         12    1    1    2    0    0  0.21828416980E+00 -0.18723319720E+02 -0.26292478538E+00  0.18726437963E+02  0.00000000000E+00 0. -1.
         11    1    3    3    0    0 -0.22654946638E+02  0.20700951642E+02 -0.18726613378E+02  0.35950828292E+02  0.51100000000E-03 0. -1.
        -11    1    3    3    0    0  0.21794616052E+02 -0.85840913428E+01  0.18511824966E+02  0.29855980588E+02  0.51100000000E-03 0.  1.
        -12    1    3    3    0    0  0.64204641561E+00  0.66064594213E+01  0.47771319663E+00  0.66547531572E+01  0.00000000000E+00 0.  1.
</event>
<event>
 7    1  0.1302069E-013  0.7246154E+02  0.7816164E-02  0.1226708E+00
        -11   -1    0    0    0    0  0.00000000000E+00  0.00000000000E+00  0.45593999997E+02  0.45594000000E+02  0.51100000000E-03 0.  1.
         11   -1    0    0    0    0 -0.00000000000E+00 -0.00000000000E+00 -0.45593999997E+02  0.45594000000E+02  0.51100000000E-03 0. -1.
    9900012    2    1    2    0    0 -0.34046123902E+01 -0.16677944434E+02  0.78060885079E+01  0.72461541876E+02  0.69999962980E+02 0.  0.
         12    1    1    2    0    0  0.34046123902E+01  0.16677944434E+02 -0.78060885079E+01  0.18726458124E+02  0.00000000000E+00 0. -1.
         11    1    3    3    0    0  0.19669657077E+02 -0.18053146614E+02  0.48856512097E+01  0.27141869873E+02  0.51100000000E-03 0.  1.
        -11    1    3    3    0    0 -0.18700557510E+02 -0.41364332219E+01  0.19485469730E+02  0.27322233837E+02  0.51100000000E-03 0. -1.
         12    1    3    3    0    0 -0.43737119574E+01  0.55116354015E+01 -0.16565032431E+02  0.17997438166E+02  0.00000000000E+00 0. -1.
</event>
<event>
 8    1  0.1302069E-013  0.7246153E+02  0.7816164E-02  0.1226708E+00
        -11   -1    0    0    0    0  0.00000000000E+00  0.00000000000E+00  0.45593999997E+02  0.45594000000E+02  0.51100000000E-03 0.  1.
         11   -1    0    0    0    0 -0.00000000000E+00 -0.00000000000E+00 -0.45593999997E+02  0.45594000000E+02  0.51100000000E-03 0. -1.
    9900012    2    1    2    0    0  0.27713630503E+01  0.15003272279E+02  0.10858274414E+02  0.72461527949E+02  0.69999944837E+02 0.  0.
         24    2    3    3    0    0  0.34897351334E+01  0.19848004165E+02  0.20190600075E+02  0.61922088305E+02  0.54959650363E+02 0.  0.
         12    1    1    2    0    0 -0.27713630503E+01 -0.15003272279E+02 -0.10858274414E+02  0.18726472051E+02  0.00000000000E+00 0. -1.
         11    1    3    3    0    0 -0.71837208316E+00 -0.48447318857E+01 -0.93323256616E+01  0.10539439644E+02  0.51100000000E-03 0. -1.
        -11    1    4    4    0    0  0.16412427805E+02  0.32067563114E+02  0.24570991861E+02  0.43605389940E+02  0.51100000000E-03 0.  1.
         12    1    4    4    0    0 -0.12922692672E+02 -0.12219558949E+02 -0.43803917856E+01  0.18316698365E+02  0.00000000000E+00 0. -1.
</event>
<event>
 7    1  0.1302069E-013  0.7246169E+02  0.7816164E-02  0.1226708E+00
        -11   -1    0    0    0    0  0.00000000000E+00  0.00000000000E+00  0.45593999997E+02  0.45594000000E+02  0.51100000000E-03 0.  1.
         11   -1    0    0    0    0 -0.00000000000E+00 -0.00000000000E+00 -0.45593999997E+02  0.45594000000E+02  0.51100000000E-03 0. -1.
    9900012    2    1    2    0    0  0.17550233574E+02  0.63539264127E+01 -0.15138540570E+01  0.72461686068E+02  0.70000150817E+02 0.  0.
         12    1    1    2    0    0 -0.17550233574E+02 -0.63539264127E+01  0.15138540570E+01  0.18726313932E+02  0.00000000000E+00 0. -1.
         11    1    3    3    0    0 -0.12543094961E+01  0.22954728465E+02  0.30811902413E+01  0.23194537822E+02  0.51100000000E-03 0. -1.
        -11    1    3    3    0    0  0.10624950978E+02 -0.25732739998E+02  0.10558938065E+02  0.29775067832E+02  0.51100000000E-03 0.  1.
        -12    1    3    3    0    0  0.81795920926E+01  0.91319379459E+01 -0.15153982363E+02  0.19492080415E+02  0.00000000000E+00 0.  1.
</event>
<event>
 7    1  0.1302069E-013  0.7246156E+02  0.7816164E-02  0.1226708E+00
        -11   -1    0    0    0    0  0.00000000000E+00  0.00000000000E+00  0.45593999997E+02  0.45594000000E+02  0.51100000000E-03 0. -1.
         11   -1    0    0    0    0 -0.00000000000E+00 -0.00000000000E+00 -0.45593999997E+02  0.45594000000E+02  0.51100000000E-03 0.  1.
    9900012    2    1    2    0    0  0.23713292841E+01 -0.18141178058E+02  0.39942645076E+01  0.72461556321E+02  0.69999981797E+02 0.  0.
         12    1    1    2    0    0 -0.23713292841E+01  0.18141178058E+02 -0.39942645076E+01  0.18726443679E+02  0.00000000000E+00 0. -1.
         11    1    3    3    0    0  0.14000180773E+02  0.13228583168E+02  0.14814489239E+02  0.24299579543E+02  0.51100000000E-03 0. -1.
        -11    1    3    3    0    0 -0.38023901192E+01 -0.83429799999E+01 -0.20130651121E+02  0.22120275783E+02  0.51100000000E-03 0.  1.
         12    1    3    3    0    0 -0.78264613694E+01 -0.23026781226E+02  0.93104263892E+01  0.26041700995E+02  0.00000000000E+00 0. -1.
</event>
<event>
 7    1  0.1302069E-013  0.7246147E+02  0.7816164E-02  0.1226708E+00
        -11   -1    0    0    0    0  0.00000000000E+00  0.00000000000E+00  0.45593999997E+02  0.45594000000E+02  0.51100000000E-03 0.  1.
         11   -1    0    0    0    0 -0.00000000000E+00 -0.00000000000E+00 -0.45593999997E+02  0.45594000000E+02  0.51100000000E-03 0. -1.
    9900012    2    1    2    0    0  0.15341803120E+02  0.31401963692E+01  0.10268943290E+02  0.72461469288E+02  0.69999868420E+02 0.  0.
         12    1    1    2    0    0 -0.15341803120E+02 -0.31401963692E+01 -0.10268943290E+02  0.18726530712E+02  0.00000000000E+00 0. -1.
         11    1    3    3    0    0  0.18330351938E+01  0.31007281290E+02 -0.67141559162E+01  0.31778788538E+02  0.51100000000E-03 0. -1.
        -11    1    3    3    0    0  0.17060948424E+02 -0.14560297528E+02  0.14443985137E+02  0.26677835971E+02  0.51100000000E-03 0.  1.
        -12    1    3    3    0    0 -0.35521804972E+01 -0.13306787393E+02  0.25391140687E+01  0.14004844778E+02  0.00000000000E+00 0.  1.
</event>
<event>
 7    1  0.1302069E-013  0.7246161E+02  0.7816164E-02  0.1226708E+00
        -11   -1    0    0    0    0  0.00000000000E+00  0.00000000000E+00  0.45593999997E+02  0.45594000000E+02  0.51100000000E-03 0. -1.
         11   -1    0    0    0    0 -0.00000000000E+00 -0.00000000000E+00 -0.45593999997E+02  0.45594000000E+02  0.51100000000E-03 0.  1.
    9900012    2    1    2    0    0  0.14788459347E+02  0.96078166675E+01 -0.62983319200E+01  0.72461610707E+02  0.70000052645E+02 0.  0.
         12    1    1    2    0    0 -0.14788459347E+02 -0.96078166675E+01  0.62983319200E+01  0.18726389293E+02  0.00000000000E+00 0. -1.
         11    1    3    3    0    0  0.37666157141E+02  0.43516263616E+01 -0.63437095870E+01  0.38443708164E+02  0.51100000000E-03 0. -1.
        -11    1    3    3    0    0 -0.13774532223E+02  0.17493834426E+01 -0.12115485843E+02  0.18427780058E+02  0.51100000000E-03 0.  1.
         12    1    3    3    0    0 -0.91031655711E+01  0.35068068633E+01  0.12160863510E+02  0.15590122485E+02  0.00000000000E+00 0. -1.
</event>
<event>
 7    1  0.1302069E-013  0.7246148E+02  0.7816164E-02  0.1226708E+00
        -11   -1    0    0    0    0  0.00000000000E+00  0.00000000000E+00  0.45593999997E+02  0.45594000000E+02  0.51100000000E-03 0. -1.
         11   -1    0    0    0    0 -0.00000000000E+00 -0.00000000000E+00 -0.45593999997E+02  0.45594000000E+02  0.51100000000E-03 0.  1.
    9900012    2    1    2    0    0 -0.92995782919E+01  0.24113977726E+01  0.16074371508E+02  0.72461483639E+02  0.69999887116E+02 0.  0.
         12    1    1    2    0    0  0.92995782919E+01 -0.24113977726E+01 -0.16074371508E+02  0.18726516361E+02  0.00000000000E+00 0. -1.
         11    1    3    3    0    0  0.35489925900E+01  0.31180181651E+02  0.51158944962E+01  0.31795777282E+02  0.51100000000E-03 0. -1.
        -11    1    3    3    0    0  0.56201065286E+01 -0.13811686281E+02  0.73611173603E+01  0.16629321224E+02  0.51100000000E-03 0.  1.
         12    1    3    3    0    0 -0.18468677410E+02 -0.14957097597E+02  0.35973596516E+01  0.24036385133E+02  0.00000000000E+00 0. -1.
</event>
<event>
 8    1  0.1302069E-013  0.7246154E+02  0.7816164E-02  0.1226708E+00
        -11   -1    0    0    0    0  0.00000000000E+00  0.00000000000E+00  0.45593999997E+02  0.45594000000E+02  0.51100000000E-03 0.  1.
         11   -1    0    0    0    0 -0.00000000000E+00 -0.00000000000E+00 -0.45593999997E+02  0.45594000000E+02  0.51100000000E-03 0. -1.
    9900012    2    1    2    0    0 -0.11937927642E+02  0.52524073260E+01  0.13437945229E+02  0.72461540883E+02  0.69999961686E+02 0.  0.
         24    2    3    3    0    0  0.44102930869E+01  0.57929118225E+01  0.10687008906E+02  0.55874675084E+02  0.54357691672E+02 0.  0.
         12    1    1    2    0    0  0.11937927642E+02 -0.52524073260E+01 -0.13437945229E+02  0.18726459117E+02  0.00000000000E+00 0. -1.
         11    1    3    3    0    0 -0.16348220729E+02 -0.54050449654E+00  0.27509363229E+01  0.16586865799E+02  0.51100000000E-03 0.  1.
        -11    1    4    4    0    0  0.24989349393E+02 -0.11566482576E+02  0.87019563491E+01  0.28878627856E+02  0.51100000000E-03 0. -1.
         12    1    4    4    0    0 -0.20579056306E+02  0.17359394399E+02  0.19850525566E+01  0.26996047229E+02  0.00000000000E+00 0. -1.
</event>
<event>
 8    1  0.1302069E-013  0.7246162E+02  0.7816164E-02  0.1226708E+00
        -11   -1    0    0    0    0  0.00000000000E+00  0.00000000000E+00  0.45593999997E+02  0.45594000000E+02  0.51100000000E-03 0.  1.
         11   -1    0    0    0    0 -0.00000000000E+00 -0.00000000000E+00 -0.45593999997E+02  0.45594000000E+02  0.51100000000E-03 0. -1.
    9900012    2    1    2    0    0 -0.12582147045E+01 -0.18619335169E+02  0.15539295328E+01  0.72461616383E+02  0.70000060039E+02 0.  0.
         24    2    3    3    0    0 -0.13075122908E+02 -0.27087724658E+02 -0.26750456036E+01  0.57321036110E+02  0.48722085808E+02 0.  0.
         12    1    1    2    0    0  0.12582147045E+01  0.18619335169E+02 -0.15539295328E+01  0.18726383617E+02  0.00000000000E+00 0. -1.
         11    1    3    3    0    0  0.11816908204E+02  0.84683894891E+01  0.42289751365E+01  0.15140580273E+02  0.51100000000E-03 0.  1.
        -11    1    4    4    0    0 -0.42851129741E+01 -0.39027958071E+02  0.66270071492E+01  0.39817846858E+02  0.51100000000E-03 0. -1.
         12    1    4    4    0    0 -0.87900099340E+01  0.11940233412E+02 -0.93020527528E+01  0.17503189252E+02  0.00000000000E+00 0. -1.
</event>
<event>
 7    1  0.1302069E-013  0.7246201E+02  0.7816164E-02  0.1226707E+00
        -11   -1    0    0    0    0  0.00000000000E+00  0.00000000000E+00  0.45593999997E+02  0.45594000000E+02  0.51100000000E-03 0. -1.
         11   -1    0    0    0    0 -0.00000000000E+00 -0.00000000000E+00 -0.45593999997E+02  0.45594000000E+02  0.51100000000E-03 0.  1.
    9900012    2    1    2    0    0 -0.14091250725E+01 -0.13835441764E+02 -0.12540246993E+02  0.72462005315E+02  0.70000566693E+02 0.  0.
         12    1    1    2    0    0  0.14091250725E+01  0.13835441764E+02  0.12540246993E+02  0.18725994685E+02  0.00000000000E+00 0. -1.
         11    1    3    3    0    0 -0.14618667018E+02  0.12247927923E+02  0.10023701175E+02  0.21545109637E+02  0.51100000000E-03 0. -1.
        -11    1    3    3    0    0 -0.23955487553E+01 -0.12081234688E+02 -0.26829306781E+02  0.29521290419E+02  0.51100000000E-03 0.  1.
         12    1    3    3    0    0  0.15605090700E+02 -0.14002134999E+02  0.42653586122E+01  0.21395605259E+02  0.00000000000E+00 0. -1.
</event>
<event>
 7    1  0.1302069E-013  0.7246162E+02  0.7816164E-02  0.1226708E+00
        -11   -1    0    0    0    0  0.00000000000E+00  0.00000000000E+00  0.45593999997E+02  0.45594000000E+02  0.51100000000E-03 0.  1.
         11   -1    0    0    0    0 -0.00000000000E+00 -0.00000000000E+00 -0.45593999997E+02  0.45594000000E+02  0.51100000000E-03 0. -1.
    9900012    2    1    2    0    0 -0.15947680633E+02  0.72821157466E+01 -0.65817536750E+01  0.72461622647E+02  0.70000068199E+02 0.  0.
         12    1    1    2    0    0  0.15947680633E+02 -0.72821157466E+01  0.65817536750E+01  0.18726377353E+02  0.00000000000E+00 0. -1.
         11    1    3    3    0    0 -0.34568333100E+01  0.24229786939E+02  0.12523677393E+02  0.27493176741E+02  0.51100000000E-03 0. -1.
        -11    1    3    3    0    0 -0.17580324416E+02 -0.21919623600E+02 -0.41456687820E+01  0.28402892022E+02  0.51100000000E-03 0.  1.
         12    1    3    3    0    0  0.50894770921E+01  0.49719524077E+01 -0.14959762286E+02  0.16565553883E+02  0.00000000000E+00 0. -1.
</event>
<event>
 7    1  0.1302069E-013  0.7246158E+02  0.7816164E-02  0.1226708E+00
        -11   -1    0    0    0    0  0.00000000000E+00  0.00000000000E+00  0.45593999997E+02  0.45594000000E+02  0.51100000000E-03 0.  1.
         11   -1    0    0    0    0 -0.00000000000E+00 -0.00000000000E+00 -0.45593999997E+02  0.45594000000E+02  0.51100000000E-03 0. -1.
    9900012    2    1    2    0    0  0.88468153573E+01  0.16280352879E+02  0.27134102476E+01  0.72461584780E+02  0.70000018870E+02 0.  0.
         12    1    1    2    0    0 -0.88468153573E+01 -0.16280352879E+02 -0.27134102476E+01  0.18726415220E+02  0.00000000000E+00 0. -1.
         11    1    3    3    0    0  0.14357289182E+02  0.14453097770E+02  0.17649701767E+02  0.26954327306E+02  0.51100000000E-03 0.  1.
        -11    1    3    3    0    0  0.11220071094E+02  0.28192932911E+01 -0.23862144069E+02  0.26518678886E+02  0.51100000000E-03 0. -1.
         12    1    3    3    0    0 -0.16730544919E+02 -0.99203818252E+00  0.89258525501E+01  0.18988578588E+02  0.00000000000E+00 0. -1.
</event>
<event>
 7    1  0.1302069E-013  0.7246160E+02  0.7816164E-02  0.1226708E+00
        -11   -1    0    0    0    0  0.00000000000E+00  0.00000000000E+00  0.45593999997E+02  0.45594000000E+02  0.51100000000E-03 0.  1.
         11   -1    0    0    0    0 -0.00000000000E+00 -0.00000000000E+00 -0.45593999997E+02  0.45594000000E+02  0.51100000000E-03 0. -1.
    9900012    2    1    2    0    0 -0.16976789620E-01 -0.13494821784E+02  0.12983359161E+02  0.72461598362E+02  0.70000036564E+02 0.  0.
         12    1    1    2    0    0  0.16976789620E-01  0.13494821784E+02 -0.12983359161E+02  0.18726401638E+02  0.00000000000E+00 0. -1.
         11    1    3    3    0    0 -0.77125920693E+01  0.26642907565E+02  0.12201364242E+02  0.30301846307E+02  0.51100000000E-03 0. -1.
        -11    1    3    3    0    0  0.99362144564E+00 -0.16230554557E+01  0.23633964480E+01  0.30343427000E+01  0.51100000000E-03 0.  1.
         12    1    3    3    0    0  0.67019938340E+01 -0.38514673894E+02 -0.15814015291E+01  0.39125409356E+02  0.00000000000E+00 0. -1.
</event>
<event>
 7    1  0.1302069E-013  0.7246156E+02  0.7816164E-02  0.1226708E+00
        -11   -1    0    0    0    0  0.00000000000E+00  0.00000000000E+00  0.45593999997E+02  0.45594000000E+02  0.51100000000E-03 0. -1.
         11   -1    0    0    0    0 -0.00000000000E+00 -0.00000000000E+00 -0.45593999997E+02  0.45594000000E+02  0.51100000000E-03 0.  1.
    9900012    2    1    2    0    0  0.13946175922E+02 -0.11344331350E+01  0.12445748655E+02  0.72461563581E+02  0.69999991255E+02 0.  0.
         12    1    1    2    0    0 -0.13946175922E+02  0.11344331350E+01 -0.12445748655E+02  0.18726436419E+02  0.00000000000E+00 0. -1.
         11    1    3    3    0    0  0.34185264250E+02  0.70767283910E+01  0.17895967691E+01  0.34955901267E+02  0.51100000000E-03 0. -1.
        -11    1    3    3    0    0 -0.18755183138E+02 -0.17749417415E+02  0.10432042287E+02  0.27850066779E+02  0.51100000000E-03 0.  1.
        -12    1    3    3    0    0 -0.14839051906E+01  0.95382558887E+01  0.22410959929E+00  0.96555955345E+01  0.00000000000E+00 0.  1.
</event>
<event>
 7    1  0.1302069E-013  0.7246160E+02  0.7816164E-02  0.1226708E+00
        -11   -1    0    0    0    0  0.00000000000E+00  0.00000000000E+00  0.45593999997E+02  0.45594000000E+02  0.51100000000E-03 0. -1.
         11   -1    0    0    0    0 -0.00000000000E+00 -0.00000000000E+00 -0.45593999997E+02  0.45594000000E+02  0.51100000000E-03 0.  1.
    9900012    2    1    2    0    0 -0.51402253510E+01 -0.17854864645E+02  0.23366868836E+01  0.72461595814E+02  0.70000033244E+02 0.  0.
         12    1    1    2    0    0  0.51402253510E+01  0.17854864645E+02 -0.23366868836E+01  0.18726404186E+02  0.00000000000E+00 0. -1.
         11    1    3    3    0    0  0.13231034171E+02  0.65472818875E+01 -0.65328701146E+01  0.16143282118E+02  0.51100000000E-03 0.  1.
        -11    1    3    3    0    0 -0.33410595506E+02 -0.10617831265E+02  0.35566570322E+01  0.35237140099E+02  0.51100000000E-03 0. -1.
         12    1    3    3    0    0  0.15039335984E+02 -0.13784315267E+02  0.53128999660E+01  0.21081173598E+02  0.00000000000E+00 0. -1.
</event>
<event>
 7    1  0.1302069E-013  0.7246166E+02  0.7816164E-02  0.1226708E+00
        -11   -1    0    0    0    0  0.00000000000E+00  0.00000000000E+00  0.45593999997E+02  0.45594000000E+02  0.51100000000E-03 0. -1.
         11   -1    0    0    0    0 -0.00000000000E+00 -0.00000000000E+00 -0.45593999997E+02  0.45594000000E+02  0.51100000000E-03 0.  1.
    9900012    2    1    2    0    0  0.14581698301E+02  0.59145845354E+01 -0.10152223929E+02  0.72461657959E+02  0.70000114199E+02 0.  0.
         12    1    1    2    0    0 -0.14581698301E+02 -0.59145845354E+01  0.10152223929E+02  0.18726342041E+02  0.00000000000E+00 0. -1.
         11    1    3    3    0    0  0.15061965992E+02  0.50610735174E+01  0.23202454695E+02  0.28121720944E+02  0.51100000000E-03 0. -1.
        -11    1    3    3    0    0  0.12798853306E+02 -0.41663878537E+01 -0.91374589311E+01  0.16268453819E+02  0.51100000000E-03 0.  1.
         12    1    3    3    0    0 -0.13279120997E+02  0.50198988717E+01 -0.24217219693E+02  0.28071483195E+02  0.00000000000E+00 0. -1.
</event>
<event>
 7    1  0.1302069E-013  0.7246158E+02  0.7816164E-02  0.1226708E+00
        -11   -1    0    0    0    0  0.00000000000E+00  0.00000000000E+00  0.45593999997E+02  0.45594000000E+02  0.51100000000E-03 0.  1.
         11   -1    0    0    0    0 -0.00000000000E+00 -0.00000000000E+00 -0.45593999997E+02  0.45594000000E+02  0.51100000000E-03 0. -1.
    9900012    2    1    2    0    0 -0.15156162150E+01  0.11096189899E+02  0.15008542180E+02  0.72461578528E+02  0.70000010725E+02 0.  0.
         12    1    1    2    0    0  0.15156162150E+01 -0.11096189899E+02 -0.15008542180E+02  0.18726421472E+02  0.00000000000E+00 0. -1.
         11    1    3    3    0    0 -0.14347986063E+02 -0.25794464134E+02  0.19390444881E+01  0.29580043574E+02  0.51100000000E-03 0. -1.
        -11    1    3    3    0    0  0.95732200174E+01  0.21177716628E+02  0.13406694625E+02  0.26830610953E+02  0.51100000000E-03 0.  1.
         12    1    3    3    0    0  0.32591498303E+01  0.15712937405E+02 -0.33719693295E+00  0.16050924001E+02  0.00000000000E+00 0. -1.
</event>
<event>
 7    1  0.1302069E-013  0.7246158E+02  0.7816164E-02  0.1226708E+00
        -11   -1    0    0    0    0  0.00000000000E+00  0.00000000000E+00  0.45593999997E+02  0.45594000000E+02  0.51100000000E-03 0. -1.
         11   -1    0    0    0    0 -0.00000000000E+00 -0.00000000000E+00 -0.45593999997E+02  0.45594000000E+02  0.51100000000E-03 0.  1.
    9900012    2    1    2    0    0 -0.12049708363E+01  0.17153547286E+02 -0.74150280872E+01  0.72461580675E+02  0.70000013523E+02 0.  0.
         12    1    1    2    0    0  0.12049708363E+01 -0.17153547286E+02  0.74150280872E+01  0.18726419325E+02  0.00000000000E+00 0. -1.
         11    1    3    3    0    0  0.26628837382E+01 -0.10065533648E+02  0.44221671710E+01  0.11312006019E+02  0.51100000000E-03 0. -1.
        -11    1    3    3    0    0 -0.16080125392E+02  0.38332632115E+02 -0.13541115108E+01  0.41590801095E+02  0.51100000000E-03 0.  1.
        -12    1    3    3    0    0  0.12212270817E+02 -0.11113551182E+02 -0.10483083747E+02  0.19558773562E+02  0.00000000000E+00 0.  1.
</event>
<event>
 7    1  0.1302069E-013  0.7246163E+02  0.7816164E-02  0.1226708E+00
        -11   -1    0    0    0    0  0.00000000000E+00  0.00000000000E+00  0.45593999997E+02  0.45594000000E+02  0.51100000000E-03 0.  1.
         11   -1    0    0    0    0 -0.00000000000E+00 -0.00000000000E+00 -0.45593999997E+02  0.45594000000E+02  0.51100000000E-03 0. -1.
    9900012    2    1    2    0    0 -0.82556640881E+01  0.16633507437E+02 -0.24181726359E+01  0.72461625068E+02  0.70000071353E+02 0.  0.
         12    1    1    2    0    0  0.82556640881E+01 -0.16633507437E+02  0.24181726359E+01  0.18726374932E+02  0.00000000000E+00 0. -1.
         11    1    3    3    0    0 -0.18004136925E+02 -0.12336598968E+02 -0.78466259601E+00  0.21839329572E+02  0.51100000000E-03 0. -1.
        -11    1    3    3    0    0  0.12324823970E+02  0.58676145471E+01 -0.17709157303E+02  0.22359437358E+02  0.51100000000E-03 0.  1.
        -12    1    3    3    0    0 -0.25763511331E+01  0.23102491858E+02  0.16075647263E+02  0.28262858138E+02  0.00000000000E+00 0.  1.
</event>
<event>
 7    1  0.1302069E-013  0.7246160E+02  0.7816164E-02  0.1226708E+00
        -11   -1    0    0    0    0  0.00000000000E+00  0.00000000000E+00  0.45593999997E+02  0.45594000000E+02  0.51100000000E-03 0. -1.
         11   -1    0    0    0    0 -0.00000000000E+00 -0.00000000000E+00 -0.45593999997E+02  0.45594000000E+02  0.51100000000E-03 0.  1.
    9900012    2    1    2    0    0 -0.15979741265E+02 -0.14367617437E+01 -0.96572095793E+01  0.72461598528E+02  0.70000036780E+02 0.  0.
         12    1    1    2    0    0  0.15979741265E+02  0.14367617437E+01  0.96572095793E+01  0.18726401472E+02  0.00000000000E+00 0. -1.
         11    1    3    3    0    0 -0.13714017635E+02 -0.19927706833E+02  0.19780570343E+02  0.31248339839E+02  0.51100000000E-03 0. -1.
        -11    1    3    3    0    0 -0.68978445770E+01  0.70167775511E+01 -0.26816648219E+02  0.28564804374E+02  0.51100000000E-03 0.  1.
        -12    1    3    3    0    0  0.46321209469E+01  0.11474167538E+02 -0.26211317042E+01  0.12648454315E+02  0.00000000000E+00 0.  1.
</event>
<event>
 7    1  0.1302069E-013  0.7246151E+02  0.7816164E-02  0.1226708E+00
        -11   -1    0    0    0    0  0.00000000000E+00  0.00000000000E+00  0.45593999997E+02  0.45594000000E+02  0.51100000000E-03 0.  1.
         11   -1    0    0    0    0 -0.00000000000E+00 -0.00000000000E+00 -0.45593999997E+02  0.45594000000E+02  0.51100000000E-03 0. -1.
    9900012    2    1    2    0    0  0.13769876896E+02 -0.25068106258E+01  0.12441368388E+02  0.72461514568E+02  0.69999927406E+02 0.  0.
         12    1    1    2    0    0 -0.13769876896E+02  0.25068106258E+01 -0.12441368388E+02  0.18726485432E+02  0.00000000000E+00 0. -1.
         11    1    3    3    0    0 -0.57066321882E+01 -0.11793676596E+02  0.38457513496E+01  0.13654532665E+02  0.51100000000E-03 0. -1.
        -11    1    3    3    0    0  0.16498178616E+02  0.24392762714E+02  0.23273711738E+02  0.37534816222E+02  0.51100000000E-03 0.  1.
        -12    1    3    3    0    0  0.29783304683E+01 -0.15105896743E+02 -0.14678094699E+02  0.21272165682E+02  0.00000000000E+00 0.  1.
</event>
<event>
 7    1  0.1302069E-013  0.7246157E+02  0.7816164E-02  0.1226708E+00
        -11   -1    0    0    0    0  0.00000000000E+00  0.00000000000E+00  0.45593999997E+02  0.45594000000E+02  0.51100000000E-03 0.  1.
         11   -1    0    0    0    0 -0.00000000000E+00 -0.00000000000E+00 -0.45593999997E+02  0.45594000000E+02  0.51100000000E-03 0. -1.
    9900012    2    1    2    0    0 -0.15322634326E+01 -0.15855498417E+02  0.98455397369E+01  0.72461566437E+02  0.69999994975E+02 0.  0.
         12    1    1    2    0    0  0.15322634326E+01  0.15855498417E+02 -0.98455397369E+01  0.18726433563E+02  0.00000000000E+00 0. -1.
         11    1    3    3    0    0 -0.63619244743E+01 -0.40213410866E+02  0.11593033689E+02  0.42331913811E+02  0.51100000000E-03 0. -1.
        -11    1    3    3    0    0 -0.28067726943E+01  0.18564483031E+02 -0.59040749289E+01  0.19681872477E+02  0.51100000000E-03 0.  1.
         12    1    3    3    0    0  0.76364337360E+01  0.57934294182E+01  0.41565809771E+01  0.10447780149E+02  0.00000000000E+00 0. -1.
</event>
<event>
 7    1  0.1302069E-013  0.7246157E+02  0.7816164E-02  0.1226708E+00
        -11   -1    0    0    0    0  0.00000000000E+00  0.00000000000E+00  0.45593999997E+02  0.45594000000E+02  0.51100000000E-03 0. -1.
         11   -1    0    0    0    0 -0.00000000000E+00 -0.00000000000E+00 -0.45593999997E+02  0.45594000000E+02  0.51100000000E-03 0.  1.
    9900012    2    1    2    0    0 -0.28318828240E+01  0.11543063161E+02 -0.14471260021E+02  0.72461568571E+02  0.69999997755E+02 0.  0.
         12    1    1    2    0    0  0.28318828240E+01 -0.11543063161E+02  0.14471260021E+02  0.18726431429E+02  0.00000000000E+00 0. -1.
         11    1    3    3    0    0  0.14346628525E+01  0.20271192871E+01  0.74184374361E+01  0.78230866261E+01  0.51100000000E-03 0. -1.
        -11    1    3    3    0    0 -0.10322879410E+02 -0.17650446186E+02 -0.29398413634E+02  0.35810149599E+02  0.51100000000E-03 0.  1.
        -12    1    3    3    0    0  0.60563337339E+01  0.27166390060E+02  0.75087161763E+01  0.28828332345E+02  0.00000000000E+00 0.  1.
</event>
<event>
 7    1  0.1302069E-013  0.7246156E+02  0.7816164E-02  0.1226708E+00
        -11   -1    0    0    0    0  0.00000000000E+00  0.00000000000E+00  0.45593999997E+02  0.45594000000E+02  0.51100000000E-03 0. -1.
         11   -1    0    0    0    0 -0.00000000000E+00 -0.00000000000E+00 -0.45593999997E+02  0.45594000000E+02  0.51100000000E-03 0.  1.
    9900012    2    1    2    0    0  0.12391777388E+02 -0.96909526463E+01 -0.10159169753E+02  0.72461563070E+02  0.69999990589E+02 0.  0.
         12    1    1    2    0    0 -0.12391777388E+02  0.96909526463E+01  0.10159169753E+02  0.18726436930E+02  0.00000000000E+00 0. -1.
         11    1    3    3    0    0  0.15069899673E+01  0.77538303151E+01  0.17804089356E+02  0.19477641063E+02  0.51100000000E-03 0. -1.
        -11    1    3    3    0    0  0.68672466125E+01 -0.18738600751E+02 -0.37541718557E+02  0.42516759832E+02  0.51100000000E-03 0.  1.
        -12    1    3    3    0    0  0.40175408079E+01  0.12938177897E+01  0.95784594478E+01  0.10467162176E+02  0.00000000000E+00 0.  1.
</event>
<event>
 7    1  0.1302069E-013  0.7246147E+02  0.7816164E-02  0.1226708E+00
        -11   -1    0    0    0    0  0.00000000000E+00  0.00000000000E+00  0.45593999997E+02  0.45594000000E+02  0.51100000000E-03 0. -1.
         11   -1    0    0    0    0 -0.00000000000E+00 -0.00000000000E+00 -0.45593999997E+02  0.45594000000E+02  0.51100000000E-03 0.  1.
    9900012    2    1    2    0    0 -0.18426881986E+02 -0.75508772327E+00 -0.32500663650E+01  0.72461466189E+02  0.69999864383E+02 0.  0.
         12    1    1    2    0    0  0.18426881986E+02  0.75508772327E+00  0.32500663650E+01  0.18726533811E+02  0.00000000000E+00 0. -1.
         11    1    3    3    0    0  0.86775477285E+01 -0.21589055320E+01  0.82618231510E+01  0.12174499157E+02  0.51100000000E-03 0. -1.
        -11    1    3    3    0    0  0.12461148220E+00  0.13508383927E+02 -0.24345642154E+02  0.27842454211E+02  0.51100000000E-03 0.  1.
        -12    1    3    3    0    0 -0.27229041197E+02 -0.12104566119E+02  0.12833752638E+02  0.32444512821E+02  0.00000000000E+00 0.  1.
</event>
<event>
 7    1  0.1302069E-013  0.7246166E+02  0.7816164E-02  0.1226708E+00
        -11   -1    0    0    0    0  0.00000000000E+00  0.00000000000E+00  0.45593999997E+02  0.45594000000E+02  0.51100000000E-03 0.  1.
         11   -1    0    0    0    0 -0.00000000000E+00 -0.00000000000E+00 -0.45593999997E+02  0.45594000000E+02  0.51100000000E-03 0. -1.
    9900012    2    1    2    0    0  0.12473967404E+02  0.13746852516E+02  0.24697934524E+01  0.72461663023E+02  0.70000120796E+02 0.  0.
         12    1    1    2    0    0 -0.12473967404E+02 -0.13746852516E+02 -0.24697934524E+01  0.18726336977E+02  0.00000000000E+00 0. -1.
         11    1    3    3    0    0 -0.13048865521E+02  0.98807346848E+01 -0.18154485126E+02  0.24443550065E+02  0.51100000000E-03 0. -1.
        -11    1    3    3    0    0  0.13102913914E+02 -0.14017789653E+02  0.18661690316E+01  0.19278676483E+02  0.51100000000E-03 0.  1.
        -12    1    3    3    0    0  0.12419919011E+02  0.17883907484E+02  0.18758109547E+02  0.28739436476E+02  0.00000000000E+00 0.  1.
</event>
<event>
 7    1  0.1302069E-013  0.7246154E+02  0.7816164E-02  0.1226708E+00
        -11   -1    0    0    0    0  0.00000000000E+00  0.00000000000E+00  0.45593999997E+02  0.45594000000E+02  0.51100000000E-03 0. -1.
         11   -1    0    0    0    0 -0.00000000000E+00 -0.00000000000E+00 -0.45593999997E+02  0.45594000000E+02  0.51100000000E-03 0.  1.
    9900012    2    1    2    0    0  0.15516062026E+02 -0.88347209870E+01 -0.56462334130E+01  0.72461536707E+02  0.69999956246E+02 0.  0.
         12    1    1    2    0    0 -0.15516062026E+02  0.88347209870E+01  0.56462334130E+01  0.18726463293E+02  0.00000000000E+00 0. -1.
         11    1    3    3    0    0  0.62428195847E+01 -0.32097822324E+01  0.96618852946E+01  0.11942676670E+02  0.51100000000E-03 0. -1.
        -11    1    3    3    0    0 -0.21717238042E+02  0.50771603252E+01 -0.16449178879E+02  0.27712659042E+02  0.51100000000E-03 0.  1.
        -12    1    3    3    0    0  0.30990480484E+02 -0.10702099080E+02  0.11410601710E+01  0.32806200994E+02  0.00000000000E+00 0.  1.
</event>
<event>
 7    1  0.1302069E-013  0.7246158E+02  0.7816164E-02  0.1226708E+00
        -11   -1    0    0    0    0  0.00000000000E+00  0.00000000000E+00  0.45593999997E+02  0.45594000000E+02  0.51100000000E-03 0.  1.
         11   -1    0    0    0    0 -0.00000000000E+00 -0.00000000000E+00 -0.45593999997E+02  0.45594000000E+02  0.51100000000E-03 0. -1.
    9900012    2    1    2    0    0 -0.16915852538E+02  0.43016513859E+01  0.67844423819E+01  0.72461576685E+02  0.70000008326E+02 0.  0.
         12    1    1    2    0    0  0.16915852538E+02 -0.43016513859E+01 -0.67844423819E+01  0.18726423315E+02  0.00000000000E+00 0. -1.
         11    1    3    3    0    0 -0.18982539297E+02  0.13401744244E+02 -0.11980300295E+02  0.26143281018E+02  0.51100000000E-03 0. -1.
        -11    1    3    3    0    0 -0.78755511052E+01 -0.22367618367E+02  0.38629529068E+01  0.24026174520E+02  0.51100000000E-03 0.  1.
        -12    1    3    3    0    0  0.99422378647E+01  0.13267525509E+02  0.14901789770E+02  0.22292121148E+02  0.00000000000E+00 0.  1.
</event>
<event>
 7    1  0.1302069E-013  0.7246161E+02  0.7816164E-02  0.1226708E+00
        -11   -1    0    0    0    0  0.00000000000E+00  0.00000000000E+00  0.45593999997E+02  0.45594000000E+02  0.51100000000E-03 0. -1.
         11   -1    0    0    0    0 -0.00000000000E+00 -0.00000000000E+00 -0.45593999997E+02  0.45594000000E+02  0.51100000000E-03 0.  1.
    9900012    2    1    2    0    0  0.18675104067E+02  0.13441471210E+01 -0.33360094004E+00  0.72461613991E+02  0.70000056922E+02 0.  0.
         12    1    1    2    0    0 -0.18675104067E+02 -0.13441471210E+01  0.33360094004E+00  0.18726386009E+02  0.00000000000E+00 0. -1.
         11    1    3    3    0    0 -0.20799979893E+02 -0.28618215913E+01  0.60055323276E+01  0.21837939582E+02  0.51100000000E-03 0. -1.
        -11    1    3    3    0    0  0.11438665565E+02  0.13198763742E+02 -0.11247578473E+02  0.20773985077E+02  0.51100000000E-03 0.  1.
         12    1    3    3    0    0  0.28036418395E+02 -0.89927950299E+01  0.49084452049E+01  0.29849689332E+02  0.00000000000E+00 0. -1.
</event>
<event>
 7    1  0.1302069E-013  0.7246153E+02  0.7816164E-02  0.1226708E+00
        -11   -1    0    0    0    0  0.00000000000E+00  0.00000000000E+00  0.45593999997E+02  0.45594000000E+02  0.51100000000E-03 0.  1.
         11   -1    0    0    0    0 -0.00000000000E+00 -0.00000000000E+00 -0.45593999997E+02  0.45594000000E+02  0.51100000000E-03 0. -1.
    9900012    2    1    2    0    0  0.47229231533E+01 -0.16771979046E+02  0.68611602916E+01  0.72461526633E+02  0.69999943123E+02 0.  0.
         12    1    1    2    0    0 -0.47229231533E+01  0.16771979046E+02 -0.68611602916E+01  0.18726473367E+02  0.00000000000E+00 0. -1.
         11    1    3    3    0    0 -0.19073597314E+02 -0.15239001125E+02  0.93842460811E+01  0.26155178159E+02  0.51100000000E-03 0. -1.
        -11    1    3    3    0    0  0.19464888887E+02 -0.19545900171E+02 -0.31849075813E+01  0.27768106695E+02  0.51100000000E-03 0.  1.
         12    1    3    3    0    0  0.43316315796E+01  0.18012922251E+02  0.66182179179E+00  0.18538241778E+02  0.00000000000E+00 0. -1.
</event>
<event>
 7    1  0.1302069E-013  0.7246189E+02  0.7816164E-02  0.1226707E+00
        -11   -1    0    0    0    0  0.00000000000E+00  0.00000000000E+00  0.45593999997E+02  0.45594000000E+02  0.51100000000E-03 0.  1.
         11   -1    0    0    0    0 -0.00000000000E+00 -0.00000000000E+00 -0.45593999997E+02  0.45594000000E+02  0.51100000000E-03 0. -1.
    9900012    2    1    2    0    0 -0.13447894831E+02  0.67295847609E+01  0.11159478559E+02  0.72461891270E+02  0.70000418129E+02 0.  0.
         12    1    1    2    0    0  0.13447894831E+02 -0.67295847609E+01 -0.11159478559E+02  0.18726108730E+02  0.00000000000E+00 0. -1.
         11    1    3    3    0    0 -0.22997492934E+02  0.12426722084E+02  0.25379276368E+02  0.36433717519E+02  0.51100000000E-03 0.  1.
        -11    1    3    3    0    0  0.17274068914E+02 -0.95971935737E+00 -0.19071563756E+02  0.25749544898E+02  0.51100000000E-03 0. -1.
         12    1    3    3    0    0 -0.77244708119E+01 -0.47374179660E+01  0.48517659469E+01  0.10278628854E+02  0.00000000000E+00 0. -1.
</event>
<event>
 7    1  0.1302069E-013  0.7246144E+02  0.7816164E-02  0.1226708E+00
        -11   -1    0    0    0    0  0.00000000000E+00  0.00000000000E+00  0.45593999997E+02  0.45594000000E+02  0.51100000000E-03 0. -1.
         11   -1    0    0    0    0 -0.00000000000E+00 -0.00000000000E+00 -0.45593999997E+02  0.45594000000E+02  0.51100000000E-03 0.  1.
    9900012    2    1    2    0    0 -0.57376081276E+01 -0.15676734166E+02 -0.84855202621E+01  0.72461436106E+02  0.69999825195E+02 0.  0.
         12    1    1    2    0    0  0.57376081276E+01  0.15676734166E+02  0.84855202621E+01  0.18726563894E+02  0.00000000000E+00 0. -1.
         11    1    3    3    0    0  0.85486270332E+01 -0.10770679575E+02  0.79736120948E+01  0.15895441257E+02  0.51100000000E-03 0. -1.
        -11    1    3    3    0    0  0.76434867353E+01  0.16468859776E+02 -0.18440396535E+02  0.25878455449E+02  0.51100000000E-03 0.  1.
        -12    1    3    3    0    0 -0.21929721896E+02 -0.21374914368E+02  0.19812641781E+01  0.30687539400E+02  0.00000000000E+00 0.  1.
</event>
<event>
 7    1  0.1302069E-013  0.7246161E+02  0.7816164E-02  0.1226708E+00
        -11   -1    0    0    0    0  0.00000000000E+00  0.00000000000E+00  0.45593999997E+02  0.45594000000E+02  0.51100000000E-03 0.  1.
         11   -1    0    0    0    0 -0.00000000000E+00 -0.00000000000E+00 -0.45593999997E+02  0.45594000000E+02  0.51100000000E-03 0. -1.
    9900012    2    1    2    0    0 -0.94037209227E+01 -0.95866717796E+01  0.13051567661E+02  0.72461610561E+02  0.70000052455E+02 0.  0.
         12    1    1    2    0    0  0.94037209227E+01  0.95866717796E+01 -0.13051567661E+02  0.18726389439E+02  0.00000000000E+00 0. -1.
         11    1    3    3    0    0  0.16325188174E+02  0.55400753506E+01 -0.58473556892E+01  0.18204278964E+02  0.51100000000E-03 0. -1.
        -11    1    3    3    0    0 -0.73965744409E+01 -0.23040949480E+02  0.23537327297E+02  0.33757968584E+02  0.51100000000E-03 0.  1.
        -12    1    3    3    0    0 -0.18332334655E+02  0.79142023496E+01 -0.46384039466E+01  0.20499363013E+02  0.00000000000E+00 0.  1.
</event>
<event>
 7    1  0.1302069E-013  0.7246164E+02  0.7816164E-02  0.1226708E+00
        -11   -1    0    0    0    0  0.00000000000E+00  0.00000000000E+00  0.45593999997E+02  0.45594000000E+02  0.51100000000E-03 0. -1.
         11   -1    0    0    0    0 -0.00000000000E+00 -0.00000000000E+00 -0.45593999997E+02  0.45594000000E+02  0.51100000000E-03 0.  1.
    9900012    2    1    2    0    0 -0.10676939317E+02  0.60429272674E+01  0.14147882178E+02  0.72461639615E+02  0.70000090303E+02 0.  0.
         12    1    1    2    0    0  0.10676939317E+02 -0.60429272674E+01 -0.14147882178E+02  0.18726360385E+02  0.00000000000E+00 0. -1.
         11    1    3    3    0    0  0.12705579467E+02 -0.21602105042E+02  0.17129116025E+02  0.30356042362E+02  0.51100000000E-03 0. -1.
        -11    1    3    3    0    0 -0.75770145682E+01  0.13209455363E+02 -0.11483979533E+02  0.19073086979E+02  0.51100000000E-03 0.  1.
         12    1    3    3    0    0 -0.15805504216E+02  0.14435576946E+02  0.85027456861E+01  0.23032510273E+02  0.00000000000E+00 0. -1.
</event>
<event>
 7    1  0.1302069E-013  0.7246157E+02  0.7816164E-02  0.1226708E+00
        -11   -1    0    0    0    0  0.00000000000E+00  0.00000000000E+00  0.45593999997E+02  0.45594000000E+02  0.51100000000E-03 0.  1.
         11   -1    0    0    0    0 -0.00000000000E+00 -0.00000000000E+00 -0.45593999997E+02  0.45594000000E+02  0.51100000000E-03 0. -1.
    9900012    2    1    2    0    0 -0.74021768768E+01 -0.17198791910E+02 -0.29755818823E+00  0.72461569305E+02  0.69999998712E+02 0.  0.
         12    1    1    2    0    0  0.74021768768E+01  0.17198791910E+02  0.29755818823E+00  0.18726430695E+02  0.00000000000E+00 0. -1.
         11    1    3    3    0    0 -0.18540392288E+02  0.44547229815E+01 -0.76521837408E+01  0.20546206932E+02  0.51100000000E-03 0. -1.
        -11    1    3    3    0    0  0.20412229245E+01 -0.27239134969E+02  0.21096958491E+02  0.34514036604E+02  0.51100000000E-03 0.  1.
        -12    1    3    3    0    0  0.90969924863E+01  0.55856200776E+01 -0.13742332938E+02  0.17401325769E+02  0.00000000000E+00 0.  1.
</event>
<event>
 7    1  0.1302069E-013  0.7246164E+02  0.7816164E-02  0.1226708E+00
        -11   -1    0    0    0    0  0.00000000000E+00  0.00000000000E+00  0.45593999997E+02  0.45594000000E+02  0.51100000000E-03 0.  1.
         11   -1    0    0    0    0 -0.00000000000E+00 -0.00000000000E+00 -0.45593999997E+02  0.45594000000E+02  0.51100000000E-03 0. -1.
    9900012    2    1    2    0    0  0.12075057869E+02 -0.10170624471E+02  0.10071138149E+02  0.72461642952E+02  0.70000094650E+02 0.  0.
         12    1    1    2    0    0 -0.12075057869E+02  0.10170624471E+02 -0.10071138149E+02  0.18726357048E+02  0.00000000000E+00 0. -1.
         11    1    3    3    0    0  0.33747272849E+01 -0.25093194075E+02  0.26438247034E+02  0.36606530559E+02  0.51100000000E-03 0. -1.
        -11    1    3    3    0    0  0.16142009262E+02  0.49859673259E+01 -0.22301448753E+01  0.17041064509E+02  0.51100000000E-03 0.  1.
         12    1    3    3    0    0 -0.74416786775E+01  0.99366022774E+01 -0.14136964010E+02  0.18814047884E+02  0.00000000000E+00 0. -1.
</event>
<event>
 7    1  0.1302069E-013  0.7246172E+02  0.7816164E-02  0.1226708E+00
        -11   -1    0    0    0    0  0.00000000000E+00  0.00000000000E+00  0.45593999997E+02  0.45594000000E+02  0.51100000000E-03 0.  1.
         11   -1    0    0    0    0 -0.00000000000E+00 -0.00000000000E+00 -0.45593999997E+02  0.45594000000E+02  0.51100000000E-03 0. -1.
    9900012    2    1    2    0    0 -0.31104169217E+01 -0.69465631216E+01  0.17109762578E+02  0.72461724126E+02  0.70000200395E+02 0.  0.
         12    1    1    2    0    0  0.31104169217E+01  0.69465631216E+01 -0.17109762578E+02  0.18726275874E+02  0.00000000000E+00 0. -1.
         11    1    3    3    0    0 -0.20480768902E+02 -0.20502909780E+01  0.18535802418E+02  0.27699125608E+02  0.51100000000E-03 0. -1.
        -11    1    3    3    0    0  0.57840468959E+01 -0.19926868278E+02 -0.11023602156E+02  0.23495852456E+02  0.51100000000E-03 0.  1.
         12    1    3    3    0    0  0.11586305085E+02  0.15030596135E+02  0.95975623150E+01  0.21266746062E+02  0.00000000000E+00 0. -1.
</event>
<event>
 7    1  0.1302069E-013  0.7246162E+02  0.7816164E-02  0.1226708E+00
        -11   -1    0    0    0    0  0.00000000000E+00  0.00000000000E+00  0.45593999997E+02  0.45594000000E+02  0.51100000000E-03 0.  1.
         11   -1    0    0    0    0 -0.00000000000E+00 -0.00000000000E+00 -0.45593999997E+02  0.45594000000E+02  0.51100000000E-03 0. -1.
    9900012    2    1    2    0    0 -0.12160089559E+02 -0.11789550768E+02  0.79884853470E+01  0.72461623321E+02  0.70000069077E+02 0.  0.
         12    1    1    2    0    0  0.12160089559E+02  0.11789550768E+02 -0.79884853470E+01  0.18726376679E+02  0.00000000000E+00 0. -1.
         11    1    3    3    0    0 -0.38577405266E+01 -0.16317464512E+02 -0.12755836230E+02  0.21067823055E+02  0.51100000000E-03 0. -1.
        -11    1    3    3    0    0  0.17488024562E+02  0.73850323837E+01  0.16396005557E+02  0.25083833537E+02  0.51100000000E-03 0.  1.
         12    1    3    3    0    0 -0.25790373595E+02 -0.28571186393E+01  0.43483160193E+01  0.26309966729E+02  0.00000000000E+00 0. -1.
</event>
<event>
 7    1  0.1302069E-013  0.7246156E+02  0.7816164E-02  0.1226708E+00
        -11   -1    0    0    0    0  0.00000000000E+00  0.00000000000E+00  0.45593999997E+02  0.45594000000E+02  0.51100000000E-03 0.  1.
         11   -1    0    0    0    0 -0.00000000000E+00 -0.00000000000E+00 -0.45593999997E+02  0.45594000000E+02  0.51100000000E-03 0. -1.
    9900012    2    1    2    0    0  0.90078618126E+01  0.89119664671E+01  0.13788218885E+02  0.72461556110E+02  0.69999981523E+02 0.  0.
         12    1    1    2    0    0 -0.90078618126E+01 -0.89119664671E+01 -0.13788218885E+02  0.18726443890E+02  0.00000000000E+00 0. -1.
         11    1    3    3    0    0  0.10928350211E+02  0.28958092256E+01 -0.17752401300E+02  0.21046669608E+02  0.51100000000E-03 0. -1.
        -11    1    3    3    0    0  0.13289847143E+02  0.11978400358E+02  0.30097995200E+02  0.35014160387E+02  0.51100000000E-03 0.  1.
        -12    1    3    3    0    0 -0.15210335542E+02 -0.59622431167E+01  0.14426249847E+01  0.16400726116E+02  0.00000000000E+00 0.  1.
</event>
<event>
 7    1  0.1302069E-013  0.7246184E+02  0.7816164E-02  0.1226707E+00
        -11   -1    0    0    0    0  0.00000000000E+00  0.00000000000E+00  0.45593999997E+02  0.45594000000E+02  0.51100000000E-03 0.  1.
         11   -1    0    0    0    0 -0.00000000000E+00 -0.00000000000E+00 -0.45593999997E+02  0.45594000000E+02  0.51100000000E-03 0. -1.
    9900012    2    1    2    0    0 -0.25647790841E+01 -0.69050002767E+01  0.17216622178E+02  0.72461836490E+02  0.70000346769E+02 0.  0.
         12    1    1    2    0    0  0.25647790841E+01  0.69050002767E+01 -0.17216622178E+02  0.18726163510E+02  0.00000000000E+00 0. -1.
         11    1    3    3    0    0  0.22046330155E+02  0.10081793834E+02  0.22480414430E+02  0.33061341071E+02  0.51100000000E-03 0. -1.
        -11    1    3    3    0    0  0.18967545485E+01 -0.11843300783E+02 -0.25490995220E+01  0.12262110743E+02  0.51100000000E-03 0.  1.
         12    1    3    3    0    0 -0.26507863788E+02 -0.51434933278E+01 -0.27146927298E+01  0.27138384676E+02  0.00000000000E+00 0. -1.
</event>
<event>
 7    1  0.1302069E-013  0.7246162E+02  0.7816164E-02  0.1226708E+00
        -11   -1    0    0    0    0  0.00000000000E+00  0.00000000000E+00  0.45593999997E+02  0.45594000000E+02  0.51100000000E-03 0. -1.
         11   -1    0    0    0    0 -0.00000000000E+00 -0.00000000000E+00 -0.45593999997E+02  0.45594000000E+02  0.51100000000E-03 0.  1.
    9900012    2    1    2    0    0  0.33646092433E+01  0.14583025685E+02  0.11255759772E+02  0.72461618568E+02  0.70000062885E+02 0.  0.
         12    1    1    2    0    0 -0.33646092433E+01 -0.14583025685E+02 -0.11255759772E+02  0.18726381432E+02  0.00000000000E+00 0. -1.
         11    1    3    3    0    0  0.14266911723E+02 -0.19089878514E+02  0.12145890882E+02  0.26748661599E+02  0.51100000000E-03 0. -1.
        -11    1    3    3    0    0 -0.14304629919E+02  0.24279907752E+02  0.10939501318E+02  0.30229274667E+02  0.51100000000E-03 0.  1.
        -12    1    3    3    0    0  0.34023274392E+01  0.93929964463E+01 -0.11829632427E+02  0.15483682301E+02  0.00000000000E+00 0.  1.
</event>
<event>
 7    1  0.1302069E-013  0.7246140E+02  0.7816164E-02  0.1226708E+00
        -11   -1    0    0    0    0  0.00000000000E+00  0.00000000000E+00  0.45593999997E+02  0.45594000000E+02  0.51100000000E-03 0.  1.
         11   -1    0    0    0    0 -0.00000000000E+00 -0.00000000000E+00 -0.45593999997E+02  0.45594000000E+02  0.51100000000E-03 0. -1.
    9900012    2    1    2    0    0 -0.24663102501E+01  0.32491092853E+01  0.18276929421E+02  0.72461400029E+02  0.69999778198E+02 0.  0.
         12    1    1    2    0    0  0.24663102501E+01 -0.32491092853E+01 -0.18276929421E+02  0.18726599971E+02  0.00000000000E+00 0. -1.
         11    1    3    3    0    0 -0.13029231198E+02  0.26993897565E+02  0.13490490852E+02  0.32869814649E+02  0.51100000000E-03 0. -1.
        -11    1    3    3    0    0  0.17192622667E+01 -0.18531303574E+02 -0.10355273617E+02  0.21297811316E+02  0.51100000000E-03 0.  1.
         12    1    3    3    0    0  0.88436586808E+01 -0.52134847051E+01  0.15141712185E+02  0.18293774065E+02  0.00000000000E+00 0. -1.
</event>
<event>
 7    1  0.1302069E-013  0.7246157E+02  0.7816164E-02  0.1226708E+00
        -11   -1    0    0    0    0  0.00000000000E+00  0.00000000000E+00  0.45593999997E+02  0.45594000000E+02  0.51100000000E-03 0.  1.
         11   -1    0    0    0    0 -0.00000000000E+00 -0.00000000000E+00 -0.45593999997E+02  0.45594000000E+02  0.51100000000E-03 0. -1.
    9900012    2    1    2    0    0  0.13021780685E+02 -0.10437536275E+02  0.84953109367E+01  0.72461568316E+02  0.69999997422E+02 0.  0.
         12    1    1    2    0    0 -0.13021780685E+02  0.10437536275E+02 -0.84953109367E+01  0.18726431684E+02  0.00000000000E+00 0. -1.
         11    1    3    3    0    0  0.55350471408E+01 -0.31372031037E+02  0.11689922289E+02  0.33933690657E+02  0.51100000000E-03 0.  1.
        -11    1    3    3    0    0  0.29768581503E+01  0.25886167747E+02 -0.10964547293E+02  0.28269712815E+02  0.51100000000E-03 0. -1.
         12    1    3    3    0    0  0.45098753943E+01 -0.49516729851E+01  0.77699359407E+01  0.10258164843E+02  0.00000000000E+00 0. -1.
</event>
<event>
 7    1  0.1302069E-013  0.7246157E+02  0.7816164E-02  0.1226708E+00
        -11   -1    0    0    0    0  0.00000000000E+00  0.00000000000E+00  0.45593999997E+02  0.45594000000E+02  0.51100000000E-03 0. -1.
         11   -1    0    0    0    0 -0.00000000000E+00 -0.00000000000E+00 -0.45593999997E+02  0.45594000000E+02  0.51100000000E-03 0.  1.
    9900012    2    1    2    0    0  0.97609295807E+01  0.15211089978E+02  0.49016400117E+01  0.72461572701E+02  0.70000003135E+02 0.  0.
         12    1    1    2    0    0 -0.97609295807E+01 -0.15211089978E+02 -0.49016400117E+01  0.18726427299E+02  0.00000000000E+00 0. -1.
         11    1    3    3    0    0  0.31169251903E+02  0.55824819059E+01  0.14937974929E+02  0.35011847475E+02  0.51100000000E-03 0. -1.
        -11    1    3    3    0    0 -0.15555303493E+02 -0.79164227388E+01 -0.64637040358E+01  0.18612272453E+02  0.51100000000E-03 0.  1.
        -12    1    3    3    0    0 -0.58530188293E+01  0.17545030811E+02 -0.35726308816E+01  0.18837452773E+02  0.00000000000E+00 0.  1.
</event>
<event>
 7    1  0.1302069E-013  0.7246159E+02  0.7816164E-02  0.1226708E+00
        -11   -1    0    0    0    0  0.00000000000E+00  0.00000000000E+00  0.45593999997E+02  0.45594000000E+02  0.51100000000E-03 0. -1.
         11   -1    0    0    0    0 -0.00000000000E+00 -0.00000000000E+00 -0.45593999997E+02  0.45594000000E+02  0.51100000000E-03 0.  1.
    9900012    2    1    2    0    0 -0.16498117485E+01  0.11141369375E+02 -0.14960828497E+02  0.72461591383E+02  0.70000027472E+02 0.  0.
         12    1    1    2    0    0  0.16498117485E+01 -0.11141369375E+02  0.14960828497E+02  0.18726408617E+02  0.00000000000E+00 0. -1.
         11    1    3    3    0    0 -0.10491986763E+02  0.30116188332E+02 -0.84452680348E+01  0.32990743222E+02  0.51100000000E-03 0. -1.
        -11    1    3    3    0    0 -0.88844783845E+00 -0.11445002760E+02 -0.18836321992E+02  0.22058659392E+02  0.51100000000E-03 0.  1.
        -12    1    3    3    0    0  0.97306228529E+01 -0.75298161971E+01  0.12320761529E+02  0.17412188769E+02  0.00000000000E+00 0.  1.
</event>
<event>
 7    1  0.1302069E-013  0.7246160E+02  0.7816164E-02  0.1226708E+00
        -11   -1    0    0    0    0  0.00000000000E+00  0.00000000000E+00  0.45593999997E+02  0.45594000000E+02  0.51100000000E-03 0. -1.
         11   -1    0    0    0    0 -0.00000000000E+00 -0.00000000000E+00 -0.45593999997E+02  0.45594000000E+02  0.51100000000E-03 0.  1.
    9900012    2    1    2    0    0 -0.16003136255E+02  0.56589609450E+01  0.79090988104E+01  0.72461600107E+02  0.70000038836E+02 0.  0.
         12    1    1    2    0    0  0.16003136255E+02 -0.56589609450E+01 -0.79090988104E+01  0.18726399893E+02  0.00000000000E+00 0. -1.
         11    1    3    3    0    0  0.58556891376E+01 -0.42094927800E+01 -0.62988732974E+01  0.95752143485E+01  0.51100000000E-03 0. -1.
        -11    1    3    3    0    0 -0.32777108126E+02  0.24081708298E+02  0.18144519709E+02  0.44536401823E+02  0.51100000000E-03 0.  1.
        -12    1    3    3    0    0  0.10918282733E+02 -0.14213254573E+02 -0.39365476010E+01  0.18349983935E+02  0.00000000000E+00 0.  1.
</event>
<event>
 7    1  0.1302069E-013  0.7246156E+02  0.7816164E-02  0.1226708E+00
        -11   -1    0    0    0    0  0.00000000000E+00  0.00000000000E+00  0.45593999997E+02  0.45594000000E+02  0.51100000000E-03 0.  1.
         11   -1    0    0    0    0 -0.00000000000E+00 -0.00000000000E+00 -0.45593999997E+02  0.45594000000E+02  0.51100000000E-03 0. -1.
    9900012    2    1    2    0    0 -0.17520475188E+02  0.56258545413E+01  0.34730564342E+01  0.72461563843E+02  0.69999991596E+02 0.  0.
         12    1    1    2    0    0  0.17520475188E+02 -0.56258545413E+01 -0.34730564342E+01  0.18726436157E+02  0.00000000000E+00 0. -1.
         11    1    3    3    0    0  0.52037543707E+01  0.25564920711E+02 -0.29309204600E+00  0.26090805539E+02  0.51100000000E-03 0. -1.
        -11    1    3    3    0    0 -0.54705157080E+01 -0.87937872179E+01  0.18424923902E+02  0.21136107892E+02  0.51100000000E-03 0.  1.
         12    1    3    3    0    0 -0.17253713851E+02 -0.11145278951E+02 -0.14658775422E+02  0.25234650412E+02  0.00000000000E+00 0. -1.
</event>
<event>
 7    1  0.1302069E-013  0.7246156E+02  0.7816164E-02  0.1226708E+00
        -11   -1    0    0    0    0  0.00000000000E+00  0.00000000000E+00  0.45593999997E+02  0.45594000000E+02  0.51100000000E-03 0.  1.
         11   -1    0    0    0    0 -0.00000000000E+00 -0.00000000000E+00 -0.45593999997E+02  0.45594000000E+02  0.51100000000E-03 0. -1.
    9900012    2    1    2    0    0  0.77530028347E+01  0.65769567573E+01 -0.15726219933E+02  0.72461563967E+02  0.69999991757E+02 0.  0.
         12    1    1    2    0    0 -0.77530028347E+01 -0.65769567573E+01  0.15726219933E+02  0.18726436033E+02  0.00000000000E+00 0. -1.
         11    1    3    3    0    0 -0.96378202272E+01 -0.64255576713E+01 -0.25421581331E+02  0.27936216060E+02  0.51100000000E-03 0. -1.
        -11    1    3    3    0    0  0.22409731728E+02 -0.57279453037E+01  0.67826022403E+00  0.23140126852E+02  0.51100000000E-03 0.  1.
         12    1    3    3    0    0 -0.50189086661E+01  0.18730459732E+02  0.90171011745E+01  0.21385221055E+02  0.00000000000E+00 0. -1.
</event>
<event>
 7    1  0.1302069E-013  0.7246158E+02  0.7816164E-02  0.1226708E+00
        -11   -1    0    0    0    0  0.00000000000E+00  0.00000000000E+00  0.45593999997E+02  0.45594000000E+02  0.51100000000E-03 0. -1.
         11   -1    0    0    0    0 -0.00000000000E+00 -0.00000000000E+00 -0.45593999997E+02  0.45594000000E+02  0.51100000000E-03 0.  1.
    9900012    2    1    2    0    0 -0.21197908038E+01  0.20679342074E+01 -0.18490780170E+02  0.72461579727E+02  0.70000012287E+02 0.  0.
         12    1    1    2    0    0  0.21197908038E+01 -0.20679342074E+01  0.18490780170E+02  0.18726420273E+02  0.00000000000E+00 0. -1.
         11    1    3    3    0    0 -0.26699443682E+02  0.51742960497E+01  0.92361174952E+01  0.28721760029E+02  0.51100000000E-03 0.  1.
        -11    1    3    3    0    0  0.12342863753E+02  0.11378885836E+01 -0.28174058049E+02  0.30780166069E+02  0.51100000000E-03 0. -1.
         12    1    3    3    0    0  0.12236789125E+02 -0.42442504259E+01  0.44716038291E+00  0.12959653628E+02  0.00000000000E+00 0. -1.
</event>
<event>
 7    1  0.1302069E-013  0.7246160E+02  0.7816164E-02  0.1226708E+00
        -11   -1    0    0    0    0  0.00000000000E+00  0.00000000000E+00  0.45593999997E+02  0.45594000000E+02  0.51100000000E-03 0. -1.
         11   -1    0    0    0    0 -0.00000000000E+00 -0.00000000000E+00 -0.45593999997E+02  0.45594000000E+02  0.51100000000E-03 0.  1.
    9900012    2    1    2    0    0  0.29784665511E+01  0.11252920460E+02  0.14668967151E+02  0.72461599407E+02  0.70000037925E+02 0.  0.
         12    1    1    2    0    0 -0.29784665511E+01 -0.11252920460E+02 -0.14668967151E+02  0.18726400593E+02  0.00000000000E+00 0. -1.
         11    1    3    3    0    0  0.27604139169E+02  0.11425041529E+02  0.78217897785E+01  0.30882041202E+02  0.51100000000E-03 0.  1.
        -11    1    3    3    0    0 -0.17551617788E+02 -0.89628732286E+01 -0.93710951732E+01  0.21822231978E+02  0.51100000000E-03 0. -1.
         12    1    3    3    0    0 -0.70740548301E+01  0.87907521600E+01  0.16218272546E+02  0.19757326227E+02  0.00000000000E+00 0. -1.
</event>
<event>
 7    1  0.1302069E-013  0.7246168E+02  0.7816164E-02  0.1226708E+00
        -11   -1    0    0    0    0  0.00000000000E+00  0.00000000000E+00  0.45593999997E+02  0.45594000000E+02  0.51100000000E-03 0.  1.
         11   -1    0    0    0    0 -0.00000000000E+00 -0.00000000000E+00 -0.45593999997E+02  0.45594000000E+02  0.51100000000E-03 0. -1.
    9900012    2    1    2    0    0  0.16614796969E+02 -0.86384698394E+01 -0.17894244652E-01  0.72461682698E+02  0.70000146427E+02 0.  0.
         12    1    1    2    0    0 -0.16614796969E+02  0.86384698394E+01  0.17894244652E-01  0.18726317302E+02  0.00000000000E+00 0. -1.
         11    1    3    3    0    0 -0.18916939709E+01 -0.87959363948E+01  0.23031396686E+02  0.24726347015E+02  0.51100000000E-03 0. -1.
        -11    1    3    3    0    0  0.11633140394E+02 -0.75747618165E+01 -0.31470140676E+02  0.34395882405E+02  0.51100000000E-03 0.  1.
        -12    1    3    3    0    0  0.68733505461E+01  0.77322283719E+01  0.84208497454E+01  0.13339453278E+02  0.00000000000E+00 0.  1.
</event>
<event>
 7    1  0.1302069E-013  0.7246156E+02  0.7816164E-02  0.1226708E+00
        -11   -1    0    0    0    0  0.00000000000E+00  0.00000000000E+00  0.45593999997E+02  0.45594000000E+02  0.51100000000E-03 0. -1.
         11   -1    0    0    0    0 -0.00000000000E+00 -0.00000000000E+00 -0.45593999997E+02  0.45594000000E+02  0.51100000000E-03 0.  1.
    9900012    2    1    2    0    0  0.51069308369E-01  0.18200837498E+02 -0.44052821417E+01  0.72461558682E+02  0.69999984872E+02 0.  0.
         12    1    1    2    0    0 -0.51069308369E-01 -0.18200837498E+02  0.44052821417E+01  0.18726441318E+02  0.00000000000E+00 0. -1.
         11    1    3    3    0    0 -0.10957163859E+02  0.12197559969E+02  0.18338628792E+01  0.16498574555E+02  0.51100000000E-03 0. -1.
        -11    1    3    3    0    0  0.72926099148E+01 -0.16227054602E+02 -0.22123571407E+02  0.28389291511E+02  0.51100000000E-03 0.  1.
        -12    1    3    3    0    0  0.37156232525E+01  0.22230332131E+02  0.15884426386E+02  0.27573692615E+02  0.00000000000E+00 0.  1.
</event>
<event>
 7    1  0.1302069E-013  0.7246124E+02  0.7816164E-02  0.1226709E+00
        -11   -1    0    0    0    0  0.00000000000E+00  0.00000000000E+00  0.45593999997E+02  0.45594000000E+02  0.51100000000E-03 0.  1.
         11   -1    0    0    0    0 -0.00000000000E+00 -0.00000000000E+00 -0.45593999997E+02  0.45594000000E+02  0.51100000000E-03 0. -1.
    9900012    2    1    2    0    0 -0.17390790790E+02 -0.64583539395E+01 -0.25576366042E+01  0.72461242542E+02  0.69999573040E+02 0.  0.
         12    1    1    2    0    0  0.17390790790E+02  0.64583539395E+01  0.25576366042E+01  0.18726757458E+02  0.00000000000E+00 0. -1.
         11    1    3    3    0    0 -0.32354473649E+02  0.67740465417E+01  0.15414144766E+02  0.36473216622E+02  0.51100000000E-03 0. -1.
        -11    1    3    3    0    0  0.10685131620E+02  0.35043401577E+01 -0.26199507460E+00  0.11248158932E+02  0.51100000000E-03 0.  1.
         12    1    3    3    0    0  0.42785512385E+01 -0.16736740639E+02 -0.17709786295E+02  0.24739866987E+02  0.00000000000E+00 0. -1.
</event>
<event>
 7    1  0.1302069E-013  0.7246157E+02  0.7816164E-02  0.1226708E+00
        -11   -1    0    0    0    0  0.00000000000E+00  0.00000000000E+00  0.45593999997E+02  0.45594000000E+02  0.51100000000E-03 0. -1.
         11   -1    0    0    0    0 -0.00000000000E+00 -0.00000000000E+00 -0.45593999997E+02  0.45594000000E+02  0.51100000000E-03 0.  1.
    9900012    2    1    2    0    0  0.14700376526E+02  0.81834543032E+01 -0.82224744796E+01  0.72461572660E+02  0.70000003082E+02 0.  0.
         12    1    1    2    0    0 -0.14700376526E+02 -0.81834543032E+01  0.82224744796E+01  0.18726427340E+02  0.00000000000E+00 0. -1.
         11    1    3    3    0    0 -0.16322495777E+02  0.27343648994E+01 -0.17173383833E+02  0.23850067764E+02  0.51100000000E-03 0. -1.
        -11    1    3    3    0    0  0.28729526114E+02 -0.57690475175E+01 -0.58675549300E+01  0.29884708149E+02  0.51100000000E-03 0.  1.
         12    1    3    3    0    0  0.22933461886E+01  0.11218136921E+02  0.14818464283E+02  0.18726796748E+02  0.00000000000E+00 0. -1.
</event>
<event>
 7    1  0.1302069E-013  0.7246161E+02  0.7816164E-02  0.1226708E+00
        -11   -1    0    0    0    0  0.00000000000E+00  0.00000000000E+00  0.45593999997E+02  0.45594000000E+02  0.51100000000E-03 0. -1.
         11   -1    0    0    0    0 -0.00000000000E+00 -0.00000000000E+00 -0.45593999997E+02  0.45594000000E+02  0.51100000000E-03 0.  1.
    9900012    2    1    2    0    0  0.10528542626E+02  0.14335486600E+02 -0.58584382078E+01  0.72461609955E+02  0.70000051665E+02 0.  0.
         12    1    1    2    0    0 -0.10528542626E+02 -0.14335486600E+02  0.58584382078E+01  0.18726390045E+02  0.00000000000E+00 0. -1.
         11    1    3    3    0    0 -0.49761808376E+01  0.31549059870E+01  0.81145516715E+01  0.10028048494E+02  0.51100000000E-03 0. -1.
        -11    1    3    3    0    0  0.33816892228E+02  0.47984096498E+01 -0.22862082581E+02  0.41100872926E+02  0.51100000000E-03 0.  1.
        -12    1    3    3    0    0 -0.18312168764E+02  0.63821709629E+01  0.88890927019E+01  0.21332688534E+02  0.00000000000E+00 0.  1.
</event>
<event>
 7    1  0.1302069E-013  0.7246163E+02  0.7816164E-02  0.1226708E+00
        -11   -1    0    0    0    0  0.00000000000E+00  0.00000000000E+00  0.45593999997E+02  0.45594000000E+02  0.51100000000E-03 0. -1.
         11   -1    0    0    0    0 -0.00000000000E+00 -0.00000000000E+00 -0.45593999997E+02  0.45594000000E+02  0.51100000000E-03 0.  1.
    9900012    2    1    2    0    0 -0.16962658937E+02 -0.11291389103E+01 -0.78530455064E+01  0.72461626176E+02  0.70000072796E+02 0.  0.
         12    1    1    2    0    0  0.16962658937E+02  0.11291389103E+01  0.78530455064E+01  0.18726373824E+02  0.00000000000E+00 0. -1.
         11    1    3    3    0    0 -0.39031944613E+02 -0.12293043453E+01  0.59590853987E+00  0.39055844591E+02  0.51100000000E-03 0. -1.
        -11    1    3    3    0    0  0.18631186230E+02 -0.60687987182E+01 -0.14281040559E+02  0.24246639725E+02  0.51100000000E-03 0.  1.
        -12    1    3    3    0    0  0.34380994459E+01  0.61689641531E+01  0.58320865130E+01  0.91591418603E+01  0.00000000000E+00 0.  1.
</event>
<event>
 7    1  0.1302069E-013  0.7246160E+02  0.7816164E-02  0.1226708E+00
        -11   -1    0    0    0    0  0.00000000000E+00  0.00000000000E+00  0.45593999997E+02  0.45594000000E+02  0.51100000000E-03 0. -1.
         11   -1    0    0    0    0 -0.00000000000E+00 -0.00000000000E+00 -0.45593999997E+02  0.45594000000E+02  0.51100000000E-03 0.  1.
    9900012    2    1    2    0    0 -0.14003500577E+02  0.12224689398E+02 -0.22665335323E+01  0.72461595285E+02  0.70000032555E+02 0.  0.
         12    1    1    2    0    0  0.14003500577E+02 -0.12224689398E+02  0.22665335323E+01  0.18726404715E+02  0.00000000000E+00 0. -1.
         11    1    3    3    0    0 -0.16901421288E+02  0.27953149721E+02  0.15306480537E+01  0.32701368544E+02  0.51100000000E-03 0.  1.
        -11    1    3    3    0    0  0.54163021583E+01 -0.21666450571E+02  0.10045644144E+02  0.24488494767E+02  0.51100000000E-03 0. -1.
        -12    1    3    3    0    0 -0.25183814472E+01  0.59379902484E+01 -0.13842825730E+02  0.15271731974E+02  0.00000000000E+00 0.  1.
</event>
<event>
 7    1  0.1302069E-013  0.7246234E+02  0.7816164E-02  0.1226706E+00
        -11   -1    0    0    0    0  0.00000000000E+00  0.00000000000E+00  0.45593999997E+02  0.45594000000E+02  0.51100000000E-03 0. -1.
         11   -1    0    0    0    0 -0.00000000000E+00 -0.00000000000E+00 -0.45593999997E+02  0.45594000000E+02  0.51100000000E-03 0.  1.
    9900012    2    1    2    0    0 -0.14040423868E+02 -0.12265920343E+02  0.17503872490E+01  0.72462344878E+02  0.70001009031E+02 0.  0.
         12    1    1    2    0    0  0.14040423868E+02  0.12265920343E+02 -0.17503872490E+01  0.18725655122E+02  0.00000000000E+00 0. -1.
         11    1    3    3    0    0  0.48773150736E+01  0.23424204196E+02  0.50254801391E+01  0.24448660401E+02  0.51100000000E-03 0. -1.
        -11    1    3    3    0    0 -0.20725092900E+02 -0.22162772110E+02  0.67434407529E+01  0.31083628115E+02  0.51100000000E-03 0.  1.
         12    1    3    3    0    0  0.18073539587E+01 -0.13527352428E+02 -0.10018533643E+02  0.16930056361E+02  0.00000000000E+00 0. -1.
</event>
<event>
 7    1  0.1302069E-013  0.7246155E+02  0.7816164E-02  0.1226708E+00
        -11   -1    0    0    0    0  0.00000000000E+00  0.00000000000E+00  0.45593999997E+02  0.45594000000E+02  0.51100000000E-03 0.  1.
         11   -1    0    0    0    0 -0.00000000000E+00 -0.00000000000E+00 -0.45593999997E+02  0.45594000000E+02  0.51100000000E-03 0. -1.
    9900012    2    1    2    0    0 -0.37084482643E+01  0.67004201087E+01  0.17088937435E+02  0.72461548098E+02  0.69999971086E+02 0.  0.
         12    1    1    2    0    0  0.37084482643E+01 -0.67004201087E+01 -0.17088937435E+02  0.18726451902E+02  0.00000000000E+00 0. -1.
         11    1    3    3    0    0 -0.23375599642E+02  0.93448226528E+01  0.35618968251E+02  0.43617144205E+02  0.51100000000E-03 0. -1.
        -11    1    3    3    0    0  0.10536177258E+02 -0.12826841408E+01 -0.34457938114E+01  0.11159292320E+02  0.51100000000E-03 0.  1.
         12    1    3    3    0    0  0.91309741194E+01 -0.13617184032E+01 -0.15084237005E+02  0.17685111574E+02  0.00000000000E+00 0. -1.
</event>
<event>
 7    1  0.1302069E-013  0.7246157E+02  0.7816164E-02  0.1226708E+00
        -11   -1    0    0    0    0  0.00000000000E+00  0.00000000000E+00  0.45593999997E+02  0.45594000000E+02  0.51100000000E-03 0. -1.
         11   -1    0    0    0    0 -0.00000000000E+00 -0.00000000000E+00 -0.45593999997E+02  0.45594000000E+02  0.51100000000E-03 0.  1.
    9900012    2    1    2    0    0  0.56056332044E+01  0.17865950325E+02  0.25295141734E+00  0.72461567103E+02  0.69999995843E+02 0.  0.
         12    1    1    2    0    0 -0.56056332044E+01 -0.17865950325E+02 -0.25295141734E+00  0.18726432897E+02  0.00000000000E+00 0. -1.
         11    1    3    3    0    0  0.22718770679E+02  0.14546229741E+02  0.91160239899E+01  0.28475203854E+02  0.51100000000E-03 0. -1.
        -11    1    3    3    0    0 -0.14587347885E+02 -0.19090190813E+01  0.14053573602E+02  0.20345466409E+02  0.51100000000E-03 0.  1.
        -12    1    3    3    0    0 -0.25257895902E+01  0.52287396652E+01 -0.22916646174E+02  0.23640896840E+02  0.00000000000E+00 0.  1.
</event>
<event>
 7    1  0.1302069E-013  0.7246160E+02  0.7816164E-02  0.1226708E+00
        -11   -1    0    0    0    0  0.00000000000E+00  0.00000000000E+00  0.45593999997E+02  0.45594000000E+02  0.51100000000E-03 0.  1.
         11   -1    0    0    0    0 -0.00000000000E+00 -0.00000000000E+00 -0.45593999997E+02  0.45594000000E+02  0.51100000000E-03 0. -1.
    9900012    2    1    2    0    0 -0.93888194892E+01  0.15465154406E+02 -0.48329299698E+01  0.72461597668E+02  0.70000035660E+02 0.  0.
         12    1    1    2    0    0  0.93888194892E+01 -0.15465154406E+02  0.48329299698E+01  0.18726402332E+02  0.00000000000E+00 0. -1.
         11    1    3    3    0    0 -0.83506832669E+01  0.23106215741E+02 -0.12761745751E+02  0.27685614889E+02  0.51100000000E-03 0. -1.
        -11    1    3    3    0    0  0.11925906215E+02 -0.33865533563E+01  0.21951646017E+02  0.25210528471E+02  0.51100000000E-03 0.  1.
         12    1    3    3    0    0 -0.12964042437E+02 -0.42545079794E+01 -0.14022830236E+02  0.19565454308E+02  0.00000000000E+00 0. -1.
</event>
<event>
 7    1  0.1302069E-013  0.7246157E+02  0.7816164E-02  0.1226708E+00
        -11   -1    0    0    0    0  0.00000000000E+00  0.00000000000E+00  0.45593999997E+02  0.45594000000E+02  0.51100000000E-03 0. -1.
         11   -1    0    0    0    0 -0.00000000000E+00 -0.00000000000E+00 -0.45593999997E+02  0.45594000000E+02  0.51100000000E-03 0.  1.
    9900012    2    1    2    0    0  0.76564419078E+01 -0.10102219981E+02 -0.13784172333E+02  0.72461565258E+02  0.69999993440E+02 0.  0.
         12    1    1    2    0    0 -0.76564419078E+01  0.10102219981E+02  0.13784172333E+02  0.18726434742E+02  0.00000000000E+00 0. -1.
         11    1    3    3    0    0  0.24833066096E+01  0.17634299716E+01  0.25035915623E+02  0.25220498970E+02  0.51100000000E-03 0. -1.
        -11    1    3    3    0    0 -0.35359163680E+01 -0.13663765434E+02 -0.10594635308E+02  0.17647874886E+02  0.51100000000E-03 0.  1.
         12    1    3    3    0    0  0.87090516662E+01  0.17981154816E+01 -0.28225452647E+02  0.29593191402E+02  0.00000000000E+00 0. -1.
</event>
<event>
 7    1  0.1302069E-013  0.7246167E+02  0.7816164E-02  0.1226708E+00
        -11   -1    0    0    0    0  0.00000000000E+00  0.00000000000E+00  0.45593999997E+02  0.45594000000E+02  0.51100000000E-03 0.  1.
         11   -1    0    0    0    0 -0.00000000000E+00 -0.00000000000E+00 -0.45593999997E+02  0.45594000000E+02  0.51100000000E-03 0. -1.
    9900012    2    1    2    0    0 -0.22458505789E+01 -0.18488948814E+02  0.19468912696E+01  0.72461669375E+02  0.70000129071E+02 0.  0.
         12    1    1    2    0    0  0.22458505789E+01  0.18488948814E+02 -0.19468912696E+01  0.18726330625E+02  0.00000000000E+00 0. -1.
         11    1    3    3    0    0  0.17406834792E+02 -0.27894038714E+01 -0.20033641292E+02  0.26685678839E+02  0.51100000000E-03 0. -1.
        -11    1    3    3    0    0  0.68340211187E+01 -0.57897127377E+01  0.13592763728E+02  0.16278447231E+02  0.51100000000E-03 0.  1.
         12    1    3    3    0    0 -0.26486706489E+02 -0.99098322047E+01  0.83877688342E+01  0.29497543304E+02  0.00000000000E+00 0. -1.
</event>
<event>
 7    1  0.1302069E-013  0.7246178E+02  0.7816164E-02  0.1226707E+00
        -11   -1    0    0    0    0  0.00000000000E+00  0.00000000000E+00  0.45593999997E+02  0.45594000000E+02  0.51100000000E-03 0. -1.
         11   -1    0    0    0    0 -0.00000000000E+00 -0.00000000000E+00 -0.45593999997E+02  0.45594000000E+02  0.51100000000E-03 0.  1.
    9900012    2    1    2    0    0  0.10786988833E+02  0.16122799558E+01 -0.15222119524E+02  0.72461775139E+02  0.70000266847E+02 0.  0.
         12    1    1    2    0    0 -0.10786988833E+02 -0.16122799558E+01  0.15222119524E+02  0.18726224861E+02  0.00000000000E+00 0. -1.
         11    1    3    3    0    0 -0.91264774954E+01  0.63703401998E+01  0.24568464251E+02  0.26971897628E+02  0.51100000000E-03 0. -1.
        -11    1    3    3    0    0  0.12932648035E+02 -0.31837703080E+01 -0.16963265314E+02  0.21567154401E+02  0.51100000000E-03 0.  1.
         12    1    3    3    0    0  0.69808182937E+01 -0.15742899360E+01 -0.22827318461E+02  0.23922723110E+02  0.00000000000E+00 0. -1.
</event>
<event>
 7    1  0.1302069E-013  0.7246145E+02  0.7816164E-02  0.1226708E+00
        -11   -1    0    0    0    0  0.00000000000E+00  0.00000000000E+00  0.45593999997E+02  0.45594000000E+02  0.51100000000E-03 0.  1.
         11   -1    0    0    0    0 -0.00000000000E+00 -0.00000000000E+00 -0.45593999997E+02  0.45594000000E+02  0.51100000000E-03 0. -1.
    9900012    2    1    2    0    0  0.95661296277E-01  0.73058435608E+01  0.17242370531E+02  0.72461445518E+02  0.69999837456E+02 0.  0.
         12    1    1    2    0    0 -0.95661296277E-01 -0.73058435608E+01 -0.17242370531E+02  0.18726554482E+02  0.00000000000E+00 0. -1.
         11    1    3    3    0    0  0.28091598843E+02  0.17765794181E+02  0.32442538003E+01  0.33395906207E+02  0.51100000000E-03 0. -1.
        -11    1    3    3    0    0 -0.15635331278E+02 -0.12923816383E+02  0.16581294217E+02  0.26199769698E+02  0.51100000000E-03 0.  1.
         12    1    3    3    0    0 -0.12360606268E+02  0.24638657627E+01 -0.25831774859E+01  0.12865769613E+02  0.00000000000E+00 0. -1.
</event>
<event>
 7    1  0.1302069E-013  0.7246160E+02  0.7816164E-02  0.1226708E+00
        -11   -1    0    0    0    0  0.00000000000E+00  0.00000000000E+00  0.45593999997E+02  0.45594000000E+02  0.51100000000E-03 0.  1.
         11   -1    0    0    0    0 -0.00000000000E+00 -0.00000000000E+00 -0.45593999997E+02  0.45594000000E+02  0.51100000000E-03 0. -1.
    9900012    2    1    2    0    0 -0.83340029067E+01 -0.43839209798E+01  0.16186529868E+02  0.72461598403E+02  0.70000036617E+02 0.  0.
         12    1    1    2    0    0  0.83340029067E+01  0.43839209798E+01 -0.16186529868E+02  0.18726401597E+02  0.00000000000E+00 0. -1.
         11    1    3    3    0    0  0.85290023898E+01 -0.80882811424E+01  0.29463000146E+02  0.31721168822E+02  0.51100000000E-03 0. -1.
        -11    1    3    3    0    0 -0.19971191070E+02 -0.11259107987E+02 -0.54282036564E+01  0.23560165123E+02  0.51100000000E-03 0.  1.
         12    1    3    3    0    0  0.31081857735E+01  0.14963468150E+02 -0.78482666216E+01  0.17180264458E+02  0.00000000000E+00 0. -1.
</event>
<event>
 7    1  0.1302069E-013  0.7246159E+02  0.7816164E-02  0.1226708E+00
        -11   -1    0    0    0    0  0.00000000000E+00  0.00000000000E+00  0.45593999997E+02  0.45594000000E+02  0.51100000000E-03 0.  1.
         11   -1    0    0    0    0 -0.00000000000E+00 -0.00000000000E+00 -0.45593999997E+02  0.45594000000E+02  0.51100000000E-03 0. -1.
    9900012    2    1    2    0    0  0.12247017653E+02 -0.71580595585E+00  0.14148382872E+02  0.72461586637E+02  0.70000021289E+02 0.  0.
         12    1    1    2    0    0 -0.12247017653E+02  0.71580595585E+00 -0.14148382872E+02  0.18726413363E+02  0.00000000000E+00 0. -1.
         11    1    3    3    0    0  0.12454821418E+01  0.27478207181E+02  0.19798866091E+02  0.33890975117E+02  0.51100000000E-03 0. -1.
        -11    1    3    3    0    0  0.13510130064E+01 -0.11625464163E+02  0.87316368770E+01  0.14601990822E+02  0.51100000000E-03 0.  1.
         12    1    3    3    0    0  0.96505225053E+01 -0.16568548974E+02 -0.14382120096E+02  0.23968620698E+02  0.00000000000E+00 0. -1.
</event>
<event>
 7    1  0.1302069E-013  0.7246154E+02  0.7816164E-02  0.1226708E+00
        -11   -1    0    0    0    0  0.00000000000E+00  0.00000000000E+00  0.45593999997E+02  0.45594000000E+02  0.51100000000E-03 0. -1.
         11   -1    0    0    0    0 -0.00000000000E+00 -0.00000000000E+00 -0.45593999997E+02  0.45594000000E+02  0.51100000000E-03 0.  1.
    9900012    2    1    2    0    0  0.15098887223E+02 -0.46383262981E+01 -0.10059325256E+02  0.72461535016E+02  0.69999954043E+02 0.  0.
         12    1    1    2    0    0 -0.15098887223E+02  0.46383262981E+01  0.10059325256E+02  0.18726464984E+02  0.00000000000E+00 0. -1.
         11    1    3    3    0    0  0.17266188678E+02  0.15412890393E+02  0.73661753081E+01  0.24288659920E+02  0.51100000000E-03 0. -1.
        -11    1    3    3    0    0 -0.86331625221E+00 -0.27190880426E+02 -0.25520096625E+02  0.37301000325E+02  0.51100000000E-03 0.  1.
        -12    1    3    3    0    0 -0.13039852035E+01  0.71396637340E+01  0.80945960611E+01  0.10871874771E+02  0.00000000000E+00 0.  1.
</event>
<event>
 7    1  0.1302069E-013  0.7246157E+02  0.7816164E-02  0.1226708E+00
        -11   -1    0    0    0    0  0.00000000000E+00  0.00000000000E+00  0.45593999997E+02  0.45594000000E+02  0.51100000000E-03 0. -1.
         11   -1    0    0    0    0 -0.00000000000E+00 -0.00000000000E+00 -0.45593999997E+02  0.45594000000E+02  0.51100000000E-03 0.  1.
    9900012    2    1    2    0    0  0.71283393508E+01  0.25017495888E+01 -0.17134973130E+02  0.72461567423E+02  0.69999996259E+02 0.  0.
         12    1    1    2    0    0 -0.71283393508E+01 -0.25017495888E+01  0.17134973130E+02  0.18726432577E+02  0.00000000000E+00 0. -1.
         11    1    3    3    0    0 -0.17130534600E+02  0.14009191477E+02 -0.33903478303E+02  0.40486522484E+02  0.51100000000E-03 0.  1.
        -11    1    3    3    0    0  0.16138483177E+02 -0.85987481087E+01  0.90634953094E+01  0.20409214972E+02  0.51100000000E-03 0. -1.
        -12    1    3    3    0    0  0.81203907738E+01 -0.29086937798E+01  0.77050098636E+01  0.11565829967E+02  0.00000000000E+00 0.  1.
</event>
<event>
 7    1  0.1302069E-013  0.7246154E+02  0.7816164E-02  0.1226708E+00
        -11   -1    0    0    0    0  0.00000000000E+00  0.00000000000E+00  0.45593999997E+02  0.45594000000E+02  0.51100000000E-03 0.  1.
         11   -1    0    0    0    0 -0.00000000000E+00 -0.00000000000E+00 -0.45593999997E+02  0.45594000000E+02  0.51100000000E-03 0. -1.
    9900012    2    1    2    0    0  0.12273240952E+02  0.91132033252E+01  0.10816530008E+02  0.72461541720E+02  0.69999962776E+02 0.  0.
         12    1    1    2    0    0 -0.12273240952E+02 -0.91132033252E+01 -0.10816530008E+02  0.18726458280E+02  0.00000000000E+00 0. -1.
         11    1    3    3    0    0 -0.21248144083E+02  0.21568258832E+02  0.11199045460E+02  0.32281450331E+02  0.51100000000E-03 0. -1.
        -11    1    3    3    0    0  0.27568531511E+02 -0.19769825225E+01  0.26124363482E+01  0.27762514539E+02  0.51100000000E-03 0.  1.
         12    1    3    3    0    0  0.59528535236E+01 -0.10478072984E+02 -0.29949518007E+01  0.12417576850E+02  0.00000000000E+00 0. -1.
</event>
<event>
 7    1  0.1302069E-013  0.7246156E+02  0.7816164E-02  0.1226708E+00
        -11   -1    0    0    0    0  0.00000000000E+00  0.00000000000E+00  0.45593999997E+02  0.45594000000E+02  0.51100000000E-03 0.  1.
         11   -1    0    0    0    0 -0.00000000000E+00 -0.00000000000E+00 -0.45593999997E+02  0.45594000000E+02  0.51100000000E-03 0. -1.
    9900012    2    1    2    0    0 -0.35996196805E+01  0.31580459094E+01  0.18103841211E+02  0.72461559271E+02  0.69999985640E+02 0.  0.
         12    1    1    2    0    0  0.35996196805E+01 -0.31580459094E+01 -0.18103841211E+02  0.18726440729E+02  0.00000000000E+00 0. -1.
         11    1    3    3    0    0 -0.13982202820E+02 -0.17248106977E+02 -0.13942848126E+02  0.26218356244E+02  0.51100000000E-03 0. -1.
        -11    1    3    3    0    0 -0.65915750074E+01  0.10550945488E+02  0.18872779221E+02  0.22604271887E+02  0.51100000000E-03 0.  1.
         12    1    3    3    0    0  0.16974158147E+02  0.98552073987E+01  0.13173910115E+02  0.23638931139E+02  0.00000000000E+00 0. -1.
</event>
<event>
 7    1  0.1302069E-013  0.7246159E+02  0.7816164E-02  0.1226708E+00
        -11   -1    0    0    0    0  0.00000000000E+00  0.00000000000E+00  0.45593999997E+02  0.45594000000E+02  0.51100000000E-03 0.  1.
         11   -1    0    0    0    0 -0.00000000000E+00 -0.00000000000E+00 -0.45593999997E+02  0.45594000000E+02  0.51100000000E-03 0. -1.
    9900012    2    1    2    0    0  0.84122462288E+01 -0.12721580090E+02  0.10866177646E+02  0.72461593425E+02  0.70000030131E+02 0.  0.
         12    1    1    2    0    0 -0.84122462288E+01  0.12721580090E+02 -0.10866177646E+02  0.18726406575E+02  0.00000000000E+00 0. -1.
         11    1    3    3    0    0  0.16077245736E+02  0.35317533710E+01  0.26949986048E+02  0.31579310641E+02  0.51100000000E-03 0.  1.
        -11    1    3    3    0    0  0.51120587045E+01 -0.11051978262E+02 -0.22564620589E+02  0.25640621488E+02  0.51100000000E-03 0. -1.
        -12    1    3    3    0    0 -0.12777058211E+02 -0.52013551991E+01  0.64808121875E+01  0.15241661296E+02  0.00000000000E+00 0.  1.
</event>
<event>
 8    1  0.1302069E-013  0.7246152E+02  0.7816164E-02  0.1226708E+00
        -11   -1    0    0    0    0  0.00000000000E+00  0.00000000000E+00  0.45593999997E+02  0.45594000000E+02  0.51100000000E-03 0. -1.
         11   -1    0    0    0    0 -0.00000000000E+00 -0.00000000000E+00 -0.45593999997E+02  0.45594000000E+02  0.51100000000E-03 0.  1.
    9900012    2    1    2    0    0 -0.82916030720E+01  0.16484481940E+02  0.31924984240E+01  0.72461524824E+02  0.69999940766E+02 0.  0.
        -24    2    3    3    0    0 -0.14687218475E+02 -0.99632416673E+00  0.58488284385E+01  0.53658903519E+02  0.51267553914E+02 0.  0.
         12    1    1    2    0    0  0.82916030720E+01 -0.16484481940E+02 -0.31924984240E+01  0.18726475176E+02  0.00000000000E+00 0. -1.
         11    1    4    4    0    0 -0.31146192001E+02 -0.60504804709E+01  0.13914952767E+02  0.34645627442E+02  0.51100000000E-03 0. -1.
        -11    1    3    3    0    0  0.63956154031E+01  0.17480806107E+02 -0.26563300145E+01  0.18802621305E+02  0.51100000000E-03 0.  1.
        -12    1    4    4    0    0  0.16458973526E+02  0.50541563042E+01 -0.80661243283E+01  0.19013276076E+02  0.00000000000E+00 0.  1.
</event>
<event>
 7    1  0.1302069E-013  0.7246157E+02  0.7816164E-02  0.1226708E+00
        -11   -1    0    0    0    0  0.00000000000E+00  0.00000000000E+00  0.45593999997E+02  0.45594000000E+02  0.51100000000E-03 0.  1.
         11   -1    0    0    0    0 -0.00000000000E+00 -0.00000000000E+00 -0.45593999997E+02  0.45594000000E+02  0.51100000000E-03 0. -1.
    9900012    2    1    2    0    0 -0.85736995253E+01  0.68414790691E+01  0.15177779757E+02  0.72461570608E+02  0.70000000409E+02 0.  0.
         12    1    1    2    0    0  0.85736995253E+01 -0.68414790691E+01 -0.15177779757E+02  0.18726429392E+02  0.00000000000E+00 0. -1.
         11    1    3    3    0    0 -0.10345925562E+02 -0.75283843492E+01 -0.15278963286E+02  0.19928910306E+02  0.51100000000E-03 0. -1.
        -11    1    3    3    0    0  0.13655085008E+02  0.23688569634E+02  0.16293248152E+02  0.31828911598E+02  0.51100000000E-03 0.  1.
        -12    1    3    3    0    0 -0.11882858972E+02 -0.93187062159E+01  0.14163494891E+02  0.20703748704E+02  0.00000000000E+00 0.  1.
</event>
<event>
 7    1  0.1302069E-013  0.7246153E+02  0.7816164E-02  0.1226708E+00
        -11   -1    0    0    0    0  0.00000000000E+00  0.00000000000E+00  0.45593999997E+02  0.45594000000E+02  0.51100000000E-03 0. -1.
         11   -1    0    0    0    0 -0.00000000000E+00 -0.00000000000E+00 -0.45593999997E+02  0.45594000000E+02  0.51100000000E-03 0.  1.
    9900012    2    1    2    0    0 -0.17057691743E+02  0.48796124237E+01  0.59920862020E+01  0.72461533114E+02  0.69999951565E+02 0.  0.
         12    1    1    2    0    0  0.17057691743E+02 -0.48796124237E+01 -0.59920862020E+01  0.18726466886E+02  0.00000000000E+00 0. -1.
         11    1    3    3    0    0 -0.38628039567E+02  0.12788281341E+02  0.42284039483E+01  0.40908984107E+02  0.51100000000E-03 0.  1.
        -11    1    3    3    0    0  0.12857175669E+02 -0.69256380158E+01  0.11398114955E+02  0.18525346229E+02  0.51100000000E-03 0. -1.
        -12    1    3    3    0    0  0.87131721548E+01 -0.98303090173E+00 -0.96344327008E+01  0.13027202778E+02  0.00000000000E+00 0.  1.
</event>
<event>
 7    1  0.1302069E-013  0.7246169E+02  0.7816164E-02  0.1226708E+00
        -11   -1    0    0    0    0  0.00000000000E+00  0.00000000000E+00  0.45593999997E+02  0.45594000000E+02  0.51100000000E-03 0.  1.
         11   -1    0    0    0    0 -0.00000000000E+00 -0.00000000000E+00 -0.45593999997E+02  0.45594000000E+02  0.51100000000E-03 0. -1.
    9900012    2    1    2    0    0  0.10372680289E+02  0.92712414040E+01  0.12535007011E+02  0.72461686579E+02  0.70000151483E+02 0.  0.
         12    1    1    2    0    0 -0.10372680289E+02 -0.92712414040E+01 -0.12535007011E+02  0.18726313421E+02  0.00000000000E+00 0. -1.
         11    1    3    3    0    0 -0.16747838897E+02 -0.15424049934E+02 -0.73682438400E+01  0.23930784392E+02  0.51100000000E-03 0. -1.
        -11    1    3    3    0    0  0.10653296228E+01  0.20338627869E+01  0.13145543271E+02  0.13344543199E+02  0.51100000000E-03 0.  1.
         12    1    3    3    0    0  0.26055189563E+02  0.22661428551E+02  0.67577075804E+01  0.35186358989E+02  0.00000000000E+00 0. -1.
</event>
<event>
 7    1  0.1302069E-013  0.7246160E+02  0.7816164E-02  0.1226708E+00
        -11   -1    0    0    0    0  0.00000000000E+00  0.00000000000E+00  0.45593999997E+02  0.45594000000E+02  0.51100000000E-03 0. -1.
         11   -1    0    0    0    0 -0.00000000000E+00 -0.00000000000E+00 -0.45593999997E+02  0.45594000000E+02  0.51100000000E-03 0.  1.
    9900012    2    1    2    0    0  0.16881688676E+02  0.23596494185E+01 -0.77536270468E+01  0.72461599109E+02  0.70000037537E+02 0.  0.
         12    1    1    2    0    0 -0.16881688676E+02 -0.23596494185E+01  0.77536270468E+01  0.18726400891E+02  0.00000000000E+00 0. -1.
         11    1    3    3    0    0 -0.22066627666E+01  0.26059162340E+02 -0.20101588263E+01  0.26229564259E+02  0.51100000000E-03 0. -1.
        -11    1    3    3    0    0  0.86448196811E+01 -0.31305630865E+02 -0.10763534788E+01  0.32495137609E+02  0.51100000000E-03 0.  1.
        -12    1    3    3    0    0  0.10443531762E+02  0.76061179432E+01 -0.46671147418E+01  0.13736897242E+02  0.00000000000E+00 0.  1.
</event>
<event>
 7    1  0.1302069E-013  0.7246156E+02  0.7816164E-02  0.1226708E+00
        -11   -1    0    0    0    0  0.00000000000E+00  0.00000000000E+00  0.45593999997E+02  0.45594000000E+02  0.51100000000E-03 0. -1.
         11   -1    0    0    0    0 -0.00000000000E+00 -0.00000000000E+00 -0.45593999997E+02  0.45594000000E+02  0.51100000000E-03 0.  1.
    9900012    2    1    2    0    0 -0.33172317538E+01 -0.12620744535E+02 -0.13431024840E+02  0.72461557535E+02  0.69999983379E+02 0.  0.
         12    1    1    2    0    0  0.33172317538E+01  0.12620744535E+02  0.13431024840E+02  0.18726442465E+02  0.00000000000E+00 0. -1.
         11    1    3    3    0    0  0.22627833649E+02 -0.76345701827E+01 -0.36663923172E+01  0.24160876441E+02  0.51100000000E-03 0. -1.
        -11    1    3    3    0    0 -0.14302785671E+02 -0.20206784277E+02 -0.14325730954E+02  0.28602628837E+02  0.51100000000E-03 0.  1.
        -12    1    3    3    0    0 -0.11642279731E+02  0.15220609925E+02  0.45610984305E+01  0.19698052257E+02  0.00000000000E+00 0.  1.
</event>
<event>
 7    1  0.1302069E-013  0.7246156E+02  0.7816164E-02  0.1226708E+00
        -11   -1    0    0    0    0  0.00000000000E+00  0.00000000000E+00  0.45593999997E+02  0.45594000000E+02  0.51100000000E-03 0. -1.
         11   -1    0    0    0    0 -0.00000000000E+00 -0.00000000000E+00 -0.45593999997E+02  0.45594000000E+02  0.51100000000E-03 0.  1.
    9900012    2    1    2    0    0 -0.97282634374E+01  0.15647783564E+02  0.33447244977E+01  0.72461563555E+02  0.69999991220E+02 0.  0.
         12    1    1    2    0    0  0.97282634374E+01 -0.15647783564E+02 -0.33447244977E+01  0.18726436445E+02  0.00000000000E+00 0. -1.
         11    1    3    3    0    0  0.14558435684E+02  0.33683738889E+02 -0.43511980413E+01  0.36952337406E+02  0.51100000000E-03 0. -1.
        -11    1    3    3    0    0 -0.16507356086E+02 -0.89844649226E+01 -0.35318280313E+01  0.19122950201E+02  0.51100000000E-03 0.  1.
         12    1    3    3    0    0 -0.77793430356E+01 -0.90514904017E+01  0.11227750570E+02  0.16386275948E+02  0.00000000000E+00 0. -1.
</event>
<event>
 7    1  0.1302069E-013  0.7246143E+02  0.7816164E-02  0.1226708E+00
        -11   -1    0    0    0    0  0.00000000000E+00  0.00000000000E+00  0.45593999997E+02  0.45594000000E+02  0.51100000000E-03 0. -1.
         11   -1    0    0    0    0 -0.00000000000E+00 -0.00000000000E+00 -0.45593999997E+02  0.45594000000E+02  0.51100000000E-03 0.  1.
    9900012    2    1    2    0    0  0.53432300399E+00 -0.74443685363E+01 -0.17174991679E+02  0.72461428953E+02  0.69999815877E+02 0.  0.
         12    1    1    2    0    0 -0.53432300399E+00  0.74443685363E+01  0.17174991679E+02  0.18726571047E+02  0.00000000000E+00 0. -1.
         11    1    3    3    0    0 -0.14451745587E+02  0.24898372712E+02 -0.32169815184E+01  0.28967755946E+02  0.51100000000E-03 0. -1.
        -11    1    3    3    0    0  0.55675874923E+01 -0.13870957405E+02 -0.16889124676E+02  0.22553137751E+02  0.51100000000E-03 0.  1.
         12    1    3    3    0    0  0.94184810983E+01 -0.18471783843E+02  0.29311145152E+01  0.20940535256E+02  0.00000000000E+00 0. -1.
</event>
<event>
 7    1  0.1302069E-013  0.7246158E+02  0.7816164E-02  0.1226708E+00
        -11   -1    0    0    0    0  0.00000000000E+00  0.00000000000E+00  0.45593999997E+02  0.45594000000E+02  0.51100000000E-03 0. -1.
         11   -1    0    0    0    0 -0.00000000000E+00 -0.00000000000E+00 -0.45593999997E+02  0.45594000000E+02  0.51100000000E-03 0.  1.
    9900012    2    1    2    0    0  0.29989675855E+01 -0.15871807561E+02 -0.94747425386E+01  0.72461579413E+02  0.70000011879E+02 0.  0.
         12    1    1    2    0    0 -0.29989675855E+01  0.15871807561E+02  0.94747425386E+01  0.18726420587E+02  0.00000000000E+00 0. -1.
         11    1    3    3    0    0 -0.22794430051E+02 -0.14635360107E+02  0.10832513499E+02  0.29174015078E+02  0.51100000000E-03 0. -1.
        -11    1    3    3    0    0  0.34727647178E+01 -0.24887448727E+01 -0.20490390864E+02  0.20931078899E+02  0.51100000000E-03 0.  1.
         12    1    3    3    0    0  0.22320632919E+02  0.12522974186E+01  0.18313482693E+00  0.22356485437E+02  0.00000000000E+00 0. -1.
</event>
<event>
 7    1  0.1302069E-013  0.7246160E+02  0.7816164E-02  0.1226708E+00
        -11   -1    0    0    0    0  0.00000000000E+00  0.00000000000E+00  0.45593999997E+02  0.45594000000E+02  0.51100000000E-03 0.  1.
         11   -1    0    0    0    0 -0.00000000000E+00 -0.00000000000E+00 -0.45593999997E+02  0.45594000000E+02  0.51100000000E-03 0. -1.
    9900012    2    1    2    0    0  0.38549641254E+01 -0.16045592265E+02 -0.88519106966E+01  0.72461598784E+02  0.70000037113E+02 0.  0.
         12    1    1    2    0    0 -0.38549641254E+01  0.16045592265E+02  0.88519106966E+01  0.18726401216E+02  0.00000000000E+00 0. -1.
         11    1    3    3    0    0  0.17149722568E+01 -0.25534044610E+02  0.67978733958E+01  0.26479041655E+02  0.51100000000E-03 0.  1.
        -11    1    3    3    0    0 -0.29373248700E+01  0.20402765030E+02  0.57757988810E+01  0.21407021074E+02  0.51100000000E-03 0. -1.
        -12    1    3    3    0    0  0.50773167386E+01 -0.10914312685E+02 -0.21425582973E+02  0.24575536055E+02  0.00000000000E+00 0.  1.
</event>
<event>
 7    1  0.1302069E-013  0.7246158E+02  0.7816164E-02  0.1226708E+00
        -11   -1    0    0    0    0  0.00000000000E+00  0.00000000000E+00  0.45593999997E+02  0.45594000000E+02  0.51100000000E-03 0.  1.
         11   -1    0    0    0    0 -0.00000000000E+00 -0.00000000000E+00 -0.45593999997E+02  0.45594000000E+02  0.51100000000E-03 0. -1.
    9900012    2    1    2    0    0 -0.45100261581E+01 -0.15455219630E+02  0.95642382628E+01  0.72461580073E+02  0.70000012738E+02 0.  0.
         12    1    1    2    0    0  0.45100261581E+01  0.15455219630E+02 -0.95642382628E+01  0.18726419927E+02  0.00000000000E+00 0. -1.
         11    1    3    3    0    0  0.10200913484E+02 -0.19182990909E+02 -0.93891425422E+01  0.23668582004E+02  0.51100000000E-03 0. -1.
        -11    1    3    3    0    0 -0.26567260871E+02 -0.52557081782E+01  0.34392110790E+01  0.27299633546E+02  0.51100000000E-03 0.  1.
        -12    1    3    3    0    0  0.11856321229E+02  0.89834794576E+01  0.15514169726E+02  0.21493364523E+02  0.00000000000E+00 0.  1.
</event>
<event>
 7    1  0.1302069E-013  0.7246159E+02  0.7816164E-02  0.1226708E+00
        -11   -1    0    0    0    0  0.00000000000E+00  0.00000000000E+00  0.45593999997E+02  0.45594000000E+02  0.51100000000E-03 0.  1.
         11   -1    0    0    0    0 -0.00000000000E+00 -0.00000000000E+00 -0.45593999997E+02  0.45594000000E+02  0.51100000000E-03 0. -1.
    9900012    2    1    2    0    0 -0.43500020870E+00  0.13164561987E+02  0.13311023233E+02  0.72461594658E+02  0.70000031739E+02 0.  0.
         12    1    1    2    0    0  0.43500020870E+00 -0.13164561987E+02 -0.13311023233E+02  0.18726405342E+02  0.00000000000E+00 0. -1.
         11    1    3    3    0    0 -0.14586099130E+02 -0.19353629093E+02  0.12705391738E+02  0.27363191085E+02  0.51100000000E-03 0. -1.
        -11    1    3    3    0    0  0.16005646906E+02  0.31802559046E+02  0.87932408609E+01  0.36672940704E+02  0.51100000000E-03 0.  1.
         12    1    3    3    0    0 -0.18545479851E+01  0.71563203426E+00 -0.81876093658E+01  0.84254628694E+01  0.00000000000E+00 0. -1.
</event>
<event>
 7    1  0.1302069E-013  0.7246159E+02  0.7816164E-02  0.1226708E+00
        -11   -1    0    0    0    0  0.00000000000E+00  0.00000000000E+00  0.45593999997E+02  0.45594000000E+02  0.51100000000E-03 0. -1.
         11   -1    0    0    0    0 -0.00000000000E+00 -0.00000000000E+00 -0.45593999997E+02  0.45594000000E+02  0.51100000000E-03 0.  1.
    9900012    2    1    2    0    0 -0.11630538825E+02  0.55502770032E+01 -0.13586890924E+02  0.72461585150E+02  0.70000019352E+02 0.  0.
         12    1    1    2    0    0  0.11630538825E+02 -0.55502770032E+01  0.13586890924E+02  0.18726414850E+02  0.00000000000E+00 0. -1.
         11    1    3    3    0    0  0.48645479864E+01 -0.58260161031E+01  0.14045612268E+02  0.15965134356E+02  0.51100000000E-03 0. -1.
        -11    1    3    3    0    0 -0.21615721479E+01  0.16640669759E+02 -0.35538822893E+02  0.39301300450E+02  0.51100000000E-03 0.  1.
         12    1    3    3    0    0 -0.14333514664E+02 -0.52643766531E+01  0.79063197009E+01  0.17195150344E+02  0.00000000000E+00 0. -1.
</event>
<event>
 7    1  0.1302069E-013  0.7246153E+02  0.7816164E-02  0.1226708E+00
        -11   -1    0    0    0    0  0.00000000000E+00  0.00000000000E+00  0.45593999997E+02  0.45594000000E+02  0.51100000000E-03 0. -1.
         11   -1    0    0    0    0 -0.00000000000E+00 -0.00000000000E+00 -0.45593999997E+02  0.45594000000E+02  0.51100000000E-03 0.  1.
    9900012    2    1    2    0    0 -0.13980562119E+02 -0.81126478778E+01 -0.94556639262E+01  0.72461528014E+02  0.69999944922E+02 0.  0.
         12    1    1    2    0    0  0.13980562119E+02  0.81126478778E+01  0.94556639262E+01  0.18726471986E+02  0.00000000000E+00 0. -1.
         11    1    3    3    0    0 -0.88259919890E+01  0.19501905012E+02  0.73709043044E+01  0.22639625973E+02  0.51100000000E-03 0.  1.
        -11    1    3    3    0    0  0.60580634334E+01 -0.25236452884E+02  0.37945674156E+01  0.26229323835E+02  0.51100000000E-03 0. -1.
        -12    1    3    3    0    0 -0.11212633563E+02 -0.23781000056E+01 -0.20621135646E+02  0.23592578206E+02  0.00000000000E+00 0.  1.
</event>
<event>
 7    1  0.1302069E-013  0.7246159E+02  0.7816164E-02  0.1226708E+00
        -11   -1    0    0    0    0  0.00000000000E+00  0.00000000000E+00  0.45593999997E+02  0.45594000000E+02  0.51100000000E-03 0.  1.
         11   -1    0    0    0    0 -0.00000000000E+00 -0.00000000000E+00 -0.45593999997E+02  0.45594000000E+02  0.51100000000E-03 0. -1.
    9900012    2    1    2    0    0  0.31593575788E+01  0.12883052811E+01  0.18412958464E+02  0.72461593239E+02  0.70000029889E+02 0.  0.
         12    1    1    2    0    0 -0.31593575788E+01 -0.12883052811E+01 -0.18412958464E+02  0.18726406761E+02  0.00000000000E+00 0. -1.
         11    1    3    3    0    0 -0.49416431380E+01 -0.27278781023E+02  0.22637960913E+02  0.35791465541E+02  0.51100000000E-03 0. -1.
        -11    1    3    3    0    0  0.82411749631E+01  0.19089719403E+02 -0.12351803709E+02  0.24184734995E+02  0.51100000000E-03 0.  1.
         12    1    3    3    0    0 -0.14017424633E+00  0.94773669015E+01  0.81268012606E+01  0.12485392702E+02  0.00000000000E+00 0. -1.
</event>
<event>
 7    1  0.1302069E-013  0.7246155E+02  0.7816164E-02  0.1226708E+00
        -11   -1    0    0    0    0  0.00000000000E+00  0.00000000000E+00  0.45593999997E+02  0.45594000000E+02  0.51100000000E-03 0. -1.
         11   -1    0    0    0    0 -0.00000000000E+00 -0.00000000000E+00 -0.45593999997E+02  0.45594000000E+02  0.51100000000E-03 0.  1.
    9900012    2    1    2    0    0 -0.12171663053E+02 -0.10851634073E+02  0.92072056943E+01  0.72461548649E+02  0.69999971802E+02 0.  0.
         12    1    1    2    0    0  0.12171663053E+02  0.10851634073E+02 -0.92072056943E+01  0.18726451351E+02  0.00000000000E+00 0. -1.
         11    1    3    3    0    0  0.86400947739E+01  0.17868006563E+02  0.26301647833E+02  0.32949864571E+02  0.51100000000E-03 0. -1.
        -11    1    3    3    0    0 -0.12150096130E+02 -0.19468153195E+02 -0.11112036935E+02  0.25497278088E+02  0.51100000000E-03 0.  1.
         12    1    3    3    0    0 -0.86616616967E+01 -0.92514874404E+01 -0.59824052038E+01  0.14014405989E+02  0.00000000000E+00 0. -1.
</event>
<event>
 7    1  0.1302069E-013  0.7246161E+02  0.7816164E-02  0.1226708E+00
        -11   -1    0    0    0    0  0.00000000000E+00  0.00000000000E+00  0.45593999997E+02  0.45594000000E+02  0.51100000000E-03 0.  1.
         11   -1    0    0    0    0 -0.00000000000E+00 -0.00000000000E+00 -0.45593999997E+02  0.45594000000E+02  0.51100000000E-03 0. -1.
    9900012    2    1    2    0    0 -0.99754827350E+00 -0.18399187012E+02 -0.33395120785E+01  0.72461614172E+02  0.70000057159E+02 0.  0.
         12    1    1    2    0    0  0.99754827350E+00  0.18399187012E+02  0.33395120785E+01  0.18726385828E+02  0.00000000000E+00 0. -1.
         11    1    3    3    0    0 -0.78844179165E+01 -0.22912834775E+01 -0.20040581647E+02  0.21657306824E+02  0.51100000000E-03 0. -1.
        -11    1    3    3    0    0  0.20865831101E+02 -0.34940168859E+01  0.22712255467E+02  0.31039291393E+02  0.51100000000E-03 0.  1.
        -12    1    3    3    0    0 -0.13978961458E+02 -0.12613886648E+02 -0.60111858990E+01  0.19765015956E+02  0.00000000000E+00 0.  1.
</event>
<event>
 7    1  0.1302069E-013  0.7246157E+02  0.7816164E-02  0.1226708E+00
        -11   -1    0    0    0    0  0.00000000000E+00  0.00000000000E+00  0.45593999997E+02  0.45594000000E+02  0.51100000000E-03 0. -1.
         11   -1    0    0    0    0 -0.00000000000E+00 -0.00000000000E+00 -0.45593999997E+02  0.45594000000E+02  0.51100000000E-03 0.  1.
    9900012    2    1    2    0    0  0.85505822984E+01  0.19930562295E+01 -0.16540691726E+02  0.72461569119E+02  0.69999998469E+02 0.  0.
         12    1    1    2    0    0 -0.85505822984E+01 -0.19930562295E+01  0.16540691726E+02  0.18726430881E+02  0.00000000000E+00 0. -1.
         11    1    3    3    0    0  0.37824826126E+01 -0.16256165134E+02  0.84344644175E+01  0.18700541967E+02  0.51100000000E-03 0. -1.
        -11    1    3    3    0    0 -0.14852011700E+02  0.22495094174E+02 -0.18401602415E+02  0.32637868882E+02  0.51100000000E-03 0.  1.
         12    1    3    3    0    0  0.19620111385E+02 -0.42458728105E+01 -0.65735537279E+01  0.21123158270E+02  0.00000000000E+00 0. -1.
</event>
<event>
 7    1  0.1302069E-013  0.7246161E+02  0.7816164E-02  0.1226708E+00
        -11   -1    0    0    0    0  0.00000000000E+00  0.00000000000E+00  0.45593999997E+02  0.45594000000E+02  0.51100000000E-03 0. -1.
         11   -1    0    0    0    0 -0.00000000000E+00 -0.00000000000E+00 -0.45593999997E+02  0.45594000000E+02  0.51100000000E-03 0.  1.
    9900012    2    1    2    0    0  0.65165756710E+01 -0.16498695036E+02 -0.60004166459E+01  0.72461609630E+02  0.70000051242E+02 0.  0.
         12    1    1    2    0    0 -0.65165756710E+01  0.16498695036E+02  0.60004166459E+01  0.18726390370E+02  0.00000000000E+00 0. -1.
         11    1    3    3    0    0 -0.22253224685E+01  0.10631453734E+02  0.10170294177E+02  0.14880011845E+02  0.51100000000E-03 0. -1.
        -11    1    3    3    0    0  0.40739689284E+01 -0.36120105211E+02  0.23995712822E+01  0.36428246813E+02  0.51100000000E-03 0.  1.
         12    1    3    3    0    0  0.46679292110E+01  0.89899564401E+01 -0.18570282105E+02  0.21153350973E+02  0.00000000000E+00 0. -1.
</event>
<event>
 7    1  0.1302069E-013  0.7246158E+02  0.7816164E-02  0.1226708E+00
        -11   -1    0    0    0    0  0.00000000000E+00  0.00000000000E+00  0.45593999997E+02  0.45594000000E+02  0.51100000000E-03 0. -1.
         11   -1    0    0    0    0 -0.00000000000E+00 -0.00000000000E+00 -0.45593999997E+02  0.45594000000E+02  0.51100000000E-03 0.  1.
    9900012    2    1    2    0    0 -0.16772518998E+02  0.23597080600E+01 -0.79870615212E+01  0.72461581031E+02  0.70000013986E+02 0.  0.
         12    1    1    2    0    0  0.16772518998E+02 -0.23597080600E+01  0.79870615212E+01  0.18726418969E+02  0.00000000000E+00 0. -1.
         11    1    3    3    0    0 -0.55016852251E+01  0.53136860093E+01  0.18558517315E+02  0.20072926157E+02  0.51100000000E-03 0. -1.
        -11    1    3    3    0    0  0.14943400546E+02 -0.81004301422E+01 -0.16945347332E+02  0.24001395477E+02  0.51100000000E-03 0.  1.
        -12    1    3    3    0    0 -0.26214234319E+02  0.51464521929E+01 -0.96002315045E+01  0.28387259397E+02  0.00000000000E+00 0.  1.
</event>
<event>
 7    1  0.1302069E-013  0.7246157E+02  0.7816164E-02  0.1226708E+00
        -11   -1    0    0    0    0  0.00000000000E+00  0.00000000000E+00  0.45593999997E+02  0.45594000000E+02  0.51100000000E-03 0. -1.
         11   -1    0    0    0    0 -0.00000000000E+00 -0.00000000000E+00 -0.45593999997E+02  0.45594000000E+02  0.51100000000E-03 0.  1.
    9900012    2    1    2    0    0  0.55840565358E+01  0.38304449825E+00 -0.17870384481E+02  0.72461573433E+02  0.70000004089E+02 0.  0.
         12    1    1    2    0    0 -0.55840565358E+01 -0.38304449825E+00  0.17870384481E+02  0.18726426567E+02  0.00000000000E+00 0. -1.
         11    1    3    3    0    0  0.29706514406E+02  0.52325780853E+01  0.50146515000E+01  0.30577828594E+02  0.51100000000E-03 0. -1.
        -11    1    3    3    0    0 -0.40383508516E+01  0.86134564386E+01 -0.12143649794E+02  0.15426215997E+02  0.51100000000E-03 0.  1.
         12    1    3    3    0    0 -0.20084107019E+02 -0.13462990026E+02 -0.10741386187E+02  0.26457528842E+02  0.00000000000E+00 0. -1.
</event>
<event>
 7    1  0.1302069E-013  0.7246154E+02  0.7816164E-02  0.1226708E+00
        -11   -1    0    0    0    0  0.00000000000E+00  0.00000000000E+00  0.45593999997E+02  0.45594000000E+02  0.51100000000E-03 0.  1.
         11   -1    0    0    0    0 -0.00000000000E+00 -0.00000000000E+00 -0.45593999997E+02  0.45594000000E+02  0.51100000000E-03 0. -1.
    9900012    2    1    2    0    0  0.31785896151E+01  0.12073464916E+02  0.13957375205E+02  0.72461539853E+02  0.69999960344E+02 0.  0.
         12    1    1    2    0    0 -0.31785896151E+01 -0.12073464916E+02 -0.13957375205E+02  0.18726460147E+02  0.00000000000E+00 0. -1.
         11    1    3    3    0    0  0.53267202762E+01  0.30524603755E+02 -0.15301363197E+01  0.31023647444E+02  0.51100000000E-03 0. -1.
        -11    1    3    3    0    0 -0.13907266640E+02 -0.21117944794E+02  0.14935592367E+02  0.29367525897E+02  0.51100000000E-03 0.  1.
         12    1    3    3    0    0  0.11759135979E+02  0.26668059549E+01  0.55191915765E+00  0.12070366512E+02  0.00000000000E+00 0. -1.
</event>
<event>
 7    1  0.1302069E-013  0.7246156E+02  0.7816164E-02  0.1226708E+00
        -11   -1    0    0    0    0  0.00000000000E+00  0.00000000000E+00  0.45593999997E+02  0.45594000000E+02  0.51100000000E-03 0. -1.
         11   -1    0    0    0    0 -0.00000000000E+00 -0.00000000000E+00 -0.45593999997E+02  0.45594000000E+02  0.51100000000E-03 0.  1.
    9900012    2    1    2    0    0 -0.94228877461E+01  0.13512519048E+02 -0.89050833673E+01  0.72461561623E+02  0.69999988704E+02 0.  0.
         12    1    1    2    0    0  0.94228877461E+01 -0.13512519048E+02  0.89050833673E+01  0.18726438377E+02  0.00000000000E+00 0. -1.
         11    1    3    3    0    0 -0.33862359750E+02  0.76194809924E+00 -0.14426017393E+02  0.36815077765E+02  0.51100000000E-03 0. -1.
        -11    1    3    3    0    0  0.18920009441E+02  0.16745966333E+02 -0.21842407874E+01  0.25360698999E+02  0.51100000000E-03 0.  1.
         12    1    3    3    0    0  0.55194625629E+01 -0.39953953839E+01  0.77051748136E+01  0.10285784859E+02  0.00000000000E+00 0. -1.
</event>
<event>
 7    1  0.1302069E-013  0.7246156E+02  0.7816164E-02  0.1226708E+00
        -11   -1    0    0    0    0  0.00000000000E+00  0.00000000000E+00  0.45593999997E+02  0.45594000000E+02  0.51100000000E-03 0.  1.
         11   -1    0    0    0    0 -0.00000000000E+00 -0.00000000000E+00 -0.45593999997E+02  0.45594000000E+02  0.51100000000E-03 0. -1.
    9900012    2    1    2    0    0  0.11487370895E+02 -0.84051417829E+00  0.14765272472E+02  0.72461563464E+02  0.69999991102E+02 0.  0.
         12    1    1    2    0    0 -0.11487370895E+02  0.84051417829E+00 -0.14765272472E+02  0.18726436536E+02  0.00000000000E+00 0. -1.
         11    1    3    3    0    0 -0.86464208415E+01 -0.63131057384E+00 -0.21731361100E+02  0.23396820338E+02  0.51100000000E-03 0. -1.
        -11    1    3    3    0    0 -0.21655992967E+01  0.61224662324E+01  0.18832302663E+02  0.19920593287E+02  0.51100000000E-03 0.  1.
         12    1    3    3    0    0  0.22299391033E+02 -0.63316698369E+01  0.17664330909E+02  0.29144149839E+02  0.00000000000E+00 0. -1.
</event>
<event>
 7    1  0.1302069E-013  0.7246154E+02  0.7816164E-02  0.1226708E+00
        -11   -1    0    0    0    0  0.00000000000E+00  0.00000000000E+00  0.45593999997E+02  0.45594000000E+02  0.51100000000E-03 0.  1.
         11   -1    0    0    0    0 -0.00000000000E+00 -0.00000000000E+00 -0.45593999997E+02  0.45594000000E+02  0.51100000000E-03 0. -1.
    9900012    2    1    2    0    0  0.12106843659E+02  0.10370251981E+02 -0.98266304686E+01  0.72461535948E+02  0.69999955257E+02 0.  0.
         12    1    1    2    0    0 -0.12106843659E+02 -0.10370251981E+02  0.98266304686E+01  0.18726464052E+02  0.00000000000E+00 0. -1.
         11    1    3    3    0    0 -0.48749105912E+01 -0.59435854554E+00 -0.87565071634E+01  0.10039643087E+02  0.51100000000E-03 0. -1.
        -11    1    3    3    0    0  0.34887299986E+02 -0.85420428277E+01  0.88214157262E-01  0.35917933933E+02  0.51100000000E-03 0.  1.
        -12    1    3    3    0    0 -0.17905545736E+02  0.19506653354E+02 -0.11583374625E+01  0.26503958928E+02  0.00000000000E+00 0.  1.
</event>
<event>
 7    1  0.1302069E-013  0.7246155E+02  0.7816164E-02  0.1226708E+00
        -11   -1    0    0    0    0  0.00000000000E+00  0.00000000000E+00  0.45593999997E+02  0.45594000000E+02  0.51100000000E-03 0.  1.
         11   -1    0    0    0    0 -0.00000000000E+00 -0.00000000000E+00 -0.45593999997E+02  0.45594000000E+02  0.51100000000E-03 0. -1.
    9900012    2    1    2    0    0 -0.10612767823E+02 -0.13682404717E+02  0.71302674070E+01  0.72461554716E+02  0.69999979706E+02 0.  0.
         12    1    1    2    0    0  0.10612767823E+02  0.13682404717E+02 -0.71302674070E+01  0.18726445284E+02  0.00000000000E+00 0. -1.
         11    1    3    3    0    0 -0.15151265313E+02 -0.12084794660E+02  0.32035175502E+02  0.37441361784E+02  0.51100000000E-03 0. -1.
        -11    1    3    3    0    0 -0.56276259200E+01  0.79517689492E+01 -0.57064513059E+01  0.11290012829E+02  0.51100000000E-03 0.  1.
         12    1    3    3    0    0  0.10166123410E+02 -0.95493790060E+01 -0.19198456789E+02  0.23730180102E+02  0.00000000000E+00 0. -1.
</event>
<event>
 8    1  0.1302069E-013  0.7246176E+02  0.7816164E-02  0.1226708E+00
        -11   -1    0    0    0    0  0.00000000000E+00  0.00000000000E+00  0.45593999997E+02  0.45594000000E+02  0.51100000000E-03 0.  1.
         11   -1    0    0    0    0 -0.00000000000E+00 -0.00000000000E+00 -0.45593999997E+02  0.45594000000E+02  0.51100000000E-03 0. -1.
    9900012    2    1    2    0    0 -0.17845982051E+02  0.56711554138E+01 -0.17637577901E+00  0.72461756717E+02  0.70000242850E+02 0.  0.
        -24    2    3    3    0    0 -0.24334720265E+02 -0.21062522178E+01 -0.11041321827E+02  0.57607839861E+02  0.50991543583E+02 0.  0.
         12    1    1    2    0    0  0.17845982051E+02 -0.56711554138E+01  0.17637577901E+00  0.18726243283E+02  0.00000000000E+00 0. -1.
         11    1    4    4    0    0 -0.33997465153E+02  0.11182021821E+02 -0.17642326815E+02  0.39901340135E+02  0.51100000000E-03 0. -1.
        -11    1    3    3    0    0  0.64887382140E+01  0.77774076316E+01  0.10864946048E+02  0.14853916856E+02  0.51100000000E-03 0.  1.
        -12    1    4    4    0    0  0.96627448883E+01 -0.13288274039E+02  0.66010049879E+01  0.17706499726E+02  0.00000000000E+00 0.  1.
</event>
<event>
 7    1  0.1302069E-013  0.7246157E+02  0.7816164E-02  0.1226708E+00
        -11   -1    0    0    0    0  0.00000000000E+00  0.00000000000E+00  0.45593999997E+02  0.45594000000E+02  0.51100000000E-03 0.  1.
         11   -1    0    0    0    0 -0.00000000000E+00 -0.00000000000E+00 -0.45593999997E+02  0.45594000000E+02  0.51100000000E-03 0. -1.
    9900012    2    1    2    0    0  0.16729535293E+02  0.74170418367E+01 -0.39735692860E+01  0.72461571788E+02  0.70000001946E+02 0.  0.
         12    1    1    2    0    0 -0.16729535293E+02 -0.74170418367E+01  0.39735692860E+01  0.18726428212E+02  0.00000000000E+00 0. -1.
         11    1    3    3    0    0  0.16572010735E+02 -0.28124238794E+01 -0.29637324046E+02  0.34072162314E+02  0.51100000000E-03 0. -1.
        -11    1    3    3    0    0 -0.91923738070E+01  0.13555876333E+02  0.82328215842E+01  0.18331417590E+02  0.51100000000E-03 0.  1.
         12    1    3    3    0    0  0.93498983648E+01 -0.33264106174E+01  0.17430933176E+02  0.20057991884E+02  0.00000000000E+00 0. -1.
</event>
<event>
 7    1  0.1302069E-013  0.7246162E+02  0.7816164E-02  0.1226708E+00
        -11   -1    0    0    0    0  0.00000000000E+00  0.00000000000E+00  0.45593999997E+02  0.45594000000E+02  0.51100000000E-03 0.  1.
         11   -1    0    0    0    0 -0.00000000000E+00 -0.00000000000E+00 -0.45593999997E+02  0.45594000000E+02  0.51100000000E-03 0. -1.
    9900012    2    1    2    0    0  0.10276670463E+00  0.18723676464E+02  0.30141695956E+00  0.72461615579E+02  0.70000058991E+02 0.  0.
         12    1    1    2    0    0 -0.10276670463E+00 -0.18723676464E+02 -0.30141695956E+00  0.18726384421E+02  0.00000000000E+00 0. -1.
         11    1    3    3    0    0 -0.10935859348E+02 -0.16481232610E+02 -0.51956075319E+01  0.20450388405E+02  0.51100000000E-03 0. -1.
        -11    1    3    3    0    0  0.34451744817E+01  0.35443501546E+02  0.16007151541E+02  0.39042796131E+02  0.51100000000E-03 0.  1.
         12    1    3    3    0    0  0.75934515705E+01 -0.23859247162E+00 -0.10510127049E+02  0.12968431043E+02  0.00000000000E+00 0. -1.
</event>
<event>
 7    1  0.1302069E-013  0.7246158E+02  0.7816164E-02  0.1226708E+00
        -11   -1    0    0    0    0  0.00000000000E+00  0.00000000000E+00  0.45593999997E+02  0.45594000000E+02  0.51100000000E-03 0. -1.
         11   -1    0    0    0    0 -0.00000000000E+00 -0.00000000000E+00 -0.45593999997E+02  0.45594000000E+02  0.51100000000E-03 0.  1.
    9900012    2    1    2    0    0  0.70508491757E+01 -0.40912393558E+01 -0.16859001278E+02  0.72461584495E+02  0.70000018500E+02 0.  0.
         12    1    1    2    0    0 -0.70508491757E+01  0.40912393558E+01  0.16859001278E+02  0.18726415505E+02  0.00000000000E+00 0. -1.
         11    1    3    3    0    0 -0.23022151248E+02 -0.10210048962E+02  0.70825306702E+01  0.26161551728E+02  0.51100000000E-03 0. -1.
        -11    1    3    3    0    0  0.25079793315E+02  0.13667906283E+02 -0.23909768796E+02  0.37248956214E+02  0.51100000000E-03 0.  1.
         12    1    3    3    0    0  0.49932071084E+01 -0.75490966770E+01 -0.31763151679E-01  0.90510765528E+01  0.00000000000E+00 0. -1.
</event>
<event>
 7    1  0.1302069E-013  0.7246189E+02  0.7816164E-02  0.1226707E+00
        -11   -1    0    0    0    0  0.00000000000E+00  0.00000000000E+00  0.45593999997E+02  0.45594000000E+02  0.51100000000E-03 0. -1.
         11   -1    0    0    0    0 -0.00000000000E+00 -0.00000000000E+00 -0.45593999997E+02  0.45594000000E+02  0.51100000000E-03 0.  1.
    9900012    2    1    2    0    0  0.61762596795E+01  0.78747144281E+01 -0.15827501161E+02  0.72461892451E+02  0.70000419667E+02 0.  0.
         12    1    1    2    0    0 -0.61762596795E+01 -0.78747144281E+01  0.15827501161E+02  0.18726107549E+02  0.00000000000E+00 0. -1.
         11    1    3    3    0    0  0.11602492068E+02  0.23319256209E+02 -0.10429482358E+02  0.28056721741E+02  0.51100000000E-03 0. -1.
        -11    1    3    3    0    0 -0.22483419055E+01 -0.17120903130E+02 -0.21688531589E+02  0.27723144989E+02  0.51100000000E-03 0.  1.
        -12    1    3    3    0    0 -0.31778904833E+01  0.16763613486E+01  0.16290512787E+02  0.16682025721E+02  0.00000000000E+00 0.  1.
</event>
<event>
 7    1  0.1302069E-013  0.7246146E+02  0.7816164E-02  0.1226708E+00
        -11   -1    0    0    0    0  0.00000000000E+00  0.00000000000E+00  0.45593999997E+02  0.45594000000E+02  0.51100000000E-03 0.  1.
         11   -1    0    0    0    0 -0.00000000000E+00 -0.00000000000E+00 -0.45593999997E+02  0.45594000000E+02  0.51100000000E-03 0. -1.
    9900012    2    1    2    0    0 -0.12395219600E+02 -0.11685796402E+02  0.77771446225E+01  0.72461460411E+02  0.69999856857E+02 0.  0.
         12    1    1    2    0    0  0.12395219600E+02  0.11685796402E+02 -0.77771446225E+01  0.18726539589E+02  0.00000000000E+00 0. -1.
         11    1    3    3    0    0  0.37873722636E+01 -0.95613821545E+01 -0.19513373270E+02  0.22057560019E+02  0.51100000000E-03 0. -1.
        -11    1    3    3    0    0 -0.77910184106E+01  0.18492135064E+02  0.11701545815E+02  0.23228973327E+02  0.51100000000E-03 0.  1.
         12    1    3    3    0    0 -0.83915734531E+01 -0.20616549312E+02  0.15588972078E+02  0.27174927065E+02  0.00000000000E+00 0. -1.
</event>
<event>
 7    1  0.1302069E-013  0.7246159E+02  0.7816164E-02  0.1226708E+00
        -11   -1    0    0    0    0  0.00000000000E+00  0.00000000000E+00  0.45593999997E+02  0.45594000000E+02  0.51100000000E-03 0. -1.
         11   -1    0    0    0    0 -0.00000000000E+00 -0.00000000000E+00 -0.45593999997E+02  0.45594000000E+02  0.51100000000E-03 0.  1.
    9900012    2    1    2    0    0  0.10822733040E+02 -0.14985548559E+02  0.29967063015E+01  0.72461589112E+02  0.70000024514E+02 0.  0.
         12    1    1    2    0    0 -0.10822733040E+02  0.14985548559E+02 -0.29967063015E+01  0.18726410888E+02  0.00000000000E+00 0. -1.
         11    1    3    3    0    0 -0.13505920269E+02  0.52956955008E+01  0.23588450308E+02  0.27692404398E+02  0.51100000000E-03 0. -1.
        -11    1    3    3    0    0  0.14135864638E+02  0.27160122621E+01 -0.96992354031E+01  0.17357262438E+02  0.51100000000E-03 0.  1.
         12    1    3    3    0    0  0.10192788671E+02 -0.22997256322E+02 -0.10892508603E+02  0.27411922277E+02  0.00000000000E+00 0. -1.
</event>
<event>
 7    1  0.1302069E-013  0.7246158E+02  0.7816164E-02  0.1226708E+00
        -11   -1    0    0    0    0  0.00000000000E+00  0.00000000000E+00  0.45593999997E+02  0.45594000000E+02  0.51100000000E-03 0.  1.
         11   -1    0    0    0    0 -0.00000000000E+00 -0.00000000000E+00 -0.45593999997E+02  0.45594000000E+02  0.51100000000E-03 0. -1.
    9900012    2    1    2    0    0 -0.12042702863E+02 -0.10988120269E+02  0.92148335485E+01  0.72461584523E+02  0.70000018535E+02 0.  0.
         12    1    1    2    0    0  0.12042702863E+02  0.10988120269E+02 -0.92148335485E+01  0.18726415477E+02  0.00000000000E+00 0. -1.
         11    1    3    3    0    0  0.12116308419E+02 -0.18067036717E+02 -0.18775913335E+02  0.28735999500E+02  0.51100000000E-03 0. -1.
        -11    1    3    3    0    0 -0.23485495307E+02 -0.24610679371E+01  0.16666811052E+02  0.28903424297E+02  0.51100000000E-03 0.  1.
        -12    1    3    3    0    0 -0.67351597522E+00  0.95399843847E+01  0.11323935832E+02  0.14822160725E+02  0.00000000000E+00 0.  1.
</event>
<event>
 7    1  0.1302069E-013  0.7246165E+02  0.7816164E-02  0.1226708E+00
        -11   -1    0    0    0    0  0.00000000000E+00  0.00000000000E+00  0.45593999997E+02  0.45594000000E+02  0.51100000000E-03 0.  1.
         11   -1    0    0    0    0 -0.00000000000E+00 -0.00000000000E+00 -0.45593999997E+02  0.45594000000E+02  0.51100000000E-03 0. -1.
    9900012    2    1    2    0    0 -0.10568806471E+01  0.96616278571E+01  0.16006624665E+02  0.72461652713E+02  0.70000107365E+02 0.  0.
         12    1    1    2    0    0  0.10568806471E+01 -0.96616278571E+01 -0.16006624665E+02  0.18726347287E+02  0.00000000000E+00 0. -1.
         11    1    3    3    0    0  0.33601384882E+01 -0.23518453704E+02 -0.31915703264E+01  0.23970697043E+02  0.51100000000E-03 0. -1.
        -11    1    3    3    0    0  0.71943192226E+01  0.22284951301E+02  0.22222921801E+02  0.32283672920E+02  0.51100000000E-03 0.  1.
        -12    1    3    3    0    0 -0.11611338358E+02  0.10895130261E+02 -0.30247268096E+01  0.16207282750E+02  0.00000000000E+00 0.  1.
</event>
<event>
 7    1  0.1302069E-013  0.7246154E+02  0.7816164E-02  0.1226708E+00
        -11   -1    0    0    0    0  0.00000000000E+00  0.00000000000E+00  0.45593999997E+02  0.45594000000E+02  0.51100000000E-03 0. -1.
         11   -1    0    0    0    0 -0.00000000000E+00 -0.00000000000E+00 -0.45593999997E+02  0.45594000000E+02  0.51100000000E-03 0.  1.
    9900012    2    1    2    0    0  0.18053675886E+01 -0.26095720253E+01 -0.18455648116E+02  0.72461543697E+02  0.69999965352E+02 0.  0.
         12    1    1    2    0    0 -0.18053675886E+01  0.26095720253E+01  0.18455648116E+02  0.18726456303E+02  0.00000000000E+00 0. -1.
         11    1    3    3    0    0  0.36671181139E+00 -0.20480544389E+02 -0.25374982655E+02  0.32610993868E+02  0.51100000000E-03 0. -1.
        -11    1    3    3    0    0  0.33350976846E+01  0.26004310751E+02 -0.35518062985E+01  0.26456802196E+02  0.51100000000E-03 0.  1.
         12    1    3    3    0    0 -0.18964419073E+01 -0.81333383871E+01  0.10471140837E+02  0.13393747633E+02  0.00000000000E+00 0. -1.
</event>
<event>
 7    1  0.1302069E-013  0.7246206E+02  0.7816164E-02  0.1226707E+00
        -11   -1    0    0    0    0  0.00000000000E+00  0.00000000000E+00  0.45593999997E+02  0.45594000000E+02  0.51100000000E-03 0.  1.
         11   -1    0    0    0    0 -0.00000000000E+00 -0.00000000000E+00 -0.45593999997E+02  0.45594000000E+02  0.51100000000E-03 0. -1.
    9900012    2    1    2    0    0 -0.42194082145E+01 -0.79420220647E+01  0.16425028897E+02  0.72462063590E+02  0.70000642607E+02 0.  0.
         12    1    1    2    0    0  0.42194082145E+01  0.79420220647E+01 -0.16425028897E+02  0.18725936410E+02  0.00000000000E+00 0. -1.
         11    1    3    3    0    0 -0.12334671995E+02  0.15785700481E+02  0.22445709824E+02  0.30085583967E+02  0.51100000000E-03 0. -1.
        -11    1    3    3    0    0  0.98496366247E+01 -0.21526987389E+02  0.10300023368E+02  0.25816990710E+02  0.51100000000E-03 0.  1.
         12    1    3    3    0    0 -0.17343728447E+01 -0.22007351566E+01 -0.16320704295E+02  0.16559488913E+02  0.00000000000E+00 0. -1.
</event>
<event>
 7    1  0.1302069E-013  0.7246157E+02  0.7816164E-02  0.1226708E+00
        -11   -1    0    0    0    0  0.00000000000E+00  0.00000000000E+00  0.45593999997E+02  0.45594000000E+02  0.51100000000E-03 0. -1.
         11   -1    0    0    0    0 -0.00000000000E+00 -0.00000000000E+00 -0.45593999997E+02  0.45594000000E+02  0.51100000000E-03 0.  1.
    9900012    2    1    2    0    0 -0.10098149303E+01  0.14015846518E+02 -0.12378029041E+02  0.72461567271E+02  0.69999996062E+02 0.  0.
         12    1    1    2    0    0  0.10098149303E+01 -0.14015846518E+02  0.12378029041E+02  0.18726432729E+02  0.00000000000E+00 0. -1.
         11    1    3    3    0    0  0.18936627732E+02  0.39200788538E+01  0.25319881812E+01  0.19503175446E+02  0.51100000000E-03 0. -1.
        -11    1    3    3    0    0 -0.24624001894E+02  0.23298893816E+02 -0.18332555564E+02  0.38539103727E+02  0.51100000000E-03 0.  1.
        -12    1    3    3    0    0  0.46775592317E+01 -0.13203126152E+02  0.34225383416E+01  0.14419288098E+02  0.00000000000E+00 0.  1.
</event>
<event>
 7    1  0.1689422E-013  0.7246166E+02  0.7816164E-02  0.1226708E+00
        -11   -1    0    0    0    0  0.00000000000E+00  0.00000000000E+00  0.45593999997E+02  0.45594000000E+02  0.51100000000E-03 0. -1.
         11   -1    0    0    0    0 -0.00000000000E+00 -0.00000000000E+00 -0.45593999997E+02  0.45594000000E+02  0.51100000000E-03 0.  1.
    9900012    2    1    2    0    0  0.93427373543E+01  0.56623039915E+00 -0.16219387446E+02  0.72461657932E+02  0.70000114164E+02 0.  0.
         12    1    1    2    0    0 -0.93427373543E+01 -0.56623039915E+00  0.16219387446E+02  0.18726342068E+02  0.00000000000E+00 0. -1.
         11    1    3    3    0    0  0.76098363239E+01 -0.69287490318E+01  0.10207428914E+02  0.14495129435E+02  0.51100000000E-03 0. -1.
        -11    1    3    3    0    0  0.14417322244E+02 -0.36418462265E+01 -0.35724352875E+02  0.38695627831E+02  0.51100000000E-03 0.  1.
        -12    1    3    3    0    0 -0.12684421213E+02  0.11136825657E+02  0.92975365147E+01  0.19270900666E+02  0.00000000000E+00 0.  1.
</event>
<event>
 7    1  0.1302069E-013  0.7246158E+02  0.7816164E-02  0.1226708E+00
        -11   -1    0    0    0    0  0.00000000000E+00  0.00000000000E+00  0.45593999997E+02  0.45594000000E+02  0.51100000000E-03 0. -1.
         11   -1    0    0    0    0 -0.00000000000E+00 -0.00000000000E+00 -0.45593999997E+02  0.45594000000E+02  0.51100000000E-03 0.  1.
    9900012    2    1    2    0    0  0.17510432522E+02  0.38487802729E+01  0.54083773653E+01  0.72461577426E+02  0.70000009290E+02 0.  0.
         12    1    1    2    0    0 -0.17510432522E+02 -0.38487802729E+01 -0.54083773653E+01  0.18726422574E+02  0.00000000000E+00 0. -1.
         11    1    3    3    0    0  0.21862468383E+02 -0.95235386293E+01  0.26380301114E+02  0.35561012344E+02  0.51100000000E-03 0. -1.
        -11    1    3    3    0    0  0.14586420895E+01  0.12728765480E+02 -0.26131391141E+02  0.29103242270E+02  0.51100000000E-03 0.  1.
         12    1    3    3    0    0 -0.58106779507E+01  0.64355342232E+00  0.51594673924E+01  0.77973228116E+01  0.00000000000E+00 0. -1.
</event>
<event>
 7    1  0.1302069E-013  0.7246157E+02  0.7816164E-02  0.1226708E+00
        -11   -1    0    0    0    0  0.00000000000E+00  0.00000000000E+00  0.45593999997E+02  0.45594000000E+02  0.51100000000E-03 0.  1.
         11   -1    0    0    0    0 -0.00000000000E+00 -0.00000000000E+00 -0.45593999997E+02  0.45594000000E+02  0.51100000000E-03 0. -1.
    9900012    2    1    2    0    0  0.92591001963E+01 -0.93319937678E+01  0.13336497983E+02  0.72461568878E+02  0.69999998155E+02 0.  0.
         12    1    1    2    0    0 -0.92591001963E+01  0.93319937678E+01 -0.13336497983E+02  0.18726431122E+02  0.00000000000E+00 0. -1.
         11    1    3    3    0    0 -0.58580557513E+01 -0.83491144304E+01  0.48434925409E+01  0.11290879027E+02  0.51100000000E-03 0. -1.
        -11    1    3    3    0    0  0.36668419652E+02 -0.58641498263E+01  0.11489744374E+02  0.38871268040E+02  0.51100000000E-03 0.  1.
        -12    1    3    3    0    0 -0.21551263705E+02  0.48812704889E+01 -0.29967389318E+01  0.22299421811E+02  0.00000000000E+00 0.  1.
</event>
<event>
 7    1  0.1302069E-013  0.7246166E+02  0.7816164E-02  0.1226708E+00
        -11   -1    0    0    0    0  0.00000000000E+00  0.00000000000E+00  0.45593999997E+02  0.45594000000E+02  0.51100000000E-03 0.  1.
         11   -1    0    0    0    0 -0.00000000000E+00 -0.00000000000E+00 -0.45593999997E+02  0.45594000000E+02  0.51100000000E-03 0. -1.
    9900012    2    1    2    0    0 -0.30529550016E+01  0.12583569999E+02  0.13528088899E+02  0.72461656058E+02  0.70000111724E+02 0.  0.
         12    1    1    2    0    0  0.30529550016E+01 -0.12583569999E+02 -0.13528088899E+02  0.18726343942E+02  0.00000000000E+00 0. -1.
         11    1    3    3    0    0 -0.19224034161E+02  0.16585490752E+02 -0.13684326728E+02  0.28842725100E+02  0.51100000000E-03 0. -1.
        -11    1    3    3    0    0  0.18574652881E+02  0.89064765926E+01  0.13473032949E+02  0.24614338749E+02  0.51100000000E-03 0.  1.
        -12    1    3    3    0    0 -0.24035737217E+01 -0.12908397346E+02  0.13739382678E+02  0.19004592210E+02  0.00000000000E+00 0.  1.
</event>
<event>
 7    1  0.1418861E-013  0.7246158E+02  0.7816164E-02  0.1226708E+00
        -11   -1    0    0    0    0  0.00000000000E+00  0.00000000000E+00  0.45593999997E+02  0.45594000000E+02  0.51100000000E-03 0.  1.
         11   -1    0    0    0    0 -0.00000000000E+00 -0.00000000000E+00 -0.45593999997E+02  0.45594000000E+02  0.51100000000E-03 0. -1.
    9900012    2    1    2    0    0 -0.17515505471E+02  0.60532610990E+01 -0.26914616769E+01  0.72461578350E+02  0.70000010495E+02 0.  0.
         12    1    1    2    0    0  0.17515505471E+02 -0.60532610990E+01  0.26914616769E+01  0.18726421650E+02  0.00000000000E+00 0. -1.
         11    1    3    3    0    0  0.16276737761E+02 -0.47765155918E+01  0.64057745855E+01  0.18132325875E+02  0.51100000000E-03 0. -1.
        -11    1    3    3    0    0 -0.16864307222E+02  0.22203824206E+02 -0.16772985312E+02  0.32538403526E+02  0.51100000000E-03 0.  1.
        -12    1    3    3    0    0 -0.16927936010E+02 -0.11374047516E+02  0.76757490499E+01  0.21790848949E+02  0.00000000000E+00 0.  1.
</event>
<event>
 7    1  0.1302069E-013  0.7246156E+02  0.7816164E-02  0.1226708E+00
        -11   -1    0    0    0    0  0.00000000000E+00  0.00000000000E+00  0.45593999997E+02  0.45594000000E+02  0.51100000000E-03 0. -1.
         11   -1    0    0    0    0 -0.00000000000E+00 -0.00000000000E+00 -0.45593999997E+02  0.45594000000E+02  0.51100000000E-03 0.  1.
    9900012    2    1    2    0    0  0.36068131224E+01  0.14871856091E+02 -0.10793442439E+02  0.72461558689E+02  0.69999984882E+02 0.  0.
         12    1    1    2    0    0 -0.36068131224E+01 -0.14871856091E+02  0.10793442439E+02  0.18726441311E+02  0.00000000000E+00 0. -1.
         11    1    3    3    0    0  0.45383248368E+01 -0.22626532142E+02 -0.11380459622E+02  0.25730744462E+02  0.51100000000E-03 0.  1.
        -11    1    3    3    0    0 -0.12749170295E+02  0.85053329732E+01  0.15722927049E+01  0.15406301853E+02  0.51100000000E-03 0. -1.
         12    1    3    3    0    0  0.11817658580E+02  0.28993055260E+02 -0.98527552144E+00  0.31324512374E+02  0.00000000000E+00 0. -1.
</event>
<event>
 7    1  0.1302069E-013  0.7246155E+02  0.7816164E-02  0.1226708E+00
        -11   -1    0    0    0    0  0.00000000000E+00  0.00000000000E+00  0.45593999997E+02  0.45594000000E+02  0.51100000000E-03 0.  1.
         11   -1    0    0    0    0 -0.00000000000E+00 -0.00000000000E+00 -0.45593999997E+02  0.45594000000E+02  0.51100000000E-03 0. -1.
    9900012    2    1    2    0    0  0.10901881286E+02  0.71642226370E+01  0.13435132443E+02  0.72461551182E+02  0.69999975103E+02 0.  0.
         12    1    1    2    0    0 -0.10901881286E+02 -0.71642226370E+01 -0.13435132443E+02  0.18726448818E+02  0.00000000000E+00 0. -1.
         11    1    3    3    0    0  0.11706733048E+02  0.84380317714E+01 -0.17082968973E+02  0.22362374830E+02  0.51100000000E-03 0. -1.
        -11    1    3    3    0    0  0.85738840028E+01 -0.61625619681E+01  0.36466761475E+02  0.37964632879E+02  0.51100000000E-03 0.  1.
        -12    1    3    3    0    0 -0.93787357654E+01  0.48887528337E+01 -0.59486600585E+01  0.12134543474E+02  0.00000000000E+00 0.  1.
</event>
<event>
 7    1  0.1302069E-013  0.7246155E+02  0.7816164E-02  0.1226708E+00
        -11   -1    0    0    0    0  0.00000000000E+00  0.00000000000E+00  0.45593999997E+02  0.45594000000E+02  0.51100000000E-03 0.  1.
         11   -1    0    0    0    0 -0.00000000000E+00 -0.00000000000E+00 -0.45593999997E+02  0.45594000000E+02  0.51100000000E-03 0. -1.
    9900012    2    1    2    0    0  0.17598528825E+01  0.14708793975E+01  0.18585460396E+02  0.72461550617E+02  0.69999974367E+02 0.  0.
         12    1    1    2    0    0 -0.17598528825E+01 -0.14708793975E+01 -0.18585460396E+02  0.18726449383E+02  0.00000000000E+00 0. -1.
         11    1    3    3    0    0  0.14863970765E+02  0.13193605679E+01 -0.13568834575E+02  0.20169075616E+02  0.51100000000E-03 0. -1.
        -11    1    3    3    0    0  0.53719213424E+01  0.95853115712E+01  0.29373977175E+02  0.31361860152E+02  0.51100000000E-03 0.  1.
         12    1    3    3    0    0 -0.18476039225E+02 -0.94337927416E+01  0.27803177957E+01  0.20930614849E+02  0.00000000000E+00 0. -1.
</event>
<event>
 7    1  0.1302069E-013  0.7246146E+02  0.7816164E-02  0.1226708E+00
        -11   -1    0    0    0    0  0.00000000000E+00  0.00000000000E+00  0.45593999997E+02  0.45594000000E+02  0.51100000000E-03 0.  1.
         11   -1    0    0    0    0 -0.00000000000E+00 -0.00000000000E+00 -0.45593999997E+02  0.45594000000E+02  0.51100000000E-03 0. -1.
    9900012    2    1    2    0    0 -0.20783610029E+01  0.27964529904E+01  0.18399551418E+02  0.72461461981E+02  0.69999858901E+02 0.  0.
         12    1    1    2    0    0  0.20783610029E+01 -0.27964529904E+01 -0.18399551418E+02  0.18726538019E+02  0.00000000000E+00 0. -1.
         11    1    3    3    0    0 -0.14253422298E+02  0.69533841095E+01 -0.58154257305E+01  0.16891677669E+02  0.51100000000E-03 0. -1.
        -11    1    3    3    0    0  0.12521687015E+02  0.14678994493E+02  0.30169960496E+02  0.35811898045E+02  0.51100000000E-03 0.  1.
        -12    1    3    3    0    0 -0.34662571926E+00 -0.18835925612E+02 -0.59549833467E+01  0.19757886266E+02  0.00000000000E+00 0.  1.
</event>
<event>
 7    1  0.1302069E-013  0.7246153E+02  0.7816164E-02  0.1226708E+00
        -11   -1    0    0    0    0  0.00000000000E+00  0.00000000000E+00  0.45593999997E+02  0.45594000000E+02  0.51100000000E-03 0.  1.
         11   -1    0    0    0    0 -0.00000000000E+00 -0.00000000000E+00 -0.45593999997E+02  0.45594000000E+02  0.51100000000E-03 0. -1.
    9900012    2    1    2    0    0  0.15221505907E+02  0.66616214469E+01  0.86376605863E+01  0.72461531492E+02  0.69999949452E+02 0.  0.
         12    1    1    2    0    0 -0.15221505907E+02 -0.66616214469E+01 -0.86376605863E+01  0.18726468508E+02  0.00000000000E+00 0. -1.
         11    1    3    3    0    0  0.11336794262E+02 -0.14605143905E+02 -0.16425318046E+02  0.24731037297E+02  0.51100000000E-03 0. -1.
        -11    1    3    3    0    0  0.67502291714E+01  0.22445045851E+02  0.32271240773E+02  0.39884566670E+02  0.51100000000E-03 0.  1.
         12    1    3    3    0    0 -0.28655175257E+01 -0.11782804987E+01 -0.72082621416E+01  0.78459275249E+01  0.00000000000E+00 0. -1.
</event>
<event>
 7    1  0.1302069E-013  0.7246156E+02  0.7816164E-02  0.1226708E+00
        -11   -1    0    0    0    0  0.00000000000E+00  0.00000000000E+00  0.45593999997E+02  0.45594000000E+02  0.51100000000E-03 0. -1.
         11   -1    0    0    0    0 -0.00000000000E+00 -0.00000000000E+00 -0.45593999997E+02  0.45594000000E+02  0.51100000000E-03 0.  1.
    9900012    2    1    2    0    0  0.11292637744E+02  0.13195070416E+02 -0.70032919285E+01  0.72461557510E+02  0.69999983346E+02 0.  0.
         12    1    1    2    0    0 -0.11292637744E+02 -0.13195070416E+02  0.70032919285E+01  0.18726442490E+02  0.00000000000E+00 0. -1.
         11    1    3    3    0    0 -0.11514612393E+01  0.30863449415E+02  0.21053353739E+01  0.30956595583E+02  0.51100000000E-03 0. -1.
        -11    1    3    3    0    0  0.11194661587E+02 -0.18075883613E+02 -0.20797686414E+02  0.29742255745E+02  0.51100000000E-03 0.  1.
        -12    1    3    3    0    0  0.12494373965E+01  0.40750461311E+00  0.11689059111E+02  0.11762706182E+02  0.00000000000E+00 0.  1.
</event>
<event>
 7    1  0.1302069E-013  0.7246155E+02  0.7816164E-02  0.1226708E+00
        -11   -1    0    0    0    0  0.00000000000E+00  0.00000000000E+00  0.45593999997E+02  0.45594000000E+02  0.51100000000E-03 0.  1.
         11   -1    0    0    0    0 -0.00000000000E+00 -0.00000000000E+00 -0.45593999997E+02  0.45594000000E+02  0.51100000000E-03 0. -1.
    9900012    2    1    2    0    0  0.10693492510E+00 -0.30248310434E+01  0.18480227997E+02  0.72461551732E+02  0.69999975819E+02 0.  0.
         12    1    1    2    0    0 -0.10693492510E+00  0.30248310434E+01 -0.18480227997E+02  0.18726448268E+02  0.00000000000E+00 0. -1.
         11    1    3    3    0    0  0.38605107201E+00 -0.32953410770E+02  0.16512738784E+01  0.32997015357E+02  0.51100000000E-03 0. -1.
        -11    1    3    3    0    0  0.59597471909E+01  0.28724885573E+02  0.14105534266E+02  0.32551555031E+02  0.51100000000E-03 0.  1.
        -12    1    3    3    0    0 -0.62388633378E+01  0.12036941532E+01  0.27234198529E+01  0.69129813437E+01  0.00000000000E+00 0.  1.
</event>
<event>
 7    1  0.1302069E-013  0.7246155E+02  0.7816164E-02  0.1226708E+00
        -11   -1    0    0    0    0  0.00000000000E+00  0.00000000000E+00  0.45593999997E+02  0.45594000000E+02  0.51100000000E-03 0.  1.
         11   -1    0    0    0    0 -0.00000000000E+00 -0.00000000000E+00 -0.45593999997E+02  0.45594000000E+02  0.51100000000E-03 0. -1.
    9900012    2    1    2    0    0  0.33973297076E+00 -0.15531643379E+02  0.10456218401E+02  0.72461551651E+02  0.69999975713E+02 0.  0.
         12    1    1    2    0    0 -0.33973297076E+00  0.15531643379E+02 -0.10456218401E+02  0.18726448349E+02  0.00000000000E+00 0. -1.
         11    1    3    3    0    0  0.53766584126E+00  0.32504906801E+00  0.27579395803E+02  0.27586551335E+02  0.51100000000E-03 0. -1.
        -11    1    3    3    0    0  0.18289262061E+02 -0.11007611110E+02 -0.13951253383E+02  0.25501021162E+02  0.51100000000E-03 0.  1.
         12    1    3    3    0    0 -0.18487194932E+02 -0.48490813369E+01 -0.31719240194E+01  0.19373979154E+02  0.00000000000E+00 0. -1.
</event>
<event>
 7    1  0.1302069E-013  0.7246154E+02  0.7816164E-02  0.1226708E+00
        -11   -1    0    0    0    0  0.00000000000E+00  0.00000000000E+00  0.45593999997E+02  0.45594000000E+02  0.51100000000E-03 0. -1.
         11   -1    0    0    0    0 -0.00000000000E+00 -0.00000000000E+00 -0.45593999997E+02  0.45594000000E+02  0.51100000000E-03 0.  1.
    9900012    2    1    2    0    0 -0.16448655436E+02  0.67901625605E+01 -0.58322954028E+01  0.72461541635E+02  0.69999962665E+02 0.  0.
         12    1    1    2    0    0  0.16448655436E+02 -0.67901625605E+01  0.58322954028E+01  0.18726458365E+02  0.00000000000E+00 0. -1.
         11    1    3    3    0    0 -0.12032206449E+02  0.15865715377E+02  0.66944738114E+01  0.21007400989E+02  0.51100000000E-03 0. -1.
        -11    1    3    3    0    0 -0.20602757183E+02 -0.21138099623E+02 -0.96994420397E+01  0.31070436678E+02  0.51100000000E-03 0.  1.
        -12    1    3    3    0    0  0.16186308196E+02  0.12062546807E+02 -0.28273271745E+01  0.20383703968E+02  0.00000000000E+00 0.  1.
</event>
<event>
 7    1  0.1302069E-013  0.7246157E+02  0.7816164E-02  0.1226708E+00
        -11   -1    0    0    0    0  0.00000000000E+00  0.00000000000E+00  0.45593999997E+02  0.45594000000E+02  0.51100000000E-03 0. -1.
         11   -1    0    0    0    0 -0.00000000000E+00 -0.00000000000E+00 -0.45593999997E+02  0.45594000000E+02  0.51100000000E-03 0.  1.
    9900012    2    1    2    0    0 -0.46441535663E+01  0.23277002996E+01 -0.17991468622E+02  0.72461566965E+02  0.69999995663E+02 0.  0.
         12    1    1    2    0    0  0.46441535663E+01 -0.23277002996E+01  0.17991468622E+02  0.18726433035E+02  0.00000000000E+00 0. -1.
         11    1    3    3    0    0 -0.17056943601E+00 -0.27802593625E+02  0.81327543685E+00  0.27815008959E+02  0.51100000000E-03 0. -1.
        -11    1    3    3    0    0  0.86122986022E+01  0.23624738225E+02 -0.77185316383E+01  0.26303529693E+02  0.51100000000E-03 0.  1.
        -12    1    3    3    0    0 -0.13085882733E+02  0.65055556994E+01 -0.11086212420E+02  0.18343028313E+02  0.00000000000E+00 0.  1.
</event>
<event>
 7    1  0.1302069E-013  0.7246156E+02  0.7816164E-02  0.1226708E+00
        -11   -1    0    0    0    0  0.00000000000E+00  0.00000000000E+00  0.45593999997E+02  0.45594000000E+02  0.51100000000E-03 0. -1.
         11   -1    0    0    0    0 -0.00000000000E+00 -0.00000000000E+00 -0.45593999997E+02  0.45594000000E+02  0.51100000000E-03 0.  1.
    9900012    2    1    2    0    0  0.15537379106E+02  0.91052247874E+01 -0.51346094730E+01  0.72461561942E+02  0.69999989119E+02 0.  0.
         12    1    1    2    0    0 -0.15537379106E+02 -0.91052247874E+01  0.51346094730E+01  0.18726438058E+02  0.00000000000E+00 0. -1.
         11    1    3    3    0    0  0.16099440529E+02  0.18279142240E+02 -0.24300283174E+02  0.34406725926E+02  0.51100000000E-03 0.  1.
        -11    1    3    3    0    0 -0.51691004247E+01 -0.19873449237E+01  0.26332633113E+02  0.26908673434E+02  0.51100000000E-03 0. -1.
         12    1    3    3    0    0  0.46070390011E+01 -0.71865725288E+01 -0.71669594127E+01  0.11146162582E+02  0.00000000000E+00 0. -1.
</event>
<event>
 7    1  0.1302069E-013  0.7246147E+02  0.7816164E-02  0.1226708E+00
        -11   -1    0    0    0    0  0.00000000000E+00  0.00000000000E+00  0.45593999997E+02  0.45594000000E+02  0.51100000000E-03 0. -1.
         11   -1    0    0    0    0 -0.00000000000E+00 -0.00000000000E+00 -0.45593999997E+02  0.45594000000E+02  0.51100000000E-03 0.  1.
    9900012    2    1    2    0    0 -0.58627205590E+01 -0.17088207994E+02 -0.49299735790E+01  0.72461468439E+02  0.69999867315E+02 0.  0.
         12    1    1    2    0    0  0.58627205590E+01  0.17088207994E+02  0.49299735790E+01  0.18726531561E+02  0.00000000000E+00 0. -1.
         11    1    3    3    0    0  0.20200234934E+02 -0.18098355267E+02  0.17978234295E+02  0.32539466243E+02  0.51100000000E-03 0. -1.
        -11    1    3    3    0    0 -0.12172339292E+02  0.10017930229E+02 -0.14193644250E+02  0.21212833551E+02  0.51100000000E-03 0.  1.
        -12    1    3    3    0    0 -0.13890616201E+02 -0.90077829566E+01 -0.87145636237E+01  0.18709168645E+02  0.00000000000E+00 0.  1.
</event>
<event>
 7    1  0.1302069E-013  0.7246157E+02  0.7816164E-02  0.1226708E+00
        -11   -1    0    0    0    0  0.00000000000E+00  0.00000000000E+00  0.45593999997E+02  0.45594000000E+02  0.51100000000E-03 0. -1.
         11   -1    0    0    0    0 -0.00000000000E+00 -0.00000000000E+00 -0.45593999997E+02  0.45594000000E+02  0.51100000000E-03 0.  1.
    9900012    2    1    2    0    0  0.86522893138E+01  0.15570586781E+02 -0.57770004976E+01  0.72461574345E+02  0.70000005277E+02 0.  0.
         12    1    1    2    0    0 -0.86522893138E+01 -0.15570586781E+02  0.57770004976E+01  0.18726425655E+02  0.00000000000E+00 0. -1.
         11    1    3    3    0    0  0.32361009553E+02  0.13925271600E+02 -0.28408983213E+01  0.35344289948E+02  0.51100000000E-03 0. -1.
        -11    1    3    3    0    0 -0.18274079920E+02  0.38607608950E+01  0.11223058718E+02  0.21790009611E+02  0.51100000000E-03 0.  1.
        -12    1    3    3    0    0 -0.54346403196E+01 -0.22154457139E+01 -0.14159160894E+02  0.15327274786E+02  0.00000000000E+00 0.  1.
</event>
<event>
 7    1  0.1302069E-013  0.7246156E+02  0.7816164E-02  0.1226708E+00
        -11   -1    0    0    0    0  0.00000000000E+00  0.00000000000E+00  0.45593999997E+02  0.45594000000E+02  0.51100000000E-03 0.  1.
         11   -1    0    0    0    0 -0.00000000000E+00 -0.00000000000E+00 -0.45593999997E+02  0.45594000000E+02  0.51100000000E-03 0. -1.
    9900012    2    1    2    0    0 -0.17673487824E+02 -0.14407538418E+00  0.61892202915E+01  0.72461564744E+02  0.69999992770E+02 0.  0.
         12    1    1    2    0    0  0.17673487824E+02  0.14407538418E+00 -0.61892202915E+01  0.18726435256E+02  0.00000000000E+00 0. -1.
         11    1    3    3    0    0  0.67784013372E+01  0.77600188503E+01 -0.59127044214E+01  0.11879591368E+02  0.51100000000E-03 0. -1.
        -11    1    3    3    0    0 -0.13674407739E+01 -0.69376305274E-01  0.30193446029E+02  0.30224475028E+02  0.51100000000E-03 0.  1.
        -12    1    3    3    0    0 -0.23084448387E+02 -0.78347179292E+01 -0.18091521316E+02  0.30357498347E+02  0.00000000000E+00 0.  1.
</event>
<event>
 7    1  0.1302069E-013  0.7246148E+02  0.7816164E-02  0.1226708E+00
        -11   -1    0    0    0    0  0.00000000000E+00  0.00000000000E+00  0.45593999997E+02  0.45594000000E+02  0.51100000000E-03 0. -1.
         11   -1    0    0    0    0 -0.00000000000E+00 -0.00000000000E+00 -0.45593999997E+02  0.45594000000E+02  0.51100000000E-03 0.  1.
    9900012    2    1    2    0    0  0.82960440277E+01 -0.90569407022E+01 -0.14136126170E+02  0.72461479114E+02  0.69999881221E+02 0.  0.
         12    1    1    2    0    0 -0.82960440277E+01  0.90569407022E+01  0.14136126170E+02  0.18726520886E+02  0.00000000000E+00 0. -1.
         11    1    3    3    0    0  0.22126256520E+02 -0.27853313437E+02 -0.10585447008E+02  0.37113743891E+02  0.51100000000E-03 0. -1.
        -11    1    3    3    0    0  0.59258343287E+01  0.99612646241E+01 -0.68387462711E+01  0.13457739640E+02  0.51100000000E-03 0.  1.
         12    1    3    3    0    0 -0.19756046821E+02  0.88351081107E+01  0.32880671096E+01  0.21889995583E+02  0.00000000000E+00 0. -1.
</event>
<event>
 7    1  0.1302069E-013  0.7246139E+02  0.7816164E-02  0.1226709E+00
        -11   -1    0    0    0    0  0.00000000000E+00  0.00000000000E+00  0.45593999997E+02  0.45594000000E+02  0.51100000000E-03 0.  1.
         11   -1    0    0    0    0 -0.00000000000E+00 -0.00000000000E+00 -0.45593999997E+02  0.45594000000E+02  0.51100000000E-03 0. -1.
    9900012    2    1    2    0    0 -0.17911578346E+02  0.25026563261E+01  0.48577881449E+01  0.72461387034E+02  0.69999761269E+02 0.  0.
         12    1    1    2    0    0  0.17911578346E+02 -0.25026563261E+01 -0.48577881449E+01  0.18726612966E+02  0.00000000000E+00 0. -1.
         11    1    3    3    0    0  0.19071959423E+02 -0.12086428127E+02 -0.30122630369E+01  0.22779269303E+02  0.51100000000E-03 0. -1.
        -11    1    3    3    0    0 -0.28225712899E+02  0.34461736352E+01 -0.68494508778E+01  0.29248623198E+02  0.51100000000E-03 0.  1.
         12    1    3    3    0    0 -0.87578248702E+01  0.11142910818E+02  0.14719502060E+02  0.20433494533E+02  0.00000000000E+00 0. -1.
</event>
<event>
 7    1  0.1302069E-013  0.7246155E+02  0.7816164E-02  0.1226708E+00
        -11   -1    0    0    0    0  0.00000000000E+00  0.00000000000E+00  0.45593999997E+02  0.45594000000E+02  0.51100000000E-03 0. -1.
         11   -1    0    0    0    0 -0.00000000000E+00 -0.00000000000E+00 -0.45593999997E+02  0.45594000000E+02  0.51100000000E-03 0.  1.
    9900012    2    1    2    0    0  0.25894886436E+01 -0.10858102119E+02 -0.15035831821E+02  0.72461546208E+02  0.69999968624E+02 0.  0.
         12    1    1    2    0    0 -0.25894886436E+01  0.10858102119E+02  0.15035831821E+02  0.18726453792E+02  0.00000000000E+00 0. -1.
         11    1    3    3    0    0 -0.20401032250E+01 -0.15547097603E+02  0.11085399010E+02  0.19203133508E+02  0.51100000000E-03 0. -1.
        -11    1    3    3    0    0 -0.87267931164E+01  0.92729061650E+01 -0.34543968146E+02  0.36816157354E+02  0.51100000000E-03 0.  1.
         12    1    3    3    0    0  0.13356384985E+02 -0.45839106808E+01  0.84227373142E+01  0.16442255346E+02  0.00000000000E+00 0. -1.
</event>
<event>
 7    1  0.1302069E-013  0.7246154E+02  0.7816164E-02  0.1226708E+00
        -11   -1    0    0    0    0  0.00000000000E+00  0.00000000000E+00  0.45593999997E+02  0.45594000000E+02  0.51100000000E-03 0. -1.
         11   -1    0    0    0    0 -0.00000000000E+00 -0.00000000000E+00 -0.45593999997E+02  0.45594000000E+02  0.51100000000E-03 0.  1.
    9900012    2    1    2    0    0 -0.16425015947E+02 -0.45693242319E+01 -0.77472922241E+01  0.72461537184E+02  0.69999956868E+02 0.  0.
         12    1    1    2    0    0  0.16425015947E+02  0.45693242319E+01  0.77472922241E+01  0.18726462816E+02  0.00000000000E+00 0. -1.
         11    1    3    3    0    0 -0.28547570293E+02 -0.19107099875E+02  0.98356622377E+00  0.34365861521E+02  0.51100000000E-03 0. -1.
        -11    1    3    3    0    0 -0.38203985242E+01  0.19055573620E+02 -0.92349403311E+01  0.21517305920E+02  0.51100000000E-03 0.  1.
         12    1    3    3    0    0  0.15942952870E+02 -0.45177979772E+01  0.50408188321E+00  0.16578369743E+02  0.00000000000E+00 0. -1.
</event>
<event>
 7    1  0.1302069E-013  0.7246152E+02  0.7816164E-02  0.1226708E+00
        -11   -1    0    0    0    0  0.00000000000E+00  0.00000000000E+00  0.45593999997E+02  0.45594000000E+02  0.51100000000E-03 0. -1.
         11   -1    0    0    0    0 -0.00000000000E+00 -0.00000000000E+00 -0.45593999997E+02  0.45594000000E+02  0.51100000000E-03 0.  1.
    9900012    2    1    2    0    0  0.11497983034E+02  0.14536138969E+02  0.26792210854E+01  0.72461516732E+02  0.69999930225E+02 0.  0.
         12    1    1    2    0    0 -0.11497983034E+02 -0.14536138969E+02 -0.26792210854E+01  0.18726483268E+02  0.00000000000E+00 0. -1.
         11    1    3    3    0    0 -0.36799528125E+01  0.37064386616E+01 -0.17436512339E+00  0.52259108021E+01  0.51100000000E-03 0. -1.
        -11    1    3    3    0    0  0.35581380802E+02  0.21047582401E+02  0.11375928507E+02  0.42877116675E+02  0.51100000000E-03 0.  1.
        -12    1    3    3    0    0 -0.20403444956E+02 -0.10217882093E+02 -0.85223422984E+01  0.24358489255E+02  0.00000000000E+00 0.  1.
</event>
<event>
 7    1  0.1302069E-013  0.7246167E+02  0.7816164E-02  0.1226708E+00
        -11   -1    0    0    0    0  0.00000000000E+00  0.00000000000E+00  0.45593999997E+02  0.45594000000E+02  0.51100000000E-03 0. -1.
         11   -1    0    0    0    0 -0.00000000000E+00 -0.00000000000E+00 -0.45593999997E+02  0.45594000000E+02  0.51100000000E-03 0.  1.
    9900012    2    1    2    0    0 -0.18330918847E+02  0.32100446455E+01 -0.20853165805E+01  0.72461667800E+02  0.70000127020E+02 0.  0.
         12    1    1    2    0    0  0.18330918847E+02 -0.32100446455E+01  0.20853165805E+01  0.18726332200E+02  0.00000000000E+00 0. -1.
         11    1    3    3    0    0 -0.18358489179E+02 -0.66670712748E+01  0.28878700044E+01  0.19743954967E+02  0.51100000000E-03 0. -1.
        -11    1    3    3    0    0 -0.14626475562E+01  0.22362114930E+02  0.16503506336E+02  0.27831084126E+02  0.51100000000E-03 0.  1.
        -12    1    3    3    0    0  0.14902178876E+01 -0.12484999009E+02 -0.21476692920E+02  0.24886628707E+02  0.00000000000E+00 0.  1.
</event>
<event>
 7    1  0.1302069E-013  0.7246156E+02  0.7816164E-02  0.1226708E+00
        -11   -1    0    0    0    0  0.00000000000E+00  0.00000000000E+00  0.45593999997E+02  0.45594000000E+02  0.51100000000E-03 0.  1.
         11   -1    0    0    0    0 -0.00000000000E+00 -0.00000000000E+00 -0.45593999997E+02  0.45594000000E+02  0.51100000000E-03 0. -1.
    9900012    2    1    2    0    0 -0.29108723332E+01  0.15659359792E+02 -0.98483913585E+01  0.72461560425E+02  0.69999987143E+02 0.  0.
         12    1    1    2    0    0  0.29108723332E+01 -0.15659359792E+02  0.98483913585E+01  0.18726439575E+02  0.00000000000E+00 0. -1.
         11    1    3    3    0    0 -0.93814755158E+01  0.28235034219E+02  0.16742268462E+02  0.34139900318E+02  0.51100000000E-03 0. -1.
        -11    1    3    3    0    0 -0.67427980510E+01 -0.12238569862E+02 -0.16920350507E+02  0.21944160484E+02  0.51100000000E-03 0.  1.
         12    1    3    3    0    0  0.13213401234E+02 -0.33710456591E+00 -0.96703093138E+01  0.16377499622E+02  0.00000000000E+00 0. -1.
</event>
<event>
 7    1  0.1302069E-013  0.7246158E+02  0.7816164E-02  0.1226708E+00
        -11   -1    0    0    0    0  0.00000000000E+00  0.00000000000E+00  0.45593999997E+02  0.45594000000E+02  0.51100000000E-03 0.  1.
         11   -1    0    0    0    0 -0.00000000000E+00 -0.00000000000E+00 -0.45593999997E+02  0.45594000000E+02  0.51100000000E-03 0. -1.
    9900012    2    1    2    0    0  0.10316700144E+02  0.61357057874E-01  0.15628204151E+02  0.72461579319E+02  0.70000011756E+02 0.  0.
         12    1    1    2    0    0 -0.10316700144E+02 -0.61357057874E-01 -0.15628204151E+02  0.18726420681E+02  0.00000000000E+00 0. -1.
         11    1    3    3    0    0  0.57165183959E+01  0.26299138800E+02 -0.32737126549E+00  0.26915245799E+02  0.51100000000E-03 0. -1.
        -11    1    3    3    0    0 -0.58213009709E+01 -0.25166133109E+02 -0.73400030756E+00  0.25841063395E+02  0.51100000000E-03 0.  1.
        -12    1    3    3    0    0  0.10421482719E+02 -0.10716486330E+01  0.16689575724E+02  0.19705270125E+02  0.00000000000E+00 0.  1.
</event>
<event>
 7    1  0.1302069E-013  0.7246157E+02  0.7816164E-02  0.1226708E+00
        -11   -1    0    0    0    0  0.00000000000E+00  0.00000000000E+00  0.45593999997E+02  0.45594000000E+02  0.51100000000E-03 0.  1.
         11   -1    0    0    0    0 -0.00000000000E+00 -0.00000000000E+00 -0.45593999997E+02  0.45594000000E+02  0.51100000000E-03 0. -1.
    9900012    2    1    2    0    0  0.97991782519E+01 -0.11402090423E+02 -0.11164572933E+02  0.72461568167E+02  0.69999997228E+02 0.  0.
         12    1    1    2    0    0 -0.97991782519E+01  0.11402090423E+02  0.11164572933E+02  0.18726431833E+02  0.00000000000E+00 0. -1.
         11    1    3    3    0    0 -0.18879529263E+02 -0.13192455821E+02  0.14734352726E+02  0.27341884835E+02  0.51100000000E-03 0. -1.
        -11    1    3    3    0    0  0.12440836660E+02  0.80227664643E+00  0.21923148671E+01  0.12657974141E+02  0.51100000000E-03 0.  1.
         12    1    3    3    0    0  0.16237870855E+02  0.98808875119E+00 -0.28091240526E+02  0.32461709191E+02  0.00000000000E+00 0. -1.
</event>
<event>
 7    1  0.1302069E-013  0.7246176E+02  0.7816164E-02  0.1226708E+00
        -11   -1    0    0    0    0  0.00000000000E+00  0.00000000000E+00  0.45593999997E+02  0.45594000000E+02  0.51100000000E-03 0. -1.
         11   -1    0    0    0    0 -0.00000000000E+00 -0.00000000000E+00 -0.45593999997E+02  0.45594000000E+02  0.51100000000E-03 0.  1.
    9900012    2    1    2    0    0  0.28747885932E+01  0.10469650382E+02 -0.15257591432E+02  0.72461759456E+02  0.70000246418E+02 0.  0.
         12    1    1    2    0    0 -0.28747885932E+01 -0.10469650382E+02  0.15257591432E+02  0.18726240544E+02  0.00000000000E+00 0. -1.
         11    1    3    3    0    0  0.55464799616E+01 -0.23624168263E+01 -0.36924499865E+02  0.37413408610E+02  0.51100000000E-03 0.  1.
        -11    1    3    3    0    0  0.10313746750E+02  0.96895244441E+01  0.12052932163E+02  0.18588529527E+02  0.51100000000E-03 0. -1.
         12    1    3    3    0    0 -0.12985438119E+02  0.31425427641E+01  0.96139762700E+01  0.16459821320E+02  0.00000000000E+00 0. -1.
</event>
<event>
 7    1  0.1302069E-013  0.7246158E+02  0.7816164E-02  0.1226708E+00
        -11   -1    0    0    0    0  0.00000000000E+00  0.00000000000E+00  0.45593999997E+02  0.45594000000E+02  0.51100000000E-03 0. -1.
         11   -1    0    0    0    0 -0.00000000000E+00 -0.00000000000E+00 -0.45593999997E+02  0.45594000000E+02  0.51100000000E-03 0.  1.
    9900012    2    1    2    0    0 -0.46254498806E+01 -0.29838093597E+01 -0.17899182704E+02  0.72461584263E+02  0.70000018196E+02 0.  0.
         12    1    1    2    0    0  0.46254498806E+01  0.29838093597E+01  0.17899182704E+02  0.18726415737E+02  0.00000000000E+00 0. -1.
         11    1    3    3    0    0  0.13114959180E+02  0.18900413876E+01 -0.35679923018E+02  0.38060889606E+02  0.51100000000E-03 0.  1.
        -11    1    3    3    0    0 -0.14515919311E+02  0.75212390567E+00  0.22213042715E+02  0.26546127227E+02  0.51100000000E-03 0. -1.
         12    1    3    3    0    0 -0.32244897489E+01 -0.56259746529E+01 -0.44323024013E+01  0.78545674300E+01  0.00000000000E+00 0. -1.
</event>
<event>
 7    1  0.1302069E-013  0.7246155E+02  0.7816164E-02  0.1226708E+00
        -11   -1    0    0    0    0  0.00000000000E+00  0.00000000000E+00  0.45593999997E+02  0.45594000000E+02  0.51100000000E-03 0.  1.
         11   -1    0    0    0    0 -0.00000000000E+00 -0.00000000000E+00 -0.45593999997E+02  0.45594000000E+02  0.51100000000E-03 0. -1.
    9900012    2    1    2    0    0 -0.52859574096E+00 -0.57340886333E+01  0.17819107856E+02  0.72461553708E+02  0.69999978394E+02 0.  0.
         12    1    1    2    0    0  0.52859574096E+00  0.57340886333E+01 -0.17819107856E+02  0.18726446292E+02  0.00000000000E+00 0. -1.
         11    1    3    3    0    0  0.18621516052E+02  0.34669348305E+01 -0.79484329074E+01  0.20541618319E+02  0.51100000000E-03 0. -1.
        -11    1    3    3    0    0 -0.29720705671E+02 -0.80808552656E+01  0.27328623510E+02  0.41176136664E+02  0.51100000000E-03 0.  1.
        -12    1    3    3    0    0  0.10570593877E+02 -0.11201681983E+01 -0.15610827463E+01  0.10743798725E+02  0.00000000000E+00 0.  1.
</event>
<event>
 7    1  0.1302069E-013  0.7246160E+02  0.7816164E-02  0.1226708E+00
        -11   -1    0    0    0    0  0.00000000000E+00  0.00000000000E+00  0.45593999997E+02  0.45594000000E+02  0.51100000000E-03 0.  1.
         11   -1    0    0    0    0 -0.00000000000E+00 -0.00000000000E+00 -0.45593999997E+02  0.45594000000E+02  0.51100000000E-03 0. -1.
    9900012    2    1    2    0    0 -0.16313126418E+01 -0.18652503528E+02  0.31799604024E+00  0.72461596441E+02  0.70000034060E+02 0.  0.
         12    1    1    2    0    0  0.16313126418E+01  0.18652503528E+02 -0.31799604024E+00  0.18726403559E+02  0.00000000000E+00 0. -1.
         11    1    3    3    0    0 -0.11496212440E+02 -0.26766054452E+02  0.53977110774E+01  0.29626337211E+02  0.51100000000E-03 0. -1.
        -11    1    3    3    0    0  0.86154653116E+01  0.14009825675E+02  0.14760850969E+02  0.22099415820E+02  0.51100000000E-03 0.  1.
        -12    1    3    3    0    0  0.12494344869E+01 -0.58962747506E+01 -0.19840566006E+02  0.20735843410E+02  0.00000000000E+00 0.  1.
</event>
<event>
 7    1  0.1302069E-013  0.7246159E+02  0.7816164E-02  0.1226708E+00
        -11   -1    0    0    0    0  0.00000000000E+00  0.00000000000E+00  0.45593999997E+02  0.45594000000E+02  0.51100000000E-03 0. -1.
         11   -1    0    0    0    0 -0.00000000000E+00 -0.00000000000E+00 -0.45593999997E+02  0.45594000000E+02  0.51100000000E-03 0.  1.
    9900012    2    1    2    0    0  0.97876573859E+01 -0.13100074235E+02 -0.91251364556E+01  0.72461593580E+02  0.70000030334E+02 0.  0.
         12    1    1    2    0    0 -0.97876573859E+01  0.13100074235E+02  0.91251364556E+01  0.18726406420E+02  0.00000000000E+00 0. -1.
         11    1    3    3    0    0 -0.10399989790E+02  0.11414817962E+02  0.15877666480E+02  0.22148547353E+02  0.51100000000E-03 0. -1.
        -11    1    3    3    0    0 -0.75925762612E+01 -0.36062225215E+01 -0.80197913020E+01  0.11617620580E+02  0.51100000000E-03 0.  1.
         12    1    3    3    0    0  0.27780223438E+02 -0.20908669675E+02 -0.16983011634E+02  0.38695425647E+02  0.00000000000E+00 0. -1.
</event>
<event>
 7    1  0.1302069E-013  0.7246156E+02  0.7816164E-02  0.1226708E+00
        -11   -1    0    0    0    0  0.00000000000E+00  0.00000000000E+00  0.45593999997E+02  0.45594000000E+02  0.51100000000E-03 0. -1.
         11   -1    0    0    0    0 -0.00000000000E+00 -0.00000000000E+00 -0.45593999997E+02  0.45594000000E+02  0.51100000000E-03 0.  1.
    9900012    2    1    2    0    0 -0.10555177798E+02  0.75739190265E+01 -0.13487156686E+02  0.72461563520E+02  0.69999991175E+02 0.  0.
         12    1    1    2    0    0  0.10555177798E+02 -0.75739190265E+01  0.13487156686E+02  0.18726436480E+02  0.00000000000E+00 0. -1.
         11    1    3    3    0    0  0.66144988254E+01  0.17309028816E+02  0.16865662575E+02  0.25056030165E+02  0.51100000000E-03 0. -1.
        -11    1    3    3    0    0 -0.81408351640E+01 -0.20679397265E+02 -0.18275659017E+02  0.28773431863E+02  0.51100000000E-03 0.  1.
         12    1    3    3    0    0 -0.90288414595E+01  0.10944287476E+02 -0.12077160244E+02  0.18632101492E+02  0.00000000000E+00 0. -1.
</event>
<event>
 7    1  0.1302069E-013  0.7246160E+02  0.7816164E-02  0.1226708E+00
        -11   -1    0    0    0    0  0.00000000000E+00  0.00000000000E+00  0.45593999997E+02  0.45594000000E+02  0.51100000000E-03 0. -1.
         11   -1    0    0    0    0 -0.00000000000E+00 -0.00000000000E+00 -0.45593999997E+02  0.45594000000E+02  0.51100000000E-03 0.  1.
    9900012    2    1    2    0    0 -0.12812939445E+02 -0.72426235620E+01 -0.11578041617E+02  0.72461599893E+02  0.70000038558E+02 0.  0.
         12    1    1    2    0    0  0.12812939445E+02  0.72426235620E+01  0.11578041617E+02  0.18726400107E+02  0.00000000000E+00 0. -1.
         11    1    3    3    0    0 -0.11677503537E+02  0.25104396781E+02 -0.54764349129E+01  0.28223858102E+02  0.51100000000E-03 0. -1.
        -11    1    3    3    0    0  0.40619139196E+01 -0.27032546278E+02 -0.16141169757E+02  0.31745788136E+02  0.51100000000E-03 0.  1.
         12    1    3    3    0    0 -0.51973498280E+01 -0.53144740644E+01  0.10039563054E+02  0.12491953655E+02  0.00000000000E+00 0. -1.
</event>
<event>
 7    1  0.1302069E-013  0.7246157E+02  0.7816164E-02  0.1226708E+00
        -11   -1    0    0    0    0  0.00000000000E+00  0.00000000000E+00  0.45593999997E+02  0.45594000000E+02  0.51100000000E-03 0. -1.
         11   -1    0    0    0    0 -0.00000000000E+00 -0.00000000000E+00 -0.45593999997E+02  0.45594000000E+02  0.51100000000E-03 0.  1.
    9900012    2    1    2    0    0 -0.45867509088E+01 -0.84304379352E+01 -0.16080069036E+02  0.72461569804E+02  0.69999999362E+02 0.  0.
         12    1    1    2    0    0  0.45867509088E+01  0.84304379352E+01  0.16080069036E+02  0.18726430196E+02  0.00000000000E+00 0. -1.
         11    1    3    3    0    0  0.64976100714E+01  0.73870285890E+01 -0.22875169518E+02  0.24901014211E+02  0.51100000000E-03 0. -1.
        -11    1    3    3    0    0 -0.27074423450E+02 -0.53174367131E+01  0.11499083343E+01  0.27615608408E+02  0.51100000000E-03 0.  1.
         12    1    3    3    0    0  0.15990062469E+02 -0.10500029811E+02  0.56451921479E+01  0.19944947185E+02  0.00000000000E+00 0. -1.
</event>
<event>
 7    1  0.1302069E-013  0.7246170E+02  0.7816164E-02  0.1226708E+00
        -11   -1    0    0    0    0  0.00000000000E+00  0.00000000000E+00  0.45593999997E+02  0.45594000000E+02  0.51100000000E-03 0.  1.
         11   -1    0    0    0    0 -0.00000000000E+00 -0.00000000000E+00 -0.45593999997E+02  0.45594000000E+02  0.51100000000E-03 0. -1.
    9900012    2    1    2    0    0  0.45712879256E+01 -0.38408127622E+01  0.17748968597E+02  0.72461697583E+02  0.70000165816E+02 0.  0.
         12    1    1    2    0    0 -0.45712879256E+01  0.38408127622E+01 -0.17748968597E+02  0.18726302417E+02  0.00000000000E+00 0. -1.
         11    1    3    3    0    0 -0.16552132276E+02  0.15092532590E+01 -0.15827200869E+02  0.22951061324E+02  0.51100000000E-03 0. -1.
        -11    1    3    3    0    0  0.44386677716E+00 -0.27734346821E+01  0.27722825999E+02  0.27864745455E+02  0.51100000000E-03 0.  1.
         12    1    3    3    0    0  0.20679553425E+02 -0.25766313392E+01  0.58533434676E+01  0.21645890803E+02  0.00000000000E+00 0. -1.
</event>
<event>
 7    1  0.1302069E-013  0.7246157E+02  0.7816164E-02  0.1226708E+00
        -11   -1    0    0    0    0  0.00000000000E+00  0.00000000000E+00  0.45593999997E+02  0.45594000000E+02  0.51100000000E-03 0.  1.
         11   -1    0    0    0    0 -0.00000000000E+00 -0.00000000000E+00 -0.45593999997E+02  0.45594000000E+02  0.51100000000E-03 0. -1.
    9900012    2    1    2    0    0  0.10908380066E+02 -0.82055893570E+01  0.12820090488E+02  0.72461570215E+02  0.69999999897E+02 0.  0.
         12    1    1    2    0    0 -0.10908380066E+02  0.82055893570E+01 -0.12820090488E+02  0.18726429785E+02  0.00000000000E+00 0. -1.
         11    1    3    3    0    0  0.19738286294E+02 -0.73858711049E+01  0.28615814276E+01  0.21268278876E+02  0.51100000000E-03 0.  1.
        -11    1    3    3    0    0  0.20594785206E+01  0.23487810586E+02  0.44366768625E+01  0.23991723567E+02  0.51100000000E-03 0. -1.
        -12    1    3    3    0    0 -0.10889384749E+02 -0.24307528838E+02  0.55218321981E+01  0.27201567772E+02  0.00000000000E+00 0.  1.
</event>
<event>
 7    1  0.1302069E-013  0.7246158E+02  0.7816164E-02  0.1226708E+00
        -11   -1    0    0    0    0  0.00000000000E+00  0.00000000000E+00  0.45593999997E+02  0.45594000000E+02  0.51100000000E-03 0.  1.
         11   -1    0    0    0    0 -0.00000000000E+00 -0.00000000000E+00 -0.45593999997E+02  0.45594000000E+02  0.51100000000E-03 0. -1.
    9900012    2    1    2    0    0  0.15503056711E+02  0.90106965974E+01  0.53982924858E+01  0.72461575293E+02  0.70000006512E+02 0.  0.
         12    1    1    2    0    0 -0.15503056711E+02 -0.90106965974E+01 -0.53982924858E+01  0.18726424707E+02  0.00000000000E+00 0. -1.
         11    1    3    3    0    0 -0.74636661990E+01  0.31673570687E+02 -0.59424845894E+01  0.33079215779E+02  0.51100000000E-03 0. -1.
        -11    1    3    3    0    0  0.19210191835E+02 -0.53191923305E+01  0.68491318133E+01  0.21076904048E+02  0.51100000000E-03 0.  1.
         12    1    3    3    0    0  0.37565310745E+01 -0.17343681759E+02  0.44916452619E+01  0.18305455466E+02  0.00000000000E+00 0. -1.
</event>
<event>
 7    1  0.1302069E-013  0.7246161E+02  0.7816164E-02  0.1226708E+00
        -11   -1    0    0    0    0  0.00000000000E+00  0.00000000000E+00  0.45593999997E+02  0.45594000000E+02  0.51100000000E-03 0.  1.
         11   -1    0    0    0    0 -0.00000000000E+00 -0.00000000000E+00 -0.45593999997E+02  0.45594000000E+02  0.51100000000E-03 0. -1.
    9900012    2    1    2    0    0  0.84138382032E+01 -0.19031238486E+01  0.16621169710E+02  0.72461605894E+02  0.70000046375E+02 0.  0.
         12    1    1    2    0    0 -0.84138382032E+01  0.19031238486E+01 -0.16621169710E+02  0.18726394106E+02  0.00000000000E+00 0. -1.
         11    1    3    3    0    0 -0.19339512440E+02 -0.18585625159E+02 -0.10019741425E+02  0.28632803259E+02  0.51100000000E-03 0. -1.
        -11    1    3    3    0    0  0.20998450817E+02  0.90464133487E+01  0.11547440944E+02  0.25614759882E+02  0.51100000000E-03 0.  1.
        -12    1    3    3    0    0  0.67548998261E+01  0.76360879614E+01  0.15093470191E+02  0.18214042753E+02  0.00000000000E+00 0.  1.
</event>
<event>
 7    1  0.1302069E-013  0.7246154E+02  0.7816164E-02  0.1226708E+00
        -11   -1    0    0    0    0  0.00000000000E+00  0.00000000000E+00  0.45593999997E+02  0.45594000000E+02  0.51100000000E-03 0. -1.
         11   -1    0    0    0    0 -0.00000000000E+00 -0.00000000000E+00 -0.45593999997E+02  0.45594000000E+02  0.51100000000E-03 0.  1.
    9900012    2    1    2    0    0 -0.17804987644E+02  0.57201492643E+01 -0.97090261280E+00  0.72461538922E+02  0.69999959132E+02 0.  0.
         12    1    1    2    0    0  0.17804987644E+02 -0.57201492643E+01  0.97090261280E+00  0.18726461078E+02  0.00000000000E+00 0. -1.
         11    1    3    3    0    0 -0.81726812436E+01  0.13646702278E+01 -0.17570433311E+02  0.19426146569E+02  0.51100000000E-03 0.  1.
        -11    1    3    3    0    0  0.88929123575E+01  0.36039638009E+01  0.29122062655E+02  0.30662142437E+02  0.51100000000E-03 0. -1.
        -12    1    3    3    0    0 -0.18525218758E+02  0.75151523564E+00 -0.12522531957E+02  0.22373249916E+02  0.00000000000E+00 0.  1.
</event>
<event>
 7    1  0.1302069E-013  0.7246157E+02  0.7816164E-02  0.1226708E+00
        -11   -1    0    0    0    0  0.00000000000E+00  0.00000000000E+00  0.45593999997E+02  0.45594000000E+02  0.51100000000E-03 0. -1.
         11   -1    0    0    0    0 -0.00000000000E+00 -0.00000000000E+00 -0.45593999997E+02  0.45594000000E+02  0.51100000000E-03 0.  1.
    9900012    2    1    2    0    0 -0.11790463538E+02 -0.24827903046E+01 -0.14335272337E+02  0.72461566514E+02  0.69999995076E+02 0.  0.
         12    1    1    2    0    0  0.11790463538E+02  0.24827903046E+01  0.14335272337E+02  0.18726433486E+02  0.00000000000E+00 0. -1.
         11    1    3    3    0    0 -0.21226190338E+02  0.13904100092E+02  0.18171572074E+02  0.31210273750E+02  0.51100000000E-03 0. -1.
        -11    1    3    3    0    0 -0.27319717838E+01 -0.97596953452E+01 -0.20698857678E+02  0.23046866002E+02  0.51100000000E-03 0.  1.
         12    1    3    3    0    0  0.12167698585E+02 -0.66271950513E+01 -0.11807986732E+02  0.18204426763E+02  0.00000000000E+00 0. -1.
</event>
<event>
 7    1  0.1302069E-013  0.7246179E+02  0.7816164E-02  0.1226707E+00
        -11   -1    0    0    0    0  0.00000000000E+00  0.00000000000E+00  0.45593999997E+02  0.45594000000E+02  0.51100000000E-03 0. -1.
         11   -1    0    0    0    0 -0.00000000000E+00 -0.00000000000E+00 -0.45593999997E+02  0.45594000000E+02  0.51100000000E-03 0.  1.
    9900012    2    1    2    0    0  0.88657477999E+01  0.12553924689E+02 -0.10698990793E+02  0.72461790743E+02  0.70000287175E+02 0.  0.
         12    1    1    2    0    0 -0.88657477999E+01 -0.12553924689E+02  0.10698990793E+02  0.18726209257E+02  0.00000000000E+00 0. -1.
         11    1    3    3    0    0  0.32004854073E+01  0.20645984474E+02  0.13655284806E+01  0.20937154774E+02  0.51100000000E-03 0. -1.
        -11    1    3    3    0    0  0.18670325708E+02 -0.50003603185E+01 -0.25879790155E+02  0.32300900979E+02  0.51100000000E-03 0.  1.
        -12    1    3    3    0    0 -0.13005063315E+02 -0.30916994670E+01  0.13815270881E+02  0.19223734990E+02  0.00000000000E+00 0.  1.
</event>
<event>
 7    1  0.1302069E-013  0.7246152E+02  0.7816164E-02  0.1226708E+00
        -11   -1    0    0    0    0  0.00000000000E+00  0.00000000000E+00  0.45593999997E+02  0.45594000000E+02  0.51100000000E-03 0.  1.
         11   -1    0    0    0    0 -0.00000000000E+00 -0.00000000000E+00 -0.45593999997E+02  0.45594000000E+02  0.51100000000E-03 0. -1.
    9900012    2    1    2    0    0  0.17078998664E+02  0.18131183215E+00  0.76782823284E+01  0.72461519047E+02  0.69999933241E+02 0.  0.
         12    1    1    2    0    0 -0.17078998664E+02 -0.18131183215E+00 -0.76782823284E+01  0.18726480953E+02  0.00000000000E+00 0. -1.
         11    1    3    3    0    0 -0.50766777334E+01  0.64465477156E+01  0.54124135881E+01  0.98297942688E+01  0.51100000000E-03 0. -1.
        -11    1    3    3    0    0  0.34861413738E+02 -0.11891967054E+02 -0.15597282256E+02  0.40000153278E+02  0.51100000000E-03 0.  1.
        -12    1    3    3    0    0 -0.12705737341E+02  0.56267311707E+01  0.17863150997E+02  0.22631571500E+02  0.00000000000E+00 0.  1.
</event>
<event>
 7    1  0.1302069E-013  0.7246166E+02  0.7816164E-02  0.1226708E+00
        -11   -1    0    0    0    0  0.00000000000E+00  0.00000000000E+00  0.45593999997E+02  0.45594000000E+02  0.51100000000E-03 0. -1.
         11   -1    0    0    0    0 -0.00000000000E+00 -0.00000000000E+00 -0.45593999997E+02  0.45594000000E+02  0.51100000000E-03 0.  1.
    9900012    2    1    2    0    0  0.11376847956E+02 -0.65726161695E+01 -0.13343313406E+02  0.72461655846E+02  0.70000111447E+02 0.  0.
         12    1    1    2    0    0 -0.11376847956E+02  0.65726161695E+01  0.13343313406E+02  0.18726344154E+02  0.00000000000E+00 0. -1.
         11    1    3    3    0    0  0.25487776814E+02  0.87006056179E+01  0.84881670793E+01  0.28237852002E+02  0.51100000000E-03 0. -1.
        -11    1    3    3    0    0 -0.49224058745E+01  0.36426591425E+01 -0.22364346768E+02  0.23187562439E+02  0.51100000000E-03 0.  1.
         12    1    3    3    0    0 -0.91885229839E+01 -0.18915880930E+02  0.53286628307E+00  0.21036241405E+02  0.00000000000E+00 0. -1.
</event>
<event>
 7    1  0.1302069E-013  0.7246157E+02  0.7816164E-02  0.1226708E+00
        -11   -1    0    0    0    0  0.00000000000E+00  0.00000000000E+00  0.45593999997E+02  0.45594000000E+02  0.51100000000E-03 0.  1.
         11   -1    0    0    0    0 -0.00000000000E+00 -0.00000000000E+00 -0.45593999997E+02  0.45594000000E+02  0.51100000000E-03 0. -1.
    9900012    2    1    2    0    0  0.85122401763E+01 -0.92801628962E+01  0.13860002186E+02  0.72461566362E+02  0.69999994878E+02 0.  0.
         12    1    1    2    0    0 -0.85122401763E+01  0.92801628962E+01 -0.13860002186E+02  0.18726433638E+02  0.00000000000E+00 0. -1.
         11    1    3    3    0    0 -0.19512438446E+02 -0.10726110632E+02 -0.18076348727E+02  0.28679942241E+02  0.51100000000E-03 0. -1.
        -11    1    3    3    0    0  0.65377294379E+01  0.22304834945E+01  0.25373295878E+01  0.73590083925E+01  0.51100000000E-03 0.  1.
         12    1    3    3    0    0  0.21486949185E+02 -0.78453575910E+00  0.29399021325E+02  0.36422615728E+02  0.00000000000E+00 0. -1.
</event>
<event>
 7    1  0.1302069E-013  0.7246158E+02  0.7816164E-02  0.1226708E+00
        -11   -1    0    0    0    0  0.00000000000E+00  0.00000000000E+00  0.45593999997E+02  0.45594000000E+02  0.51100000000E-03 0.  1.
         11   -1    0    0    0    0 -0.00000000000E+00 -0.00000000000E+00 -0.45593999997E+02  0.45594000000E+02  0.51100000000E-03 0. -1.
    9900012    2    1    2    0    0 -0.17072271608E+02 -0.26676706994E+01 -0.72180268437E+01  0.72461579191E+02  0.70000011589E+02 0.  0.
         12    1    1    2    0    0  0.17072271608E+02  0.26676706994E+01  0.72180268437E+01  0.18726420809E+02  0.00000000000E+00 0. -1.
         11    1    3    3    0    0  0.99732343871E+00  0.79020032192E+01  0.25893875040E+02  0.27091125369E+02  0.51100000000E-03 0.  1.
        -11    1    3    3    0    0  0.37477788904E+01 -0.11194026375E+01 -0.14944523837E+02  0.15447902830E+02  0.51100000000E-03 0. -1.
         12    1    3    3    0    0 -0.21817373937E+02 -0.94502712811E+01 -0.18167378046E+02  0.29922550992E+02  0.00000000000E+00 0. -1.
</event>
<event>
 7    1  0.1302069E-013  0.7246150E+02  0.7816164E-02  0.1226708E+00
        -11   -1    0    0    0    0  0.00000000000E+00  0.00000000000E+00  0.45593999997E+02  0.45594000000E+02  0.51100000000E-03 0.  1.
         11   -1    0    0    0    0 -0.00000000000E+00 -0.00000000000E+00 -0.45593999997E+02  0.45594000000E+02  0.51100000000E-03 0. -1.
    9900012    2    1    2    0    0  0.16900380884E+02  0.67539602567E+01  0.44094038475E+01  0.72461502851E+02  0.69999912143E+02 0.  0.
         12    1    1    2    0    0 -0.16900380884E+02 -0.67539602567E+01 -0.44094038475E+01  0.18726497149E+02  0.00000000000E+00 0. -1.
         11    1    3    3    0    0 -0.15705029541E+02  0.12430983410E+02  0.36233444446E+01  0.20354506298E+02  0.51100000000E-03 0. -1.
        -11    1    3    3    0    0  0.25863884930E+02 -0.17015794636E+02  0.13510332347E+02  0.33778793513E+02  0.51100000000E-03 0.  1.
        -12    1    3    3    0    0  0.67415254945E+01  0.11338771483E+02 -0.12724272944E+02  0.18328203040E+02  0.00000000000E+00 0.  1.
</event>
<event>
 7    1  0.1302069E-013  0.7246159E+02  0.7816164E-02  0.1226708E+00
        -11   -1    0    0    0    0  0.00000000000E+00  0.00000000000E+00  0.45593999997E+02  0.45594000000E+02  0.51100000000E-03 0.  1.
         11   -1    0    0    0    0 -0.00000000000E+00 -0.00000000000E+00 -0.45593999997E+02  0.45594000000E+02  0.51100000000E-03 0. -1.
    9900012    2    1    2    0    0 -0.44161007421E+01 -0.16906278442E+02  0.67345541100E+01  0.72461590425E+02  0.70000026223E+02 0.  0.
         12    1    1    2    0    0  0.44161007421E+01  0.16906278442E+02 -0.67345541100E+01  0.18726409575E+02  0.00000000000E+00 0. -1.
         11    1    3    3    0    0 -0.17775868018E+01  0.39163049374E+00  0.69647063769E+01  0.71986335134E+01  0.51100000000E-03 0. -1.
        -11    1    3    3    0    0 -0.13601830932E+02 -0.92650761689E+01 -0.29056302953E+02  0.33393415259E+02  0.51100000000E-03 0.  1.
        -12    1    3    3    0    0  0.10963316992E+02 -0.80328327669E+01  0.28826150686E+02  0.31869541652E+02  0.00000000000E+00 0.  1.
</event>
<event>
 7    1  0.1302069E-013  0.7246150E+02  0.7816164E-02  0.1226708E+00
        -11   -1    0    0    0    0  0.00000000000E+00  0.00000000000E+00  0.45593999997E+02  0.45594000000E+02  0.51100000000E-03 0. -1.
         11   -1    0    0    0    0 -0.00000000000E+00 -0.00000000000E+00 -0.45593999997E+02  0.45594000000E+02  0.51100000000E-03 0.  1.
    9900012    2    1    2    0    0  0.18496490978E+02 -0.28943192177E+01  0.42973463501E+00  0.72461496480E+02  0.69999903843E+02 0.  0.
         12    1    1    2    0    0 -0.18496490978E+02  0.28943192177E+01 -0.42973463501E+00  0.18726503520E+02  0.00000000000E+00 0. -1.
         11    1    3    3    0    0  0.13692572581E+02  0.81173757918E+01 -0.24516304995E+02  0.29230592613E+02  0.51100000000E-03 0.  1.
        -11    1    3    3    0    0  0.13340425512E+01  0.22366775305E+01  0.28867942260E+02  0.28985177013E+02  0.51100000000E-03 0. -1.
        -12    1    3    3    0    0  0.34698758461E+01 -0.13248372540E+02 -0.39219026300E+01  0.14245726854E+02  0.00000000000E+00 0.  1.
</event>
<event>
 7    1  0.1302069E-013  0.7246163E+02  0.7816164E-02  0.1226708E+00
        -11   -1    0    0    0    0  0.00000000000E+00  0.00000000000E+00  0.45593999997E+02  0.45594000000E+02  0.51100000000E-03 0.  1.
         11   -1    0    0    0    0 -0.00000000000E+00 -0.00000000000E+00 -0.45593999997E+02  0.45594000000E+02  0.51100000000E-03 0. -1.
    9900012    2    1    2    0    0 -0.27891161637E+01  0.30715299064E+01  0.18260985850E+02  0.72461626375E+02  0.70000073055E+02 0.  0.
         12    1    1    2    0    0  0.27891161637E+01 -0.30715299064E+01 -0.18260985850E+02  0.18726373625E+02  0.00000000000E+00 0. -1.
         11    1    3    3    0    0  0.83516022890E+01  0.32395751462E+02  0.10285266878E+02  0.35000295550E+02  0.51100000000E-03 0. -1.
        -11    1    3    3    0    0 -0.72147935021E+01 -0.31010080764E+02  0.89635657875E+01  0.33076031597E+02  0.51100000000E-03 0.  1.
         12    1    3    3    0    0 -0.39259249506E+01  0.16858592088E+01 -0.98784681549E+00  0.43852992282E+01  0.00000000000E+00 0. -1.
</event>
<event>
 7    1  0.1302069E-013  0.7246153E+02  0.7816164E-02  0.1226708E+00
        -11   -1    0    0    0    0  0.00000000000E+00  0.00000000000E+00  0.45593999997E+02  0.45594000000E+02  0.51100000000E-03 0. -1.
         11   -1    0    0    0    0 -0.00000000000E+00 -0.00000000000E+00 -0.45593999997E+02  0.45594000000E+02  0.51100000000E-03 0.  1.
    9900012    2    1    2    0    0 -0.16367980509E+02 -0.90923020813E+01  0.31603344650E+00  0.72461531560E+02  0.69999949542E+02 0.  0.
         12    1    1    2    0    0  0.16367980509E+02  0.90923020813E+01 -0.31603344650E+00  0.18726468440E+02  0.00000000000E+00 0. -1.
         11    1    3    3    0    0 -0.39189214766E+01  0.19083554849E+00  0.86235423265E+01  0.94741673125E+01  0.51100000000E-03 0. -1.
        -11    1    3    3    0    0 -0.20691367180E+02  0.71317664603E+01 -0.28340961099E+02  0.35807888026E+02  0.51100000000E-03 0.  1.
        -12    1    3    3    0    0  0.82423081474E+01 -0.16414904090E+02  0.20033452219E+02  0.27179476222E+02  0.00000000000E+00 0.  1.
</event>
<event>
 7    1  0.1302069E-013  0.7246164E+02  0.7816164E-02  0.1226708E+00
        -11   -1    0    0    0    0  0.00000000000E+00  0.00000000000E+00  0.45593999997E+02  0.45594000000E+02  0.51100000000E-03 0.  1.
         11   -1    0    0    0    0 -0.00000000000E+00 -0.00000000000E+00 -0.45593999997E+02  0.45594000000E+02  0.51100000000E-03 0. -1.
    9900012    2    1    2    0    0 -0.43828836570E+01 -0.16440346338E+02  0.78218974520E+01  0.72461635254E+02  0.70000084622E+02 0.  0.
         12    1    1    2    0    0  0.43828836570E+01  0.16440346338E+02 -0.78218974520E+01  0.18726364746E+02  0.00000000000E+00 0. -1.
         11    1    3    3    0    0  0.83072319161E+01 -0.25644177688E+02 -0.70558288668E+01  0.27864290277E+02  0.51100000000E-03 0. -1.
        -11    1    3    3    0    0  0.74688380477E+01  0.14243163493E+02 -0.39460220165E+01  0.16559659963E+02  0.51100000000E-03 0.  1.
        -12    1    3    3    0    0 -0.20158953621E+02 -0.50393321432E+01  0.18823748335E+02  0.28037685014E+02  0.00000000000E+00 0.  1.
</event>
<event>
 7    1  0.1302069E-013  0.7246162E+02  0.7816164E-02  0.1226708E+00
        -11   -1    0    0    0    0  0.00000000000E+00  0.00000000000E+00  0.45593999997E+02  0.45594000000E+02  0.51100000000E-03 0. -1.
         11   -1    0    0    0    0 -0.00000000000E+00 -0.00000000000E+00 -0.45593999997E+02  0.45594000000E+02  0.51100000000E-03 0.  1.
    9900012    2    1    2    0    0 -0.12555175584E+02 -0.10285348990E+02 -0.93411268531E+01  0.72461615173E+02  0.70000058463E+02 0.  0.
         12    1    1    2    0    0  0.12555175584E+02  0.10285348990E+02  0.93411268531E+01  0.18726384827E+02  0.00000000000E+00 0. -1.
         11    1    3    3    0    0 -0.19986283475E+02  0.24628621682E+02 -0.42071901417E+00  0.31720616921E+02  0.51100000000E-03 0. -1.
        -11    1    3    3    0    0 -0.12134878440E+01 -0.29186705424E+02 -0.82261932889E+01  0.30348090262E+02  0.51100000000E-03 0.  1.
        -12    1    3    3    0    0  0.86445957355E+01 -0.57272652480E+01 -0.69421454997E+00  0.10392907990E+02  0.00000000000E+00 0.  1.
</event>
<event>
 7    1  0.1302069E-013  0.7246152E+02  0.7816164E-02  0.1226708E+00
        -11   -1    0    0    0    0  0.00000000000E+00  0.00000000000E+00  0.45593999997E+02  0.45594000000E+02  0.51100000000E-03 0.  1.
         11   -1    0    0    0    0 -0.00000000000E+00 -0.00000000000E+00 -0.45593999997E+02  0.45594000000E+02  0.51100000000E-03 0. -1.
    9900012    2    1    2    0    0  0.17057187812E+02  0.39240976946E+01  0.66584548899E+01  0.72461515538E+02  0.69999928670E+02 0.  0.
         12    1    1    2    0    0 -0.17057187812E+02 -0.39240976946E+01 -0.66584548899E+01  0.18726484462E+02  0.00000000000E+00 0. -1.
         11    1    3    3    0    0 -0.11064124203E+01  0.19484752887E+02  0.19663751573E+02  0.27704564059E+02  0.51100000000E-03 0. -1.
        -11    1    3    3    0    0  0.15199180079E+02 -0.18422831109E+02  0.65555965041E+01  0.24766744375E+02  0.51100000000E-03 0.  1.
         12    1    3    3    0    0  0.29644201530E+01  0.28621759162E+01 -0.19560893187E+02  0.19990207105E+02  0.00000000000E+00 0. -1.
</event>
<event>
 7    1  0.1302069E-013  0.7246148E+02  0.7816164E-02  0.1226708E+00
        -11   -1    0    0    0    0  0.00000000000E+00  0.00000000000E+00  0.45593999997E+02  0.45594000000E+02  0.51100000000E-03 0.  1.
         11   -1    0    0    0    0 -0.00000000000E+00 -0.00000000000E+00 -0.45593999997E+02  0.45594000000E+02  0.51100000000E-03 0. -1.
    9900012    2    1    2    0    0 -0.67281069884E+01  0.16663291807E+02  0.52678064762E+01  0.72461481301E+02  0.69999884070E+02 0.  0.
         12    1    1    2    0    0  0.67281069884E+01 -0.16663291807E+02 -0.52678064762E+01  0.18726518699E+02  0.00000000000E+00 0. -1.
         11    1    3    3    0    0  0.89340722398E+01  0.72515772541E+01  0.37472141596E+01  0.12101431059E+02  0.51100000000E-03 0. -1.
        -11    1    3    3    0    0 -0.19076749374E+02  0.95632324236E+00 -0.25489594871E+02  0.31852101466E+02  0.51100000000E-03 0.  1.
        -12    1    3    3    0    0  0.34145701457E+01  0.84553913109E+01  0.27010187188E+02  0.28507948776E+02  0.00000000000E+00 0.  1.
</event>
<event>
 7    1  0.1302069E-013  0.7246104E+02  0.7816164E-02  0.1226709E+00
        -11   -1    0    0    0    0  0.00000000000E+00  0.00000000000E+00  0.45593999997E+02  0.45594000000E+02  0.51100000000E-03 0.  1.
         11   -1    0    0    0    0 -0.00000000000E+00 -0.00000000000E+00 -0.45593999997E+02  0.45594000000E+02  0.51100000000E-03 0. -1.
    9900012    2    1    2    0    0  0.11109270581E+02  0.31769990777E+01  0.14737361274E+02  0.72461039934E+02  0.69999309104E+02 0.  0.
         12    1    1    2    0    0 -0.11109270581E+02 -0.31769990777E+01 -0.14737361274E+02  0.18726960066E+02  0.00000000000E+00 0. -1.
         11    1    3    3    0    0  0.30558844361E+02 -0.47762569018E+01 -0.19388815450E+01  0.30990560831E+02  0.51100000000E-03 0. -1.
        -11    1    3    3    0    0 -0.63517290540E+01  0.16816162307E+01  0.24227428932E+02  0.25102601619E+02  0.51100000000E-03 0.  1.
         12    1    3    3    0    0 -0.13097844727E+02  0.62716397488E+01 -0.75511861132E+01  0.16367877484E+02  0.00000000000E+00 0. -1.
</event>
<event>
 7    1  0.1302069E-013  0.7246156E+02  0.7816164E-02  0.1226708E+00
        -11   -1    0    0    0    0  0.00000000000E+00  0.00000000000E+00  0.45593999997E+02  0.45594000000E+02  0.51100000000E-03 0.  1.
         11   -1    0    0    0    0 -0.00000000000E+00 -0.00000000000E+00 -0.45593999997E+02  0.45594000000E+02  0.51100000000E-03 0. -1.
    9900012    2    1    2    0    0 -0.22282756824E+01  0.62274118979E+01  0.17519525968E+02  0.72461557156E+02  0.69999982884E+02 0.  0.
         12    1    1    2    0    0  0.22282756824E+01 -0.62274118979E+01 -0.17519525968E+02  0.18726442844E+02  0.00000000000E+00 0. -1.
         11    1    3    3    0    0  0.10676122557E+02 -0.17470586318E+02 -0.13648799067E+02  0.24606720533E+02  0.51100000000E-03 0. -1.
        -11    1    3    3    0    0 -0.16136152497E+02  0.94112926989E+01  0.77309031673E+01  0.20216693887E+02  0.51100000000E-03 0.  1.
         12    1    3    3    0    0  0.32317542574E+01  0.14286705517E+02  0.23437421868E+02  0.27638142736E+02  0.00000000000E+00 0. -1.
</event>
<event>
 7    1  0.1302069E-013  0.7246156E+02  0.7816164E-02  0.1226708E+00
        -11   -1    0    0    0    0  0.00000000000E+00  0.00000000000E+00  0.45593999997E+02  0.45594000000E+02  0.51100000000E-03 0.  1.
         11   -1    0    0    0    0 -0.00000000000E+00 -0.00000000000E+00 -0.45593999997E+02  0.45594000000E+02  0.51100000000E-03 0. -1.
    9900012    2    1    2    0    0 -0.16733352597E+02  0.73823764910E+01  0.40218024818E+01  0.72461562352E+02  0.69999989653E+02 0.  0.
         12    1    1    2    0    0  0.16733352597E+02 -0.73823764910E+01 -0.40218024818E+01  0.18726437648E+02  0.00000000000E+00 0. -1.
         11    1    3    3    0    0 -0.38569086578E+01  0.23067225120E+02  0.21070038579E+02  0.31478868231E+02  0.51100000000E-03 0. -1.
        -11    1    3    3    0    0 -0.83057171605E+01 -0.21231112213E+02 -0.34681181450E+00  0.22800555740E+02  0.51100000000E-03 0.  1.
         12    1    3    3    0    0 -0.45707267790E+01  0.55462635836E+01 -0.16701424283E+02  0.18182138381E+02  0.00000000000E+00 0. -1.
</event>
<event>
 7    1  0.1302069E-013  0.7246128E+02  0.7816164E-02  0.1226709E+00
        -11   -1    0    0    0    0  0.00000000000E+00  0.00000000000E+00  0.45593999997E+02  0.45594000000E+02  0.51100000000E-03 0. -1.
         11   -1    0    0    0    0 -0.00000000000E+00 -0.00000000000E+00 -0.45593999997E+02  0.45594000000E+02  0.51100000000E-03 0.  1.
    9900012    2    1    2    0    0  0.74295127735E+01  0.11450475128E+02 -0.12821042007E+02  0.72461276879E+02  0.69999617771E+02 0.  0.
         12    1    1    2    0    0 -0.74295127735E+01 -0.11450475128E+02  0.12821042007E+02  0.18726723121E+02  0.00000000000E+00 0. -1.
         11    1    3    3    0    0 -0.13002131980E+02  0.30107587013E+02 -0.21424554418E+01  0.32865062716E+02  0.51100000000E-03 0. -1.
        -11    1    3    3    0    0  0.15906757899E+02 -0.14495424288E+02 -0.19367468414E+02  0.28952393773E+02  0.51100000000E-03 0.  1.
         12    1    3    3    0    0  0.45248868546E+01 -0.41616875962E+01  0.86888818489E+01  0.10643820389E+02  0.00000000000E+00 0. -1.
</event>
<event>
 7    1  0.1302069E-013  0.7246157E+02  0.7816164E-02  0.1226708E+00
        -11   -1    0    0    0    0  0.00000000000E+00  0.00000000000E+00  0.45593999997E+02  0.45594000000E+02  0.51100000000E-03 0.  1.
         11   -1    0    0    0    0 -0.00000000000E+00 -0.00000000000E+00 -0.45593999997E+02  0.45594000000E+02  0.51100000000E-03 0. -1.
    9900012    2    1    2    0    0  0.53682606923E+01  0.56503426779E+01  0.17027469455E+02  0.72461566510E+02  0.69999995070E+02 0.  0.
         12    1    1    2    0    0 -0.53682606923E+01 -0.56503426779E+01 -0.17027469455E+02  0.18726433490E+02  0.00000000000E+00 0. -1.
         11    1    3    3    0    0 -0.17910900137E+02  0.20206529121E+01 -0.16654330461E+02  0.24540784529E+02  0.51100000000E-03 0. -1.
        -11    1    3    3    0    0  0.21011364898E+02 -0.68264916288E+01  0.28422220987E+02  0.35998626209E+02  0.51100000000E-03 0.  1.
        -12    1    3    3    0    0  0.22677959322E+01  0.10456181395E+02  0.52595789289E+01  0.11922155772E+02  0.00000000000E+00 0.  1.
</event>
<event>
 7    1  0.1302069E-013  0.7246147E+02  0.7816164E-02  0.1226708E+00
        -11   -1    0    0    0    0  0.00000000000E+00  0.00000000000E+00  0.45593999997E+02  0.45594000000E+02  0.51100000000E-03 0.  1.
         11   -1    0    0    0    0 -0.00000000000E+00 -0.00000000000E+00 -0.45593999997E+02  0.45594000000E+02  0.51100000000E-03 0. -1.
    9900012    2    1    2    0    0  0.57493292296E+01  0.24699304483E+01  0.17650144195E+02  0.72461469806E+02  0.69999869095E+02 0.  0.
         12    1    1    2    0    0 -0.57493292296E+01 -0.24699304483E+01 -0.17650144195E+02  0.18726530194E+02  0.00000000000E+00 0. -1.
         11    1    3    3    0    0 -0.17563666044E+02 -0.48068706826E+01  0.13106667230E+02  0.22435977733E+02  0.51100000000E-03 0. -1.
        -11    1    3    3    0    0  0.32233139539E+02 -0.65040700152E+01  0.64168770898E+01  0.33503052445E+02  0.51100000000E-03 0.  1.
         12    1    3    3    0    0 -0.89201442645E+01  0.13780871146E+02 -0.18734001257E+01  0.16522439629E+02  0.00000000000E+00 0. -1.
</event>
<event>
 7    1  0.1302069E-013  0.7246159E+02  0.7816164E-02  0.1226708E+00
        -11   -1    0    0    0    0  0.00000000000E+00  0.00000000000E+00  0.45593999997E+02  0.45594000000E+02  0.51100000000E-03 0.  1.
         11   -1    0    0    0    0 -0.00000000000E+00 -0.00000000000E+00 -0.45593999997E+02  0.45594000000E+02  0.51100000000E-03 0. -1.
    9900012    2    1    2    0    0  0.15997498410E+01  0.15173910413E+02 -0.10856872941E+02  0.72461589590E+02  0.70000025136E+02 0.  0.
         12    1    1    2    0    0 -0.15997498410E+01 -0.15173910413E+02  0.10856872941E+02  0.18726410410E+02  0.00000000000E+00 0. -1.
         11    1    3    3    0    0 -0.11574543159E+02 -0.24579240085E+02 -0.61816033352E+01  0.27862543182E+02  0.51100000000E-03 0. -1.
        -11    1    3    3    0    0  0.51473855421E+01  0.32776255197E+02 -0.52338714420E+00  0.33182109895E+02  0.51100000000E-03 0.  1.
         12    1    3    3    0    0  0.80269074576E+01  0.69768953012E+01 -0.41518824619E+01  0.11416936514E+02  0.00000000000E+00 0. -1.
</event>
<event>
 7    1  0.1302069E-013  0.7246195E+02  0.7816164E-02  0.1226707E+00
        -11   -1    0    0    0    0  0.00000000000E+00  0.00000000000E+00  0.45593999997E+02  0.45594000000E+02  0.51100000000E-03 0.  1.
         11   -1    0    0    0    0 -0.00000000000E+00 -0.00000000000E+00 -0.45593999997E+02  0.45594000000E+02  0.51100000000E-03 0. -1.
    9900012    2    1    2    0    0  0.32024372230E+01  0.10025567708E+02  0.15488622845E+02  0.72461947302E+02  0.70000491120E+02 0.  0.
         12    1    1    2    0    0 -0.32024372230E+01 -0.10025567708E+02 -0.15488622845E+02  0.18726052698E+02  0.00000000000E+00 0. -1.
         11    1    3    3    0    0  0.91951696442E+01  0.16412218483E+02  0.27558443881E+02  0.33367347658E+02  0.51100000000E-03 0. -1.
        -11    1    3    3    0    0 -0.98019627024E+01  0.13564123237E+02 -0.71343645495E+01  0.18192390437E+02  0.51100000000E-03 0.  1.
         12    1    3    3    0    0  0.38092302812E+01 -0.19950774012E+02 -0.49354564873E+01  0.20902209207E+02  0.00000000000E+00 0. -1.
</event>
<event>
 7    1  0.1302069E-013  0.7246155E+02  0.7816164E-02  0.1226708E+00
        -11   -1    0    0    0    0  0.00000000000E+00  0.00000000000E+00  0.45593999997E+02  0.45594000000E+02  0.51100000000E-03 0. -1.
         11   -1    0    0    0    0 -0.00000000000E+00 -0.00000000000E+00 -0.45593999997E+02  0.45594000000E+02  0.51100000000E-03 0.  1.
    9900012    2    1    2    0    0 -0.16815189553E+02 -0.33167422890E+01 -0.75451017721E+01  0.72461549726E+02  0.69999973205E+02 0.  0.
         12    1    1    2    0    0  0.16815189553E+02  0.33167422890E+01  0.75451017721E+01  0.18726450274E+02  0.00000000000E+00 0. -1.
         11    1    3    3    0    0  0.46513599836E+01  0.20390990122E+02  0.15854332368E+02  0.26244761057E+02  0.51100000000E-03 0. -1.
        -11    1    3    3    0    0 -0.14089638957E+02 -0.27401112350E+02 -0.14406627359E+02  0.34013082720E+02  0.51100000000E-03 0.  1.
        -12    1    3    3    0    0 -0.73769105800E+01  0.36933799388E+01 -0.89928067810E+01  0.12203705949E+02  0.00000000000E+00 0.  1.
</event>
<event>
 7    1  0.1302069E-013  0.7246157E+02  0.7816164E-02  0.1226708E+00
        -11   -1    0    0    0    0  0.00000000000E+00  0.00000000000E+00  0.45593999997E+02  0.45594000000E+02  0.51100000000E-03 0. -1.
         11   -1    0    0    0    0 -0.00000000000E+00 -0.00000000000E+00 -0.45593999997E+02  0.45594000000E+02  0.51100000000E-03 0.  1.
    9900012    2    1    2    0    0 -0.10834361385E+02 -0.10798564365E+02 -0.10802160142E+02  0.72461573680E+02  0.70000004411E+02 0.  0.
         12    1    1    2    0    0  0.10834361385E+02  0.10798564365E+02  0.10802160142E+02  0.18726426320E+02  0.00000000000E+00 0. -1.
         11    1    3    3    0    0  0.12511567183E+02 -0.31409776788E+02 -0.34114047136E+01  0.33981628473E+02  0.51100000000E-03 0. -1.
        -11    1    3    3    0    0  0.23135427818E+00  0.98246643628E+01 -0.78039985638E+01  0.12549101501E+02  0.51100000000E-03 0.  1.
         12    1    3    3    0    0 -0.23577282846E+02  0.10786548060E+02  0.41324313580E+00  0.25930843707E+02  0.00000000000E+00 0. -1.
</event>
<event>
 7    1  0.1302069E-013  0.7246152E+02  0.7816164E-02  0.1226708E+00
        -11   -1    0    0    0    0  0.00000000000E+00  0.00000000000E+00  0.45593999997E+02  0.45594000000E+02  0.51100000000E-03 0.  1.
         11   -1    0    0    0    0 -0.00000000000E+00 -0.00000000000E+00 -0.45593999997E+02  0.45594000000E+02  0.51100000000E-03 0. -1.
    9900012    2    1    2    0    0 -0.75187129441E+01  0.12247652142E+02 -0.12006034476E+02  0.72461524326E+02  0.69999940118E+02 0.  0.
         12    1    1    2    0    0  0.75187129441E+01 -0.12247652142E+02  0.12006034476E+02  0.18726475674E+02  0.00000000000E+00 0. -1.
         11    1    3    3    0    0  0.82557828063E+01 -0.19003761636E+02 -0.10237141360E+02  0.23110602968E+02  0.51100000000E-03 0.  1.
        -11    1    3    3    0    0  0.73970372375E+01  0.23361746562E+02 -0.37624003605E+01  0.24791995060E+02  0.51100000000E-03 0. -1.
         12    1    3    3    0    0 -0.23171532988E+02  0.78896672159E+01  0.19935072439E+01  0.24558926298E+02  0.00000000000E+00 0. -1.
</event>
<event>
 7    1  0.1302069E-013  0.7246159E+02  0.7816164E-02  0.1226708E+00
        -11   -1    0    0    0    0  0.00000000000E+00  0.00000000000E+00  0.45593999997E+02  0.45594000000E+02  0.51100000000E-03 0. -1.
         11   -1    0    0    0    0 -0.00000000000E+00 -0.00000000000E+00 -0.45593999997E+02  0.45594000000E+02  0.51100000000E-03 0.  1.
    9900012    2    1    2    0    0 -0.10422021824E+02 -0.12729268867E+02  0.89456986251E+01  0.72461592211E+02  0.70000028551E+02 0.  0.
         12    1    1    2    0    0  0.10422021824E+02  0.12729268867E+02 -0.89456986251E+01  0.18726407789E+02  0.00000000000E+00 0. -1.
         11    1    3    3    0    0 -0.22436911237E+01  0.28786264081E+01  0.28892314505E+02  0.29121924345E+02  0.51100000000E-03 0. -1.
        -11    1    3    3    0    0 -0.58231678181E+01  0.15366103065E+01 -0.24675387256E+02  0.25399708486E+02  0.51100000000E-03 0.  1.
        -12    1    3    3    0    0 -0.23551628820E+01 -0.17144505581E+02  0.47287713762E+01  0.17939959380E+02  0.00000000000E+00 0.  1.
</event>
<event>
 7    1  0.1302069E-013  0.7246180E+02  0.7816164E-02  0.1226707E+00
        -11   -1    0    0    0    0  0.00000000000E+00  0.00000000000E+00  0.45593999997E+02  0.45594000000E+02  0.51100000000E-03 0.  1.
         11   -1    0    0    0    0 -0.00000000000E+00 -0.00000000000E+00 -0.45593999997E+02  0.45594000000E+02  0.51100000000E-03 0. -1.
    9900012    2    1    2    0    0  0.20015224094E+01 -0.12023282276E+02  0.14216373205E+02  0.72461797081E+02  0.70000295432E+02 0.  0.
         12    1    1    2    0    0 -0.20015224094E+01  0.12023282276E+02 -0.14216373205E+02  0.18726202919E+02  0.00000000000E+00 0. -1.
         11    1    3    3    0    0  0.12298878986E+02 -0.27810639338E+02 -0.17810051492E+02  0.35240488350E+02  0.51100000000E-03 0. -1.
        -11    1    3    3    0    0 -0.35671864902E+01  0.57642841494E+01  0.13534459561E+02  0.15137152542E+02  0.51100000000E-03 0.  1.
         12    1    3    3    0    0 -0.67301700862E+01  0.10023072913E+02  0.18491965136E+02  0.22084156190E+02  0.00000000000E+00 0. -1.
</event>
<event>
 7    1  0.1302069E-013  0.7246164E+02  0.7816164E-02  0.1226708E+00
        -11   -1    0    0    0    0  0.00000000000E+00  0.00000000000E+00  0.45593999997E+02  0.45594000000E+02  0.51100000000E-03 0. -1.
         11   -1    0    0    0    0 -0.00000000000E+00 -0.00000000000E+00 -0.45593999997E+02  0.45594000000E+02  0.51100000000E-03 0.  1.
    9900012    2    1    2    0    0 -0.14413621355E+01 -0.77881100512E+01 -0.16968924475E+02  0.72461639413E+02  0.70000090040E+02 0.  0.
         12    1    1    2    0    0  0.14413621355E+01  0.77881100512E+01  0.16968924475E+02  0.18726360587E+02  0.00000000000E+00 0. -1.
         11    1    3    3    0    0 -0.47089936261E+01 -0.21098673045E+02 -0.13473346096E+02  0.25472724246E+02  0.51100000000E-03 0. -1.
        -11    1    3    3    0    0  0.17151567844E+02  0.17237644550E+02 -0.14968692560E+02  0.28554761886E+02  0.51100000000E-03 0.  1.
         12    1    3    3    0    0 -0.13883936353E+02 -0.39270815560E+01  0.11473114180E+02  0.18434153282E+02  0.00000000000E+00 0. -1.
</event>
<event>
 7    1  0.1302069E-013  0.7246151E+02  0.7816164E-02  0.1226708E+00
        -11   -1    0    0    0    0  0.00000000000E+00  0.00000000000E+00  0.45593999997E+02  0.45594000000E+02  0.51100000000E-03 0. -1.
         11   -1    0    0    0    0 -0.00000000000E+00 -0.00000000000E+00 -0.45593999997E+02  0.45594000000E+02  0.51100000000E-03 0.  1.
    9900012    2    1    2    0    0  0.11917648825E+02 -0.31496186289E+01 -0.14097196255E+02  0.72461510920E+02  0.69999922653E+02 0.  0.
         12    1    1    2    0    0 -0.11917648825E+02  0.31496186289E+01  0.14097196255E+02  0.18726489080E+02  0.00000000000E+00 0. -1.
         11    1    3    3    0    0 -0.57113880357E+01  0.53886580018E+01  0.60008680186E+01  0.98827124613E+01  0.51100000000E-03 0. -1.
        -11    1    3    3    0    0  0.96038513688E+01 -0.19173399782E+02 -0.35957091520E+02  0.41866044131E+02  0.51100000000E-03 0.  1.
        -12    1    3    3    0    0  0.80251854919E+01  0.10635123151E+02  0.15859027246E+02  0.20712754327E+02  0.00000000000E+00 0.  1.
</event>
<event>
 7    1  0.1302069E-013  0.7246158E+02  0.7816164E-02  0.1226708E+00
        -11   -1    0    0    0    0  0.00000000000E+00  0.00000000000E+00  0.45593999997E+02  0.45594000000E+02  0.51100000000E-03 0.  1.
         11   -1    0    0    0    0 -0.00000000000E+00 -0.00000000000E+00 -0.45593999997E+02  0.45594000000E+02  0.51100000000E-03 0. -1.
    9900012    2    1    2    0    0 -0.12120583727E+02  0.14188675618E+02 -0.15658606946E+01  0.72461575211E+02  0.70000006405E+02 0.  0.
         12    1    1    2    0    0  0.12120583727E+02 -0.14188675618E+02  0.15658606946E+01  0.18726424789E+02  0.00000000000E+00 0. -1.
         11    1    3    3    0    0 -0.91347360033E+00  0.28201026302E+02  0.73984712458E+01  0.29169670816E+02  0.51100000000E-03 0. -1.
        -11    1    3    3    0    0 -0.16800886188E+02 -0.12560109644E+02 -0.21160443463E+02  0.29795813444E+02  0.51100000000E-03 0.  1.
         12    1    3    3    0    0  0.55937760620E+01 -0.14522410400E+01  0.12196111523E+02  0.13496090951E+02  0.00000000000E+00 0. -1.
</event>
<event>
 7    1  0.1302069E-013  0.7246154E+02  0.7816164E-02  0.1226708E+00
        -11   -1    0    0    0    0  0.00000000000E+00  0.00000000000E+00  0.45593999997E+02  0.45594000000E+02  0.51100000000E-03 0. -1.
         11   -1    0    0    0    0 -0.00000000000E+00 -0.00000000000E+00 -0.45593999997E+02  0.45594000000E+02  0.51100000000E-03 0.  1.
    9900012    2    1    2    0    0  0.75138815654E+01 -0.15195956353E+02 -0.79564421482E+01  0.72461535376E+02  0.69999954512E+02 0.  0.
         12    1    1    2    0    0 -0.75138815654E+01  0.15195956353E+02  0.79564421482E+01  0.18726464624E+02  0.00000000000E+00 0. -1.
         11    1    3    3    0    0 -0.13472473654E+01  0.10539937747E+02 -0.18455667541E+02  0.21295939233E+02  0.51100000000E-03 0. -1.
        -11    1    3    3    0    0  0.12444926568E+01 -0.30184522076E+02 -0.74947589847E+01  0.31125962594E+02  0.51100000000E-03 0.  1.
         12    1    3    3    0    0  0.76166362741E+01  0.44486279748E+01  0.17993984377E+02  0.20039633549E+02  0.00000000000E+00 0. -1.
</event>
<event>
 7    1  0.1302069E-013  0.7246155E+02  0.7816164E-02  0.1226708E+00
        -11   -1    0    0    0    0  0.00000000000E+00  0.00000000000E+00  0.45593999997E+02  0.45594000000E+02  0.51100000000E-03 0. -1.
         11   -1    0    0    0    0 -0.00000000000E+00 -0.00000000000E+00 -0.45593999997E+02  0.45594000000E+02  0.51100000000E-03 0.  1.
    9900012    2    1    2    0    0  0.11982667684E+01  0.16501540981E+02 -0.87717396569E+01  0.72461545061E+02  0.69999967129E+02 0.  0.
         12    1    1    2    0    0 -0.11982667684E+01 -0.16501540981E+02  0.87717396569E+01  0.18726454939E+02  0.00000000000E+00 0. -1.
         11    1    3    3    0    0 -0.14452001977E+02 -0.13658079261E+02  0.10473905314E+02  0.22474567472E+02  0.51100000000E-03 0. -1.
        -11    1    3    3    0    0  0.19094406147E+02  0.13364594752E+02 -0.22658973316E+02  0.32505965775E+02  0.51100000000E-03 0.  1.
         12    1    3    3    0    0 -0.34441374012E+01  0.16795025490E+02  0.34133283444E+01  0.17481011814E+02  0.00000000000E+00 0. -1.
</event>
<event>
 7    1  0.1302069E-013  0.7246160E+02  0.7816164E-02  0.1226708E+00
        -11   -1    0    0    0    0  0.00000000000E+00  0.00000000000E+00  0.45593999997E+02  0.45594000000E+02  0.51100000000E-03 0.  1.
         11   -1    0    0    0    0 -0.00000000000E+00 -0.00000000000E+00 -0.45593999997E+02  0.45594000000E+02  0.51100000000E-03 0. -1.
    9900012    2    1    2    0    0 -0.50547753606E+00  0.18079856762E+02  0.48519266301E+01  0.72461603655E+02  0.70000043458E+02 0.  0.
         12    1    1    2    0    0  0.50547753606E+00 -0.18079856762E+02 -0.48519266301E+01  0.18726396345E+02  0.00000000000E+00 0. -1.
         11    1    3    3    0    0 -0.11421480402E+02 -0.40418832687E+01  0.22364764875E+02  0.25435599916E+02  0.51100000000E-03 0. -1.
        -11    1    3    3    0    0  0.20431954162E+02  0.49264579334E+01 -0.17537354006E+02  0.27373226416E+02  0.51100000000E-03 0.  1.
         12    1    3    3    0    0 -0.95159512955E+01  0.17195282097E+02  0.24515761895E-01  0.19652777322E+02  0.00000000000E+00 0. -1.
</event>
<event>
 7    1  0.1302069E-013  0.7246156E+02  0.7816164E-02  0.1226708E+00
        -11   -1    0    0    0    0  0.00000000000E+00  0.00000000000E+00  0.45593999997E+02  0.45594000000E+02  0.51100000000E-03 0.  1.
         11   -1    0    0    0    0 -0.00000000000E+00 -0.00000000000E+00 -0.45593999997E+02  0.45594000000E+02  0.51100000000E-03 0. -1.
    9900012    2    1    2    0    0 -0.85067255255E+01  0.11322683068E+02  0.12252016993E+02  0.72461562767E+02  0.69999990194E+02 0.  0.
         12    1    1    2    0    0  0.85067255255E+01 -0.11322683068E+02 -0.12252016993E+02  0.18726437233E+02  0.00000000000E+00 0. -1.
         11    1    3    3    0    0 -0.13616932929E+02 -0.87828363181E+01 -0.12910640493E+02  0.20718197662E+02  0.51100000000E-03 0. -1.
        -11    1    3    3    0    0 -0.10235959594E+02  0.76574456840E+01  0.28929080056E+02  0.31627567348E+02  0.51100000000E-03 0.  1.
         12    1    3    3    0    0  0.15346166998E+02  0.12448073702E+02 -0.37664225691E+01  0.20115797757E+02  0.00000000000E+00 0. -1.
</event>
<event>
 7    1  0.1302069E-013  0.7246156E+02  0.7816164E-02  0.1226708E+00
        -11   -1    0    0    0    0  0.00000000000E+00  0.00000000000E+00  0.45593999997E+02  0.45594000000E+02  0.51100000000E-03 0.  1.
         11   -1    0    0    0    0 -0.00000000000E+00 -0.00000000000E+00 -0.45593999997E+02  0.45594000000E+02  0.51100000000E-03 0. -1.
    9900012    2    1    2    0    0 -0.10520269980E+02 -0.28850404315E+01  0.15221039818E+02  0.72461559017E+02  0.69999985309E+02 0.  0.
         12    1    1    2    0    0  0.10520269980E+02  0.28850404315E+01 -0.15221039818E+02  0.18726440983E+02  0.00000000000E+00 0. -1.
         11    1    3    3    0    0 -0.23596988399E+02 -0.18765972374E+02  0.30406611382E+02  0.42819873851E+02  0.51100000000E-03 0.  1.
        -11    1    3    3    0    0  0.16218302184E+02  0.15087863190E+02 -0.13927596385E+02  0.26165910699E+02  0.51100000000E-03 0. -1.
        -12    1    3    3    0    0 -0.31415837645E+01  0.79306875246E+00 -0.12579751783E+01  0.34757744669E+01  0.00000000000E+00 0.  1.
</event>
<event>
 7    1  0.1302069E-013  0.7246157E+02  0.7816164E-02  0.1226708E+00
        -11   -1    0    0    0    0  0.00000000000E+00  0.00000000000E+00  0.45593999997E+02  0.45594000000E+02  0.51100000000E-03 0. -1.
         11   -1    0    0    0    0 -0.00000000000E+00 -0.00000000000E+00 -0.45593999997E+02  0.45594000000E+02  0.51100000000E-03 0.  1.
    9900012    2    1    2    0    0 -0.11674535818E+02 -0.89161681487E+01 -0.11614050655E+02  0.72461574456E+02  0.70000005422E+02 0.  0.
         12    1    1    2    0    0  0.11674535818E+02  0.89161681487E+01  0.11614050655E+02  0.18726425544E+02  0.00000000000E+00 0. -1.
         11    1    3    3    0    0 -0.19230370039E+02  0.15894504057E+02  0.84567512502E+01  0.26343102191E+02  0.51100000000E-03 0. -1.
        -11    1    3    3    0    0  0.34658272355E+01 -0.25734073228E+02 -0.36235523002E+00  0.25968938848E+02  0.51100000000E-03 0.  1.
        -12    1    3    3    0    0  0.40900069858E+01  0.92340102239E+00 -0.19708446675E+02  0.20149533418E+02  0.00000000000E+00 0.  1.
</event>
<event>
 7    1  0.1302069E-013  0.7246155E+02  0.7816164E-02  0.1226708E+00
        -11   -1    0    0    0    0  0.00000000000E+00  0.00000000000E+00  0.45593999997E+02  0.45594000000E+02  0.51100000000E-03 0.  1.
         11   -1    0    0    0    0 -0.00000000000E+00 -0.00000000000E+00 -0.45593999997E+02  0.45594000000E+02  0.51100000000E-03 0. -1.
    9900012    2    1    2    0    0 -0.21409080566E+01 -0.14082049129E+02  0.12156989257E+02  0.72461548581E+02  0.69999971714E+02 0.  0.
         12    1    1    2    0    0  0.21409080566E+01  0.14082049129E+02 -0.12156989257E+02  0.18726451419E+02  0.00000000000E+00 0. -1.
         11    1    3    3    0    0  0.26675254176E+01  0.10963835097E+01 -0.22828990004E+02  0.23010444010E+02  0.51100000000E-03 0. -1.
        -11    1    3    3    0    0 -0.22290612218E+01  0.19801758065E+01  0.31639832678E+02  0.31780006645E+02  0.51100000000E-03 0.  1.
        -12    1    3    3    0    0 -0.25793722524E+01 -0.17158608445E+02  0.33461465827E+01  0.17671097926E+02  0.00000000000E+00 0.  1.
</event>
<event>
 7    1  0.1302069E-013  0.7246148E+02  0.7816164E-02  0.1226708E+00
        -11   -1    0    0    0    0  0.00000000000E+00  0.00000000000E+00  0.45593999997E+02  0.45594000000E+02  0.51100000000E-03 0.  1.
         11   -1    0    0    0    0 -0.00000000000E+00 -0.00000000000E+00 -0.45593999997E+02  0.45594000000E+02  0.51100000000E-03 0. -1.
    9900012    2    1    2    0    0  0.59218228855E+01  0.10754318187E+02  0.14140688666E+02  0.72461483456E+02  0.69999886876E+02 0.  0.
         12    1    1    2    0    0 -0.59218228855E+01 -0.10754318187E+02 -0.14140688666E+02  0.18726516544E+02  0.00000000000E+00 0. -1.
         11    1    3    3    0    0 -0.14723596976E+02  0.26230192500E+02 -0.99046126233E+01  0.31668733129E+02  0.51100000000E-03 0. -1.
        -11    1    3    3    0    0  0.20286222431E+02 -0.31340889442E+01  0.13635505244E+02  0.24643058608E+02  0.51100000000E-03 0.  1.
        -12    1    3    3    0    0  0.35919743018E+00 -0.12341785370E+02  0.10409796045E+02  0.16149691718E+02  0.00000000000E+00 0.  1.
</event>
<event>
 7    1  0.1302069E-013  0.7246225E+02  0.7816164E-02  0.1226706E+00
        -11   -1    0    0    0    0  0.00000000000E+00  0.00000000000E+00  0.45593999997E+02  0.45594000000E+02  0.51100000000E-03 0.  1.
         11   -1    0    0    0    0 -0.00000000000E+00 -0.00000000000E+00 -0.45593999997E+02  0.45594000000E+02  0.51100000000E-03 0. -1.
    9900012    2    1    2    0    0  0.15384285618E+02  0.10488808118E+02  0.19905287963E+01  0.72462254498E+02  0.70000891297E+02 0.  0.
         12    1    1    2    0    0 -0.15384285618E+02 -0.10488808118E+02 -0.19905287963E+01  0.18725745502E+02  0.00000000000E+00 0. -1.
         11    1    3    3    0    0 -0.12561454819E+02  0.54169793997E+01 -0.94876878793E+01  0.16647823718E+02  0.51100000000E-03 0. -1.
        -11    1    3    3    0    0  0.37642512969E+02  0.31605991093E+01  0.20019325850E+02  0.42751860510E+02  0.51100000000E-03 0.  1.
        -12    1    3    3    0    0 -0.96967725311E+01  0.19112296090E+01 -0.85411091739E+01  0.13062570270E+02  0.00000000000E+00 0.  1.
</event>
<event>
 7    1  0.1302069E-013  0.7246152E+02  0.7816164E-02  0.1226708E+00
        -11   -1    0    0    0    0  0.00000000000E+00  0.00000000000E+00  0.45593999997E+02  0.45594000000E+02  0.51100000000E-03 0.  1.
         11   -1    0    0    0    0 -0.00000000000E+00 -0.00000000000E+00 -0.45593999997E+02  0.45594000000E+02  0.51100000000E-03 0. -1.
    9900012    2    1    2    0    0 -0.69562309541E+01 -0.13321406456E+02  0.11172826587E+02  0.72461519471E+02  0.69999933793E+02 0.  0.
         12    1    1    2    0    0  0.69562309541E+01  0.13321406456E+02 -0.11172826587E+02  0.18726480529E+02  0.00000000000E+00 0. -1.
         11    1    3    3    0    0  0.20749440934E+01 -0.21790253009E+02 -0.92967840229E+01  0.23781310154E+02  0.51100000000E-03 0. -1.
        -11    1    3    3    0    0 -0.24939371064E+02  0.95888238012E+01  0.65454052502E+01  0.27509273003E+02  0.51100000000E-03 0.  1.
        -12    1    3    3    0    0  0.15908196017E+02 -0.11199772477E+01  0.13924205360E+02  0.21170936315E+02  0.00000000000E+00 0.  1.
</event>
<event>
 7    1  0.1302069E-013  0.7246158E+02  0.7816164E-02  0.1226708E+00
        -11   -1    0    0    0    0  0.00000000000E+00  0.00000000000E+00  0.45593999997E+02  0.45594000000E+02  0.51100000000E-03 0. -1.
         11   -1    0    0    0    0 -0.00000000000E+00 -0.00000000000E+00 -0.45593999997E+02  0.45594000000E+02  0.51100000000E-03 0.  1.
    9900012    2    1    2    0    0  0.13225657963E+02  0.12731630291E+02  0.36968292454E+01  0.72461575224E+02  0.70000006422E+02 0.  0.
         12    1    1    2    0    0 -0.13225657963E+02 -0.12731630291E+02 -0.36968292454E+01  0.18726424776E+02  0.00000000000E+00 0. -1.
         11    1    3    3    0    0 -0.70501656098E+01 -0.52909856383E+01 -0.41571881249E+00  0.88245218875E+01  0.51100000000E-03 0. -1.
        -11    1    3    3    0    0  0.23287206079E+01  0.37029058695E+02 -0.42870788388E+00  0.37104688629E+02  0.51100000000E-03 0.  1.
        -12    1    3    3    0    0  0.17947102965E+02 -0.19006442767E+02  0.45412559418E+01  0.26532364708E+02  0.00000000000E+00 0.  1.
</event>
<event>
 7    1  0.1302069E-013  0.7246162E+02  0.7816164E-02  0.1226708E+00
        -11   -1    0    0    0    0  0.00000000000E+00  0.00000000000E+00  0.45593999997E+02  0.45594000000E+02  0.51100000000E-03 0. -1.
         11   -1    0    0    0    0 -0.00000000000E+00 -0.00000000000E+00 -0.45593999997E+02  0.45594000000E+02  0.51100000000E-03 0.  1.
    9900012    2    1    2    0    0 -0.12398503348E+02  0.14197151253E+01 -0.13962051889E+02  0.72461618362E+02  0.70000062617E+02 0.  0.
         12    1    1    2    0    0  0.12398503348E+02 -0.14197151253E+01  0.13962051889E+02  0.18726381638E+02  0.00000000000E+00 0. -1.
         11    1    3    3    0    0 -0.30344658394E+01 -0.84108946403E+01  0.18853981567E+02  0.20866809837E+02  0.51100000000E-03 0. -1.
        -11    1    3    3    0    0 -0.14538736841E+02  0.89111012056E+01 -0.39540074087E+02  0.43060423276E+02  0.51100000000E-03 0.  1.
        -12    1    3    3    0    0  0.51746993321E+01  0.91950856006E+00  0.67240406305E+01  0.85343852485E+01  0.00000000000E+00 0.  1.
</event>
<event>
 7    1  0.1302069E-013  0.7246174E+02  0.7816164E-02  0.1226708E+00
        -11   -1    0    0    0    0  0.00000000000E+00  0.00000000000E+00  0.45593999997E+02  0.45594000000E+02  0.51100000000E-03 0. -1.
         11   -1    0    0    0    0 -0.00000000000E+00 -0.00000000000E+00 -0.45593999997E+02  0.45594000000E+02  0.51100000000E-03 0.  1.
    9900012    2    1    2    0    0  0.11832630622E+02  0.47405483518E+01 -0.13718198727E+02  0.72461737094E+02  0.70000217287E+02 0.  0.
         12    1    1    2    0    0 -0.11832630622E+02 -0.47405483518E+01  0.13718198727E+02  0.18726262906E+02  0.00000000000E+00 0. -1.
         11    1    3    3    0    0 -0.68542033180E+01 -0.60182945833E+01  0.21617204655E+02  0.23462811216E+02  0.51100000000E-03 0. -1.
        -11    1    3    3    0    0  0.36888075843E+01  0.66104577274E+00 -0.29878837983E+02  0.30112941443E+02  0.51100000000E-03 0.  1.
        -12    1    3    3    0    0  0.14998026356E+02  0.10097797162E+02 -0.54565653990E+01  0.18885984435E+02  0.00000000000E+00 0.  1.
</event>
<event>
 7    1  0.1302069E-013  0.7246156E+02  0.7816164E-02  0.1226708E+00
        -11   -1    0    0    0    0  0.00000000000E+00  0.00000000000E+00  0.45593999997E+02  0.45594000000E+02  0.51100000000E-03 0.  1.
         11   -1    0    0    0    0 -0.00000000000E+00 -0.00000000000E+00 -0.45593999997E+02  0.45594000000E+02  0.51100000000E-03 0. -1.
    9900012    2    1    2    0    0 -0.12365304181E+02 -0.43487671900E+01  0.13374121453E+02  0.72461557514E+02  0.69999983351E+02 0.  0.
         12    1    1    2    0    0  0.12365304181E+02  0.43487671900E+01 -0.13374121453E+02  0.18726442486E+02  0.00000000000E+00 0. -1.
         11    1    3    3    0    0 -0.75236631939E+00 -0.15426257969E+01 -0.59167195053E+01  0.61606265423E+01  0.51100000000E-03 0. -1.
        -11    1    3    3    0    0 -0.19397496484E+02  0.26595600905E+02  0.81687844175E+01  0.33916336720E+02  0.51100000000E-03 0.  1.
        -12    1    3    3    0    0  0.77845586224E+01 -0.29401742299E+02  0.11122056541E+02  0.32384594251E+02  0.00000000000E+00 0.  1.
</event>
<event>
 7    1  0.1302069E-013  0.7246153E+02  0.7816164E-02  0.1226708E+00
        -11   -1    0    0    0    0  0.00000000000E+00  0.00000000000E+00  0.45593999997E+02  0.45594000000E+02  0.51100000000E-03 0.  1.
         11   -1    0    0    0    0 -0.00000000000E+00 -0.00000000000E+00 -0.45593999997E+02  0.45594000000E+02  0.51100000000E-03 0. -1.
    9900012    2    1    2    0    0  0.17613317033E+02  0.84841676743E+00  0.63033265551E+01  0.72461530136E+02  0.69999947687E+02 0.  0.
         12    1    1    2    0    0 -0.17613317033E+02 -0.84841676743E+00 -0.63033265551E+01  0.18726469864E+02  0.00000000000E+00 0. -1.
         11    1    3    3    0    0 -0.17819235514E+02 -0.14481663559E+02  0.16327710727E+02  0.28175128599E+02  0.51100000000E-03 0.  1.
        -11    1    3    3    0    0  0.12982802735E+02  0.14941023163E+02 -0.24272359815E+00  0.19795106845E+02  0.51100000000E-03 0. -1.
         12    1    3    3    0    0  0.22449749812E+02  0.38905716298E+00 -0.97816605737E+01  0.24491294692E+02  0.00000000000E+00 0. -1.
</event>
<event>
 7    1  0.1302069E-013  0.7246205E+02  0.7816164E-02  0.1226707E+00
        -11   -1    0    0    0    0  0.00000000000E+00  0.00000000000E+00  0.45593999997E+02  0.45594000000E+02  0.51100000000E-03 0. -1.
         11   -1    0    0    0    0 -0.00000000000E+00 -0.00000000000E+00 -0.45593999997E+02  0.45594000000E+02  0.51100000000E-03 0.  1.
    9900012    2    1    2    0    0  0.89533141504E+01 -0.63617160578E+01 -0.15166674967E+02  0.72462047553E+02  0.70000621716E+02 0.  0.
         12    1    1    2    0    0 -0.89533141504E+01  0.63617160578E+01  0.15166674967E+02  0.18725952447E+02  0.00000000000E+00 0. -1.
         11    1    3    3    0    0 -0.17619047252E+02  0.32093092210E+00 -0.16516830124E+02  0.24152422245E+02  0.51100000000E-03 0. -1.
        -11    1    3    3    0    0  0.29198120234E+02 -0.16224831515E+02  0.10311375038E+02  0.34958544569E+02  0.51100000000E-03 0.  1.
         12    1    3    3    0    0 -0.26257588320E+01  0.95421845352E+01 -0.89612198813E+01  0.13351080739E+02  0.00000000000E+00 0. -1.
</event>
<event>
 7    1  0.1302069E-013  0.7246158E+02  0.7816164E-02  0.1226708E+00
        -11   -1    0    0    0    0  0.00000000000E+00  0.00000000000E+00  0.45593999997E+02  0.45594000000E+02  0.51100000000E-03 0.  1.
         11   -1    0    0    0    0 -0.00000000000E+00 -0.00000000000E+00 -0.45593999997E+02  0.45594000000E+02  0.51100000000E-03 0. -1.
    9900012    2    1    2    0    0  0.87456643144E+01 -0.10068657353E+02  0.13145882594E+02  0.72461581913E+02  0.70000015135E+02 0.  0.
         12    1    1    2    0    0 -0.87456643144E+01  0.10068657353E+02 -0.13145882594E+02  0.18726418087E+02  0.00000000000E+00 0. -1.
         11    1    3    3    0    0  0.13866254330E+02 -0.30945036171E+02  0.17849625916E+01  0.33956654200E+02  0.51100000000E-03 0. -1.
        -11    1    3    3    0    0 -0.12866166323E+02  0.77112819475E+01 -0.52934226335E+01  0.15906678741E+02  0.51100000000E-03 0.  1.
         12    1    3    3    0    0  0.77455763080E+01  0.13165096870E+02  0.16654342636E+02  0.22598248971E+02  0.00000000000E+00 0. -1.
</event>
<event>
 7    1  0.1302069E-013  0.7246163E+02  0.7816164E-02  0.1226708E+00
        -11   -1    0    0    0    0  0.00000000000E+00  0.00000000000E+00  0.45593999997E+02  0.45594000000E+02  0.51100000000E-03 0.  1.
         11   -1    0    0    0    0 -0.00000000000E+00 -0.00000000000E+00 -0.45593999997E+02  0.45594000000E+02  0.51100000000E-03 0. -1.
    9900012    2    1    2    0    0  0.24572752169E+01 -0.10392643590E+02  0.15382843404E+02  0.72461625191E+02  0.70000071513E+02 0.  0.
         12    1    1    2    0    0 -0.24572752169E+01  0.10392643590E+02 -0.15382843404E+02  0.18726374809E+02  0.00000000000E+00 0. -1.
         11    1    3    3    0    0 -0.25609400678E+02 -0.96585523889E+00 -0.38397178861E+01  0.25913658815E+02  0.51100000000E-03 0. -1.
        -11    1    3    3    0    0  0.21628363139E+02 -0.12868045820E+02  0.26285015377E+02  0.36390585719E+02  0.51100000000E-03 0.  1.
        -12    1    3    3    0    0  0.64383127558E+01  0.34412574691E+01 -0.70624540866E+01  0.10157380658E+02  0.00000000000E+00 0.  1.
</event>
<event>
 7    1  0.1302069E-013  0.7246160E+02  0.7816164E-02  0.1226708E+00
        -11   -1    0    0    0    0  0.00000000000E+00  0.00000000000E+00  0.45593999997E+02  0.45594000000E+02  0.51100000000E-03 0.  1.
         11   -1    0    0    0    0 -0.00000000000E+00 -0.00000000000E+00 -0.45593999997E+02  0.45594000000E+02  0.51100000000E-03 0. -1.
    9900012    2    1    2    0    0 -0.16274476443E+02  0.85748078828E+01 -0.35060042573E+01  0.72461602067E+02  0.70000041389E+02 0.  0.
         12    1    1    2    0    0  0.16274476443E+02 -0.85748078828E+01  0.35060042573E+01  0.18726397933E+02  0.00000000000E+00 0. -1.
         11    1    3    3    0    0 -0.26280442050E+02  0.11294842883E+02 -0.26646002480E+02  0.39092768622E+02  0.51100000000E-03 0. -1.
        -11    1    3    3    0    0  0.97006757331E+01  0.59118006806E+01  0.21862274197E+02  0.24637603989E+02  0.51100000000E-03 0.  1.
         12    1    3    3    0    0  0.30528987480E+00 -0.86318356804E+01  0.12777240260E+01  0.87312294556E+01  0.00000000000E+00 0. -1.
</event>
<event>
 7    1  0.1302069E-013  0.7246167E+02  0.7816164E-02  0.1226708E+00
        -11   -1    0    0    0    0  0.00000000000E+00  0.00000000000E+00  0.45593999997E+02  0.45594000000E+02  0.51100000000E-03 0. -1.
         11   -1    0    0    0    0 -0.00000000000E+00 -0.00000000000E+00 -0.45593999997E+02  0.45594000000E+02  0.51100000000E-03 0.  1.
    9900012    2    1    2    0    0 -0.34021167793E+01 -0.11593932270E+02 -0.14306710214E+02  0.72461665035E+02  0.70000123418E+02 0.  0.
         12    1    1    2    0    0  0.34021167793E+01  0.11593932270E+02  0.14306710214E+02  0.18726334965E+02  0.00000000000E+00 0. -1.
         11    1    3    3    0    0  0.28992286898E+02 -0.97253383792E+01  0.58017735367E+01  0.31125479636E+02  0.51100000000E-03 0. -1.
        -11    1    3    3    0    0 -0.10640459740E+02 -0.63311154277E+01 -0.13156662888E+02  0.18066548775E+02  0.51100000000E-03 0.  1.
         12    1    3    3    0    0 -0.21753943938E+02  0.44625215366E+01 -0.69518208624E+01  0.23269636624E+02  0.00000000000E+00 0. -1.
</event>
<event>
 7    1  0.1302069E-013  0.7246157E+02  0.7816164E-02  0.1226708E+00
        -11   -1    0    0    0    0  0.00000000000E+00  0.00000000000E+00  0.45593999997E+02  0.45594000000E+02  0.51100000000E-03 0. -1.
         11   -1    0    0    0    0 -0.00000000000E+00 -0.00000000000E+00 -0.45593999997E+02  0.45594000000E+02  0.51100000000E-03 0.  1.
    9900012    2    1    2    0    0  0.99842890168E+00 -0.12038088844E+02  0.14309678362E+02  0.72461565793E+02  0.69999994137E+02 0.  0.
         12    1    1    2    0    0 -0.99842890168E+00  0.12038088844E+02 -0.14309678362E+02  0.18726434207E+02  0.00000000000E+00 0. -1.
         11    1    3    3    0    0  0.13185593108E+02 -0.25364936064E+02  0.21321096991E+02  0.35662711960E+02  0.51100000000E-03 0.  1.
        -11    1    3    3    0    0 -0.20323151311E+02  0.15695660172E+02 -0.10357038301E+02  0.27688489848E+02  0.51100000000E-03 0. -1.
         12    1    3    3    0    0  0.81359871044E+01 -0.23688129522E+01  0.33456196711E+01  0.91103639855E+01  0.00000000000E+00 0. -1.
</event>
<event>
 7    1  0.1302069E-013  0.7246162E+02  0.7816164E-02  0.1226708E+00
        -11   -1    0    0    0    0  0.00000000000E+00  0.00000000000E+00  0.45593999997E+02  0.45594000000E+02  0.51100000000E-03 0.  1.
         11   -1    0    0    0    0 -0.00000000000E+00 -0.00000000000E+00 -0.45593999997E+02  0.45594000000E+02  0.51100000000E-03 0. -1.
    9900012    2    1    2    0    0 -0.43500432119E+01  0.99480270773E+01  0.15257496065E+02  0.72461620081E+02  0.70000064857E+02 0.  0.
         12    1    1    2    0    0  0.43500432119E+01 -0.99480270773E+01 -0.15257496065E+02  0.18726379919E+02  0.00000000000E+00 0. -1.
         11    1    3    3    0    0  0.84304338446E+01 -0.19825520717E+02 -0.13350472523E+02  0.25344794403E+02  0.51100000000E-03 0. -1.
        -11    1    3    3    0    0 -0.45954551963E+01  0.92886117060E+01  0.21622363613E+02  0.23977554595E+02  0.51100000000E-03 0.  1.
         12    1    3    3    0    0 -0.81850218601E+01  0.20484936088E+02  0.69856049749E+01  0.23139271083E+02  0.00000000000E+00 0. -1.
</event>
<event>
 7    1  0.1302069E-013  0.7246156E+02  0.7816164E-02  0.1226708E+00
        -11   -1    0    0    0    0  0.00000000000E+00  0.00000000000E+00  0.45593999997E+02  0.45594000000E+02  0.51100000000E-03 0.  1.
         11   -1    0    0    0    0 -0.00000000000E+00 -0.00000000000E+00 -0.45593999997E+02  0.45594000000E+02  0.51100000000E-03 0. -1.
    9900012    2    1    2    0    0 -0.11667128542E+02  0.14453434869E+02 -0.23781803252E+01  0.72461563884E+02  0.69999991650E+02 0.  0.
         12    1    1    2    0    0  0.11667128542E+02 -0.14453434869E+02  0.23781803252E+01  0.18726436116E+02  0.00000000000E+00 0. -1.
         11    1    3    3    0    0 -0.16545751600E+02  0.20917023935E+02  0.25871342515E+02  0.37156562678E+02  0.51100000000E-03 0. -1.
        -11    1    3    3    0    0 -0.30218298844E+01 -0.63347738154E+01 -0.11942084069E+01  0.71194767450E+01  0.51100000000E-03 0.  1.
         12    1    3    3    0    0  0.79004529416E+01 -0.12881525040E+00 -0.27055314433E+02  0.28185524461E+02  0.00000000000E+00 0. -1.
</event>
<event>
 7    1  0.1302069E-013  0.7246152E+02  0.7816164E-02  0.1226708E+00
        -11   -1    0    0    0    0  0.00000000000E+00  0.00000000000E+00  0.45593999997E+02  0.45594000000E+02  0.51100000000E-03 0. -1.
         11   -1    0    0    0    0 -0.00000000000E+00 -0.00000000000E+00 -0.45593999997E+02  0.45594000000E+02  0.51100000000E-03 0.  1.
    9900012    2    1    2    0    0  0.92743731947E+01 -0.72372645646E+01 -0.14570138926E+02  0.72461522893E+02  0.69999938251E+02 0.  0.
         12    1    1    2    0    0 -0.92743731947E+01  0.72372645646E+01  0.14570138926E+02  0.18726477107E+02  0.00000000000E+00 0. -1.
         11    1    3    3    0    0 -0.87485779315E+01  0.65208100156E+01  0.31827728481E+01  0.11366117294E+02  0.51100000000E-03 0. -1.
        -11    1    3    3    0    0  0.22658251651E+02 -0.18330993969E+02 -0.33292261795E+02  0.44246993158E+02  0.51100000000E-03 0.  1.
        -12    1    3    3    0    0 -0.46353005251E+01  0.45729193887E+01  0.15539350022E+02  0.16848412441E+02  0.00000000000E+00 0.  1.
</event>
<event>
 8    1  0.1302069E-013  0.7246157E+02  0.7816164E-02  0.1226708E+00
        -11   -1    0    0    0    0  0.00000000000E+00  0.00000000000E+00  0.45593999997E+02  0.45594000000E+02  0.51100000000E-03 0.  1.
         11   -1    0    0    0    0 -0.00000000000E+00 -0.00000000000E+00 -0.45593999997E+02  0.45594000000E+02  0.51100000000E-03 0. -1.
    9900012    2    1    2    0    0 -0.22870577138E+01 -0.16906674221E+02  0.77209498209E+01  0.72461565947E+02  0.69999994337E+02 0.  0.
         24    2    3    3    0    0  0.55433214164E+01 -0.19007069486E+02  0.16855766249E+02  0.60247992800E+02  0.54348014479E+02 0.  0.
         12    1    1    2    0    0  0.22870577138E+01  0.16906674221E+02 -0.77209498209E+01  0.18726434053E+02  0.00000000000E+00 0. -1.
         11    1    3    3    0    0 -0.78303791302E+01  0.21003952649E+01 -0.91348164278E+01  0.12213573147E+02  0.51100000000E-03 0. -1.
        -11    1    4    4    0    0  0.23542311750E+02  0.53617011076E+01  0.17705006813E+02  0.29940867519E+02  0.51100000000E-03 0.  1.
         12    1    4    4    0    0 -0.17998990334E+02 -0.24368770593E+02 -0.84924056441E+00  0.30307125281E+02  0.00000000000E+00 0. -1.
</event>
<event>
 7    1  0.1302069E-013  0.7246167E+02  0.7816164E-02  0.1226708E+00
        -11   -1    0    0    0    0  0.00000000000E+00  0.00000000000E+00  0.45593999997E+02  0.45594000000E+02  0.51100000000E-03 0.  1.
         11   -1    0    0    0    0 -0.00000000000E+00 -0.00000000000E+00 -0.45593999997E+02  0.45594000000E+02  0.51100000000E-03 0. -1.
    9900012    2    1    2    0    0 -0.15497513417E+02  0.10375082451E+02  0.16911944883E+01  0.72461671028E+02  0.70000131224E+02 0.  0.
         12    1    1    2    0    0  0.15497513417E+02 -0.10375082451E+02 -0.16911944883E+01  0.18726328972E+02  0.00000000000E+00 0. -1.
         11    1    3    3    0    0  0.13317729391E+02  0.21408775356E+01  0.21396231548E+01  0.13657351876E+02  0.51100000000E-03 0. -1.
        -11    1    3    3    0    0 -0.11098064069E+02  0.40917717304E+01 -0.25344095156E+02  0.27968424724E+02  0.51100000000E-03 0.  1.
        -12    1    3    3    0    0 -0.17717178740E+02  0.41424331853E+01  0.24895666490E+02  0.30835894428E+02  0.00000000000E+00 0.  1.
</event>
<event>
 7    1  0.1302069E-013  0.7246154E+02  0.7816164E-02  0.1226708E+00
        -11   -1    0    0    0    0  0.00000000000E+00  0.00000000000E+00  0.45593999997E+02  0.45594000000E+02  0.51100000000E-03 0. -1.
         11   -1    0    0    0    0 -0.00000000000E+00 -0.00000000000E+00 -0.45593999997E+02  0.45594000000E+02  0.51100000000E-03 0.  1.
    9900012    2    1    2    0    0 -0.98362093445E+01  0.12769051132E+02 -0.95331414645E+01  0.72461535644E+02  0.69999954862E+02 0.  0.
         12    1    1    2    0    0  0.98362093445E+01 -0.12769051132E+02  0.95331414645E+01  0.18726464356E+02  0.00000000000E+00 0. -1.
         11    1    3    3    0    0  0.21872966695E+01  0.12368110638E+02  0.11769469629E+02  0.17212636145E+02  0.51100000000E-03 0. -1.
        -11    1    3    3    0    0  0.15159454519E+02 -0.13498628064E+02 -0.10580437228E+02  0.22890340170E+02  0.51100000000E-03 0.  1.
        -12    1    3    3    0    0 -0.27182960533E+02  0.13899568558E+02 -0.10722173865E+02  0.32358559328E+02  0.00000000000E+00 0.  1.
</event>
<event>
 7    1  0.1302069E-013  0.7246154E+02  0.7816164E-02  0.1226708E+00
        -11   -1    0    0    0    0  0.00000000000E+00  0.00000000000E+00  0.45593999997E+02  0.45594000000E+02  0.51100000000E-03 0.  1.
         11   -1    0    0    0    0 -0.00000000000E+00 -0.00000000000E+00 -0.45593999997E+02  0.45594000000E+02  0.51100000000E-03 0. -1.
    9900012    2    1    2    0    0 -0.94447091329E+01  0.77864961917E+01  0.14172091486E+02  0.72461541962E+02  0.69999963092E+02 0.  0.
         12    1    1    2    0    0  0.94447091329E+01 -0.77864961917E+01 -0.14172091486E+02  0.18726458038E+02  0.00000000000E+00 0. -1.
         11    1    3    3    0    0  0.17879165695E+02 -0.16084293476E+02  0.39041585548E+01  0.24364144082E+02  0.51100000000E-03 0. -1.
        -11    1    3    3    0    0 -0.24107216178E+02  0.46143642535E+01  0.13946841370E+02  0.28230561698E+02  0.51100000000E-03 0.  1.
        -12    1    3    3    0    0 -0.32166586501E+01  0.19256425414E+02 -0.36789084393E+01  0.19866836182E+02  0.00000000000E+00 0.  1.
</event>
<event>
 7    1  0.1302069E-013  0.7246183E+02  0.7816164E-02  0.1226707E+00
        -11   -1    0    0    0    0  0.00000000000E+00  0.00000000000E+00  0.45593999997E+02  0.45594000000E+02  0.51100000000E-03 0. -1.
         11   -1    0    0    0    0 -0.00000000000E+00 -0.00000000000E+00 -0.45593999997E+02  0.45594000000E+02  0.51100000000E-03 0.  1.
    9900012    2    1    2    0    0 -0.48931184181E+01 -0.77041922380E+01 -0.16351516421E+02  0.72461834478E+02  0.70000344147E+02 0.  0.
         12    1    1    2    0    0  0.48931184181E+01  0.77041922380E+01  0.16351516421E+02  0.18726165522E+02  0.00000000000E+00 0. -1.
         11    1    3    3    0    0 -0.27405468832E+00  0.58049755349E+01  0.25524294974E+01  0.63472626803E+01  0.51100000000E-03 0. -1.
        -11    1    3    3    0    0 -0.32986936233E+02 -0.48479018204E+01 -0.13474326142E+02  0.35961056427E+02  0.51100000000E-03 0.  1.
        -12    1    3    3    0    0  0.28367872503E+02 -0.86612659525E+01 -0.54296197769E+01  0.30153515370E+02  0.00000000000E+00 0.  1.
</event>
<event>
 7    1  0.1302069E-013  0.7246160E+02  0.7816164E-02  0.1226708E+00
        -11   -1    0    0    0    0  0.00000000000E+00  0.00000000000E+00  0.45593999997E+02  0.45594000000E+02  0.51100000000E-03 0.  1.
         11   -1    0    0    0    0 -0.00000000000E+00 -0.00000000000E+00 -0.45593999997E+02  0.45594000000E+02  0.51100000000E-03 0. -1.
    9900012    2    1    2    0    0 -0.54590708693E+01 -0.12514494550E+02  0.12816558826E+02  0.72461595947E+02  0.70000033418E+02 0.  0.
         12    1    1    2    0    0  0.54590708693E+01  0.12514494550E+02 -0.12816558826E+02  0.18726404053E+02  0.00000000000E+00 0. -1.
         11    1    3    3    0    0  0.15636974602E+02  0.54320422952E+01  0.18624807050E+02  0.24917975361E+02  0.51100000000E-03 0. -1.
        -11    1    3    3    0    0 -0.15050632604E+02 -0.26539406753E+02  0.66707341998E+01  0.31230759638E+02  0.51100000000E-03 0.  1.
         12    1    3    3    0    0 -0.60454128673E+01  0.85928699079E+01 -0.12478982423E+02  0.16312860948E+02  0.00000000000E+00 0. -1.
</event>
<event>
 7    1  0.1302069E-013  0.7246155E+02  0.7816164E-02  0.1226708E+00
        -11   -1    0    0    0    0  0.00000000000E+00  0.00000000000E+00  0.45593999997E+02  0.45594000000E+02  0.51100000000E-03 0.  1.
         11   -1    0    0    0    0 -0.00000000000E+00 -0.00000000000E+00 -0.45593999997E+02  0.45594000000E+02  0.51100000000E-03 0. -1.
    9900012    2    1    2    0    0  0.13498984890E+02 -0.12864237807E+02  0.17230519385E+01  0.72461545040E+02  0.69999967101E+02 0.  0.
         12    1    1    2    0    0 -0.13498984890E+02  0.12864237807E+02 -0.17230519385E+01  0.18726454960E+02  0.00000000000E+00 0. -1.
         11    1    3    3    0    0  0.10210038876E+01 -0.23823607884E+02  0.11327874634E+02  0.26399384189E+02  0.51100000000E-03 0.  1.
        -11    1    3    3    0    0  0.25659568910E+02  0.35254906607E+01 -0.15077695200E+02  0.29969642204E+02  0.51100000000E-03 0. -1.
         12    1    3    3    0    0 -0.13181587908E+02  0.74338794169E+01  0.54728725043E+01  0.16092518647E+02  0.00000000000E+00 0. -1.
</event>
<event>
 7    1  0.1302069E-013  0.7246159E+02  0.7816164E-02  0.1226708E+00
        -11   -1    0    0    0    0  0.00000000000E+00  0.00000000000E+00  0.45593999997E+02  0.45594000000E+02  0.51100000000E-03 0. -1.
         11   -1    0    0    0    0 -0.00000000000E+00 -0.00000000000E+00 -0.45593999997E+02  0.45594000000E+02  0.51100000000E-03 0.  1.
    9900012    2    1    2    0    0  0.15072692747E+02  0.44900643590E+01 -0.10165216328E+02  0.72461591706E+02  0.70000027893E+02 0.  0.
         12    1    1    2    0    0 -0.15072692747E+02 -0.44900643590E+01  0.10165216328E+02  0.18726408294E+02  0.00000000000E+00 0. -1.
         11    1    3    3    0    0 -0.10145697667E+02 -0.11454949389E+02  0.11687241892E+02  0.19254679171E+02  0.51100000000E-03 0. -1.
        -11    1    3    3    0    0  0.26511501443E+01 -0.10546211556E+02 -0.13651651697E+02  0.17453331189E+02  0.51100000000E-03 0.  1.
         12    1    3    3    0    0  0.22567240270E+02  0.26491225304E+02 -0.82008065230E+01  0.35753581347E+02  0.00000000000E+00 0. -1.
</event>
<event>
 7    1  0.1302069E-013  0.7246156E+02  0.7816164E-02  0.1226708E+00
        -11   -1    0    0    0    0  0.00000000000E+00  0.00000000000E+00  0.45593999997E+02  0.45594000000E+02  0.51100000000E-03 0.  1.
         11   -1    0    0    0    0 -0.00000000000E+00 -0.00000000000E+00 -0.45593999997E+02  0.45594000000E+02  0.51100000000E-03 0. -1.
    9900012    2    1    2    0    0  0.34046694308E+01 -0.11484293658E+02  0.14394399302E+02  0.72461561309E+02  0.69999988296E+02 0.  0.
         12    1    1    2    0    0 -0.34046694308E+01  0.11484293658E+02 -0.14394399302E+02  0.18726438691E+02  0.00000000000E+00 0. -1.
         11    1    3    3    0    0  0.38176921998E+01  0.14284794155E+02 -0.63677127779E+01  0.16099002579E+02  0.51100000000E-03 0. -1.
        -11    1    3    3    0    0 -0.20737321541E+02 -0.24229016545E+02  0.14552769016E+02  0.35055168431E+02  0.51100000000E-03 0.  1.
         12    1    3    3    0    0  0.20324298772E+02 -0.15400712673E+01  0.62093430645E+01  0.21307390299E+02  0.00000000000E+00 0. -1.
</event>
<event>
 7    1  0.1302069E-013  0.7246161E+02  0.7816164E-02  0.1226708E+00
        -11   -1    0    0    0    0  0.00000000000E+00  0.00000000000E+00  0.45593999997E+02  0.45594000000E+02  0.51100000000E-03 0. -1.
         11   -1    0    0    0    0 -0.00000000000E+00 -0.00000000000E+00 -0.45593999997E+02  0.45594000000E+02  0.51100000000E-03 0.  1.
    9900012    2    1    2    0    0 -0.11350861128E+02  0.12977425085E+02 -0.73090372162E+01  0.72461611261E+02  0.70000053367E+02 0.  0.
         12    1    1    2    0    0  0.11350861128E+02 -0.12977425085E+02  0.73090372162E+01  0.18726388739E+02  0.00000000000E+00 0. -1.
         11    1    3    3    0    0 -0.19464170095E+01  0.17490755831E+02 -0.26730773071E+02  0.32003895200E+02  0.51100000000E-03 0.  1.
        -11    1    3    3    0    0 -0.15006706228E+02 -0.14845622931E+02  0.47111813902E+01  0.21628429957E+02  0.51100000000E-03 0. -1.
         12    1    3    3    0    0  0.56022621099E+01  0.10332292185E+02  0.14710554465E+02  0.18829286104E+02  0.00000000000E+00 0. -1.
</event>
<event>
 7    1  0.1302069E-013  0.7246155E+02  0.7816164E-02  0.1226708E+00
        -11   -1    0    0    0    0  0.00000000000E+00  0.00000000000E+00  0.45593999997E+02  0.45594000000E+02  0.51100000000E-03 0.  1.
         11   -1    0    0    0    0 -0.00000000000E+00 -0.00000000000E+00 -0.45593999997E+02  0.45594000000E+02  0.51100000000E-03 0. -1.
    9900012    2    1    2    0    0 -0.59327829502E+01  0.48097776125E+01  0.17098192026E+02  0.72461546925E+02  0.69999969557E+02 0.  0.
         12    1    1    2    0    0  0.59327829502E+01 -0.48097776125E+01 -0.17098192026E+02  0.18726453075E+02  0.00000000000E+00 0. -1.
         11    1    3    3    0    0 -0.23041961569E+01 -0.57048640391E+01  0.35286987808E+01  0.70927081557E+01  0.51100000000E-03 0. -1.
        -11    1    3    3    0    0  0.12650451969E+02  0.31459229905E+02  0.18133904217E+02  0.38451990373E+02  0.51100000000E-03 0.  1.
        -12    1    3    3    0    0 -0.16279038762E+02 -0.20944588253E+02 -0.45644109717E+01  0.26916848397E+02  0.00000000000E+00 0.  1.
</event>
<event>
 7    1  0.1302069E-013  0.7246157E+02  0.7816164E-02  0.1226708E+00
        -11   -1    0    0    0    0  0.00000000000E+00  0.00000000000E+00  0.45593999997E+02  0.45594000000E+02  0.51100000000E-03 0. -1.
         11   -1    0    0    0    0 -0.00000000000E+00 -0.00000000000E+00 -0.45593999997E+02  0.45594000000E+02  0.51100000000E-03 0.  1.
    9900012    2    1    2    0    0  0.10479084344E+02 -0.13271943253E+02  0.80450942333E+01  0.72461568743E+02  0.69999997980E+02 0.  0.
         12    1    1    2    0    0 -0.10479084344E+02  0.13271943253E+02 -0.80450942333E+01  0.18726431257E+02  0.00000000000E+00 0. -1.
         11    1    3    3    0    0  0.37545620256E+02 -0.37279463322E+01  0.12721286821E+02  0.39817110931E+02  0.51100000000E-03 0. -1.
        -11    1    3    3    0    0 -0.10500475119E+02 -0.37102886911E+00 -0.82688096050E+01  0.13370521781E+02  0.51100000000E-03 0.  1.
         12    1    3    3    0    0 -0.16566060794E+02 -0.91729680516E+01  0.35926170178E+01  0.19273936031E+02  0.00000000000E+00 0. -1.
</event>
<event>
 8    1  0.1302069E-013  0.7246157E+02  0.7816164E-02  0.1226708E+00
        -11   -1    0    0    0    0  0.00000000000E+00  0.00000000000E+00  0.45593999997E+02  0.45594000000E+02  0.51100000000E-03 0. -1.
         11   -1    0    0    0    0 -0.00000000000E+00 -0.00000000000E+00 -0.45593999997E+02  0.45594000000E+02  0.51100000000E-03 0.  1.
    9900012    2    1    2    0    0 -0.33563383450E+01 -0.13954698533E+02 -0.12028324254E+02  0.72461569412E+02  0.69999998850E+02 0.  0.
        -24    2    3    3    0    0 -0.73330965935E+01  0.44026235828E+01 -0.15542283821E+02  0.53352571700E+02  0.50316765800E+02 0.  0.
         12    1    1    2    0    0  0.33563383450E+01  0.13954698533E+02  0.12028324254E+02  0.18726430588E+02  0.00000000000E+00 0. -1.
         11    1    4    4    0    0  0.12904562081E+02  0.18050826543E+02  0.34092247976E+01  0.22449562921E+02  0.51100000000E-03 0. -1.
        -11    1    3    3    0    0  0.39767582485E+01 -0.18357322116E+02  0.35139595675E+01  0.19108997711E+02  0.51100000000E-03 0.  1.
        -12    1    4    4    0    0 -0.20237658674E+02 -0.13648202960E+02 -0.18951508619E+02  0.30903008779E+02  0.00000000000E+00 0.  1.
</event>
<event>
 7    1  0.1302069E-013  0.7246154E+02  0.7816164E-02  0.1226708E+00
        -11   -1    0    0    0    0  0.00000000000E+00  0.00000000000E+00  0.45593999997E+02  0.45594000000E+02  0.51100000000E-03 0.  1.
         11   -1    0    0    0    0 -0.00000000000E+00 -0.00000000000E+00 -0.45593999997E+02  0.45594000000E+02  0.51100000000E-03 0. -1.
    9900012    2    1    2    0    0 -0.85523808564E+01 -0.70236720329E+01  0.15106458358E+02  0.72461540878E+02  0.69999961679E+02 0.  0.
         12    1    1    2    0    0  0.85523808564E+01  0.70236720329E+01 -0.15106458358E+02  0.18726459122E+02  0.00000000000E+00 0. -1.
         11    1    3    3    0    0 -0.28836494972E+02  0.16837069428E+02 -0.62776383605E+01  0.33977037729E+02  0.51100000000E-03 0. -1.
        -11    1    3    3    0    0  0.12655674989E+02 -0.12437218105E+02  0.15424491781E+02  0.23510964476E+02  0.51100000000E-03 0.  1.
         12    1    3    3    0    0  0.76284391264E+01 -0.11423523356E+02  0.59596049375E+01  0.14973538673E+02  0.00000000000E+00 0. -1.
</event>
<event>
 7    1  0.1302069E-013  0.7246135E+02  0.7816164E-02  0.1226709E+00
        -11   -1    0    0    0    0  0.00000000000E+00  0.00000000000E+00  0.45593999997E+02  0.45594000000E+02  0.51100000000E-03 0. -1.
         11   -1    0    0    0    0 -0.00000000000E+00 -0.00000000000E+00 -0.45593999997E+02  0.45594000000E+02  0.51100000000E-03 0.  1.
    9900012    2    1    2    0    0  0.13047433157E+02  0.70694345355E+01 -0.11422561943E+02  0.72461352196E+02  0.69999715886E+02 0.  0.
         12    1    1    2    0    0 -0.13047433157E+02 -0.70694345355E+01  0.11422561943E+02  0.18726647804E+02  0.00000000000E+00 0. -1.
         11    1    3    3    0    0 -0.17976045453E+01 -0.13765445288E+02  0.26478452386E+01  0.14132584715E+02  0.51100000000E-03 0. -1.
        -11    1    3    3    0    0  0.26258716524E+02  0.19328657127E+02  0.78784687329E+01  0.33543813881E+02  0.51100000000E-03 0.  1.
        -12    1    3    3    0    0 -0.11413678822E+02  0.15062226966E+01 -0.21948875914E+02  0.24784953600E+02  0.00000000000E+00 0.  1.
</event>
<event>
 7    1  0.1302069E-013  0.7246159E+02  0.7816164E-02  0.1226708E+00
        -11   -1    0    0    0    0  0.00000000000E+00  0.00000000000E+00  0.45593999997E+02  0.45594000000E+02  0.51100000000E-03 0.  1.
         11   -1    0    0    0    0 -0.00000000000E+00 -0.00000000000E+00 -0.45593999997E+02  0.45594000000E+02  0.51100000000E-03 0. -1.
    9900012    2    1    2    0    0 -0.15255172273E+02 -0.86150771655E+01  0.66135136932E+01  0.72461590867E+02  0.70000026800E+02 0.  0.
         12    1    1    2    0    0  0.15255172273E+02  0.86150771655E+01 -0.66135136932E+01  0.18726409133E+02  0.00000000000E+00 0. -1.
         11    1    3    3    0    0 -0.14558456215E+01  0.20378040049E+02 -0.13247431290E+02  0.24349095235E+02  0.51100000000E-03 0.  1.
        -11    1    3    3    0    0 -0.20343845445E+02 -0.26801011999E+02  0.22764236078E+02  0.40624829060E+02  0.51100000000E-03 0. -1.
         12    1    3    3    0    0  0.65445187935E+01 -0.21921052158E+01 -0.29032910952E+01  0.74876665724E+01  0.00000000000E+00 0. -1.
</event>
<event>
 7    1  0.1709109E-013  0.7246161E+02  0.7816164E-02  0.1226708E+00
        -11   -1    0    0    0    0  0.00000000000E+00  0.00000000000E+00  0.45593999997E+02  0.45594000000E+02  0.51100000000E-03 0. -1.
         11   -1    0    0    0    0 -0.00000000000E+00 -0.00000000000E+00 -0.45593999997E+02  0.45594000000E+02  0.51100000000E-03 0.  1.
    9900012    2    1    2    0    0 -0.23839347205E+01  0.10692745402E+02 -0.15187491726E+02  0.72461605421E+02  0.70000045759E+02 0.  0.
         12    1    1    2    0    0  0.23839347205E+01 -0.10692745402E+02  0.15187491726E+02  0.18726394579E+02  0.00000000000E+00 0. -1.
         11    1    3    3    0    0  0.15810909178E+02 -0.28660904335E+01 -0.32547094983E+00  0.16071877768E+02  0.51100000000E-03 0. -1.
        -11    1    3    3    0    0 -0.25444023103E+02 -0.10132647654E+02 -0.15759107148E+02  0.31597758125E+02  0.51100000000E-03 0.  1.
        -12    1    3    3    0    0  0.72491792050E+01  0.23691483490E+02  0.89708637166E+00  0.24791969528E+02  0.00000000000E+00 0.  1.
</event>
<event>
 7    1  0.1302069E-013  0.7246158E+02  0.7816164E-02  0.1226708E+00
        -11   -1    0    0    0    0  0.00000000000E+00  0.00000000000E+00  0.45593999997E+02  0.45594000000E+02  0.51100000000E-03 0.  1.
         11   -1    0    0    0    0 -0.00000000000E+00 -0.00000000000E+00 -0.45593999997E+02  0.45594000000E+02  0.51100000000E-03 0. -1.
    9900012    2    1    2    0    0 -0.12195832287E+02  0.11921931758E+02  0.77335763914E+01  0.72461575200E+02  0.70000006390E+02 0.  0.
         12    1    1    2    0    0  0.12195832287E+02 -0.11921931758E+02 -0.77335763914E+01  0.18726424800E+02  0.00000000000E+00 0. -1.
         11    1    3    3    0    0 -0.15819587200E+02 -0.13596658128E+02 -0.14676071161E+02  0.25505205673E+02  0.51100000000E-03 0. -1.
        -11    1    3    3    0    0  0.65066223745E+01  0.17109841016E+02  0.30082160858E+02  0.35213906294E+02  0.51100000000E-03 0.  1.
         12    1    3    3    0    0 -0.28828674613E+01  0.84087488696E+01 -0.76725133055E+01  0.11742463233E+02  0.00000000000E+00 0. -1.
</event>
<event>
 7    1  0.1302069E-013  0.7246157E+02  0.7816164E-02  0.1226708E+00
        -11   -1    0    0    0    0  0.00000000000E+00  0.00000000000E+00  0.45593999997E+02  0.45594000000E+02  0.51100000000E-03 0.  1.
         11   -1    0    0    0    0 -0.00000000000E+00 -0.00000000000E+00 -0.45593999997E+02  0.45594000000E+02  0.51100000000E-03 0. -1.
    9900012    2    1    2    0    0 -0.51874443292E+01 -0.84160616295E+01  0.15904074540E+02  0.72461567905E+02  0.69999996888E+02 0.  0.
         12    1    1    2    0    0  0.51874443292E+01  0.84160616295E+01 -0.15904074540E+02  0.18726432095E+02  0.00000000000E+00 0. -1.
         11    1    3    3    0    0 -0.10829685855E+02  0.21606614535E+01  0.49872630879E+01  0.12117068416E+02  0.51100000000E-03 0. -1.
        -11    1    3    3    0    0  0.20917093649E+02 -0.14851464347E+02  0.27354686515E+02  0.37501595627E+02  0.51100000000E-03 0.  1.
        -12    1    3    3    0    0 -0.15274852124E+02  0.42747412640E+01 -0.16437875063E+02  0.22842903862E+02  0.00000000000E+00 0.  1.
</event>
<event>
 7    1  0.1302069E-013  0.7246159E+02  0.7816164E-02  0.1226708E+00
        -11   -1    0    0    0    0  0.00000000000E+00  0.00000000000E+00  0.45593999997E+02  0.45594000000E+02  0.51100000000E-03 0.  1.
         11   -1    0    0    0    0 -0.00000000000E+00 -0.00000000000E+00 -0.45593999997E+02  0.45594000000E+02  0.51100000000E-03 0. -1.
    9900012    2    1    2    0    0  0.39514443114E+01  0.15504417043E+02  0.97302362337E+01  0.72461591985E+02  0.70000028256E+02 0.  0.
         12    1    1    2    0    0 -0.39514443114E+01 -0.15504417043E+02 -0.97302362337E+01  0.18726408015E+02  0.00000000000E+00 0. -1.
         11    1    3    3    0    0 -0.13149692035E+02  0.17970603145E+02  0.18442589461E+02  0.28913423946E+02  0.51100000000E-03 0. -1.
        -11    1    3    3    0    0  0.73566361871E+01  0.17625726735E+02 -0.92282559360E+01  0.21211955280E+02  0.51100000000E-03 0.  1.
         12    1    3    3    0    0  0.97445001591E+01 -0.20091912837E+02  0.51590270819E+00  0.22336212759E+02  0.00000000000E+00 0. -1.
</event>
<event>
 7    1  0.1302069E-013  0.7246132E+02  0.7816164E-02  0.1226709E+00
        -11   -1    0    0    0    0  0.00000000000E+00  0.00000000000E+00  0.45593999997E+02  0.45594000000E+02  0.51100000000E-03 0.  1.
         11   -1    0    0    0    0 -0.00000000000E+00 -0.00000000000E+00 -0.45593999997E+02  0.45594000000E+02  0.51100000000E-03 0. -1.
    9900012    2    1    2    0    0 -0.18598670432E+02 -0.15007988886E+01  0.15892112368E+01  0.72461320329E+02  0.69999674373E+02 0.  0.
         12    1    1    2    0    0  0.18598670432E+02  0.15007988886E+01 -0.15892112368E+01  0.18726679671E+02  0.00000000000E+00 0. -1.
         11    1    3    3    0    0 -0.50093963614E+01 -0.24707665908E+02  0.18492064093E+02  0.31265304112E+02  0.51100000000E-03 0. -1.
        -11    1    3    3    0    0  0.61193658112E+01  0.14884563443E+02 -0.59185605054E+01  0.17147192935E+02  0.51100000000E-03 0.  1.
        -12    1    3    3    0    0 -0.19708639882E+02  0.83223035757E+01 -0.10984292351E+02  0.24048823282E+02  0.00000000000E+00 0.  1.
</event>
<event>
 7    1  0.1302069E-013  0.7246157E+02  0.7816164E-02  0.1226708E+00
        -11   -1    0    0    0    0  0.00000000000E+00  0.00000000000E+00  0.45593999997E+02  0.45594000000E+02  0.51100000000E-03 0.  1.
         11   -1    0    0    0    0 -0.00000000000E+00 -0.00000000000E+00 -0.45593999997E+02  0.45594000000E+02  0.51100000000E-03 0. -1.
    9900012    2    1    2    0    0 -0.14117797907E+02  0.11273633672E+02  0.49266635220E+01  0.72461573556E+02  0.70000004249E+02 0.  0.
         12    1    1    2    0    0  0.14117797907E+02 -0.11273633672E+02 -0.49266635220E+01  0.18726426444E+02  0.00000000000E+00 0. -1.
         11    1    3    3    0    0 -0.33826496730E+02  0.12421022948E+02 -0.58504858955E+01  0.36506737427E+02  0.51100000000E-03 0. -1.
        -11    1    3    3    0    0  0.21483382257E+02  0.71574919688E+01  0.53603880083E+00  0.22650667592E+02  0.51100000000E-03 0.  1.
         12    1    3    3    0    0 -0.17746834339E+01 -0.83048812453E+01  0.10241110617E+02  0.13304168537E+02  0.00000000000E+00 0. -1.
</event>
<event>
 7    1  0.1302069E-013  0.7246153E+02  0.7816164E-02  0.1226708E+00
        -11   -1    0    0    0    0  0.00000000000E+00  0.00000000000E+00  0.45593999997E+02  0.45594000000E+02  0.51100000000E-03 0.  1.
         11   -1    0    0    0    0 -0.00000000000E+00 -0.00000000000E+00 -0.45593999997E+02  0.45594000000E+02  0.51100000000E-03 0. -1.
    9900012    2    1    2    0    0 -0.38787770322E+01 -0.28152560984E+01  0.18102765206E+02  0.72461529796E+02  0.69999947244E+02 0.  0.
         12    1    1    2    0    0  0.38787770322E+01  0.28152560984E+01 -0.18102765206E+02  0.18726470204E+02  0.00000000000E+00 0. -1.
         11    1    3    3    0    0 -0.14945293743E+00  0.15644845663E+02  0.15311882617E+02  0.21891488792E+02  0.51100000000E-03 0. -1.
        -11    1    3    3    0    0 -0.66822415707E+01 -0.21189176821E+02 -0.18494545759E+02  0.28908161301E+02  0.51100000000E-03 0.  1.
        -12    1    3    3    0    0  0.29529174760E+01  0.27290750594E+01  0.21285428348E+02  0.21661879703E+02  0.00000000000E+00 0.  1.
</event>
<event>
 7    1  0.1397719E-013  0.7246168E+02  0.7816164E-02  0.1226708E+00
        -11   -1    0    0    0    0  0.00000000000E+00  0.00000000000E+00  0.45593999997E+02  0.45594000000E+02  0.51100000000E-03 0.  1.
         11   -1    0    0    0    0 -0.00000000000E+00 -0.00000000000E+00 -0.45593999997E+02  0.45594000000E+02  0.51100000000E-03 0. -1.
    9900012    2    1    2    0    0 -0.83734943454E+01  0.16400591452E+02 -0.34029844639E+01  0.72461678664E+02  0.70000141171E+02 0.  0.
         12    1    1    2    0    0  0.83734943454E+01 -0.16400591452E+02  0.34029844639E+01  0.18726321336E+02  0.00000000000E+00 0. -1.
         11    1    3    3    0    0  0.81210769421E+01 -0.63779563980E+01  0.10304695400E+01  0.10377479764E+02  0.51100000000E-03 0. -1.
        -11    1    3    3    0    0 -0.93194926803E+00  0.26875365949E+02 -0.24488380888E+02  0.36370793545E+02  0.51100000000E-03 0.  1.
        -12    1    3    3    0    0 -0.15562622019E+02 -0.40968180988E+01  0.20054926884E+02  0.25713405355E+02  0.00000000000E+00 0.  1.
</event>
<event>
 7    1  0.1302069E-013  0.7246201E+02  0.7816164E-02  0.1226707E+00
        -11   -1    0    0    0    0  0.00000000000E+00  0.00000000000E+00  0.45593999997E+02  0.45594000000E+02  0.51100000000E-03 0. -1.
         11   -1    0    0    0    0 -0.00000000000E+00 -0.00000000000E+00 -0.45593999997E+02  0.45594000000E+02  0.51100000000E-03 0.  1.
    9900012    2    1    2    0    0 -0.43908346309E+01  0.29224311612E+01 -0.17967822013E+02  0.72462011093E+02  0.70000574220E+02 0.  0.
         12    1    1    2    0    0  0.43908346309E+01 -0.29224311612E+01  0.17967822013E+02  0.18725988907E+02  0.00000000000E+00 0. -1.
         11    1    3    3    0    0 -0.19000802288E+02 -0.16109999321E+02 -0.16060839650E+02  0.29639722270E+02  0.51100000000E-03 0.  1.
        -11    1    3    3    0    0  0.87839072915E+01  0.29288350174E+02  0.12804905763E+01  0.30603988949E+02  0.51100000000E-03 0. -1.
        -12    1    3    3    0    0  0.58260603652E+01 -0.10255919691E+02 -0.31874729396E+01  0.12218299875E+02  0.00000000000E+00 0.  1.
</event>
<event>
 7    1  0.1302069E-013  0.7246191E+02  0.7816164E-02  0.1226707E+00
        -11   -1    0    0    0    0  0.00000000000E+00  0.00000000000E+00  0.45593999997E+02  0.45594000000E+02  0.51100000000E-03 0.  1.
         11   -1    0    0    0    0 -0.00000000000E+00 -0.00000000000E+00 -0.45593999997E+02  0.45594000000E+02  0.51100000000E-03 0. -1.
    9900012    2    1    2    0    0 -0.67761065212E+01  0.61616415051E+01  0.16333555543E+02  0.72461909049E+02  0.70000441290E+02 0.  0.
         12    1    1    2    0    0  0.67761065212E+01 -0.61616415051E+01 -0.16333555543E+02  0.18726090951E+02  0.00000000000E+00 0. -1.
         11    1    3    3    0    0 -0.76365202970E+01 -0.91174040292E+01 -0.21101453943E+02  0.24222197614E+02  0.51100000000E-03 0. -1.
        -11    1    3    3    0    0 -0.67038699505E+01  0.19990629940E+02  0.22402945194E+02  0.30764575592E+02  0.51100000000E-03 0.  1.
         12    1    3    3    0    0  0.75642837264E+01 -0.47115844056E+01  0.15032064292E+02  0.17475135844E+02  0.00000000000E+00 0. -1.
</event>
<event>
 7    1  0.1302069E-013  0.7246158E+02  0.7816164E-02  0.1226708E+00
        -11   -1    0    0    0    0  0.00000000000E+00  0.00000000000E+00  0.45593999997E+02  0.45594000000E+02  0.51100000000E-03 0.  1.
         11   -1    0    0    0    0 -0.00000000000E+00 -0.00000000000E+00 -0.45593999997E+02  0.45594000000E+02  0.51100000000E-03 0. -1.
    9900012    2    1    2    0    0  0.15133076020E+02 -0.47455705935E+01  0.99573276750E+01  0.72461580040E+02  0.70000012696E+02 0.  0.
         12    1    1    2    0    0 -0.15133076020E+02  0.47455705935E+01 -0.99573276750E+01  0.18726419960E+02  0.00000000000E+00 0. -1.
         11    1    3    3    0    0 -0.12592923286E+02  0.25892993888E+01 -0.59095546536E+00  0.12869942379E+02  0.51100000000E-03 0. -1.
        -11    1    3    3    0    0  0.33977493550E+02 -0.18564427889E+01 -0.11587193937E+02  0.35946898495E+02  0.51100000000E-03 0.  1.
        -12    1    3    3    0    0 -0.62514942440E+01 -0.54784271933E+01  0.22135477078E+02  0.23644739166E+02  0.00000000000E+00 0.  1.
</event>
<event>
 7    1  0.1302069E-013  0.7246161E+02  0.7816164E-02  0.1226708E+00
        -11   -1    0    0    0    0  0.00000000000E+00  0.00000000000E+00  0.45593999997E+02  0.45594000000E+02  0.51100000000E-03 0.  1.
         11   -1    0    0    0    0 -0.00000000000E+00 -0.00000000000E+00 -0.45593999997E+02  0.45594000000E+02  0.51100000000E-03 0. -1.
    9900012    2    1    2    0    0 -0.12464021405E+02  0.40160987967E+00  0.13970128254E+02  0.72461612107E+02  0.70000054469E+02 0.  0.
         12    1    1    2    0    0  0.12464021405E+02 -0.40160987967E+00 -0.13970128254E+02  0.18726387893E+02  0.00000000000E+00 0. -1.
         11    1    3    3    0    0 -0.20436580631E+01  0.17925494768E+02 -0.15263693920E+02  0.23632186807E+02  0.51100000000E-03 0. -1.
        -11    1    3    3    0    0 -0.18656678925E+02 -0.22081922547E+02  0.17523641937E+02  0.33804748170E+02  0.51100000000E-03 0.  1.
         12    1    3    3    0    0  0.82363155828E+01  0.45580376585E+01  0.11710180236E+02  0.15024677130E+02  0.00000000000E+00 0. -1.
</event>
<event>
 7    1  0.1302069E-013  0.7246156E+02  0.7816164E-02  0.1226708E+00
        -11   -1    0    0    0    0  0.00000000000E+00  0.00000000000E+00  0.45593999997E+02  0.45594000000E+02  0.51100000000E-03 0.  1.
         11   -1    0    0    0    0 -0.00000000000E+00 -0.00000000000E+00 -0.45593999997E+02  0.45594000000E+02  0.51100000000E-03 0. -1.
    9900012    2    1    2    0    0 -0.14591650133E+02  0.15119969618E+01  0.11639465056E+02  0.72461560531E+02  0.69999987281E+02 0.  0.
         12    1    1    2    0    0  0.14591650133E+02 -0.15119969618E+01 -0.11639465056E+02  0.18726439469E+02  0.00000000000E+00 0. -1.
         11    1    3    3    0    0  0.10166338740E+02 -0.27879426440E+01 -0.14448095767E+02  0.17885036738E+02  0.51100000000E-03 0. -1.
        -11    1    3    3    0    0 -0.33961763585E+02  0.17972053928E+01  0.92823623993E+01  0.35253277649E+02  0.51100000000E-03 0.  1.
        -12    1    3    3    0    0  0.92037747126E+01  0.25027342130E+01  0.16805198423E+02  0.19323246144E+02  0.00000000000E+00 0.  1.
</event>
<event>
 7    1  0.1775558E-013  0.7246158E+02  0.7816164E-02  0.1226708E+00
        -11   -1    0    0    0    0  0.00000000000E+00  0.00000000000E+00  0.45593999997E+02  0.45594000000E+02  0.51100000000E-03 0. -1.
         11   -1    0    0    0    0 -0.00000000000E+00 -0.00000000000E+00 -0.45593999997E+02  0.45594000000E+02  0.51100000000E-03 0.  1.
    9900012    2    1    2    0    0  0.12979455872E+02 -0.11121102451E+02 -0.76507365263E+01  0.72461575786E+02  0.70000007154E+02 0.  0.
         12    1    1    2    0    0 -0.12979455872E+02  0.11121102451E+02  0.76507365263E+01  0.18726424214E+02  0.00000000000E+00 0. -1.
         11    1    3    3    0    0  0.12586069248E+02  0.13463562845E+02  0.15607818890E+02  0.24151204408E+02  0.51100000000E-03 0. -1.
        -11    1    3    3    0    0 -0.13922358944E+02 -0.16224802426E+02 -0.21748751728E+01  0.21489680653E+02  0.51100000000E-03 0.  1.
        -12    1    3    3    0    0  0.14315745568E+02 -0.83598628700E+01 -0.21083680243E+02  0.26820690725E+02  0.00000000000E+00 0.  1.
</event>
<event>
 7    1  0.1302069E-013  0.7246164E+02  0.7816164E-02  0.1226708E+00
        -11   -1    0    0    0    0  0.00000000000E+00  0.00000000000E+00  0.45593999997E+02  0.45594000000E+02  0.51100000000E-03 0. -1.
         11   -1    0    0    0    0 -0.00000000000E+00 -0.00000000000E+00 -0.45593999997E+02  0.45594000000E+02  0.51100000000E-03 0.  1.
    9900012    2    1    2    0    0 -0.11295686938E+02 -0.14917866876E+02  0.73561078069E+00  0.72461643741E+02  0.70000095678E+02 0.  0.
         12    1    1    2    0    0  0.11295686938E+02  0.14917866876E+02 -0.73561078069E+00  0.18726356259E+02  0.00000000000E+00 0. -1.
         11    1    3    3    0    0 -0.25914566114E+02  0.16570751496E+01  0.20651883860E+02  0.33178471064E+02  0.51100000000E-03 0. -1.
        -11    1    3    3    0    0  0.79989026739E+01 -0.16629654508E+02 -0.16732682081E+00  0.18454155401E+02  0.51100000000E-03 0.  1.
         12    1    3    3    0    0  0.66199765018E+01  0.54712482357E-01 -0.19748946259E+02  0.20829017276E+02  0.00000000000E+00 0. -1.
</event>
<event>
 7    1  0.1302069E-013  0.7246171E+02  0.7816164E-02  0.1226708E+00
        -11   -1    0    0    0    0  0.00000000000E+00  0.00000000000E+00  0.45593999997E+02  0.45594000000E+02  0.51100000000E-03 0.  1.
         11   -1    0    0    0    0 -0.00000000000E+00 -0.00000000000E+00 -0.45593999997E+02  0.45594000000E+02  0.51100000000E-03 0. -1.
    9900012    2    1    2    0    0  0.33919956291E+01  0.10615059381E+02  0.15049551011E+02  0.72461705501E+02  0.70000176132E+02 0.  0.
         12    1    1    2    0    0 -0.33919956291E+01 -0.10615059381E+02 -0.15049551011E+02  0.18726294499E+02  0.00000000000E+00 0. -1.
         11    1    3    3    0    0 -0.28132357422E+02  0.69237548025E+01 -0.40702570821E+01  0.29256365251E+02  0.51100000000E-03 0. -1.
        -11    1    3    3    0    0  0.24101656132E+02 -0.67514297560E+01  0.16904572323E+02  0.30203248132E+02  0.51100000000E-03 0.  1.
         12    1    3    3    0    0  0.74226969193E+01  0.10442734335E+02  0.22152357704E+01  0.13002092118E+02  0.00000000000E+00 0. -1.
</event>
<event>
 7    1  0.1302069E-013  0.7246157E+02  0.7816164E-02  0.1226708E+00
        -11   -1    0    0    0    0  0.00000000000E+00  0.00000000000E+00  0.45593999997E+02  0.45594000000E+02  0.51100000000E-03 0. -1.
         11   -1    0    0    0    0 -0.00000000000E+00 -0.00000000000E+00 -0.45593999997E+02  0.45594000000E+02  0.51100000000E-03 0.  1.
    9900012    2    1    2    0    0  0.27929036890E+01 -0.88920241027E+01 -0.16242253547E+02  0.72461569375E+02  0.69999998803E+02 0.  0.
         12    1    1    2    0    0 -0.27929036890E+01  0.88920241027E+01  0.16242253547E+02  0.18726430625E+02  0.00000000000E+00 0. -1.
         11    1    3    3    0    0  0.68889125572E+01  0.18069001067E+02 -0.13722339952E+02  0.23711780401E+02  0.51100000000E-03 0. -1.
        -11    1    3    3    0    0 -0.11536613430E+02 -0.34558419707E+02  0.33783685478E+01  0.36589495711E+02  0.51100000000E-03 0.  1.
        -12    1    3    3    0    0  0.74406045620E+01  0.75973945373E+01 -0.58982821431E+01  0.12160293263E+02  0.00000000000E+00 0.  1.
</event>
<event>
 7    1  0.1302069E-013  0.7246157E+02  0.7816164E-02  0.1226708E+00
        -11   -1    0    0    0    0  0.00000000000E+00  0.00000000000E+00  0.45593999997E+02  0.45594000000E+02  0.51100000000E-03 0.  1.
         11   -1    0    0    0    0 -0.00000000000E+00 -0.00000000000E+00 -0.45593999997E+02  0.45594000000E+02  0.51100000000E-03 0. -1.
    9900012    2    1    2    0    0 -0.49704326188E+01 -0.79599209345E+01  0.16205358577E+02  0.72461569793E+02  0.69999999347E+02 0.  0.
         12    1    1    2    0    0  0.49704326188E+01  0.79599209345E+01 -0.16205358577E+02  0.18726430207E+02  0.00000000000E+00 0. -1.
         11    1    3    3    0    0 -0.15455986790E+02 -0.58733585356E+01 -0.96491362489E+01  0.19143920673E+02  0.51100000000E-03 0. -1.
        -11    1    3    3    0    0  0.13862915571E+02  0.18913738757E+02  0.59647889631E+01  0.24196872722E+02  0.51100000000E-03 0.  1.
        -12    1    3    3    0    0 -0.33773614002E+01 -0.21000301156E+02  0.19889705863E+02  0.29120776397E+02  0.00000000000E+00 0.  1.
</event>
<event>
 7    1  0.1302069E-013  0.7246159E+02  0.7816164E-02  0.1226708E+00
        -11   -1    0    0    0    0  0.00000000000E+00  0.00000000000E+00  0.45593999997E+02  0.45594000000E+02  0.51100000000E-03 0. -1.
         11   -1    0    0    0    0 -0.00000000000E+00 -0.00000000000E+00 -0.45593999997E+02  0.45594000000E+02  0.51100000000E-03 0.  1.
    9900012    2    1    2    0    0  0.77482708260E+00 -0.18667209361E+02  0.12701293727E+01  0.72461593752E+02  0.70000030558E+02 0.  0.
         12    1    1    2    0    0 -0.77482708260E+00  0.18667209361E+02 -0.12701293727E+01  0.18726406248E+02  0.00000000000E+00 0. -1.
         11    1    3    3    0    0  0.14950723034E+02  0.57810363651E+01  0.28773669918E+02  0.32937343267E+02  0.51100000000E-03 0. -1.
        -11    1    3    3    0    0 -0.10086687726E+02 -0.16926931181E+02 -0.17459441068E+02  0.26326685153E+02  0.51100000000E-03 0.  1.
         12    1    3    3    0    0 -0.40892082252E+01 -0.75213145454E+01 -0.10044099477E+02  0.13197565332E+02  0.00000000000E+00 0. -1.
</event>
<event>
 7    1  0.1302069E-013  0.7246158E+02  0.7816164E-02  0.1226708E+00
        -11   -1    0    0    0    0  0.00000000000E+00  0.00000000000E+00  0.45593999997E+02  0.45594000000E+02  0.51100000000E-03 0. -1.
         11   -1    0    0    0    0 -0.00000000000E+00 -0.00000000000E+00 -0.45593999997E+02  0.45594000000E+02  0.51100000000E-03 0.  1.
    9900012    2    1    2    0    0  0.54043344324E+01 -0.16924949115E+02  0.59176017609E+01  0.72461581661E+02  0.70000014807E+02 0.  0.
         12    1    1    2    0    0 -0.54043344324E+01  0.16924949115E+02 -0.59176017609E+01  0.18726418339E+02  0.00000000000E+00 0. -1.
         11    1    3    3    0    0  0.13119396484E+02 -0.29674544469E+02  0.20051480236E+02  0.38141303248E+02  0.51100000000E-03 0. -1.
        -11    1    3    3    0    0  0.44921098457E+01  0.93023398842E+00 -0.16535327689E+02  0.17159879026E+02  0.51100000000E-03 0.  1.
         12    1    3    3    0    0 -0.12207171897E+02  0.11819361365E+02  0.24014492141E+01  0.17160399388E+02  0.00000000000E+00 0. -1.
</event>
<event>
 7    1  0.1302069E-013  0.7246156E+02  0.7816164E-02  0.1226708E+00
        -11   -1    0    0    0    0  0.00000000000E+00  0.00000000000E+00  0.45593999997E+02  0.45594000000E+02  0.51100000000E-03 0.  1.
         11   -1    0    0    0    0 -0.00000000000E+00 -0.00000000000E+00 -0.45593999997E+02  0.45594000000E+02  0.51100000000E-03 0. -1.
    9900012    2    1    2    0    0  0.10943982645E+01  0.11391634701E+02  0.14822706171E+02  0.72461557013E+02  0.69999982698E+02 0.  0.
         12    1    1    2    0    0 -0.10943982645E+01 -0.11391634701E+02 -0.14822706171E+02  0.18726442987E+02  0.00000000000E+00 0. -1.
         11    1    3    3    0    0  0.22467191012E+02  0.98389239868E+01 -0.10749902434E+02  0.26779460409E+02  0.51100000000E-03 0. -1.
        -11    1    3    3    0    0 -0.20863401112E+02  0.32580401122E+01  0.32373865865E+02  0.38651824311E+02  0.51100000000E-03 0.  1.
        -12    1    3    3    0    0 -0.50939163620E+00 -0.17053293977E+01 -0.68012572592E+01  0.70302722920E+01  0.00000000000E+00 0.  1.
</event>
<event>
 7    1  0.1302069E-013  0.7246157E+02  0.7816164E-02  0.1226708E+00
        -11   -1    0    0    0    0  0.00000000000E+00  0.00000000000E+00  0.45593999997E+02  0.45594000000E+02  0.51100000000E-03 0.  1.
         11   -1    0    0    0    0 -0.00000000000E+00 -0.00000000000E+00 -0.45593999997E+02  0.45594000000E+02  0.51100000000E-03 0. -1.
    9900012    2    1    2    0    0 -0.10529088780E+02  0.15370433179E+02 -0.18887251802E+01  0.72461569228E+02  0.69999998610E+02 0.  0.
         12    1    1    2    0    0  0.10529088780E+02 -0.15370433179E+02  0.18887251802E+01  0.18726430772E+02  0.00000000000E+00 0. -1.
         11    1    3    3    0    0 -0.11593144447E+02  0.32517748021E+02 -0.22001080931E+01  0.34592562935E+02  0.51100000000E-03 0. -1.
        -11    1    3    3    0    0 -0.59173133652E+00 -0.39847590910E+01  0.16473823010E+02  0.16959224506E+02  0.51100000000E-03 0.  1.
         12    1    3    3    0    0  0.16557870032E+01 -0.13162555751E+02 -0.16162440098E+02  0.20909781787E+02  0.00000000000E+00 0. -1.
</event>
<event>
 7    1  0.1302069E-013  0.7246155E+02  0.7816164E-02  0.1226708E+00
        -11   -1    0    0    0    0  0.00000000000E+00  0.00000000000E+00  0.45593999997E+02  0.45594000000E+02  0.51100000000E-03 0. -1.
         11   -1    0    0    0    0 -0.00000000000E+00 -0.00000000000E+00 -0.45593999997E+02  0.45594000000E+02  0.51100000000E-03 0.  1.
    9900012    2    1    2    0    0  0.81581324037E+01  0.14288534511E+02 -0.89421850355E+01  0.72461547694E+02  0.69999970558E+02 0.  0.
         12    1    1    2    0    0 -0.81581324037E+01 -0.14288534511E+02  0.89421850355E+01  0.18726452306E+02  0.00000000000E+00 0. -1.
         11    1    3    3    0    0  0.78058830106E+01 -0.17212351522E+02  0.13581833776E+02  0.23273655997E+02  0.51100000000E-03 0. -1.
        -11    1    3    3    0    0  0.68763663363E+01  0.33043525657E+02 -0.25041680057E+02  0.42026714625E+02  0.51100000000E-03 0.  1.
         12    1    3    3    0    0 -0.65241169432E+01 -0.15426396245E+01  0.25176612458E+01  0.71611770714E+01  0.00000000000E+00 0. -1.
</event>
<event>
 7    1  0.1302069E-013  0.7246159E+02  0.7816164E-02  0.1226708E+00
        -11   -1    0    0    0    0  0.00000000000E+00  0.00000000000E+00  0.45593999997E+02  0.45594000000E+02  0.51100000000E-03 0.  1.
         11   -1    0    0    0    0 -0.00000000000E+00 -0.00000000000E+00 -0.45593999997E+02  0.45594000000E+02  0.51100000000E-03 0. -1.
    9900012    2    1    2    0    0  0.24763921347E+01 -0.67657523548E+01  0.17284982714E+02  0.72461586827E+02  0.70000021536E+02 0.  0.
         12    1    1    2    0    0 -0.24763921347E+01  0.67657523548E+01 -0.17284982714E+02  0.18726413173E+02  0.00000000000E+00 0. -1.
         11    1    3    3    0    0 -0.11353847022E+02  0.19125448823E+02  0.12015833870E+02  0.25279891193E+02  0.51100000000E-03 0. -1.
        -11    1    3    3    0    0  0.18617228513E+02 -0.13915991855E+02  0.17741498088E+02  0.29240669990E+02  0.51100000000E-03 0.  1.
        -12    1    3    3    0    0 -0.47869893560E+01 -0.11975209323E+02 -0.12472349245E+02  0.17941025643E+02  0.00000000000E+00 0.  1.
</event>
<event>
 7    1  0.1302069E-013  0.7246156E+02  0.7816164E-02  0.1226708E+00
        -11   -1    0    0    0    0  0.00000000000E+00  0.00000000000E+00  0.45593999997E+02  0.45594000000E+02  0.51100000000E-03 0. -1.
         11   -1    0    0    0    0 -0.00000000000E+00 -0.00000000000E+00 -0.45593999997E+02  0.45594000000E+02  0.51100000000E-03 0.  1.
    9900012    2    1    2    0    0  0.10477546155E+01  0.58703429532E+01 -0.17751646790E+02  0.72461556667E+02  0.69999982248E+02 0.  0.
         12    1    1    2    0    0 -0.10477546155E+01 -0.58703429532E+01  0.17751646790E+02  0.18726443333E+02  0.00000000000E+00 0. -1.
         11    1    3    3    0    0 -0.67060081869E+01  0.24375565871E+02 -0.11397557757E+02  0.27731625996E+02  0.51100000000E-03 0.  1.
        -11    1    3    3    0    0  0.18177740558E+02 -0.82767717611E+01 -0.17343904012E+02  0.26452716481E+02  0.51100000000E-03 0. -1.
         12    1    3    3    0    0 -0.10423977755E+02 -0.10228451156E+02  0.10989814978E+02  0.18277214190E+02  0.00000000000E+00 0. -1.
</event>
<event>
 7    1  0.1302069E-013  0.7246156E+02  0.7816164E-02  0.1226708E+00
        -11   -1    0    0    0    0  0.00000000000E+00  0.00000000000E+00  0.45593999997E+02  0.45594000000E+02  0.51100000000E-03 0.  1.
         11   -1    0    0    0    0 -0.00000000000E+00 -0.00000000000E+00 -0.45593999997E+02  0.45594000000E+02  0.51100000000E-03 0. -1.
    9900012    2    1    2    0    0 -0.17475710881E+01 -0.34236083587E+01  0.18327695649E+02  0.72461560758E+02  0.69999987577E+02 0.  0.
         12    1    1    2    0    0  0.17475710881E+01  0.34236083587E+01 -0.18327695649E+02  0.18726439242E+02  0.00000000000E+00 0. -1.
         11    1    3    3    0    0 -0.15666627077E+02 -0.96227982858E+01  0.18003805554E+01  0.18473841540E+02  0.51100000000E-03 0. -1.
        -11    1    3    3    0    0  0.32340300525E+02  0.16097270410E+01  0.95104607708E+01  0.33748112888E+02  0.51100000000E-03 0.  1.
        -12    1    3    3    0    0 -0.18421244535E+02  0.45894628861E+01  0.70168543225E+01  0.20239606330E+02  0.00000000000E+00 0.  1.
</event>
<event>
 7    1  0.1302069E-013  0.7246231E+02  0.7816164E-02  0.1226706E+00
        -11   -1    0    0    0    0  0.00000000000E+00  0.00000000000E+00  0.45593999997E+02  0.45594000000E+02  0.51100000000E-03 0.  1.
         11   -1    0    0    0    0 -0.00000000000E+00 -0.00000000000E+00 -0.45593999997E+02  0.45594000000E+02  0.51100000000E-03 0. -1.
    9900012    2    1    2    0    0  0.15770986845E+02  0.87227327806E+01  0.50834457881E+01  0.72462308709E+02  0.70000961916E+02 0.  0.
         12    1    1    2    0    0 -0.15770986845E+02 -0.87227327806E+01 -0.50834457881E+01  0.18725691291E+02  0.00000000000E+00 0. -1.
         11    1    3    3    0    0 -0.44658532148E+00 -0.67932317310E+01  0.23564974017E+01  0.72042012788E+01  0.51100000000E-03 0. -1.
        -11    1    3    3    0    0  0.32099628184E+02  0.26542321187E+02  0.12643908029E+02  0.43528718727E+02  0.51100000000E-03 0.  1.
        -12    1    3    3    0    0 -0.15882056017E+02 -0.11026356675E+02 -0.99169596426E+01  0.21729388703E+02  0.00000000000E+00 0.  1.
</event>
<event>
 7    1  0.1302069E-013  0.7246153E+02  0.7816164E-02  0.1226708E+00
        -11   -1    0    0    0    0  0.00000000000E+00  0.00000000000E+00  0.45593999997E+02  0.45594000000E+02  0.51100000000E-03 0. -1.
         11   -1    0    0    0    0 -0.00000000000E+00 -0.00000000000E+00 -0.45593999997E+02  0.45594000000E+02  0.51100000000E-03 0.  1.
    9900012    2    1    2    0    0 -0.32756350887E+01  0.44813162458E+01 -0.17884875611E+02  0.72461527931E+02  0.69999944814E+02 0.  0.
         12    1    1    2    0    0  0.32756350887E+01 -0.44813162458E+01  0.17884875611E+02  0.18726472069E+02  0.00000000000E+00 0. -1.
         11    1    3    3    0    0 -0.59886231665E+01  0.19001563273E+02  0.12329840828E+02  0.23429639121E+02  0.51100000000E-03 0. -1.
        -11    1    3    3    0    0  0.16185616471E+01 -0.17999026403E+02 -0.37084894715E+02  0.41253776912E+02  0.51100000000E-03 0.  1.
         12    1    3    3    0    0  0.10944264308E+01  0.34787793757E+01  0.68701782756E+01  0.77781118978E+01  0.00000000000E+00 0. -1.
</event>
<event>
 7    1  0.1302069E-013  0.7246157E+02  0.7816164E-02  0.1226708E+00
        -11   -1    0    0    0    0  0.00000000000E+00  0.00000000000E+00  0.45593999997E+02  0.45594000000E+02  0.51100000000E-03 0.  1.
         11   -1    0    0    0    0 -0.00000000000E+00 -0.00000000000E+00 -0.45593999997E+02  0.45594000000E+02  0.51100000000E-03 0. -1.
    9900012    2    1    2    0    0 -0.15561464362E+02  0.90218565436E+01  0.52082822219E+01  0.72461567551E+02  0.69999996426E+02 0.  0.
         12    1    1    2    0    0  0.15561464362E+02 -0.90218565436E+01 -0.52082822219E+01  0.18726432449E+02  0.00000000000E+00 0. -1.
         11    1    3    3    0    0 -0.13048784425E+02 -0.44055391385E+01 -0.14480954426E+02  0.19984433728E+02  0.51100000000E-03 0. -1.
        -11    1    3    3    0    0 -0.10732776672E+00  0.30813143107E+02  0.15211950999E+02  0.34363712850E+02  0.51100000000E-03 0.  1.
         12    1    3    3    0    0 -0.24053521697E+01 -0.17385747425E+02  0.44772856481E+01  0.18113420973E+02  0.00000000000E+00 0. -1.
</event>
<event>
 7    1  0.1302069E-013  0.7246145E+02  0.7816164E-02  0.1226708E+00
        -11   -1    0    0    0    0  0.00000000000E+00  0.00000000000E+00  0.45593999997E+02  0.45594000000E+02  0.51100000000E-03 0. -1.
         11   -1    0    0    0    0 -0.00000000000E+00 -0.00000000000E+00 -0.45593999997E+02  0.45594000000E+02  0.51100000000E-03 0.  1.
    9900012    2    1    2    0    0  0.16653404458E+02  0.85041515813E+01 -0.10134194150E+01  0.72461454855E+02  0.69999849619E+02 0.  0.
         12    1    1    2    0    0 -0.16653404458E+02 -0.85041515813E+01  0.10134194150E+01  0.18726545145E+02  0.00000000000E+00 0. -1.
         11    1    3    3    0    0  0.22853224117E+02 -0.19231429498E+02 -0.28111700225E+01  0.30000340169E+02  0.51100000000E-03 0. -1.
        -11    1    3    3    0    0  0.11834949000E+02  0.11714437144E+02  0.65145292108E+01  0.17881083483E+02  0.51100000000E-03 0.  1.
         12    1    3    3    0    0 -0.18034768659E+02  0.16021143936E+02 -0.47167786032E+01  0.24580031204E+02  0.00000000000E+00 0. -1.
</event>
<event>
 7    1  0.1302069E-013  0.7246143E+02  0.7816164E-02  0.1226708E+00
        -11   -1    0    0    0    0  0.00000000000E+00  0.00000000000E+00  0.45593999997E+02  0.45594000000E+02  0.51100000000E-03 0.  1.
         11   -1    0    0    0    0 -0.00000000000E+00 -0.00000000000E+00 -0.45593999997E+02  0.45594000000E+02  0.51100000000E-03 0. -1.
    9900012    2    1    2    0    0 -0.90739098659E+01 -0.13464435621E+02  0.93304612577E+01  0.72461431330E+02  0.69999818973E+02 0.  0.
         12    1    1    2    0    0  0.90739098659E+01  0.13464435621E+02 -0.93304612577E+01  0.18726568670E+02  0.00000000000E+00 0. -1.
         11    1    3    3    0    0  0.95963100311E+01 -0.13521305205E+01 -0.21052006330E+02  0.23175512808E+02  0.51100000000E-03 0. -1.
        -11    1    3    3    0    0 -0.12370705402E+02  0.53218761260E+01  0.27372294121E+02  0.30505724108E+02  0.51100000000E-03 0.  1.
         12    1    3    3    0    0 -0.62995144953E+01 -0.17434181227E+02  0.30101734662E+01  0.18780194414E+02  0.00000000000E+00 0. -1.
</event>
<event>
 7    1  0.1302069E-013  0.7246134E+02  0.7816164E-02  0.1226709E+00
        -11   -1    0    0    0    0  0.00000000000E+00  0.00000000000E+00  0.45593999997E+02  0.45594000000E+02  0.51100000000E-03 0. -1.
         11   -1    0    0    0    0 -0.00000000000E+00 -0.00000000000E+00 -0.45593999997E+02  0.45594000000E+02  0.51100000000E-03 0.  1.
    9900012    2    1    2    0    0  0.13032447094E+02 -0.10208421391E+02 -0.87539374290E+01  0.72461335452E+02  0.69999694074E+02 0.  0.
         12    1    1    2    0    0 -0.13032447094E+02  0.10208421391E+02  0.87539374290E+01  0.18726664548E+02  0.00000000000E+00 0. -1.
         11    1    3    3    0    0  0.19292794502E+02 -0.55190953946E+01 -0.74804177998E+01  0.21415624772E+02  0.51100000000E-03 0.  1.
        -11    1    3    3    0    0 -0.12552544502E+02 -0.25929505008E+02 -0.20366646213E+01  0.28879986262E+02  0.51100000000E-03 0. -1.
        -12    1    3    3    0    0  0.62921970944E+01  0.21240179011E+02  0.76314499213E+00  0.22165724418E+02  0.00000000000E+00 0.  1.
</event>
<event>
 8    1  0.1302069E-013  0.7246142E+02  0.7816164E-02  0.1226708E+00
        -11   -1    0    0    0    0  0.00000000000E+00  0.00000000000E+00  0.45593999997E+02  0.45594000000E+02  0.51100000000E-03 0.  1.
         11   -1    0    0    0    0 -0.00000000000E+00 -0.00000000000E+00 -0.45593999997E+02  0.45594000000E+02  0.51100000000E-03 0. -1.
    9900012    2    1    2    0    0 -0.54697692925E+01 -0.84200499189E+01  0.15807248074E+02  0.72461422405E+02  0.69999807346E+02 0.  0.
        -24    2    3    3    0    0 -0.20009476072E+02 -0.10141292507E+02  0.64671926015E+01  0.55094719039E+02  0.49903692644E+02 0.  0.
         12    1    1    2    0    0  0.54697692925E+01  0.84200499189E+01 -0.15807248074E+02  0.18726577595E+02  0.00000000000E+00 0. -1.
         11    1    4    4    0    0 -0.11048442086E+02  0.18414444911E+02  0.12087532808E+02  0.24642814441E+02  0.51100000000E-03 0. -1.
        -11    1    3    3    0    0  0.14539706780E+02  0.17212425885E+01  0.93400554729E+01  0.17366703365E+02  0.51100000000E-03 0.  1.
        -12    1    4    4    0    0 -0.89610339859E+01 -0.28555737419E+02 -0.56203402061E+01  0.30451904598E+02  0.00000000000E+00 0.  1.
</event>
<event>
 7    1  0.1302069E-013  0.7246158E+02  0.7816164E-02  0.1226708E+00
        -11   -1    0    0    0    0  0.00000000000E+00  0.00000000000E+00  0.45593999997E+02  0.45594000000E+02  0.51100000000E-03 0.  1.
         11   -1    0    0    0    0 -0.00000000000E+00 -0.00000000000E+00 -0.45593999997E+02  0.45594000000E+02  0.51100000000E-03 0. -1.
    9900012    2    1    2    0    0  0.14055772636E+02  0.65053861587E+01  0.10525869898E+02  0.72461582015E+02  0.70000015268E+02 0.  0.
         12    1    1    2    0    0 -0.14055772636E+02 -0.65053861587E+01 -0.10525869898E+02  0.18726417985E+02  0.00000000000E+00 0. -1.
         11    1    3    3    0    0 -0.21319312795E+02  0.39048465152E+00  0.13757771394E+02  0.25376009345E+02  0.51100000000E-03 0. -1.
        -11    1    3    3    0    0  0.21436417303E+02 -0.97761949153E+01 -0.89252146691E+01  0.25194313465E+02  0.51100000000E-03 0.  1.
         12    1    3    3    0    0  0.13938668128E+02  0.15891096422E+02  0.56933131729E+01  0.21891259205E+02  0.00000000000E+00 0. -1.
</event>
<event>
 7    1  0.1302069E-013  0.7246160E+02  0.7816164E-02  0.1226708E+00
        -11   -1    0    0    0    0  0.00000000000E+00  0.00000000000E+00  0.45593999997E+02  0.45594000000E+02  0.51100000000E-03 0.  1.
         11   -1    0    0    0    0 -0.00000000000E+00 -0.00000000000E+00 -0.45593999997E+02  0.45594000000E+02  0.51100000000E-03 0. -1.
    9900012    2    1    2    0    0  0.17505771888E+02 -0.49310253874E+01 -0.44621734232E+01  0.72461600121E+02  0.70000038855E+02 0.  0.
         12    1    1    2    0    0 -0.17505771888E+02  0.49310253874E+01  0.44621734232E+01  0.18726399879E+02  0.00000000000E+00 0. -1.
         11    1    3    3    0    0  0.30645133429E+02  0.70411378758E+00 -0.29406103928E+02  0.42477510845E+02  0.51100000000E-03 0. -1.
        -11    1    3    3    0    0 -0.75664304435E+01 -0.17883598117E+00  0.18058256419E+02  0.19580180723E+02  0.51100000000E-03 0.  1.
         12    1    3    3    0    0 -0.55729310977E+01 -0.54563031938E+01  0.68856740855E+01  0.10403908553E+02  0.00000000000E+00 0. -1.
</event>
<event>
 7    1  0.1302069E-013  0.7246150E+02  0.7816164E-02  0.1226708E+00
        -11   -1    0    0    0    0  0.00000000000E+00  0.00000000000E+00  0.45593999997E+02  0.45594000000E+02  0.51100000000E-03 0. -1.
         11   -1    0    0    0    0 -0.00000000000E+00 -0.00000000000E+00 -0.45593999997E+02  0.45594000000E+02  0.51100000000E-03 0.  1.
    9900012    2    1    2    0    0 -0.11825330682E+02 -0.67684193143E+01 -0.12846466138E+02  0.72461504386E+02  0.69999914142E+02 0.  0.
         12    1    1    2    0    0  0.11825330682E+02  0.67684193143E+01  0.12846466138E+02  0.18726495614E+02  0.00000000000E+00 0. -1.
         11    1    3    3    0    0  0.14908292797E+02 -0.11335440684E+02  0.19187139472E+02  0.26812230996E+02  0.51100000000E-03 0. -1.
        -11    1    3    3    0    0 -0.20585015069E+02 -0.49523177454E+01 -0.21576274848E+02  0.30229190083E+02  0.51100000000E-03 0.  1.
         12    1    3    3    0    0 -0.61486084095E+01  0.95193391149E+01 -0.10457330761E+02  0.15420083307E+02  0.00000000000E+00 0. -1.
</event>
<event>
 7    1  0.1302069E-013  0.7246157E+02  0.7816164E-02  0.1226708E+00
        -11   -1    0    0    0    0  0.00000000000E+00  0.00000000000E+00  0.45593999997E+02  0.45594000000E+02  0.51100000000E-03 0.  1.
         11   -1    0    0    0    0 -0.00000000000E+00 -0.00000000000E+00 -0.45593999997E+02  0.45594000000E+02  0.51100000000E-03 0. -1.
    9900012    2    1    2    0    0 -0.27944055820E+01  0.59826049009E+01  0.17523669788E+02  0.72461567697E+02  0.69999996616E+02 0.  0.
         12    1    1    2    0    0  0.27944055820E+01 -0.59826049009E+01 -0.17523669788E+02  0.18726432303E+02  0.00000000000E+00 0. -1.
         11    1    3    3    0    0  0.16787732144E+02  0.10964497838E+02 -0.10541302222E+02  0.22653194393E+02  0.51100000000E-03 0. -1.
        -11    1    3    3    0    0 -0.11939079712E+02 -0.20564479388E+02  0.16860189332E+02  0.29149707055E+02  0.51100000000E-03 0.  1.
        -12    1    3    3    0    0 -0.76430580143E+01  0.15582586451E+02  0.11204782679E+02  0.20658666249E+02  0.00000000000E+00 0.  1.
</event>
<event>
 7    1  0.1302069E-013  0.7246172E+02  0.7816164E-02  0.1226708E+00
        -11   -1    0    0    0    0  0.00000000000E+00  0.00000000000E+00  0.45593999997E+02  0.45594000000E+02  0.51100000000E-03 0. -1.
         11   -1    0    0    0    0 -0.00000000000E+00 -0.00000000000E+00 -0.45593999997E+02  0.45594000000E+02  0.51100000000E-03 0.  1.
    9900012    2    1    2    0    0  0.60194853196E+01 -0.11926082895E+02 -0.13122796515E+02  0.72461723138E+02  0.70000199107E+02 0.  0.
         12    1    1    2    0    0 -0.60194853196E+01  0.11926082895E+02  0.13122796515E+02  0.18726276862E+02  0.00000000000E+00 0. -1.
         11    1    3    3    0    0  0.76426214686E+01 -0.22103239955E+02  0.11837582604E+01  0.23417176673E+02  0.51100000000E-03 0. -1.
        -11    1    3    3    0    0 -0.23647967320E+02  0.53090458717E+01 -0.91496824317E+01  0.25906157865E+02  0.51100000000E-03 0.  1.
        -12    1    3    3    0    0  0.22024831171E+02  0.48681111891E+01 -0.51568723438E+01  0.23138388601E+02  0.00000000000E+00 0.  1.
</event>
<event>
 7    1  0.1302069E-013  0.7246156E+02  0.7816164E-02  0.1226708E+00
        -11   -1    0    0    0    0  0.00000000000E+00  0.00000000000E+00  0.45593999997E+02  0.45594000000E+02  0.51100000000E-03 0. -1.
         11   -1    0    0    0    0 -0.00000000000E+00 -0.00000000000E+00 -0.45593999997E+02  0.45594000000E+02  0.51100000000E-03 0.  1.
    9900012    2    1    2    0    0  0.21056373263E+01 -0.68205326095E+01 -0.17312604988E+02  0.72461557062E+02  0.69999982763E+02 0.  0.
         12    1    1    2    0    0 -0.21056373263E+01  0.68205326095E+01  0.17312604988E+02  0.18726442938E+02  0.00000000000E+00 0. -1.
         11    1    3    3    0    0 -0.10519472062E+02 -0.75941731696E+01  0.14180719226E+01  0.13051501325E+02  0.51100000000E-03 0. -1.
        -11    1    3    3    0    0  0.27021900556E+02  0.16751054472E+02 -0.14586670206E+01  0.31826225748E+02  0.51100000000E-03 0.  1.
        -12    1    3    3    0    0 -0.14396791168E+02 -0.15977413912E+02 -0.17272009890E+02  0.27583829990E+02  0.00000000000E+00 0.  1.
</event>
<event>
 7    1  0.1302069E-013  0.7246155E+02  0.7816164E-02  0.1226708E+00
        -11   -1    0    0    0    0  0.00000000000E+00  0.00000000000E+00  0.45593999997E+02  0.45594000000E+02  0.51100000000E-03 0.  1.
         11   -1    0    0    0    0 -0.00000000000E+00 -0.00000000000E+00 -0.45593999997E+02  0.45594000000E+02  0.51100000000E-03 0. -1.
    9900012    2    1    2    0    0 -0.13956255437E+02 -0.10398806609E+02  0.69114127348E+01  0.72461551573E+02  0.69999975612E+02 0.  0.
         12    1    1    2    0    0  0.13956255437E+02  0.10398806609E+02 -0.69114127348E+01  0.18726448427E+02  0.00000000000E+00 0. -1.
         11    1    3    3    0    0  0.16861040583E+02  0.11807119195E+02 -0.28537624275E+01  0.20780921863E+02  0.51100000000E-03 0. -1.
        -11    1    3    3    0    0 -0.22251272124E+02 -0.26502846864E+01  0.18056034918E+02  0.28777830309E+02  0.51100000000E-03 0.  1.
        -12    1    3    3    0    0 -0.85660238960E+01 -0.19555641118E+02 -0.82908597556E+01  0.22902799401E+02  0.00000000000E+00 0.  1.
</event>
<event>
 7    1  0.1302069E-013  0.7246157E+02  0.7816164E-02  0.1226708E+00
        -11   -1    0    0    0    0  0.00000000000E+00  0.00000000000E+00  0.45593999997E+02  0.45594000000E+02  0.51100000000E-03 0. -1.
         11   -1    0    0    0    0 -0.00000000000E+00 -0.00000000000E+00 -0.45593999997E+02  0.45594000000E+02  0.51100000000E-03 0.  1.
    9900012    2    1    2    0    0 -0.14190058861E+02  0.14880809612E+01 -0.12128761448E+02  0.72461574562E+02  0.70000005559E+02 0.  0.
         12    1    1    2    0    0  0.14190058861E+02 -0.14880809612E+01  0.12128761448E+02  0.18726425438E+02  0.00000000000E+00 0. -1.
         11    1    3    3    0    0  0.74837978469E+01  0.20342930120E+02  0.21094891413E+01  0.21778245585E+02  0.51100000000E-03 0. -1.
        -11    1    3    3    0    0 -0.15280748948E+02 -0.30947992132E+02 -0.70386100518E+01  0.35225296835E+02  0.51100000000E-03 0.  1.
        -12    1    3    3    0    0 -0.63931077606E+01  0.12093142973E+02 -0.71996405376E+01  0.15458032141E+02  0.00000000000E+00 0.  1.
</event>
<event>
 7    1  0.1302069E-013  0.7246164E+02  0.7816164E-02  0.1226708E+00
        -11   -1    0    0    0    0  0.00000000000E+00  0.00000000000E+00  0.45593999997E+02  0.45594000000E+02  0.51100000000E-03 0.  1.
         11   -1    0    0    0    0 -0.00000000000E+00 -0.00000000000E+00 -0.45593999997E+02  0.45594000000E+02  0.51100000000E-03 0. -1.
    9900012    2    1    2    0    0 -0.12829677066E+02  0.12595675874E+02  0.52368861053E+01  0.72461637822E+02  0.70000087967E+02 0.  0.
         12    1    1    2    0    0  0.12829677066E+02 -0.12595675874E+02 -0.52368861053E+01  0.18726362178E+02  0.00000000000E+00 0. -1.
         11    1    3    3    0    0 -0.16253057085E+02 -0.12474026889E+02  0.20724548253E+02  0.29142239310E+02  0.51100000000E-03 0.  1.
        -11    1    3    3    0    0  0.13445829814E+02  0.20152019086E+01 -0.11619473660E+02  0.17884729422E+02  0.51100000000E-03 0. -1.
         12    1    3    3    0    0 -0.10022449795E+02  0.23054500854E+02 -0.38681884876E+01  0.25434669090E+02  0.00000000000E+00 0. -1.
</event>
<event>
 7    1  0.1302069E-013  0.7246157E+02  0.7816164E-02  0.1226708E+00
        -11   -1    0    0    0    0  0.00000000000E+00  0.00000000000E+00  0.45593999997E+02  0.45594000000E+02  0.51100000000E-03 0.  1.
         11   -1    0    0    0    0 -0.00000000000E+00 -0.00000000000E+00 -0.45593999997E+02  0.45594000000E+02  0.51100000000E-03 0. -1.
    9900012    2    1    2    0    0  0.16043764573E+02 -0.80443651260E+01  0.53446379092E+01  0.72461565574E+02  0.69999993850E+02 0.  0.
         12    1    1    2    0    0 -0.16043764573E+02  0.80443651260E+01 -0.53446379092E+01  0.18726434426E+02  0.00000000000E+00 0. -1.
         11    1    3    3    0    0  0.21608990515E+02 -0.18793733999E+02 -0.12531583647E+02  0.31260094332E+02  0.51100000000E-03 0. -1.
        -11    1    3    3    0    0 -0.11699874373E+02 -0.73241291309E+01 -0.16440335718E+01  0.13900819203E+02  0.51100000000E-03 0.  1.
         12    1    3    3    0    0  0.61346484309E+01  0.18073498004E+02  0.19520255128E+02  0.27300652038E+02  0.00000000000E+00 0. -1.
</event>
<event>
 7    1  0.1302069E-013  0.7246151E+02  0.7816164E-02  0.1226708E+00
        -11   -1    0    0    0    0  0.00000000000E+00  0.00000000000E+00  0.45593999997E+02  0.45594000000E+02  0.51100000000E-03 0.  1.
         11   -1    0    0    0    0 -0.00000000000E+00 -0.00000000000E+00 -0.45593999997E+02  0.45594000000E+02  0.51100000000E-03 0. -1.
    9900012    2    1    2    0    0  0.14189498156E+02  0.49188526127E+01  0.11186800948E+02  0.72461508487E+02  0.69999919484E+02 0.  0.
         12    1    1    2    0    0 -0.14189498156E+02 -0.49188526127E+01 -0.11186800948E+02  0.18726491513E+02  0.00000000000E+00 0. -1.
         11    1    3    3    0    0 -0.64969258661E+01  0.62332306778E+01 -0.24171770656E+01  0.93223363821E+01  0.51100000000E-03 0. -1.
        -11    1    3    3    0    0  0.38037769251E+02 -0.12610738270E+02  0.38685081358E+01  0.40260004531E+02  0.51100000000E-03 0.  1.
        -12    1    3    3    0    0 -0.17351345229E+02  0.11296360205E+02  0.97354698775E+01  0.22879167574E+02  0.00000000000E+00 0.  1.
</event>
<event>
 7    1  0.1302069E-013  0.7246158E+02  0.7816164E-02  0.1226708E+00
        -11   -1    0    0    0    0  0.00000000000E+00  0.00000000000E+00  0.45593999997E+02  0.45594000000E+02  0.51100000000E-03 0.  1.
         11   -1    0    0    0    0 -0.00000000000E+00 -0.00000000000E+00 -0.45593999997E+02  0.45594000000E+02  0.51100000000E-03 0. -1.
    9900012    2    1    2    0    0 -0.13526974100E+00  0.98839863597E+01  0.15904951690E+02  0.72461575554E+02  0.70000006852E+02 0.  0.
         12    1    1    2    0    0  0.13526974100E+00 -0.98839863597E+01 -0.15904951690E+02  0.18726424446E+02  0.00000000000E+00 0. -1.
         11    1    3    3    0    0 -0.45978695921E+00 -0.17398621770E+02 -0.13414609723E+02  0.21974421445E+02  0.51100000000E-03 0. -1.
        -11    1    3    3    0    0 -0.35723729331E+01  0.17643285547E+02  0.34467585047E+02  0.38885238748E+02  0.51100000000E-03 0.  1.
        -12    1    3    3    0    0  0.38968901513E+01  0.96393225830E+01 -0.51480236339E+01  0.11601915361E+02  0.00000000000E+00 0.  1.
</event>
<event>
 7    1  0.1302069E-013  0.7246161E+02  0.7816164E-02  0.1226708E+00
        -11   -1    0    0    0    0  0.00000000000E+00  0.00000000000E+00  0.45593999997E+02  0.45594000000E+02  0.51100000000E-03 0. -1.
         11   -1    0    0    0    0 -0.00000000000E+00 -0.00000000000E+00 -0.45593999997E+02  0.45594000000E+02  0.51100000000E-03 0.  1.
    9900012    2    1    2    0    0 -0.12195172936E+02  0.87114797673E+01 -0.11227900239E+02  0.72461605086E+02  0.70000045323E+02 0.  0.
         12    1    1    2    0    0  0.12195172936E+02 -0.87114797673E+01  0.11227900239E+02  0.18726394914E+02  0.00000000000E+00 0. -1.
         11    1    3    3    0    0  0.14354943849E+02 -0.10730331596E+02 -0.14763877216E+02  0.23220174413E+02  0.51100000000E-03 0. -1.
        -11    1    3    3    0    0 -0.32749799311E+02  0.14133590856E+02 -0.65510489472E+01  0.36266016986E+02  0.51100000000E-03 0.  1.
        -12    1    3    3    0    0  0.61996825260E+01  0.53082205067E+01  0.10087025924E+02  0.12975413688E+02  0.00000000000E+00 0.  1.
</event>
<event>
 8    1  0.1302069E-013  0.7246159E+02  0.7816164E-02  0.1226708E+00
        -11   -1    0    0    0    0  0.00000000000E+00  0.00000000000E+00  0.45593999997E+02  0.45594000000E+02  0.51100000000E-03 0. -1.
         11   -1    0    0    0    0 -0.00000000000E+00 -0.00000000000E+00 -0.45593999997E+02  0.45594000000E+02  0.51100000000E-03 0.  1.
    9900012    2    1    2    0    0  0.11059183169E+02  0.15063694762E+02  0.12074029605E+01  0.72461594735E+02  0.70000031839E+02 0.  0.
        -24    2    3    3    0    0  0.23665695647E+01 -0.17985247968E+01  0.11851701016E+02  0.50708501598E+02  0.49214367560E+02 0.  0.
         12    1    1    2    0    0 -0.11059183169E+02 -0.15063694762E+02 -0.12074029605E+01  0.18726405265E+02  0.00000000000E+00 0. -1.
         11    1    4    4    0    0 -0.20326792264E+02 -0.90375871683E+01 -0.32840309562E+01  0.22486469824E+02  0.51100000000E-03 0. -1.
        -11    1    3    3    0    0  0.86926136040E+01  0.16862219558E+02 -0.10644298055E+02  0.21753093138E+02  0.51100000000E-03 0.  1.
        -12    1    4    4    0    0  0.22693361829E+02  0.72390623715E+01  0.15135731972E+02  0.28222031774E+02  0.00000000000E+00 0.  1.
</event>
<event>
 7    1  0.1302069E-013  0.7246146E+02  0.7816164E-02  0.1226708E+00
        -11   -1    0    0    0    0  0.00000000000E+00  0.00000000000E+00  0.45593999997E+02  0.45594000000E+02  0.51100000000E-03 0.  1.
         11   -1    0    0    0    0 -0.00000000000E+00 -0.00000000000E+00 -0.45593999997E+02  0.45594000000E+02  0.51100000000E-03 0. -1.
    9900012    2    1    2    0    0 -0.12548306126E+02 -0.26360227324E+01  0.13648246548E+02  0.72461461710E+02  0.69999858548E+02 0.  0.
         12    1    1    2    0    0  0.12548306126E+02  0.26360227324E+01 -0.13648246548E+02  0.18726538290E+02  0.00000000000E+00 0. -1.
         11    1    3    3    0    0 -0.23883707499E+02 -0.14237284705E+02 -0.59272718233E+01  0.28429989644E+02  0.51100000000E-03 0. -1.
        -11    1    3    3    0    0  0.38254633076E+01  0.85062364397E+01  0.29654595469E+02  0.31086737696E+02  0.51100000000E-03 0.  1.
        -12    1    3    3    0    0  0.75099380645E+01  0.30950255328E+01 -0.10079077097E+02  0.12944734370E+02  0.00000000000E+00 0.  1.
</event>
<event>
 7    1  0.1302069E-013  0.7246155E+02  0.7816164E-02  0.1226708E+00
        -11   -1    0    0    0    0  0.00000000000E+00  0.00000000000E+00  0.45593999997E+02  0.45594000000E+02  0.51100000000E-03 0.  1.
         11   -1    0    0    0    0 -0.00000000000E+00 -0.00000000000E+00 -0.45593999997E+02  0.45594000000E+02  0.51100000000E-03 0. -1.
    9900012    2    1    2    0    0  0.22390894991E+01  0.60539287631E+01  0.17578858174E+02  0.72461552660E+02  0.69999977029E+02 0.  0.
         12    1    1    2    0    0 -0.22390894991E+01 -0.60539287631E+01 -0.17578858174E+02  0.18726447340E+02  0.00000000000E+00 0. -1.
         11    1    3    3    0    0 -0.12526653429E+02  0.12837261436E+02 -0.13193473104E+02  0.22266119107E+02  0.51100000000E-03 0. -1.
        -11    1    3    3    0    0  0.33351940231E+01 -0.20417242215E+02  0.10423145863E+02  0.23165259955E+02  0.51100000000E-03 0.  1.
         12    1    3    3    0    0  0.11430548905E+02  0.13633909542E+02  0.20349185415E+02  0.27030173598E+02  0.00000000000E+00 0. -1.
</event>
<event>
 7    1  0.1302069E-013  0.7246158E+02  0.7816164E-02  0.1226708E+00
        -11   -1    0    0    0    0  0.00000000000E+00  0.00000000000E+00  0.45593999997E+02  0.45594000000E+02  0.51100000000E-03 0.  1.
         11   -1    0    0    0    0 -0.00000000000E+00 -0.00000000000E+00 -0.45593999997E+02  0.45594000000E+02  0.51100000000E-03 0. -1.
    9900012    2    1    2    0    0  0.15832674824E+02  0.63550403324E+00  0.99800426272E+01  0.72461582609E+02  0.70000016042E+02 0.  0.
         12    1    1    2    0    0 -0.15832674824E+02 -0.63550403324E+00 -0.99800426272E+01  0.18726417391E+02  0.00000000000E+00 0. -1.
         11    1    3    3    0    0  0.85197336358E+01  0.14484492258E+02  0.12499226267E+02  0.20943185878E+02  0.51100000000E-03 0. -1.
        -11    1    3    3    0    0 -0.17517773856E+02 -0.18278794220E+02  0.35776240559E+01  0.25569241544E+02  0.51100000000E-03 0.  1.
        -12    1    3    3    0    0  0.24830715045E+02  0.44298059954E+01 -0.60968076961E+01  0.25949155186E+02  0.00000000000E+00 0.  1.
</event>
<event>
 7    1  0.1302069E-013  0.7246160E+02  0.7816164E-02  0.1226708E+00
        -11   -1    0    0    0    0  0.00000000000E+00  0.00000000000E+00  0.45593999997E+02  0.45594000000E+02  0.51100000000E-03 0.  1.
         11   -1    0    0    0    0 -0.00000000000E+00 -0.00000000000E+00 -0.45593999997E+02  0.45594000000E+02  0.51100000000E-03 0. -1.
    9900012    2    1    2    0    0  0.29959596047E+01 -0.48163270010E+01  0.17846714357E+02  0.72461601706E+02  0.70000040920E+02 0.  0.
         12    1    1    2    0    0 -0.29959596047E+01  0.48163270010E+01 -0.17846714357E+02  0.18726398294E+02  0.00000000000E+00 0. -1.
         11    1    3    3    0    0 -0.40787685391E+01 -0.29013458573E+02  0.25576347088E+02  0.38891729992E+02  0.51100000000E-03 0. -1.
        -11    1    3    3    0    0  0.11414296717E+02  0.95562985135E+01  0.26299234954E+01  0.15117060186E+02  0.51100000000E-03 0.  1.
         12    1    3    3    0    0 -0.43395685732E+01  0.14640833059E+02 -0.10359556227E+02  0.18452811528E+02  0.00000000000E+00 0. -1.
</event>
<event>
 7    1  0.1302069E-013  0.7246161E+02  0.7816164E-02  0.1226708E+00
        -11   -1    0    0    0    0  0.00000000000E+00  0.00000000000E+00  0.45593999997E+02  0.45594000000E+02  0.51100000000E-03 0.  1.
         11   -1    0    0    0    0 -0.00000000000E+00 -0.00000000000E+00 -0.45593999997E+02  0.45594000000E+02  0.51100000000E-03 0. -1.
    9900012    2    1    2    0    0 -0.30189455262E+01 -0.16929593023E+02  0.74130036581E+01  0.72461607522E+02  0.70000048496E+02 0.  0.
         12    1    1    2    0    0  0.30189455262E+01  0.16929593023E+02 -0.74130036581E+01  0.18726392478E+02  0.00000000000E+00 0. -1.
         11    1    3    3    0    0  0.53798930882E+01  0.16001999331E+02 -0.34553542867E+01  0.17232141647E+02  0.51100000000E-03 0. -1.
        -11    1    3    3    0    0 -0.25354857823E+02 -0.15616755360E+02  0.40386351572E+01  0.30050997278E+02  0.51100000000E-03 0.  1.
        -12    1    3    3    0    0  0.16956019209E+02 -0.17314836994E+02  0.68297227875E+01  0.25178468597E+02  0.00000000000E+00 0.  1.
</event>
<event>
 7    1  0.1302069E-013  0.7246159E+02  0.7816164E-02  0.1226708E+00
        -11   -1    0    0    0    0  0.00000000000E+00  0.00000000000E+00  0.45593999997E+02  0.45594000000E+02  0.51100000000E-03 0.  1.
         11   -1    0    0    0    0 -0.00000000000E+00 -0.00000000000E+00 -0.45593999997E+02  0.45594000000E+02  0.51100000000E-03 0. -1.
    9900012    2    1    2    0    0  0.85698279117E+01 -0.16387950533E+02  0.29447705781E+01  0.72461586919E+02  0.70000021657E+02 0.  0.
         12    1    1    2    0    0 -0.85698279117E+01  0.16387950533E+02 -0.29447705781E+01  0.18726413081E+02  0.00000000000E+00 0. -1.
         11    1    3    3    0    0 -0.18557939904E+02  0.34296578536E+01 -0.15378552339E+02  0.24344600197E+02  0.51100000000E-03 0. -1.
        -11    1    3    3    0    0  0.47967589004E+01 -0.11029927393E+02 -0.64315922835E+01  0.13639412517E+02  0.51100000000E-03 0.  1.
         12    1    3    3    0    0  0.22331008915E+02 -0.87876809935E+01  0.24754915201E+02  0.34477574204E+02  0.00000000000E+00 0. -1.
</event>
<event>
 7    1  0.1302069E-013  0.7246107E+02  0.7816164E-02  0.1226709E+00
        -11   -1    0    0    0    0  0.00000000000E+00  0.00000000000E+00  0.45593999997E+02  0.45594000000E+02  0.51100000000E-03 0. -1.
         11   -1    0    0    0    0 -0.00000000000E+00 -0.00000000000E+00 -0.45593999997E+02  0.45594000000E+02  0.51100000000E-03 0.  1.
    9900012    2    1    2    0    0 -0.11045343278E+02 -0.12158474596E+02 -0.89927716463E+01  0.72461066067E+02  0.69999343148E+02 0.  0.
         12    1    1    2    0    0  0.11045343278E+02  0.12158474596E+02  0.89927716463E+01  0.18726933933E+02  0.00000000000E+00 0. -1.
         11    1    3    3    0    0  0.78972936697E+01  0.10320250607E+02 -0.27836576399E+02  0.30720511157E+02  0.51100000000E-03 0. -1.
        -11    1    3    3    0    0 -0.10167996588E+02 -0.90470138055E+00 -0.20959710320E+01  0.10421119615E+02  0.51100000000E-03 0.  1.
         12    1    3    3    0    0 -0.87746403601E+01 -0.21574023822E+02  0.20939775784E+02  0.31319435295E+02  0.00000000000E+00 0. -1.
</event>
<event>
 7    1  0.1302069E-013  0.7246186E+02  0.7816164E-02  0.1226707E+00
        -11   -1    0    0    0    0  0.00000000000E+00  0.00000000000E+00  0.45593999997E+02  0.45594000000E+02  0.51100000000E-03 0.  1.
         11   -1    0    0    0    0 -0.00000000000E+00 -0.00000000000E+00 -0.45593999997E+02  0.45594000000E+02  0.51100000000E-03 0. -1.
    9900012    2    1    2    0    0  0.13337411699E+02  0.39806388131E+01  0.12527424155E+02  0.72461858054E+02  0.70000374860E+02 0.  0.
         12    1    1    2    0    0 -0.13337411699E+02 -0.39806388131E+01 -0.12527424155E+02  0.18726141946E+02  0.00000000000E+00 0. -1.
         11    1    3    3    0    0 -0.13300669337E+02  0.45560656742E+00 -0.53523619333E+01  0.14344447033E+02  0.51100000000E-03 0. -1.
        -11    1    3    3    0    0  0.26738679438E+02  0.51182504409E+01  0.33075224426E+02  0.42838346569E+02  0.51100000000E-03 0.  1.
        -12    1    3    3    0    0 -0.10059840170E+00 -0.15932181952E+01 -0.15195438338E+02  0.15279064452E+02  0.00000000000E+00 0.  1.
</event>
<event>
 7    1  0.1302069E-013  0.7246156E+02  0.7816164E-02  0.1226708E+00
        -11   -1    0    0    0    0  0.00000000000E+00  0.00000000000E+00  0.45593999997E+02  0.45594000000E+02  0.51100000000E-03 0.  1.
         11   -1    0    0    0    0 -0.00000000000E+00 -0.00000000000E+00 -0.45593999997E+02  0.45594000000E+02  0.51100000000E-03 0. -1.
    9900012    2    1    2    0    0 -0.13068601391E+02  0.85045051662E+01  0.10371326814E+02  0.72461564933E+02  0.69999993016E+02 0.  0.
         12    1    1    2    0    0  0.13068601391E+02 -0.85045051662E+01 -0.10371326814E+02  0.18726435067E+02  0.00000000000E+00 0. -1.
         11    1    3    3    0    0 -0.85527864734E+00  0.11132528658E+02 -0.11100314014E+02  0.15744258235E+02  0.51100000000E-03 0. -1.
        -11    1    3    3    0    0 -0.29039992356E+02 -0.13700344242E+02  0.15828660764E+02  0.35798981693E+02  0.51100000000E-03 0.  1.
        -12    1    3    3    0    0  0.16826669613E+02  0.11072320750E+02  0.56429800637E+01  0.20918325006E+02  0.00000000000E+00 0.  1.
</event>
<event>
 7    1  0.1302069E-013  0.7246154E+02  0.7816164E-02  0.1226708E+00
        -11   -1    0    0    0    0  0.00000000000E+00  0.00000000000E+00  0.45593999997E+02  0.45594000000E+02  0.51100000000E-03 0. -1.
         11   -1    0    0    0    0 -0.00000000000E+00 -0.00000000000E+00 -0.45593999997E+02  0.45594000000E+02  0.51100000000E-03 0.  1.
    9900012    2    1    2    0    0  0.11612481552E+02 -0.95282789107E+01 -0.11182234567E+02  0.72461542868E+02  0.69999964272E+02 0.  0.
         12    1    1    2    0    0 -0.11612481552E+02  0.95282789107E+01  0.11182234567E+02  0.18726457132E+02  0.00000000000E+00 0. -1.
         11    1    3    3    0    0  0.33171253477E+00  0.18221016733E+02 -0.16433210489E+01  0.18297977711E+02  0.51100000000E-03 0. -1.
        -11    1    3    3    0    0 -0.15144448719E+02 -0.14017102618E+02  0.46848246196E+01  0.21160838235E+02  0.51100000000E-03 0.  1.
        -12    1    3    3    0    0  0.26425217736E+02 -0.13732193025E+02 -0.14223738138E+02  0.33002726922E+02  0.00000000000E+00 0.  1.
</event>
<event>
 7    1  0.1302069E-013  0.7246162E+02  0.7816164E-02  0.1226708E+00
        -11   -1    0    0    0    0  0.00000000000E+00  0.00000000000E+00  0.45593999997E+02  0.45594000000E+02  0.51100000000E-03 0.  1.
         11   -1    0    0    0    0 -0.00000000000E+00 -0.00000000000E+00 -0.45593999997E+02  0.45594000000E+02  0.51100000000E-03 0. -1.
    9900012    2    1    2    0    0 -0.95736660713E+01 -0.34241325518E+01  0.15725701408E+02  0.72461616191E+02  0.70000059789E+02 0.  0.
         12    1    1    2    0    0  0.95736660713E+01  0.34241325518E+01 -0.15725701408E+02  0.18726383809E+02  0.00000000000E+00 0. -1.
         11    1    3    3    0    0  0.12639363693E+02 -0.13408313705E+02 -0.20112476392E+02  0.27277245056E+02  0.51100000000E-03 0. -1.
        -11    1    3    3    0    0 -0.20950034364E+02  0.68035246557E+01  0.22790717385E+02  0.31695562572E+02  0.51100000000E-03 0.  1.
        -12    1    3    3    0    0 -0.12629954002E+01  0.31806564973E+01  0.13047460416E+02  0.13488808562E+02  0.00000000000E+00 0.  1.
</event>
<event>
 7    1  0.1302069E-013  0.7246148E+02  0.7816164E-02  0.1226708E+00
        -11   -1    0    0    0    0  0.00000000000E+00  0.00000000000E+00  0.45593999997E+02  0.45594000000E+02  0.51100000000E-03 0. -1.
         11   -1    0    0    0    0 -0.00000000000E+00 -0.00000000000E+00 -0.45593999997E+02  0.45594000000E+02  0.51100000000E-03 0.  1.
    9900012    2    1    2    0    0 -0.68370971681E+01 -0.13885613696E+02 -0.10541654658E+02  0.72461477410E+02  0.69999879000E+02 0.  0.
         12    1    1    2    0    0  0.68370971681E+01  0.13885613696E+02  0.10541654658E+02  0.18726522590E+02  0.00000000000E+00 0. -1.
         11    1    3    3    0    0 -0.17919827020E+02 -0.14341271823E+02 -0.28296298887E+02  0.36434500256E+02  0.51100000000E-03 0. -1.
        -11    1    3    3    0    0 -0.96608796937E+01 -0.34120672086E+01  0.59670714352E+01  0.11856674950E+02  0.51100000000E-03 0.  1.
         12    1    3    3    0    0  0.20743609545E+02  0.38677253355E+01  0.11787572795E+02  0.24170302204E+02  0.00000000000E+00 0. -1.
</event>
<event>
 7    1  0.1302069E-013  0.7246151E+02  0.7816164E-02  0.1226708E+00
        -11   -1    0    0    0    0  0.00000000000E+00  0.00000000000E+00  0.45593999997E+02  0.45594000000E+02  0.51100000000E-03 0.  1.
         11   -1    0    0    0    0 -0.00000000000E+00 -0.00000000000E+00 -0.45593999997E+02  0.45594000000E+02  0.51100000000E-03 0. -1.
    9900012    2    1    2    0    0 -0.12502340231E+02 -0.13775143801E+02  0.21489907608E+01  0.72461514497E+02  0.69999927314E+02 0.  0.
         12    1    1    2    0    0  0.12502340231E+02  0.13775143801E+02 -0.21489907608E+01  0.18726485503E+02  0.00000000000E+00 0. -1.
         11    1    3    3    0    0  0.19597493361E+02 -0.18455117742E+02 -0.17758258242E+02  0.32249168252E+02  0.51100000000E-03 0. -1.
        -11    1    3    3    0    0 -0.29142456776E+02 -0.30119502595E+00  0.16767902613E+02  0.33623445149E+02  0.51100000000E-03 0.  1.
         12    1    3    3    0    0 -0.29573768160E+01  0.49811689664E+01  0.31393463902E+01  0.65889010966E+01  0.00000000000E+00 0. -1.
</event>
<event>
 7    1  0.1302069E-013  0.7246153E+02  0.7816164E-02  0.1226708E+00
        -11   -1    0    0    0    0  0.00000000000E+00  0.00000000000E+00  0.45593999997E+02  0.45594000000E+02  0.51100000000E-03 0.  1.
         11   -1    0    0    0    0 -0.00000000000E+00 -0.00000000000E+00 -0.45593999997E+02  0.45594000000E+02  0.51100000000E-03 0. -1.
    9900012    2    1    2    0    0  0.19160042308E+01  0.40249705610E+01  0.18188159627E+02  0.72461531810E+02  0.69999949867E+02 0.  0.
         12    1    1    2    0    0 -0.19160042308E+01 -0.40249705610E+01 -0.18188159627E+02  0.18726468190E+02  0.00000000000E+00 0. -1.
         11    1    3    3    0    0  0.13110602647E+02  0.31315376701E+01  0.36110725881E+02  0.38544506144E+02  0.51100000000E-03 0. -1.
        -11    1    3    3    0    0 -0.14000352822E+02  0.10692650607E+02 -0.15442257596E+02  0.23426608293E+02  0.51100000000E-03 0.  1.
         12    1    3    3    0    0  0.28057544067E+01 -0.97992177163E+01 -0.24803086575E+01  0.10490417374E+02  0.00000000000E+00 0. -1.
</event>
<event>
 7    1  0.1302069E-013  0.7246154E+02  0.7816164E-02  0.1226708E+00
        -11   -1    0    0    0    0  0.00000000000E+00  0.00000000000E+00  0.45593999997E+02  0.45594000000E+02  0.51100000000E-03 0.  1.
         11   -1    0    0    0    0 -0.00000000000E+00 -0.00000000000E+00 -0.45593999997E+02  0.45594000000E+02  0.51100000000E-03 0. -1.
    9900012    2    1    2    0    0  0.14168262593E+02 -0.73518198112E+01  0.97924154055E+01  0.72461539605E+02  0.69999960021E+02 0.  0.
         12    1    1    2    0    0 -0.14168262593E+02  0.73518198112E+01 -0.97924154055E+01  0.18726460395E+02  0.00000000000E+00 0. -1.
         11    1    3    3    0    0  0.81333920861E+01 -0.22375066927E+02 -0.22021992520E+02  0.32430908739E+02  0.51100000000E-03 0. -1.
        -11    1    3    3    0    0 -0.51514261890E+01  0.78252088924E+01  0.20606821830E+02  0.22636523412E+02  0.51100000000E-03 0.  1.
         12    1    3    3    0    0  0.11186296696E+02  0.71980382231E+01  0.11207586096E+02  0.17394107455E+02  0.00000000000E+00 0. -1.
</event>
<event>
 7    1  0.1302069E-013  0.7246126E+02  0.7816164E-02  0.1226709E+00
        -11   -1    0    0    0    0  0.00000000000E+00  0.00000000000E+00  0.45593999997E+02  0.45594000000E+02  0.51100000000E-03 0.  1.
         11   -1    0    0    0    0 -0.00000000000E+00 -0.00000000000E+00 -0.45593999997E+02  0.45594000000E+02  0.51100000000E-03 0. -1.
    9900012    2    1    2    0    0  0.17482579265E+02  0.65425014447E+01 -0.14986774797E+01  0.72461256100E+02  0.69999590703E+02 0.  0.
         12    1    1    2    0    0 -0.17482579265E+02 -0.65425014447E+01  0.14986774797E+01  0.18726743900E+02  0.00000000000E+00 0. -1.
         11    1    3    3    0    0 -0.22841424900E+02 -0.12787408321E+02  0.28086188195E+01  0.26327492151E+02  0.51100000000E-03 0. -1.
        -11    1    3    3    0    0  0.27386433888E+01  0.49270093640E+01 -0.12015505174E+01  0.57636197646E+01  0.51100000000E-03 0.  1.
         12    1    3    3    0    0  0.37585360776E+02  0.14402900401E+02 -0.31057457818E+01  0.40370144185E+02  0.00000000000E+00 0. -1.
</event>
<event>
 7    1  0.1302069E-013  0.7246160E+02  0.7816164E-02  0.1226708E+00
        -11   -1    0    0    0    0  0.00000000000E+00  0.00000000000E+00  0.45593999997E+02  0.45594000000E+02  0.51100000000E-03 0. -1.
         11   -1    0    0    0    0 -0.00000000000E+00 -0.00000000000E+00 -0.45593999997E+02  0.45594000000E+02  0.51100000000E-03 0.  1.
    9900012    2    1    2    0    0 -0.14635173857E+02 -0.11678606233E+02  0.31590138366E+00  0.72461602827E+02  0.70000042380E+02 0.  0.
         12    1    1    2    0    0  0.14635173857E+02  0.11678606233E+02 -0.31590138366E+00  0.18726397173E+02  0.00000000000E+00 0. -1.
         11    1    3    3    0    0  0.15581330680E+02 -0.23323735568E+02  0.17187287691E+02  0.32896464324E+02  0.51100000000E-03 0. -1.
        -11    1    3    3    0    0 -0.28907005183E+01  0.95849349475E+00 -0.85359364916E+01  0.90629504752E+01  0.51100000000E-03 0.  1.
         12    1    3    3    0    0 -0.27325804019E+02  0.10686635840E+02 -0.83354498156E+01  0.30502188028E+02  0.00000000000E+00 0. -1.
</event>
<event>
 7    1  0.1302069E-013  0.7246147E+02  0.7816164E-02  0.1226708E+00
        -11   -1    0    0    0    0  0.00000000000E+00  0.00000000000E+00  0.45593999997E+02  0.45594000000E+02  0.51100000000E-03 0. -1.
         11   -1    0    0    0    0 -0.00000000000E+00 -0.00000000000E+00 -0.45593999997E+02  0.45594000000E+02  0.51100000000E-03 0.  1.
    9900012    2    1    2    0    0  0.80999429641E+01 -0.16204335175E+02 -0.47427356990E+01  0.72461465446E+02  0.69999863416E+02 0.  0.
         12    1    1    2    0    0 -0.80999429641E+01  0.16204335175E+02  0.47427356990E+01  0.18726534554E+02  0.00000000000E+00 0. -1.
         11    1    3    3    0    0  0.30343419194E+02 -0.22056214358E+02 -0.30450768178E+01  0.37636048853E+02  0.51100000000E-03 0. -1.
        -11    1    3    3    0    0 -0.25429030961E+01  0.12981868258E+02 -0.38146911874E+01  0.13767611585E+02  0.51100000000E-03 0.  1.
         12    1    3    3    0    0 -0.19700573134E+02 -0.71299890745E+01  0.21170323063E+01  0.21057805009E+02  0.00000000000E+00 0. -1.
</event>
<event>
 7    1  0.1302069E-013  0.7246160E+02  0.7816164E-02  0.1226708E+00
        -11   -1    0    0    0    0  0.00000000000E+00  0.00000000000E+00  0.45593999997E+02  0.45594000000E+02  0.51100000000E-03 0. -1.
         11   -1    0    0    0    0 -0.00000000000E+00 -0.00000000000E+00 -0.45593999997E+02  0.45594000000E+02  0.51100000000E-03 0.  1.
    9900012    2    1    2    0    0  0.56296724987E+01 -0.14012466359E+02 -0.11074105614E+02  0.72461595084E+02  0.70000032294E+02 0.  0.
         12    1    1    2    0    0 -0.56296724987E+01  0.14012466359E+02  0.11074105614E+02  0.18726404916E+02  0.00000000000E+00 0. -1.
         11    1    3    3    0    0  0.25335223721E+02 -0.25112893835E+02 -0.48493996124E+01  0.36000662141E+02  0.51100000000E-03 0. -1.
        -11    1    3    3    0    0 -0.89578759994E+01 -0.75478946843E+01 -0.89822158692E+01  0.14761248550E+02  0.51100000000E-03 0.  1.
         12    1    3    3    0    0 -0.10747675223E+02  0.18648322160E+02  0.27575098673E+01  0.21699684393E+02  0.00000000000E+00 0. -1.
</event>
<event>
 7    1  0.1302069E-013  0.7246156E+02  0.7816164E-02  0.1226708E+00
        -11   -1    0    0    0    0  0.00000000000E+00  0.00000000000E+00  0.45593999997E+02  0.45594000000E+02  0.51100000000E-03 0.  1.
         11   -1    0    0    0    0 -0.00000000000E+00 -0.00000000000E+00 -0.45593999997E+02  0.45594000000E+02  0.51100000000E-03 0. -1.
    9900012    2    1    2    0    0  0.11675960946E+02 -0.92950704765E+01  0.11311630790E+02  0.72461564400E+02  0.69999992321E+02 0.  0.
         12    1    1    2    0    0 -0.11675960946E+02  0.92950704765E+01 -0.11311630790E+02  0.18726435600E+02  0.00000000000E+00 0. -1.
         11    1    3    3    0    0 -0.33168214290E+01  0.88548222501E+00  0.13741991230E+01  0.36978110624E+01  0.51100000000E-03 0. -1.
        -11    1    3    3    0    0  0.11798370533E+02 -0.37922267308E+02  0.94984229345E+01  0.40835278174E+02  0.51100000000E-03 0.  1.
        -12    1    3    3    0    0  0.31944118412E+01  0.27741714606E+02  0.43900873220E+00  0.27928475164E+02  0.00000000000E+00 0.  1.
</event>
<event>
 7    1  0.1302069E-013  0.7246160E+02  0.7816164E-02  0.1226708E+00
        -11   -1    0    0    0    0  0.00000000000E+00  0.00000000000E+00  0.45593999997E+02  0.45594000000E+02  0.51100000000E-03 0. -1.
         11   -1    0    0    0    0 -0.00000000000E+00 -0.00000000000E+00 -0.45593999997E+02  0.45594000000E+02  0.51100000000E-03 0.  1.
    9900012    2    1    2    0    0 -0.11007524782E+02  0.36998189499E+01 -0.14690944216E+02  0.72461598742E+02  0.70000037059E+02 0.  0.
         12    1    1    2    0    0  0.11007524782E+02 -0.36998189499E+01  0.14690944216E+02  0.18726401258E+02  0.00000000000E+00 0. -1.
         11    1    3    3    0    0  0.21021765773E+02  0.84423200403E+01 -0.84717511511E+01  0.24185904401E+02  0.51100000000E-03 0. -1.
        -11    1    3    3    0    0 -0.28121447289E+02  0.11896345920E+02 -0.16250902022E+01  0.30577438780E+02  0.51100000000E-03 0.  1.
         12    1    3    3    0    0 -0.39078432656E+01 -0.16638847010E+02 -0.45941028629E+01  0.17698255562E+02  0.00000000000E+00 0. -1.
</event>
<event>
 7    1  0.1302069E-013  0.7246161E+02  0.7816164E-02  0.1226708E+00
        -11   -1    0    0    0    0  0.00000000000E+00  0.00000000000E+00  0.45593999997E+02  0.45594000000E+02  0.51100000000E-03 0.  1.
         11   -1    0    0    0    0 -0.00000000000E+00 -0.00000000000E+00 -0.45593999997E+02  0.45594000000E+02  0.51100000000E-03 0. -1.
    9900012    2    1    2    0    0  0.13197014977E+02 -0.12797469451E+02  0.35694766098E+01  0.72461612416E+02  0.70000054872E+02 0.  0.
         12    1    1    2    0    0 -0.13197014977E+02  0.12797469451E+02 -0.35694766098E+01  0.18726387584E+02  0.00000000000E+00 0. -1.
         11    1    3    3    0    0 -0.71112043054E+01 -0.16163046569E+02 -0.22910463926E+02  0.28925813016E+02  0.51100000000E-03 0. -1.
        -11    1    3    3    0    0  0.16514402761E+02 -0.93219537951E+01  0.75007316753E+01  0.20393265972E+02  0.51100000000E-03 0.  1.
         12    1    3    3    0    0  0.37938165220E+01  0.12687530913E+02  0.18979208861E+02  0.23142533428E+02  0.00000000000E+00 0. -1.
</event>
<event>
 7    1  0.1302069E-013  0.7246155E+02  0.7816164E-02  0.1226708E+00
        -11   -1    0    0    0    0  0.00000000000E+00  0.00000000000E+00  0.45593999997E+02  0.45594000000E+02  0.51100000000E-03 0. -1.
         11   -1    0    0    0    0 -0.00000000000E+00 -0.00000000000E+00 -0.45593999997E+02  0.45594000000E+02  0.51100000000E-03 0.  1.
    9900012    2    1    2    0    0  0.11694780159E+02  0.11734231615E+02 -0.87304004347E+01  0.72461549020E+02  0.69999972286E+02 0.  0.
         12    1    1    2    0    0 -0.11694780159E+02 -0.11734231615E+02  0.87304004347E+01  0.18726450980E+02  0.00000000000E+00 0. -1.
         11    1    3    3    0    0  0.61222734392E+01 -0.17801162660E+02 -0.72199930852E+01  0.20161644886E+02  0.51100000000E-03 0. -1.
        -11    1    3    3    0    0 -0.92109740443E+01  0.20701915276E+02  0.16001232715E+02  0.27738975966E+02  0.51100000000E-03 0.  1.
         12    1    3    3    0    0  0.14783480764E+02  0.88334789987E+01 -0.17511640065E+02  0.24560928168E+02  0.00000000000E+00 0. -1.
</event>
<event>
 7    1  0.1302069E-013  0.7246144E+02  0.7816164E-02  0.1226708E+00
        -11   -1    0    0    0    0  0.00000000000E+00  0.00000000000E+00  0.45593999997E+02  0.45594000000E+02  0.51100000000E-03 0. -1.
         11   -1    0    0    0    0 -0.00000000000E+00 -0.00000000000E+00 -0.45593999997E+02  0.45594000000E+02  0.51100000000E-03 0.  1.
    9900012    2    1    2    0    0 -0.16283860141E+02 -0.44655824422E+01 -0.80980614899E+01  0.72461437914E+02  0.69999827550E+02 0.  0.
         12    1    1    2    0    0  0.16283860141E+02  0.44655824422E+01  0.80980614899E+01  0.18726562086E+02  0.00000000000E+00 0. -1.
         11    1    3    3    0    0  0.35705877725E+01 -0.11519198770E+02  0.13406485275E+02  0.18032606164E+02  0.51100000000E-03 0. -1.
        -11    1    3    3    0    0 -0.23884280728E+02  0.74447370283E+01 -0.33475889539E+02  0.41791364610E+02  0.51100000000E-03 0.  1.
        -12    1    3    3    0    0  0.40298328138E+01 -0.39112070005E+00  0.11971342774E+02  0.12637467140E+02  0.00000000000E+00 0.  1.
</event>
<event>
 7    1  0.1302069E-013  0.7246156E+02  0.7816164E-02  0.1226708E+00
        -11   -1    0    0    0    0  0.00000000000E+00  0.00000000000E+00  0.45593999997E+02  0.45594000000E+02  0.51100000000E-03 0. -1.
         11   -1    0    0    0    0 -0.00000000000E+00 -0.00000000000E+00 -0.45593999997E+02  0.45594000000E+02  0.51100000000E-03 0.  1.
    9900012    2    1    2    0    0  0.24026886593E+01  0.16581885267E+02 -0.83634763604E+01  0.72461559638E+02  0.69999986119E+02 0.  0.
         12    1    1    2    0    0 -0.24026886593E+01 -0.16581885267E+02  0.83634763604E+01  0.18726440362E+02  0.00000000000E+00 0. -1.
         11    1    3    3    0    0 -0.17063236048E+02  0.25818476467E+00  0.15043679801E+02  0.22749351332E+02  0.51100000000E-03 0. -1.
        -11    1    3    3    0    0 -0.46052207591E+00 -0.48763061754E+01 -0.19797517080E+02  0.20394414071E+02  0.51100000000E-03 0.  1.
         12    1    3    3    0    0  0.19926446784E+02  0.21200006677E+02 -0.36096390809E+01  0.29317794235E+02  0.00000000000E+00 0. -1.
</event>
<event>
 7    1  0.1302069E-013  0.7246156E+02  0.7816164E-02  0.1226708E+00
        -11   -1    0    0    0    0  0.00000000000E+00  0.00000000000E+00  0.45593999997E+02  0.45594000000E+02  0.51100000000E-03 0.  1.
         11   -1    0    0    0    0 -0.00000000000E+00 -0.00000000000E+00 -0.45593999997E+02  0.45594000000E+02  0.51100000000E-03 0. -1.
    9900012    2    1    2    0    0  0.13137911503E+02  0.13291205363E+02 -0.11910211706E+01  0.72461564405E+02  0.69999992328E+02 0.  0.
         12    1    1    2    0    0 -0.13137911503E+02 -0.13291205363E+02  0.11910211706E+01  0.18726435595E+02  0.00000000000E+00 0. -1.
         11    1    3    3    0    0  0.21525524360E+02  0.52210171838E+01 -0.31319359374E+02  0.38360259270E+02  0.51100000000E-03 0. -1.
        -11    1    3    3    0    0 -0.59356756697E+00 -0.16824164731E+01  0.11743751868E+02  0.11878491312E+02  0.51100000000E-03 0.  1.
         12    1    3    3    0    0 -0.77940452891E+01  0.97526046524E+01  0.18384586335E+02  0.22222813823E+02  0.00000000000E+00 0. -1.
</event>
<event>
 7    1  0.1302069E-013  0.7246156E+02  0.7816164E-02  0.1226708E+00
        -11   -1    0    0    0    0  0.00000000000E+00  0.00000000000E+00  0.45593999997E+02  0.45594000000E+02  0.51100000000E-03 0.  1.
         11   -1    0    0    0    0 -0.00000000000E+00 -0.00000000000E+00 -0.45593999997E+02  0.45594000000E+02  0.51100000000E-03 0. -1.
    9900012    2    1    2    0    0 -0.14571514959E+02  0.28216865394E+01  0.11418785089E+02  0.72461558373E+02  0.69999984470E+02 0.  0.
         12    1    1    2    0    0  0.14571514959E+02 -0.28216865394E+01 -0.11418785089E+02  0.18726441627E+02  0.00000000000E+00 0. -1.
         11    1    3    3    0    0 -0.12256733390E+02  0.32741975010E+02  0.69852208051E+01  0.35651896876E+02  0.51100000000E-03 0.  1.
        -11    1    3    3    0    0 -0.35643146086E+01 -0.23369327904E+02  0.12175917960E+02  0.26591028632E+02  0.51100000000E-03 0. -1.
         12    1    3    3    0    0  0.12495330403E+01 -0.65509605664E+01 -0.77423536763E+01  0.10218632864E+02  0.00000000000E+00 0. -1.
</event>
<event>
 7    1  0.1302069E-013  0.7246157E+02  0.7816164E-02  0.1226708E+00
        -11   -1    0    0    0    0  0.00000000000E+00  0.00000000000E+00  0.45593999997E+02  0.45594000000E+02  0.51100000000E-03 0. -1.
         11   -1    0    0    0    0 -0.00000000000E+00 -0.00000000000E+00 -0.45593999997E+02  0.45594000000E+02  0.51100000000E-03 0.  1.
    9900012    2    1    2    0    0 -0.34009018525E+01  0.45507043988E+01 -0.17843883042E+02  0.72461569322E+02  0.69999998733E+02 0.  0.
         12    1    1    2    0    0  0.34009018525E+01 -0.45507043988E+01  0.17843883042E+02  0.18726430678E+02  0.00000000000E+00 0. -1.
         11    1    3    3    0    0  0.19231006761E+02  0.12122831256E+02 -0.20897397092E+01  0.22828965615E+02  0.51100000000E-03 0. -1.
        -11    1    3    3    0    0 -0.18685876790E+02  0.33334384969E+01 -0.27311594826E+02  0.33259540222E+02  0.51100000000E-03 0.  1.
         12    1    3    3    0    0 -0.39460318237E+01 -0.10905565354E+02  0.11557451493E+02  0.16373063484E+02  0.00000000000E+00 0. -1.
</event>
<event>
 7    1  0.1595015E-013  0.7246148E+02  0.7816164E-02  0.1226708E+00
        -11   -1    0    0    0    0  0.00000000000E+00  0.00000000000E+00  0.45593999997E+02  0.45594000000E+02  0.51100000000E-03 0. -1.
         11   -1    0    0    0    0 -0.00000000000E+00 -0.00000000000E+00 -0.45593999997E+02  0.45594000000E+02  0.51100000000E-03 0.  1.
    9900012    2    1    2    0    0  0.34439228797E+00 -0.10405768865E+02 -0.15565472446E+02  0.72461479656E+02  0.69999881927E+02 0.  0.
         12    1    1    2    0    0 -0.34439228797E+00  0.10405768865E+02  0.15565472446E+02  0.18726520344E+02  0.00000000000E+00 0. -1.
         11    1    3    3    0    0  0.76150823832E+01 -0.20649573042E+01  0.16375777191E+02  0.18177447765E+02  0.51100000000E-03 0. -1.
        -11    1    3    3    0    0 -0.21386073068E+02 -0.13195223424E+02 -0.85654757639E+01  0.26548924984E+02  0.51100000000E-03 0.  1.
        -12    1    3    3    0    0  0.14115382972E+02  0.48544118635E+01 -0.23375773873E+02  0.27735106908E+02  0.00000000000E+00 0.  1.
</event>
<event>
 7    1  0.1302069E-013  0.7246163E+02  0.7816164E-02  0.1226708E+00
        -11   -1    0    0    0    0  0.00000000000E+00  0.00000000000E+00  0.45593999997E+02  0.45594000000E+02  0.51100000000E-03 0.  1.
         11   -1    0    0    0    0 -0.00000000000E+00 -0.00000000000E+00 -0.45593999997E+02  0.45594000000E+02  0.51100000000E-03 0. -1.
    9900012    2    1    2    0    0  0.90502612129E+01 -0.16387749985E+02  0.45986432862E+00  0.72461626812E+02  0.70000073625E+02 0.  0.
         12    1    1    2    0    0 -0.90502612129E+01  0.16387749985E+02 -0.45986432862E+00  0.18726373188E+02  0.00000000000E+00 0. -1.
         11    1    3    3    0    0  0.30396337951E+02 -0.13555697063E+01 -0.14651398944E+02  0.33770377868E+02  0.51100000000E-03 0. -1.
        -11    1    3    3    0    0  0.21108049010E+01 -0.10180785035E+02  0.95126462117E+01  0.14092349679E+02  0.51100000000E-03 0.  1.
         12    1    3    3    0    0 -0.23456881640E+02 -0.48513952432E+01  0.55986170605E+01  0.24598899265E+02  0.00000000000E+00 0. -1.
</event>
<event>
 7    1  0.1302069E-013  0.7246159E+02  0.7816164E-02  0.1226708E+00
        -11   -1    0    0    0    0  0.00000000000E+00  0.00000000000E+00  0.45593999997E+02  0.45594000000E+02  0.51100000000E-03 0. -1.
         11   -1    0    0    0    0 -0.00000000000E+00 -0.00000000000E+00 -0.45593999997E+02  0.45594000000E+02  0.51100000000E-03 0.  1.
    9900012    2    1    2    0    0 -0.62765453803E+01  0.12950969309E+02 -0.11981472269E+02  0.72461593359E+02  0.70000030046E+02 0.  0.
         12    1    1    2    0    0  0.62765453803E+01 -0.12950969309E+02  0.11981472269E+02  0.18726406641E+02  0.00000000000E+00 0. -1.
         11    1    3    3    0    0 -0.12252241245E+02  0.21034684081E+01  0.16741718042E+02  0.20852508677E+02  0.51100000000E-03 0. -1.
        -11    1    3    3    0    0 -0.55872112980E+01  0.19771956208E+02 -0.30625739690E+02  0.36879304687E+02  0.51100000000E-03 0.  1.
        -12    1    3    3    0    0  0.11562907163E+02 -0.89244553066E+01  0.19025493788E+01  0.14729779995E+02  0.00000000000E+00 0.  1.
</event>
<event>
 7    1  0.1587091E-013  0.7246156E+02  0.7816164E-02  0.1226708E+00
        -11   -1    0    0    0    0  0.00000000000E+00  0.00000000000E+00  0.45593999997E+02  0.45594000000E+02  0.51100000000E-03 0. -1.
         11   -1    0    0    0    0 -0.00000000000E+00 -0.00000000000E+00 -0.45593999997E+02  0.45594000000E+02  0.51100000000E-03 0.  1.
    9900012    2    1    2    0    0 -0.12406743595E+02  0.71172583326E+01 -0.12087048594E+02  0.72461564234E+02  0.69999992105E+02 0.  0.
         12    1    1    2    0    0  0.12406743595E+02 -0.71172583326E+01  0.12087048594E+02  0.18726435766E+02  0.00000000000E+00 0. -1.
         11    1    3    3    0    0  0.53267832774E+01  0.94919747164E+01  0.17571808121E+02  0.20669800313E+02  0.51100000000E-03 0. -1.
        -11    1    3    3    0    0 -0.60549302677E+01 -0.20105699679E+02 -0.12059352670E+02  0.24214238109E+02  0.51100000000E-03 0.  1.
        -12    1    3    3    0    0 -0.11678596604E+02  0.17730983295E+02 -0.17599504045E+02  0.27577525811E+02  0.00000000000E+00 0.  1.
</event>
<event>
 7    1  0.1302069E-013  0.7246168E+02  0.7816164E-02  0.1226708E+00
        -11   -1    0    0    0    0  0.00000000000E+00  0.00000000000E+00  0.45593999997E+02  0.45594000000E+02  0.51100000000E-03 0.  1.
         11   -1    0    0    0    0 -0.00000000000E+00 -0.00000000000E+00 -0.45593999997E+02  0.45594000000E+02  0.51100000000E-03 0. -1.
    9900012    2    1    2    0    0 -0.17803890055E+00 -0.18618108428E+02 -0.20023146512E+01  0.72461683671E+02  0.70000147694E+02 0.  0.
         12    1    1    2    0    0  0.17803890055E+00  0.18618108428E+02  0.20023146512E+01  0.18726316329E+02  0.00000000000E+00 0. -1.
         11    1    3    3    0    0 -0.78261014924E+01  0.15378446937E+02 -0.24323369953E+02  0.29822320850E+02  0.51100000000E-03 0. -1.
        -11    1    3    3    0    0  0.13112988032E+01 -0.70396382497E+00  0.36600166821E+01  0.39510494799E+01  0.51100000000E-03 0.  1.
         12    1    3    3    0    0  0.63367637887E+01 -0.33292591540E+02  0.18661038620E+02  0.38688313341E+02  0.00000000000E+00 0. -1.
</event>
<event>
 7    1  0.1302069E-013  0.7246156E+02  0.7816164E-02  0.1226708E+00
        -11   -1    0    0    0    0  0.00000000000E+00  0.00000000000E+00  0.45593999997E+02  0.45594000000E+02  0.51100000000E-03 0.  1.
         11   -1    0    0    0    0 -0.00000000000E+00 -0.00000000000E+00 -0.45593999997E+02  0.45594000000E+02  0.51100000000E-03 0. -1.
    9900012    2    1    2    0    0  0.13777816950E+02  0.70245062668E+01  0.10559709515E+02  0.72461564321E+02  0.69999992219E+02 0.  0.
         12    1    1    2    0    0 -0.13777816950E+02 -0.70245062668E+01 -0.10559709515E+02  0.18726435679E+02  0.00000000000E+00 0. -1.
         11    1    3    3    0    0  0.16755198294E+02  0.55954464274E+01  0.20706547717E+00  0.17666028613E+02  0.51100000000E-03 0. -1.
        -11    1    3    3    0    0 -0.57327090977E+01 -0.40689100116E+00 -0.21763311984E+02  0.22509359446E+02  0.51100000000E-03 0.  1.
        -12    1    3    3    0    0  0.27553277540E+01  0.18359508406E+01  0.32115956021E+02  0.32286176263E+02  0.00000000000E+00 0.  1.
</event>
<event>
 7    1  0.1302069E-013  0.7246160E+02  0.7816164E-02  0.1226708E+00
        -11   -1    0    0    0    0  0.00000000000E+00  0.00000000000E+00  0.45593999997E+02  0.45594000000E+02  0.51100000000E-03 0. -1.
         11   -1    0    0    0    0 -0.00000000000E+00 -0.00000000000E+00 -0.45593999997E+02  0.45594000000E+02  0.51100000000E-03 0.  1.
    9900012    2    1    2    0    0  0.91411584094E+01 -0.16290213703E+02  0.13214864482E+01  0.72461597089E+02  0.70000034905E+02 0.  0.
         12    1    1    2    0    0 -0.91411584094E+01  0.16290213703E+02 -0.13214864482E+01  0.18726402911E+02  0.00000000000E+00 0. -1.
         11    1    3    3    0    0  0.12936950749E+01  0.88977746959E+01 -0.47594614686E+01  0.10173323706E+02  0.51100000000E-03 0. -1.
        -11    1    3    3    0    0 -0.16550071492E+02 -0.28183986108E+02 -0.84171255830E+01  0.33750406555E+02  0.51100000000E-03 0.  1.
        -12    1    3    3    0    0  0.24397534827E+02  0.29959977091E+01  0.14498073500E+02  0.28537866828E+02  0.00000000000E+00 0.  1.
</event>
<event>
 7    1  0.1302069E-013  0.7246157E+02  0.7816164E-02  0.1226708E+00
        -11   -1    0    0    0    0  0.00000000000E+00  0.00000000000E+00  0.45593999997E+02  0.45594000000E+02  0.51100000000E-03 0.  1.
         11   -1    0    0    0    0 -0.00000000000E+00 -0.00000000000E+00 -0.45593999997E+02  0.45594000000E+02  0.51100000000E-03 0. -1.
    9900012    2    1    2    0    0  0.17150780251E+02  0.32765024385E+01 -0.67671732967E+01  0.72461565051E+02  0.69999993170E+02 0.  0.
         12    1    1    2    0    0 -0.17150780251E+02 -0.32765024385E+01  0.67671732967E+01  0.18726434949E+02  0.00000000000E+00 0. -1.
         11    1    3    3    0    0 -0.11144600928E+02 -0.66660098394E+01 -0.12723249154E+02  0.18180178391E+02  0.51100000000E-03 0. -1.
        -11    1    3    3    0    0  0.35153585864E+00  0.12332706264E+02  0.19547717136E+02  0.23115632519E+02  0.51100000000E-03 0.  1.
         12    1    3    3    0    0  0.27943845321E+02 -0.23901939860E+01 -0.13591641278E+02  0.31165754142E+02  0.00000000000E+00 0. -1.
</event>
<event>
 7    1  0.1302069E-013  0.7246170E+02  0.7816164E-02  0.1226708E+00
        -11   -1    0    0    0    0  0.00000000000E+00  0.00000000000E+00  0.45593999997E+02  0.45594000000E+02  0.51100000000E-03 0.  1.
         11   -1    0    0    0    0 -0.00000000000E+00 -0.00000000000E+00 -0.45593999997E+02  0.45594000000E+02  0.51100000000E-03 0. -1.
    9900012    2    1    2    0    0 -0.37700414174E+00 -0.11847252602E+02  0.14497400878E+02  0.72461704089E+02  0.70000174292E+02 0.  0.
         12    1    1    2    0    0  0.37700414174E+00  0.11847252602E+02 -0.14497400878E+02  0.18726295911E+02  0.00000000000E+00 0. -1.
         11    1    3    3    0    0 -0.11749828638E+02 -0.19043040175E+02 -0.43479956135E+01  0.22794756376E+02  0.51100000000E-03 0. -1.
        -11    1    3    3    0    0  0.24136985083E+02 -0.62672917643E+01  0.27180851584E+01  0.25085074888E+02  0.51100000000E-03 0.  1.
        -12    1    3    3    0    0 -0.12764160587E+02  0.13463079337E+02  0.16127311333E+02  0.24581872825E+02  0.00000000000E+00 0.  1.
</event>
<event>
 7    1  0.1302069E-013  0.7246157E+02  0.7816164E-02  0.1226708E+00
        -11   -1    0    0    0    0  0.00000000000E+00  0.00000000000E+00  0.45593999997E+02  0.45594000000E+02  0.51100000000E-03 0.  1.
         11   -1    0    0    0    0 -0.00000000000E+00 -0.00000000000E+00 -0.45593999997E+02  0.45594000000E+02  0.51100000000E-03 0. -1.
    9900012    2    1    2    0    0 -0.95671748940E+01 -0.16093185590E+02 -0.39719091696E+00  0.72461568986E+02  0.69999998296E+02 0.  0.
         12    1    1    2    0    0  0.95671748940E+01  0.16093185590E+02  0.39719091696E+00  0.18726431014E+02  0.00000000000E+00 0. -1.
         11    1    3    3    0    0  0.12937438065E+02 -0.29827166911E-01 -0.78434647139E+01  0.15129379773E+02  0.51100000000E-03 0. -1.
        -11    1    3    3    0    0 -0.35052042389E+02 -0.11868902700E+02  0.17285179469E+02  0.40844754332E+02  0.51100000000E-03 0.  1.
        -12    1    3    3    0    0  0.12547429430E+02 -0.41944557238E+01 -0.98389056720E+01  0.16487434881E+02  0.00000000000E+00 0.  1.
</event>
<event>
 7    1  0.1302069E-013  0.7246159E+02  0.7816164E-02  0.1226708E+00
        -11   -1    0    0    0    0  0.00000000000E+00  0.00000000000E+00  0.45593999997E+02  0.45594000000E+02  0.51100000000E-03 0. -1.
         11   -1    0    0    0    0 -0.00000000000E+00 -0.00000000000E+00 -0.45593999997E+02  0.45594000000E+02  0.51100000000E-03 0.  1.
    9900012    2    1    2    0    0 -0.11579347559E+02 -0.12557416370E+02 -0.76751829355E+01  0.72461590070E+02  0.70000025761E+02 0.  0.
         12    1    1    2    0    0  0.11579347559E+02  0.12557416370E+02  0.76751829355E+01  0.18726409930E+02  0.00000000000E+00 0. -1.
         11    1    3    3    0    0  0.26491152573E+01 -0.25292423713E+02  0.13635728452E+02  0.28855807034E+02  0.51100000000E-03 0. -1.
        -11    1    3    3    0    0 -0.87698025067E+01  0.20974878346E+02 -0.24302892741E+02  0.33278905533E+02  0.51100000000E-03 0.  1.
        -12    1    3    3    0    0 -0.54586603094E+01 -0.82398710035E+01  0.29919813536E+01  0.10326877502E+02  0.00000000000E+00 0.  1.
</event>
<event>
 7    1  0.1302069E-013  0.7246155E+02  0.7816164E-02  0.1226708E+00
        -11   -1    0    0    0    0  0.00000000000E+00  0.00000000000E+00  0.45593999997E+02  0.45594000000E+02  0.51100000000E-03 0.  1.
         11   -1    0    0    0    0 -0.00000000000E+00 -0.00000000000E+00 -0.45593999997E+02  0.45594000000E+02  0.51100000000E-03 0. -1.
    9900012    2    1    2    0    0 -0.14868366334E+02  0.10732289712E+02  0.37986236921E+01  0.72461550741E+02  0.69999974528E+02 0.  0.
         12    1    1    2    0    0  0.14868366334E+02 -0.10732289712E+02 -0.37986236921E+01  0.18726449259E+02  0.00000000000E+00 0. -1.
         11    1    3    3    0    0  0.17036262795E+02  0.21248523321E+02  0.14136137743E+02  0.30684921116E+02  0.51100000000E-03 0.  1.
        -11    1    3    3    0    0 -0.35319439875E+02 -0.85618820738E+01 -0.10530800554E+02  0.37837368015E+02  0.51100000000E-03 0. -1.
         12    1    3    3    0    0  0.34148107461E+01 -0.19543515349E+01  0.19328650380E+00  0.39392616093E+01  0.00000000000E+00 0. -1.
</event>
<event>
 7    1  0.1302069E-013  0.7246157E+02  0.7816164E-02  0.1226708E+00
        -11   -1    0    0    0    0  0.00000000000E+00  0.00000000000E+00  0.45593999997E+02  0.45594000000E+02  0.51100000000E-03 0.  1.
         11   -1    0    0    0    0 -0.00000000000E+00 -0.00000000000E+00 -0.45593999997E+02  0.45594000000E+02  0.51100000000E-03 0. -1.
    9900012    2    1    2    0    0  0.11601932814E+02 -0.62081272448E+01  0.13324163668E+02  0.72461574117E+02  0.70000004979E+02 0.  0.
         12    1    1    2    0    0 -0.11601932814E+02  0.62081272448E+01 -0.13324163668E+02  0.18726425883E+02  0.00000000000E+00 0. -1.
         11    1    3    3    0    0  0.26225856690E+02 -0.24664557600E+01 -0.42928670301E+01  0.26689092730E+02  0.51100000000E-03 0.  1.
        -11    1    3    3    0    0 -0.25496294302E+02  0.37444833767E+01  0.27894484479E+01  0.25920324107E+02  0.51100000000E-03 0. -1.
        -12    1    3    3    0    0  0.10872370426E+02 -0.74861548614E+01  0.14827582250E+02  0.19852157280E+02  0.00000000000E+00 0.  1.
</event>
<event>
 7    1  0.1302069E-013  0.7246153E+02  0.7816164E-02  0.1226708E+00
        -11   -1    0    0    0    0  0.00000000000E+00  0.00000000000E+00  0.45593999997E+02  0.45594000000E+02  0.51100000000E-03 0.  1.
         11   -1    0    0    0    0 -0.00000000000E+00 -0.00000000000E+00 -0.45593999997E+02  0.45594000000E+02  0.51100000000E-03 0. -1.
    9900012    2    1    2    0    0 -0.96086135254E+01 -0.30339368601E+01  0.15784504249E+02  0.72461526730E+02  0.69999943249E+02 0.  0.
         12    1    1    2    0    0  0.96086135254E+01  0.30339368601E+01 -0.15784504249E+02  0.18726473270E+02  0.00000000000E+00 0. -1.
         11    1    3    3    0    0  0.69458945989E+01  0.36196232944E+01 -0.41291867257E+01  0.88542254235E+01  0.51100000000E-03 0. -1.
        -11    1    3    3    0    0 -0.22397354084E+01 -0.30538731489E+02  0.24072930492E+01  0.30715233936E+02  0.51100000000E-03 0.  1.
        -12    1    3    3    0    0 -0.14314772716E+02  0.23885171335E+02  0.17506397925E+02  0.32892067371E+02  0.00000000000E+00 0.  1.
</event>
<event>
 7    1  0.1302069E-013  0.7246153E+02  0.7816164E-02  0.1226708E+00
        -11   -1    0    0    0    0  0.00000000000E+00  0.00000000000E+00  0.45593999997E+02  0.45594000000E+02  0.51100000000E-03 0.  1.
         11   -1    0    0    0    0 -0.00000000000E+00 -0.00000000000E+00 -0.45593999997E+02  0.45594000000E+02  0.51100000000E-03 0. -1.
    9900012    2    1    2    0    0 -0.12860681047E+02 -0.13116899846E+02 -0.36373739292E+01  0.72461530294E+02  0.69999947892E+02 0.  0.
         12    1    1    2    0    0  0.12860681047E+02  0.13116899846E+02  0.36373739292E+01  0.18726469706E+02  0.00000000000E+00 0. -1.
         11    1    3    3    0    0 -0.34120468416E+01  0.51004363433E+01 -0.32017548073E+02  0.32600305204E+02  0.51100000000E-03 0. -1.
        -11    1    3    3    0    0 -0.79241615130E+01 -0.17847222163E+02  0.11003968775E+02  0.22414348165E+02  0.51100000000E-03 0.  1.
         12    1    3    3    0    0 -0.15244726921E+01 -0.37011402588E+00  0.17376205369E+02  0.17446876924E+02  0.00000000000E+00 0. -1.
</event>
<event>
 7    1  0.1302069E-013  0.7246160E+02  0.7816164E-02  0.1226708E+00
        -11   -1    0    0    0    0  0.00000000000E+00  0.00000000000E+00  0.45593999997E+02  0.45594000000E+02  0.51100000000E-03 0.  1.
         11   -1    0    0    0    0 -0.00000000000E+00 -0.00000000000E+00 -0.45593999997E+02  0.45594000000E+02  0.51100000000E-03 0. -1.
    9900012    2    1    2    0    0  0.10655347279E+02  0.15378146481E+02  0.80893782756E+00  0.72461596307E+02  0.70000033887E+02 0.  0.
         12    1    1    2    0    0 -0.10655347279E+02 -0.15378146481E+02 -0.80893782756E+00  0.18726403693E+02  0.00000000000E+00 0. -1.
         11    1    3    3    0    0  0.77744077882E+01 -0.10546896232E+02 -0.23037346286E+01  0.13303594630E+02  0.51100000000E-03 0. -1.
        -11    1    3    3    0    0 -0.20851746488E+02  0.79988942850E+01  0.15240940647E+02  0.27038193605E+02  0.51100000000E-03 0.  1.
        -12    1    3    3    0    0  0.23732685979E+02  0.17926148429E+02 -0.12128268191E+02  0.32119808072E+02  0.00000000000E+00 0.  1.
</event>
<event>
 7    1  0.1302069E-013  0.7246153E+02  0.7816164E-02  0.1226708E+00
        -11   -1    0    0    0    0  0.00000000000E+00  0.00000000000E+00  0.45593999997E+02  0.45594000000E+02  0.51100000000E-03 0. -1.
         11   -1    0    0    0    0 -0.00000000000E+00 -0.00000000000E+00 -0.45593999997E+02  0.45594000000E+02  0.51100000000E-03 0.  1.
    9900012    2    1    2    0    0  0.29207156395E+01  0.17631016519E+01 -0.18413082192E+02  0.72461529348E+02  0.69999946659E+02 0.  0.
         12    1    1    2    0    0 -0.29207156395E+01 -0.17631016519E+01  0.18413082192E+02  0.18726470652E+02  0.00000000000E+00 0. -1.
         11    1    3    3    0    0 -0.19630901532E+01  0.28269934471E+02  0.18901454304E+00  0.28338642252E+02  0.51100000000E-03 0.  1.
        -11    1    3    3    0    0 -0.10610209422E+02 -0.20799579074E+02 -0.12756778013E+02  0.26607037023E+02  0.51100000000E-03 0. -1.
        -12    1    3    3    0    0  0.15494015214E+02 -0.57072537454E+01 -0.58453187224E+01  0.17515850072E+02  0.00000000000E+00 0.  1.
</event>
<event>
 7    1  0.1302069E-013  0.7246159E+02  0.7816164E-02  0.1226708E+00
        -11   -1    0    0    0    0  0.00000000000E+00  0.00000000000E+00  0.45593999997E+02  0.45594000000E+02  0.51100000000E-03 0.  1.
         11   -1    0    0    0    0 -0.00000000000E+00 -0.00000000000E+00 -0.45593999997E+02  0.45594000000E+02  0.51100000000E-03 0. -1.
    9900012    2    1    2    0    0  0.12275193156E+02 -0.94428420869E+00  0.14110499892E+02  0.72461594929E+02  0.70000032092E+02 0.  0.
         12    1    1    2    0    0 -0.12275193156E+02  0.94428420869E+00 -0.14110499892E+02  0.18726405071E+02  0.00000000000E+00 0. -1.
         11    1    3    3    0    0  0.79944221295E+01 -0.98723340706E+01 -0.22961236691E+02  0.26241039534E+02  0.51100000000E-03 0. -1.
        -11    1    3    3    0    0 -0.49636387132E+01  0.76868160498E+01  0.35625412683E+02  0.36781719364E+02  0.51100000000E-03 0.  1.
         12    1    3    3    0    0  0.92444097396E+01  0.12412338121E+01  0.14463238995E+01  0.94388360316E+01  0.00000000000E+00 0. -1.
</event>
<event>
 7    1  0.1302069E-013  0.7246156E+02  0.7816164E-02  0.1226708E+00
        -11   -1    0    0    0    0  0.00000000000E+00  0.00000000000E+00  0.45593999997E+02  0.45594000000E+02  0.51100000000E-03 0.  1.
         11   -1    0    0    0    0 -0.00000000000E+00 -0.00000000000E+00 -0.45593999997E+02  0.45594000000E+02  0.51100000000E-03 0. -1.
    9900012    2    1    2    0    0 -0.38504672728E+01  0.17421751225E+02 -0.56864696856E+01  0.72461562767E+02  0.69999990194E+02 0.  0.
         12    1    1    2    0    0  0.38504672728E+01 -0.17421751225E+02  0.56864696856E+01  0.18726437233E+02  0.00000000000E+00 0. -1.
         11    1    3    3    0    0  0.31479177987E+01  0.11384172454E+02 -0.31514137938E+02  0.33654860855E+02  0.51100000000E-03 0. -1.
        -11    1    3    3    0    0  0.73749079122E+01  0.11435866294E+02  0.11887698470E+02  0.18068914737E+02  0.51100000000E-03 0.  1.
         12    1    3    3    0    0 -0.14373292984E+02 -0.53982875227E+01  0.13939969782E+02  0.20737787175E+02  0.00000000000E+00 0. -1.
</event>
<event>
 7    1  0.1302069E-013  0.7246158E+02  0.7816164E-02  0.1226708E+00
        -11   -1    0    0    0    0  0.00000000000E+00  0.00000000000E+00  0.45593999997E+02  0.45594000000E+02  0.51100000000E-03 0.  1.
         11   -1    0    0    0    0 -0.00000000000E+00 -0.00000000000E+00 -0.45593999997E+02  0.45594000000E+02  0.51100000000E-03 0. -1.
    9900012    2    1    2    0    0  0.12873581606E+01 -0.28726519756E+01  0.18459937161E+02  0.72461582821E+02  0.70000016318E+02 0.  0.
         12    1    1    2    0    0 -0.12873581606E+01  0.28726519756E+01 -0.18459937161E+02  0.18726417179E+02  0.00000000000E+00 0. -1.
         11    1    3    3    0    0  0.10764463581E+02 -0.62395404464E+01 -0.54990437746E+01  0.13603125518E+02  0.51100000000E-03 0. -1.
        -11    1    3    3    0    0  0.79415156140E+01  0.23191632521E+02  0.21045098776E+02  0.32308136313E+02  0.51100000000E-03 0.  1.
        -12    1    3    3    0    0 -0.17418621035E+02 -0.19824744051E+02  0.29138821594E+01  0.26550320990E+02  0.00000000000E+00 0.  1.
</event>
<event>
 7    1  0.1302069E-013  0.7246146E+02  0.7816164E-02  0.1226708E+00
        -11   -1    0    0    0    0  0.00000000000E+00  0.00000000000E+00  0.45593999997E+02  0.45594000000E+02  0.51100000000E-03 0.  1.
         11   -1    0    0    0    0 -0.00000000000E+00 -0.00000000000E+00 -0.45593999997E+02  0.45594000000E+02  0.51100000000E-03 0. -1.
    9900012    2    1    2    0    0  0.47474636657E+01  0.15768428006E+01  0.18046006445E+02  0.72461462864E+02  0.69999860052E+02 0.  0.
         12    1    1    2    0    0 -0.47474636657E+01 -0.15768428006E+01 -0.18046006445E+02  0.18726537136E+02  0.00000000000E+00 0. -1.
         11    1    3    3    0    0  0.14146323508E+02  0.94211922960E+01 -0.17893119820E+02  0.24678757469E+02  0.51100000000E-03 0. -1.
        -11    1    3    3    0    0 -0.97726918515E+01  0.79391529540E+01  0.60259286445E+01  0.13958777595E+02  0.51100000000E-03 0.  1.
         12    1    3    3    0    0  0.37383200940E+00 -0.15783502449E+02  0.29913197621E+02  0.33823927800E+02  0.00000000000E+00 0. -1.
</event>
<event>
 7    1  0.1302069E-013  0.7246163E+02  0.7816164E-02  0.1226708E+00
        -11   -1    0    0    0    0  0.00000000000E+00  0.00000000000E+00  0.45593999997E+02  0.45594000000E+02  0.51100000000E-03 0.  1.
         11   -1    0    0    0    0 -0.00000000000E+00 -0.00000000000E+00 -0.45593999997E+02  0.45594000000E+02  0.51100000000E-03 0. -1.
    9900012    2    1    2    0    0 -0.48050087688E+01 -0.95382611588E+01  0.15382150290E+02  0.72461626012E+02  0.70000072582E+02 0.  0.
         12    1    1    2    0    0  0.48050087688E+01  0.95382611588E+01 -0.15382150290E+02  0.18726373988E+02  0.00000000000E+00 0. -1.
         11    1    3    3    0    0  0.14710564687E+02 -0.23340961479E+02  0.24110449794E+02  0.36640346419E+02  0.51100000000E-03 0. -1.
        -11    1    3    3    0    0 -0.20109306292E+02  0.69760422517E+01  0.37237974134E+01  0.21608239921E+02  0.51100000000E-03 0.  1.
         12    1    3    3    0    0  0.59373283590E+00  0.68266580688E+01 -0.12452096917E+02  0.14213039671E+02  0.00000000000E+00 0. -1.
</event>
<event>
 7    1  0.1302069E-013  0.7246159E+02  0.7816164E-02  0.1226708E+00
        -11   -1    0    0    0    0  0.00000000000E+00  0.00000000000E+00  0.45593999997E+02  0.45594000000E+02  0.51100000000E-03 0.  1.
         11   -1    0    0    0    0 -0.00000000000E+00 -0.00000000000E+00 -0.45593999997E+02  0.45594000000E+02  0.51100000000E-03 0. -1.
    9900012    2    1    2    0    0 -0.10096018264E+02  0.95206341199E+01 -0.12574036504E+02  0.72461589430E+02  0.70000024928E+02 0.  0.
         12    1    1    2    0    0  0.10096018264E+02 -0.95206341199E+01  0.12574036504E+02  0.18726410570E+02  0.00000000000E+00 0. -1.
         11    1    3    3    0    0  0.12975264359E+02 -0.65042325959E+01 -0.70028186720E+01  0.16115272149E+02  0.51100000000E-03 0. -1.
        -11    1    3    3    0    0 -0.13740106445E+02  0.30473999909E+02 -0.15102697756E+02  0.36681694009E+02  0.51100000000E-03 0.  1.
         12    1    3    3    0    0 -0.93311761776E+01 -0.14449133194E+02  0.95314799238E+01  0.19664623272E+02  0.00000000000E+00 0. -1.
</event>
<event>
 7    1  0.1302069E-013  0.7246152E+02  0.7816164E-02  0.1226708E+00
        -11   -1    0    0    0    0  0.00000000000E+00  0.00000000000E+00  0.45593999997E+02  0.45594000000E+02  0.51100000000E-03 0.  1.
         11   -1    0    0    0    0 -0.00000000000E+00 -0.00000000000E+00 -0.45593999997E+02  0.45594000000E+02  0.51100000000E-03 0. -1.
    9900012    2    1    2    0    0  0.10322710371E+02  0.14406572471E+02  0.60475775021E+01  0.72461524800E+02  0.69999940735E+02 0.  0.
         12    1    1    2    0    0 -0.10322710371E+02 -0.14406572471E+02 -0.60475775021E+01  0.18726475200E+02  0.00000000000E+00 0. -1.
         11    1    3    3    0    0 -0.17113006970E+02  0.13209689319E+02  0.18993662526E+02  0.28776902472E+02  0.51100000000E-03 0. -1.
        -11    1    3    3    0    0  0.17815933843E+02 -0.37582388630E+01  0.81703055893E+01  0.19957097779E+02  0.51100000000E-03 0.  1.
         12    1    3    3    0    0  0.96197834970E+01  0.49551220152E+01 -0.21116390613E+02  0.23727524550E+02  0.00000000000E+00 0. -1.
</event>
<event>
 7    1  0.1302069E-013  0.7246157E+02  0.7816164E-02  0.1226708E+00
        -11   -1    0    0    0    0  0.00000000000E+00  0.00000000000E+00  0.45593999997E+02  0.45594000000E+02  0.51100000000E-03 0.  1.
         11   -1    0    0    0    0 -0.00000000000E+00 -0.00000000000E+00 -0.45593999997E+02  0.45594000000E+02  0.51100000000E-03 0. -1.
    9900012    2    1    2    0    0 -0.18526552245E+02  0.16497593430E+01 -0.21735437117E+01  0.72461571183E+02  0.70000001157E+02 0.  0.
         12    1    1    2    0    0  0.18526552245E+02 -0.16497593430E+01  0.21735437117E+01  0.18726428817E+02  0.00000000000E+00 0. -1.
         11    1    3    3    0    0  0.12748640627E+00  0.11104884447E+02 -0.19392651590E+02  0.22347475188E+02  0.51100000000E-03 0. -1.
        -11    1    3    3    0    0 -0.17826914940E+02  0.69499509995E+01  0.25370538351E+02  0.31776798638E+02  0.51100000000E-03 0.  1.
         12    1    3    3    0    0 -0.82712371138E+00 -0.16405076103E+02 -0.81514304731E+01  0.18337297357E+02  0.00000000000E+00 0. -1.
</event>
<event>
 7    1  0.1302069E-013  0.7246161E+02  0.7816164E-02  0.1226708E+00
        -11   -1    0    0    0    0  0.00000000000E+00  0.00000000000E+00  0.45593999997E+02  0.45594000000E+02  0.51100000000E-03 0.  1.
         11   -1    0    0    0    0 -0.00000000000E+00 -0.00000000000E+00 -0.45593999997E+02  0.45594000000E+02  0.51100000000E-03 0. -1.
    9900012    2    1    2    0    0 -0.18049413662E+02  0.41014122576E+01 -0.28416432189E+01  0.72461605466E+02  0.70000045818E+02 0.  0.
         12    1    1    2    0    0  0.18049413662E+02 -0.41014122576E+01  0.28416432189E+01  0.18726394534E+02  0.00000000000E+00 0. -1.
         11    1    3    3    0    0  0.14832990976E+01 -0.13400915794E+02 -0.11663130087E+02  0.17827319597E+02  0.51100000000E-03 0. -1.
        -11    1    3    3    0    0 -0.52332145722E-01  0.28592587938E+02  0.13681635887E+02  0.31697412898E+02  0.51100000000E-03 0.  1.
         12    1    3    3    0    0 -0.19480380614E+02 -0.11090259887E+02 -0.48601490187E+01  0.22936872971E+02  0.00000000000E+00 0. -1.
</event>
<event>
 7    1  0.1302069E-013  0.7246157E+02  0.7816164E-02  0.1226708E+00
        -11   -1    0    0    0    0  0.00000000000E+00  0.00000000000E+00  0.45593999997E+02  0.45594000000E+02  0.51100000000E-03 0.  1.
         11   -1    0    0    0    0 -0.00000000000E+00 -0.00000000000E+00 -0.45593999997E+02  0.45594000000E+02  0.51100000000E-03 0. -1.
    9900012    2    1    2    0    0  0.10687350274E+02  0.12129969132E+02  0.94511151674E+01  0.72461569883E+02  0.69999999464E+02 0.  0.
         12    1    1    2    0    0 -0.10687350274E+02 -0.12129969132E+02 -0.94511151674E+01  0.18726430117E+02  0.00000000000E+00 0. -1.
         11    1    3    3    0    0 -0.24623179853E+01  0.15968154141E+02 -0.11739128204E+02  0.19971281576E+02  0.51100000000E-03 0. -1.
        -11    1    3    3    0    0  0.14474438561E+02  0.17325627972E+02  0.21650750265E+02  0.31280053446E+02  0.51100000000E-03 0.  1.
        -12    1    3    3    0    0 -0.13247703021E+01 -0.21163812981E+02 -0.46050689300E+00  0.21210234861E+02  0.00000000000E+00 0.  1.
</event>
<event>
 7    1  0.1302069E-013  0.7246152E+02  0.7816164E-02  0.1226708E+00
        -11   -1    0    0    0    0  0.00000000000E+00  0.00000000000E+00  0.45593999997E+02  0.45594000000E+02  0.51100000000E-03 0.  1.
         11   -1    0    0    0    0 -0.00000000000E+00 -0.00000000000E+00 -0.45593999997E+02  0.45594000000E+02  0.51100000000E-03 0. -1.
    9900012    2    1    2    0    0 -0.11629588103E+02  0.14376061471E+02  0.29601775976E+01  0.72461518369E+02  0.69999932358E+02 0.  0.
         12    1    1    2    0    0  0.11629588103E+02 -0.14376061471E+02 -0.29601775976E+01  0.18726481631E+02  0.00000000000E+00 0. -1.
         11    1    3    3    0    0  0.24019474259E+02  0.81308435756E+01  0.17629019842E+02  0.30884107593E+02  0.51100000000E-03 0.  1.
        -11    1    3    3    0    0 -0.19122604118E+02  0.10526978200E+02 -0.84875916640E+01  0.23420727376E+02  0.51100000000E-03 0. -1.
        -12    1    3    3    0    0 -0.16526458244E+02 -0.42817603048E+01 -0.61812505808E+01  0.18156683401E+02  0.00000000000E+00 0.  1.
</event>
<event>
 7    1  0.1302069E-013  0.7246161E+02  0.7816164E-02  0.1226708E+00
        -11   -1    0    0    0    0  0.00000000000E+00  0.00000000000E+00  0.45593999997E+02  0.45594000000E+02  0.51100000000E-03 0. -1.
         11   -1    0    0    0    0 -0.00000000000E+00 -0.00000000000E+00 -0.45593999997E+02  0.45594000000E+02  0.51100000000E-03 0.  1.
    9900012    2    1    2    0    0  0.17684413861E+02 -0.45938495006E+01  0.41031544349E+01  0.72461606243E+02  0.70000046829E+02 0.  0.
         12    1    1    2    0    0 -0.17684413861E+02  0.45938495006E+01 -0.41031544349E+01  0.18726393757E+02  0.00000000000E+00 0. -1.
         11    1    3    3    0    0  0.32137032111E+02 -0.10958419906E+02 -0.18659356340E+01  0.34005257179E+02  0.51100000000E-03 0. -1.
        -11    1    3    3    0    0 -0.58626648944E+01  0.51725690833E+01 -0.14362421310E+02  0.16352536706E+02  0.51100000000E-03 0.  1.
         12    1    3    3    0    0 -0.85899533560E+01  0.11920013223E+01  0.20331511379E+02  0.22103812358E+02  0.00000000000E+00 0. -1.
</event>
<event>
 7    1  0.1302069E-013  0.7246151E+02  0.7816164E-02  0.1226708E+00
        -11   -1    0    0    0    0  0.00000000000E+00  0.00000000000E+00  0.45593999997E+02  0.45594000000E+02  0.51100000000E-03 0.  1.
         11   -1    0    0    0    0 -0.00000000000E+00 -0.00000000000E+00 -0.45593999997E+02  0.45594000000E+02  0.51100000000E-03 0. -1.
    9900012    2    1    2    0    0  0.11506050001E+02  0.56830408573E+01 -0.13638008193E+02  0.72461510540E+02  0.69999922159E+02 0.  0.
         12    1    1    2    0    0 -0.11506050001E+02 -0.56830408573E+01  0.13638008193E+02  0.18726489460E+02  0.00000000000E+00 0. -1.
         11    1    3    3    0    0 -0.92523460265E+01 -0.14593791610E+02 -0.17734477358E+02  0.24760782459E+02  0.51100000000E-03 0. -1.
        -11    1    3    3    0    0  0.98069004564E+01  0.18988332299E+02  0.19383078801E+02  0.28851963610E+02  0.51100000000E-03 0.  1.
         12    1    3    3    0    0  0.10951495572E+02  0.12885001676E+01 -0.15286609636E+02  0.18848764472E+02  0.00000000000E+00 0. -1.
</event>
<event>
 7    1  0.1302069E-013  0.7246153E+02  0.7816164E-02  0.1226708E+00
        -11   -1    0    0    0    0  0.00000000000E+00  0.00000000000E+00  0.45593999997E+02  0.45594000000E+02  0.51100000000E-03 0.  1.
         11   -1    0    0    0    0 -0.00000000000E+00 -0.00000000000E+00 -0.45593999997E+02  0.45594000000E+02  0.51100000000E-03 0. -1.
    9900012    2    1    2    0    0  0.12362810694E+02  0.43424719619E+01  0.13378504701E+02  0.72461533728E+02  0.69999952366E+02 0.  0.
         12    1    1    2    0    0 -0.12362810694E+02 -0.43424719619E+01 -0.13378504701E+02  0.18726466272E+02  0.00000000000E+00 0. -1.
         11    1    3    3    0    0  0.19627717746E+02  0.15165542924E+01  0.17369352885E+02  0.26253412364E+02  0.51100000000E-03 0.  1.
        -11    1    3    3    0    0 -0.12299049644E+02  0.22495899473E+02 -0.76813864608E+00  0.25649993226E+02  0.51100000000E-03 0. -1.
        -12    1    3    3    0    0  0.50341425923E+01 -0.19669981803E+02 -0.32227095383E+01  0.20558128138E+02  0.00000000000E+00 0.  1.
</event>
<event>
 7    1  0.1302069E-013  0.7246152E+02  0.7816164E-02  0.1226708E+00
        -11   -1    0    0    0    0  0.00000000000E+00  0.00000000000E+00  0.45593999997E+02  0.45594000000E+02  0.51100000000E-03 0. -1.
         11   -1    0    0    0    0 -0.00000000000E+00 -0.00000000000E+00 -0.45593999997E+02  0.45594000000E+02  0.51100000000E-03 0.  1.
    9900012    2    1    2    0    0  0.57621523581E+01 -0.10195852202E+01 -0.17788734245E+02  0.72461520890E+02  0.69999935642E+02 0.  0.
         12    1    1    2    0    0 -0.57621523581E+01  0.10195852202E+01  0.17788734245E+02  0.18726479110E+02  0.00000000000E+00 0. -1.
         11    1    3    3    0    0  0.15851302041E+02  0.61387206357E+01  0.18663446344E+02  0.25244244832E+02  0.51100000000E-03 0. -1.
        -11    1    3    3    0    0  0.49038767207E+01 -0.12530215507E+02 -0.21552141311E+02  0.25407658352E+02  0.51100000000E-03 0.  1.
         12    1    3    3    0    0 -0.14993026404E+02  0.53719096512E+01 -0.14900039277E+02  0.21809617707E+02  0.00000000000E+00 0. -1.
</event>
<event>
 7    1  0.1302069E-013  0.7246157E+02  0.7816164E-02  0.1226708E+00
        -11   -1    0    0    0    0  0.00000000000E+00  0.00000000000E+00  0.45593999997E+02  0.45594000000E+02  0.51100000000E-03 0.  1.
         11   -1    0    0    0    0 -0.00000000000E+00 -0.00000000000E+00 -0.45593999997E+02  0.45594000000E+02  0.51100000000E-03 0. -1.
    9900012    2    1    2    0    0  0.18459019721E+02  0.27123531053E+01  0.16083323493E+01  0.72461574784E+02  0.70000005848E+02 0.  0.
         12    1    1    2    0    0 -0.18459019721E+02 -0.27123531053E+01 -0.16083323493E+01  0.18726425216E+02  0.00000000000E+00 0. -1.
         11    1    3    3    0    0 -0.16638553894E+02  0.79181112183E+01 -0.18503982543E+02  0.26113891536E+02  0.51100000000E-03 0. -1.
        -11    1    3    3    0    0  0.17450233494E+02 -0.11954894368E+02  0.17132082565E+02  0.27220183717E+02  0.51100000000E-03 0.  1.
         12    1    3    3    0    0  0.17647340122E+02  0.67491362548E+01  0.29802323273E+01  0.19127499530E+02  0.00000000000E+00 0. -1.
</event>
<event>
 7    1  0.1302069E-013  0.7246156E+02  0.7816164E-02  0.1226708E+00
        -11   -1    0    0    0    0  0.00000000000E+00  0.00000000000E+00  0.45593999997E+02  0.45594000000E+02  0.51100000000E-03 0.  1.
         11   -1    0    0    0    0 -0.00000000000E+00 -0.00000000000E+00 -0.45593999997E+02  0.45594000000E+02  0.51100000000E-03 0. -1.
    9900012    2    1    2    0    0  0.50533991349E+01  0.10840718134E+02  0.14409078857E+02  0.72461559709E+02  0.69999986210E+02 0.  0.
         12    1    1    2    0    0 -0.50533991349E+01 -0.10840718134E+02 -0.14409078857E+02  0.18726440291E+02  0.00000000000E+00 0. -1.
         11    1    3    3    0    0  0.13786907288E+02  0.24923807421E+02  0.14912496197E+02  0.32150544817E+02  0.51100000000E-03 0.  1.
        -11    1    3    3    0    0 -0.15971902797E+02  0.41698265080E+01 -0.91299553380E+01  0.18863860072E+02  0.51100000000E-03 0. -1.
         12    1    3    3    0    0  0.72383946447E+01 -0.18252915795E+02  0.86265379971E+01  0.21447154820E+02  0.00000000000E+00 0. -1.
</event>
<event>
 7    1  0.1302069E-013  0.7246198E+02  0.7816164E-02  0.1226707E+00
        -11   -1    0    0    0    0  0.00000000000E+00  0.00000000000E+00  0.45593999997E+02  0.45594000000E+02  0.51100000000E-03 0.  1.
         11   -1    0    0    0    0 -0.00000000000E+00 -0.00000000000E+00 -0.45593999997E+02  0.45594000000E+02  0.51100000000E-03 0. -1.
    9900012    2    1    2    0    0 -0.83430522653E+01 -0.10912289648E+02  0.12727101582E+02  0.72461983308E+02  0.70000538025E+02 0.  0.
         12    1    1    2    0    0  0.83430522653E+01  0.10912289648E+02 -0.12727101582E+02  0.18726016692E+02  0.00000000000E+00 0. -1.
         11    1    3    3    0    0  0.17295030165E+02 -0.26959555669E+02  0.75701527435E+01  0.32912655972E+02  0.51100000000E-03 0. -1.
        -11    1    3    3    0    0  0.51021531912E+00  0.12822851229E+02  0.93705101196E+00  0.12867163563E+02  0.51100000000E-03 0.  1.
         12    1    3    3    0    0 -0.26148297750E+02  0.32244147927E+01  0.42198978265E+01  0.26682163773E+02  0.00000000000E+00 0. -1.
</event>
<event>
 7    1  0.1302069E-013  0.7246163E+02  0.7816164E-02  0.1226708E+00
        -11   -1    0    0    0    0  0.00000000000E+00  0.00000000000E+00  0.45593999997E+02  0.45594000000E+02  0.51100000000E-03 0.  1.
         11   -1    0    0    0    0 -0.00000000000E+00 -0.00000000000E+00 -0.45593999997E+02  0.45594000000E+02  0.51100000000E-03 0. -1.
    9900012    2    1    2    0    0 -0.17303073127E+02 -0.12641114009E+01  0.70485979759E+01  0.72461626867E+02  0.70000073697E+02 0.  0.
         12    1    1    2    0    0  0.17303073127E+02  0.12641114009E+01 -0.70485979759E+01  0.18726373133E+02  0.00000000000E+00 0. -1.
         11    1    3    3    0    0 -0.16057557854E+02  0.10663170650E+02 -0.18395349316E+02  0.26644647667E+02  0.51100000000E-03 0. -1.
        -11    1    3    3    0    0 -0.69135448828E+01  0.30860902587E+01  0.28493422099E+02  0.29482132879E+02  0.51100000000E-03 0.  1.
        -12    1    3    3    0    0  0.56680296101E+01 -0.15013372310E+02 -0.30494748068E+01  0.16334846322E+02  0.00000000000E+00 0.  1.
</event>
<event>
 7    1  0.1302069E-013  0.7246163E+02  0.7816164E-02  0.1226708E+00
        -11   -1    0    0    0    0  0.00000000000E+00  0.00000000000E+00  0.45593999997E+02  0.45594000000E+02  0.51100000000E-03 0.  1.
         11   -1    0    0    0    0 -0.00000000000E+00 -0.00000000000E+00 -0.45593999997E+02  0.45594000000E+02  0.51100000000E-03 0. -1.
    9900012    2    1    2    0    0 -0.18290405452E+02 -0.37906248338E+01 -0.13300976874E+01  0.72461630141E+02  0.70000077962E+02 0.  0.
         12    1    1    2    0    0  0.18290405452E+02  0.37906248338E+01  0.13300976874E+01  0.18726369859E+02  0.00000000000E+00 0. -1.
         11    1    3    3    0    0 -0.28714953232E+02 -0.67298449408E+01  0.20031128543E+02  0.35652285523E+02  0.51100000000E-03 0.  1.
        -11    1    3    3    0    0 -0.20441526720E+01  0.88943952161E+01 -0.21099929801E+02  0.22989037915E+02  0.51100000000E-03 0. -1.
         12    1    3    3    0    0  0.12468700452E+02 -0.59551751090E+01 -0.26129642891E+00  0.13820306703E+02  0.00000000000E+00 0. -1.
</event>
<event>
 7    1  0.1302069E-013  0.7246158E+02  0.7816164E-02  0.1226708E+00
        -11   -1    0    0    0    0  0.00000000000E+00  0.00000000000E+00  0.45593999997E+02  0.45594000000E+02  0.51100000000E-03 0.  1.
         11   -1    0    0    0    0 -0.00000000000E+00 -0.00000000000E+00 -0.45593999997E+02  0.45594000000E+02  0.51100000000E-03 0. -1.
    9900012    2    1    2    0    0 -0.93312325409E+01  0.16136612067E+02 -0.17935173710E+01  0.72461578711E+02  0.70000010964E+02 0.  0.
         12    1    1    2    0    0  0.93312325409E+01 -0.16136612067E+02  0.17935173710E+01  0.18726421289E+02  0.00000000000E+00 0. -1.
         11    1    3    3    0    0  0.10838533371E+02  0.14471481310E+02  0.23948572005E+02  0.30007193775E+02  0.51100000000E-03 0.  1.
        -11    1    3    3    0    0 -0.26925045727E+02  0.73930616486E+00 -0.20214881604E+02  0.33677085675E+02  0.51100000000E-03 0. -1.
        -12    1    3    3    0    0  0.67552798155E+01  0.92582459264E+00 -0.55272077720E+01  0.87772992610E+01  0.00000000000E+00 0.  1.
</event>
<event>
 7    1  0.1302069E-013  0.7246163E+02  0.7816164E-02  0.1226708E+00
        -11   -1    0    0    0    0  0.00000000000E+00  0.00000000000E+00  0.45593999997E+02  0.45594000000E+02  0.51100000000E-03 0.  1.
         11   -1    0    0    0    0 -0.00000000000E+00 -0.00000000000E+00 -0.45593999997E+02  0.45594000000E+02  0.51100000000E-03 0. -1.
    9900012    2    1    2    0    0  0.16425315699E+02  0.12677132608E+01  0.89038743230E+01  0.72461626334E+02  0.70000073002E+02 0.  0.
         12    1    1    2    0    0 -0.16425315699E+02 -0.12677132608E+01 -0.89038743230E+01  0.18726373666E+02  0.00000000000E+00 0. -1.
         11    1    3    3    0    0 -0.11323868751E+02 -0.21187243134E+02 -0.91535453233E+01  0.25708299581E+02  0.51100000000E-03 0.  1.
        -11    1    3    3    0    0  0.21810060064E+02  0.11419944035E+02  0.22604234439E+02  0.33422226984E+02  0.51100000000E-03 0. -1.
         12    1    3    3    0    0  0.59391243864E+01  0.11035012360E+02 -0.45468147925E+01  0.13331099768E+02  0.00000000000E+00 0. -1.
</event>
<event>
 7    1  0.1302069E-013  0.7246184E+02  0.7816164E-02  0.1226707E+00
        -11   -1    0    0    0    0  0.00000000000E+00  0.00000000000E+00  0.45593999997E+02  0.45594000000E+02  0.51100000000E-03 0. -1.
         11   -1    0    0    0    0 -0.00000000000E+00 -0.00000000000E+00 -0.45593999997E+02  0.45594000000E+02  0.51100000000E-03 0.  1.
    9900012    2    1    2    0    0 -0.13119626227E+02  0.12726310885E+02  0.40725301972E+01  0.72461839601E+02  0.70000350822E+02 0.  0.
         12    1    1    2    0    0  0.13119626227E+02 -0.12726310885E+02 -0.40725301972E+01  0.18726160399E+02  0.00000000000E+00 0. -1.
         11    1    3    3    0    0  0.67503103577E+01 -0.87018053602E+01  0.32958886636E+01  0.11495694359E+02  0.51100000000E-03 0. -1.
        -11    1    3    3    0    0 -0.72680745587E+01  0.17246569793E+02  0.26250857693E+02  0.32239364250E+02  0.51100000000E-03 0.  1.
        -12    1    3    3    0    0 -0.12601862026E+02  0.41815464522E+01 -0.25474216159E+02  0.28726780992E+02  0.00000000000E+00 0.  1.
</event>
<event>
 7    1  0.1302069E-013  0.7246158E+02  0.7816164E-02  0.1226708E+00
        -11   -1    0    0    0    0  0.00000000000E+00  0.00000000000E+00  0.45593999997E+02  0.45594000000E+02  0.51100000000E-03 0.  1.
         11   -1    0    0    0    0 -0.00000000000E+00 -0.00000000000E+00 -0.45593999997E+02  0.45594000000E+02  0.51100000000E-03 0. -1.
    9900012    2    1    2    0    0 -0.13482822836E+02  0.38983296920E+01  0.12397387048E+02  0.72461583054E+02  0.70000016622E+02 0.  0.
         12    1    1    2    0    0  0.13482822836E+02 -0.38983296920E+01 -0.12397387048E+02  0.18726416946E+02  0.00000000000E+00 0. -1.
         11    1    3    3    0    0  0.38628936654E+01 -0.11496159836E+01  0.18728678118E+01  0.44442320463E+01  0.51100000000E-03 0. -1.
        -11    1    3    3    0    0 -0.68954965937E+01  0.26611593968E+02 -0.16370796159E+02  0.31995746185E+02  0.51100000000E-03 0.  1.
        -12    1    3    3    0    0 -0.10450219908E+02 -0.21563648292E+02  0.26895315395E+02  0.36021604823E+02  0.00000000000E+00 0.  1.
</event>
<event>
 8    1  0.1302069E-013  0.7246158E+02  0.7816164E-02  0.1226708E+00
        -11   -1    0    0    0    0  0.00000000000E+00  0.00000000000E+00  0.45593999997E+02  0.45594000000E+02  0.51100000000E-03 0. -1.
         11   -1    0    0    0    0 -0.00000000000E+00 -0.00000000000E+00 -0.45593999997E+02  0.45594000000E+02  0.51100000000E-03 0.  1.
    9900012    2    1    2    0    0  0.26516539072E+01 -0.13884612818E+02 -0.12282721224E+02  0.72461575296E+02  0.70000006515E+02 0.  0.
         24    2    3    3    0    0 -0.79734211449E+01 -0.85669079356E+01 -0.21134549585E+02  0.57645196835E+02  0.52338629861E+02 0.  0.
         12    1    1    2    0    0 -0.26516539072E+01  0.13884612818E+02  0.12282721224E+02  0.18726424704E+02  0.00000000000E+00 0. -1.
         11    1    3    3    0    0  0.10625075052E+02 -0.53177048821E+01  0.88518283612E+01  0.14816378460E+02  0.51100000000E-03 0. -1.
        -11    1    4    4    0    0  0.63845314483E+01  0.37293027096E+01 -0.33989750795E+02  0.34784667598E+02  0.51100000000E-03 0.  1.
         12    1    4    4    0    0 -0.14357952593E+02 -0.12296210645E+02  0.12855201209E+02  0.22860529238E+02  0.00000000000E+00 0. -1.
</event>
<event>
 7    1  0.1302069E-013  0.7246166E+02  0.7816164E-02  0.1226708E+00
        -11   -1    0    0    0    0  0.00000000000E+00  0.00000000000E+00  0.45593999997E+02  0.45594000000E+02  0.51100000000E-03 0.  1.
         11   -1    0    0    0    0 -0.00000000000E+00 -0.00000000000E+00 -0.45593999997E+02  0.45594000000E+02  0.51100000000E-03 0. -1.
    9900012    2    1    2    0    0  0.49732854128E+01  0.12015435536E+02  0.13474855655E+02  0.72461655086E+02  0.70000110457E+02 0.  0.
         12    1    1    2    0    0 -0.49732854128E+01 -0.12015435536E+02 -0.13474855655E+02  0.18726344914E+02  0.00000000000E+00 0. -1.
         11    1    3    3    0    0 -0.63864430755E+01 -0.18208609456E+02  0.78009903015E+01  0.20813350605E+02  0.51100000000E-03 0.  1.
        -11    1    3    3    0    0  0.73329815293E+01  0.23725546320E+02  0.22282652878E+02  0.33364513871E+02  0.51100000000E-03 0. -1.
         12    1    3    3    0    0  0.40267469590E+01  0.64984986716E+01 -0.16608787525E+02  0.18283790611E+02  0.00000000000E+00 0. -1.
</event>
<event>
 7    1  0.1302069E-013  0.7246159E+02  0.7816164E-02  0.1226708E+00
        -11   -1    0    0    0    0  0.00000000000E+00  0.00000000000E+00  0.45593999997E+02  0.45594000000E+02  0.51100000000E-03 0.  1.
         11   -1    0    0    0    0 -0.00000000000E+00 -0.00000000000E+00 -0.45593999997E+02  0.45594000000E+02  0.51100000000E-03 0. -1.
    9900012    2    1    2    0    0 -0.77264643307E+01  0.51611712388E+01  0.16258607782E+02  0.72461594402E+02  0.70000031405E+02 0.  0.
         12    1    1    2    0    0  0.77264643307E+01 -0.51611712388E+01 -0.16258607782E+02  0.18726405598E+02  0.00000000000E+00 0. -1.
         11    1    3    3    0    0  0.12225800671E+02 -0.17719648716E+02  0.18031762493E+02  0.28082033608E+02  0.51100000000E-03 0. -1.
        -11    1    3    3    0    0 -0.18676823723E+02 -0.22124286484E+01 -0.37450761948E+01  0.19176657187E+02  0.51100000000E-03 0.  1.
        -12    1    3    3    0    0 -0.12754412785E+01  0.25093248603E+02  0.19719214834E+01  0.25202903608E+02  0.00000000000E+00 0.  1.
</event>
<event>
 7    1  0.1302069E-013  0.7246158E+02  0.7816164E-02  0.1226708E+00
        -11   -1    0    0    0    0  0.00000000000E+00  0.00000000000E+00  0.45593999997E+02  0.45594000000E+02  0.51100000000E-03 0.  1.
         11   -1    0    0    0    0 -0.00000000000E+00 -0.00000000000E+00 -0.45593999997E+02  0.45594000000E+02  0.51100000000E-03 0. -1.
    9900012    2    1    2    0    0 -0.11313675553E+01 -0.51505281859E+01  0.17968606887E+02  0.72461581052E+02  0.70000014014E+02 0.  0.
         12    1    1    2    0    0  0.11313675553E+01  0.51505281859E+01 -0.17968606887E+02  0.18726418948E+02  0.00000000000E+00 0. -1.
         11    1    3    3    0    0 -0.14418246868E+02 -0.68732121318E+01  0.24987452073E+02  0.29656359336E+02  0.51100000000E-03 0.  1.
        -11    1    3    3    0    0  0.23167370742E+02  0.12610957826E+02 -0.92117571924E+01  0.27939573999E+02  0.51100000000E-03 0. -1.
         12    1    3    3    0    0 -0.98804914297E+01 -0.10888273880E+02  0.21929120067E+01  0.14865647717E+02  0.00000000000E+00 0. -1.
</event>
<event>
 7    1  0.1302069E-013  0.7246104E+02  0.7816164E-02  0.1226709E+00
        -11   -1    0    0    0    0  0.00000000000E+00  0.00000000000E+00  0.45593999997E+02  0.45594000000E+02  0.51100000000E-03 0. -1.
         11   -1    0    0    0    0 -0.00000000000E+00 -0.00000000000E+00 -0.45593999997E+02  0.45594000000E+02  0.51100000000E-03 0.  1.
    9900012    2    1    2    0    0 -0.84244429660E+01  0.15135059441E+02 -0.71174222473E+01  0.72461041811E+02  0.69999311549E+02 0.  0.
         12    1    1    2    0    0  0.84244429660E+01 -0.15135059441E+02  0.71174222473E+01  0.18726958189E+02  0.00000000000E+00 0. -1.
         11    1    3    3    0    0 -0.22674576085E+02  0.28243846517E+02 -0.48604399697E+01  0.36544153345E+02  0.51100000000E-03 0. -1.
        -11    1    3    3    0    0  0.11794336739E+02 -0.13851783290E+02 -0.14589563183E+02  0.23320240856E+02  0.51100000000E-03 0.  1.
        -12    1    3    3    0    0  0.24557963797E+01  0.74299621421E+00  0.12332580905E+02  0.12596647610E+02  0.00000000000E+00 0.  1.
</event>
<event>
 7    1  0.1302069E-013  0.7246157E+02  0.7816164E-02  0.1226708E+00
        -11   -1    0    0    0    0  0.00000000000E+00  0.00000000000E+00  0.45593999997E+02  0.45594000000E+02  0.51100000000E-03 0. -1.
         11   -1    0    0    0    0 -0.00000000000E+00 -0.00000000000E+00 -0.45593999997E+02  0.45594000000E+02  0.51100000000E-03 0.  1.
    9900012    2    1    2    0    0 -0.61749939214E+01 -0.88061357168E+01 -0.15329732435E+02  0.72461567539E+02  0.69999996410E+02 0.  0.
         12    1    1    2    0    0  0.61749939214E+01  0.88061357168E+01  0.15329732435E+02  0.18726432461E+02  0.00000000000E+00 0. -1.
         11    1    3    3    0    0 -0.22019755909E+02 -0.21555548154E+02 -0.23323407593E+01  0.30902283414E+02  0.51100000000E-03 0. -1.
        -11    1    3    3    0    0  0.27995601678E+01  0.82755415912E+01 -0.22947009078E+02  0.24553764511E+02  0.51100000000E-03 0.  1.
         12    1    3    3    0    0  0.13045201820E+02  0.44738708461E+01  0.99496174025E+01  0.17005519614E+02  0.00000000000E+00 0. -1.
</event>
<event>
 7    1  0.1302069E-013  0.7246135E+02  0.7816164E-02  0.1226709E+00
        -11   -1    0    0    0    0  0.00000000000E+00  0.00000000000E+00  0.45593999997E+02  0.45594000000E+02  0.51100000000E-03 0.  1.
         11   -1    0    0    0    0 -0.00000000000E+00 -0.00000000000E+00 -0.45593999997E+02  0.45594000000E+02  0.51100000000E-03 0. -1.
    9900012    2    1    2    0    0  0.77696562985E+01  0.65161683979E+01  0.15743556401E+02  0.72461345794E+02  0.69999707546E+02 0.  0.
         12    1    1    2    0    0 -0.77696562985E+01 -0.65161683979E+01 -0.15743556401E+02  0.18726654206E+02  0.00000000000E+00 0. -1.
         11    1    3    3    0    0 -0.11212171587E+02  0.15232543639E+02 -0.24029785660E+01  0.19066134471E+02  0.51100000000E-03 0. -1.
        -11    1    3    3    0    0  0.22998052129E+02  0.12529885119E+02  0.17302415501E+01  0.26246945706E+02  0.51100000000E-03 0.  1.
         12    1    3    3    0    0 -0.40162242425E+01 -0.21246260360E+02  0.16416293417E+02  0.27148265617E+02  0.00000000000E+00 0. -1.
</event>
<event>
 7    1  0.1302069E-013  0.7246162E+02  0.7816164E-02  0.1226708E+00
        -11   -1    0    0    0    0  0.00000000000E+00  0.00000000000E+00  0.45593999997E+02  0.45594000000E+02  0.51100000000E-03 0.  1.
         11   -1    0    0    0    0 -0.00000000000E+00 -0.00000000000E+00 -0.45593999997E+02  0.45594000000E+02  0.51100000000E-03 0. -1.
    9900012    2    1    2    0    0 -0.10319294301E+02  0.11309279477E+02  0.10783770366E+02  0.72461619131E+02  0.70000063618E+02 0.  0.
         12    1    1    2    0    0  0.10319294301E+02 -0.11309279477E+02 -0.10783770366E+02  0.18726380869E+02  0.00000000000E+00 0. -1.
         11    1    3    3    0    0 -0.76454861280E+00  0.20012817404E+02  0.11336345856E+02  0.23013259931E+02  0.51100000000E-03 0. -1.
        -11    1    3    3    0    0 -0.22522591443E+02 -0.30380962473E+01  0.15907961768E+02  0.27740951714E+02  0.51100000000E-03 0.  1.
        -12    1    3    3    0    0  0.12967845755E+02 -0.56654416795E+01 -0.16460537258E+02  0.21707407486E+02  0.00000000000E+00 0.  1.
</event>
<event>
 7    1  0.1302069E-013  0.7246140E+02  0.7816164E-02  0.1226708E+00
        -11   -1    0    0    0    0  0.00000000000E+00  0.00000000000E+00  0.45593999997E+02  0.45594000000E+02  0.51100000000E-03 0. -1.
         11   -1    0    0    0    0 -0.00000000000E+00 -0.00000000000E+00 -0.45593999997E+02  0.45594000000E+02  0.51100000000E-03 0.  1.
    9900012    2    1    2    0    0  0.11910820656E+02  0.11745910998E+02 -0.84173333116E+01  0.72461399296E+02  0.69999777242E+02 0.  0.
         12    1    1    2    0    0 -0.11910820656E+02 -0.11745910998E+02  0.84173333116E+01  0.18726600704E+02  0.00000000000E+00 0. -1.
         11    1    3    3    0    0 -0.14448045084E+02 -0.11791118837E+02  0.64568488778E+01  0.19734928120E+02  0.51100000000E-03 0. -1.
        -11    1    3    3    0    0  0.34272376484E+02  0.19109591984E+02 -0.17950756483E+02  0.43150920665E+02  0.51100000000E-03 0.  1.
         12    1    3    3    0    0 -0.79135107437E+01  0.44274378507E+01  0.30765742932E+01  0.95755505113E+01  0.00000000000E+00 0. -1.
</event>
<event>
 7    1  0.1302069E-013  0.7246157E+02  0.7816164E-02  0.1226708E+00
        -11   -1    0    0    0    0  0.00000000000E+00  0.00000000000E+00  0.45593999997E+02  0.45594000000E+02  0.51100000000E-03 0. -1.
         11   -1    0    0    0    0 -0.00000000000E+00 -0.00000000000E+00 -0.45593999997E+02  0.45594000000E+02  0.51100000000E-03 0.  1.
    9900012    2    1    2    0    0 -0.19003218181E+01 -0.15183140873E+02  0.10795376205E+02  0.72461571157E+02  0.70000001124E+02 0.  0.
         12    1    1    2    0    0  0.19003218181E+01  0.15183140873E+02 -0.10795376205E+02  0.18726428843E+02  0.00000000000E+00 0. -1.
         11    1    3    3    0    0 -0.14984261420E+02  0.61434696971E+01 -0.19209798447E+02  0.25125418740E+02  0.51100000000E-03 0. -1.
        -11    1    3    3    0    0  0.19423677647E+02 -0.64970090441E+01  0.17039028398E+02  0.26642426107E+02  0.51100000000E-03 0.  1.
         12    1    3    3    0    0 -0.63397380450E+01 -0.14829601526E+02  0.12966146254E+02  0.20693726310E+02  0.00000000000E+00 0. -1.
</event>
<event>
 7    1  0.1302069E-013  0.7246152E+02  0.7816164E-02  0.1226708E+00
        -11   -1    0    0    0    0  0.00000000000E+00  0.00000000000E+00  0.45593999997E+02  0.45594000000E+02  0.51100000000E-03 0.  1.
         11   -1    0    0    0    0 -0.00000000000E+00 -0.00000000000E+00 -0.45593999997E+02  0.45594000000E+02  0.51100000000E-03 0. -1.
    9900012    2    1    2    0    0  0.68950793137E+01 -0.90366292354E+01  0.14882144701E+02  0.72461520951E+02  0.69999935721E+02 0.  0.
         12    1    1    2    0    0 -0.68950793137E+01  0.90366292354E+01 -0.14882144701E+02  0.18726479049E+02  0.00000000000E+00 0. -1.
         11    1    3    3    0    0 -0.95731808688E+01 -0.45769452299E+01 -0.23054016989E+02  0.25378769063E+02  0.51100000000E-03 0. -1.
        -11    1    3    3    0    0  0.12851361798E+02 -0.54256771889E+01  0.64394039018E+01  0.15364289632E+02  0.51100000000E-03 0.  1.
         12    1    3    3    0    0  0.36168983841E+01  0.96599318343E+00  0.31496757787E+02  0.31718462256E+02  0.00000000000E+00 0. -1.
</event>
<event>
 7    1  0.1302069E-013  0.7246159E+02  0.7816164E-02  0.1226708E+00
        -11   -1    0    0    0    0  0.00000000000E+00  0.00000000000E+00  0.45593999997E+02  0.45594000000E+02  0.51100000000E-03 0. -1.
         11   -1    0    0    0    0 -0.00000000000E+00 -0.00000000000E+00 -0.45593999997E+02  0.45594000000E+02  0.51100000000E-03 0.  1.
    9900012    2    1    2    0    0 -0.97808272581E+01  0.87846852719E+01 -0.13335778695E+02  0.72461594296E+02  0.70000031267E+02 0.  0.
         12    1    1    2    0    0  0.97808272581E+01 -0.87846852719E+01  0.13335778695E+02  0.18726405704E+02  0.00000000000E+00 0. -1.
         11    1    3    3    0    0 -0.25891581188E+01 -0.24494984654E+02 -0.19617364605E+02  0.31488871166E+02  0.51100000000E-03 0.  1.
        -11    1    3    3    0    0 -0.14026870918E+01  0.20730793365E+02  0.14084806997E+02  0.25102093798E+02  0.51100000000E-03 0. -1.
        -12    1    3    3    0    0 -0.57889820474E+01  0.12548876561E+02 -0.78032210869E+01  0.15870629333E+02  0.00000000000E+00 0.  1.
</event>
<event>
 7    1  0.1302069E-013  0.7246159E+02  0.7816164E-02  0.1226708E+00
        -11   -1    0    0    0    0  0.00000000000E+00  0.00000000000E+00  0.45593999997E+02  0.45594000000E+02  0.51100000000E-03 0. -1.
         11   -1    0    0    0    0 -0.00000000000E+00 -0.00000000000E+00 -0.45593999997E+02  0.45594000000E+02  0.51100000000E-03 0.  1.
    9900012    2    1    2    0    0  0.11615946356E+02 -0.62776641349E+01  0.13279278282E+02  0.72461587946E+02  0.70000022994E+02 0.  0.
         12    1    1    2    0    0 -0.11615946356E+02  0.62776641349E+01 -0.13279278282E+02  0.18726412054E+02  0.00000000000E+00 0. -1.
         11    1    3    3    0    0 -0.66059799460E+01 -0.16941918456E+02  0.19374242059E+02  0.26571202977E+02  0.51100000000E-03 0. -1.
        -11    1    3    3    0    0  0.12669693219E+02  0.26136503012E+02 -0.39342828709E+01  0.29310689141E+02  0.51100000000E-03 0.  1.
         12    1    3    3    0    0  0.55522330833E+01 -0.15472248691E+02 -0.21606809054E+01  0.16579695827E+02  0.00000000000E+00 0. -1.
</event>
<event>
 7    1  0.1302069E-013  0.7246159E+02  0.7816164E-02  0.1226708E+00
        -11   -1    0    0    0    0  0.00000000000E+00  0.00000000000E+00  0.45593999997E+02  0.45594000000E+02  0.51100000000E-03 0.  1.
         11   -1    0    0    0    0 -0.00000000000E+00 -0.00000000000E+00 -0.45593999997E+02  0.45594000000E+02  0.51100000000E-03 0. -1.
    9900012    2    1    2    0    0  0.14787676181E+02 -0.44349462938E+01  0.10598783370E+02  0.72461592860E+02  0.70000029396E+02 0.  0.
         12    1    1    2    0    0 -0.14787676181E+02  0.44349462938E+01 -0.10598783370E+02  0.18726407140E+02  0.00000000000E+00 0. -1.
         11    1    3    3    0    0 -0.17142439202E+02 -0.16115631856E+02 -0.47880754014E+01  0.24010466014E+02  0.51100000000E-03 0. -1.
        -11    1    3    3    0    0  0.11682276360E+02  0.92384219515E+01  0.22386939009E+02  0.26888641832E+02  0.51100000000E-03 0.  1.
         12    1    3    3    0    0  0.20247839023E+02  0.24422636106E+01 -0.70000802373E+01  0.21562485014E+02  0.00000000000E+00 0. -1.
</event>
<event>
 7    1  0.1302069E-013  0.7246152E+02  0.7816164E-02  0.1226708E+00
        -11   -1    0    0    0    0  0.00000000000E+00  0.00000000000E+00  0.45593999997E+02  0.45594000000E+02  0.51100000000E-03 0.  1.
         11   -1    0    0    0    0 -0.00000000000E+00 -0.00000000000E+00 -0.45593999997E+02  0.45594000000E+02  0.51100000000E-03 0. -1.
    9900012    2    1    2    0    0  0.67412304721E+01 -0.32908378700E+01  0.17158301022E+02  0.72461518853E+02  0.69999932989E+02 0.  0.
         12    1    1    2    0    0 -0.67412304721E+01  0.32908378700E+01 -0.17158301022E+02  0.18726481147E+02  0.00000000000E+00 0. -1.
         11    1    3    3    0    0  0.10521841571E+02 -0.84957917033E+01 -0.14245400241E+01  0.13598416866E+02  0.51100000000E-03 0. -1.
        -11    1    3    3    0    0  0.92491218404E+00  0.77941904697E+01  0.37956103951E+02  0.38759136923E+02  0.51100000000E-03 0.  1.
        -12    1    3    3    0    0 -0.47055232834E+01 -0.25892366363E+01 -0.19373262905E+02  0.20103965064E+02  0.00000000000E+00 0.  1.
</event>
<event>
 7    1  0.1302069E-013  0.7246165E+02  0.7816164E-02  0.1226708E+00
        -11   -1    0    0    0    0  0.00000000000E+00  0.00000000000E+00  0.45593999997E+02  0.45594000000E+02  0.51100000000E-03 0.  1.
         11   -1    0    0    0    0 -0.00000000000E+00 -0.00000000000E+00 -0.45593999997E+02  0.45594000000E+02  0.51100000000E-03 0. -1.
    9900012    2    1    2    0    0  0.14865721853E+02 -0.33552173923E+01  0.10882512211E+02  0.72461648461E+02  0.70000101827E+02 0.  0.
         12    1    1    2    0    0 -0.14865721853E+02  0.33552173923E+01 -0.10882512211E+02  0.18726351539E+02  0.00000000000E+00 0. -1.
         11    1    3    3    0    0 -0.13745553616E+02 -0.16129364546E+02 -0.14309378761E+02  0.25570587902E+02  0.51100000000E-03 0. -1.
        -11    1    3    3    0    0  0.23282448611E+02  0.17245048016E+00  0.23540349408E+02  0.33109669328E+02  0.51100000000E-03 0.  1.
        -12    1    3    3    0    0  0.53288268577E+01  0.12601696674E+02  0.16515415631E+01  0.13781391231E+02  0.00000000000E+00 0.  1.
</event>
<event>
 7    1  0.1302069E-013  0.7246166E+02  0.7816164E-02  0.1226708E+00
        -11   -1    0    0    0    0  0.00000000000E+00  0.00000000000E+00  0.45593999997E+02  0.45594000000E+02  0.51100000000E-03 0. -1.
         11   -1    0    0    0    0 -0.00000000000E+00 -0.00000000000E+00 -0.45593999997E+02  0.45594000000E+02  0.51100000000E-03 0.  1.
    9900012    2    1    2    0    0  0.15989701900E+02 -0.79992966954E+01  0.55692615779E+01  0.72461655216E+02  0.70000110626E+02 0.  0.
         12    1    1    2    0    0 -0.15989701900E+02  0.79992966954E+01 -0.55692615779E+01  0.18726344784E+02  0.00000000000E+00 0. -1.
         11    1    3    3    0    0  0.75396716309E+01 -0.74287764459E+01  0.24349790275E+02  0.26550812690E+02  0.51100000000E-03 0. -1.
        -11    1    3    3    0    0  0.20158515605E+02  0.12487717639E+02 -0.14712989843E+02  0.27906646405E+02  0.51100000000E-03 0.  1.
         12    1    3    3    0    0 -0.11708485336E+02 -0.13058237888E+02 -0.40675388546E+01  0.18004196120E+02  0.00000000000E+00 0. -1.
</event>
<event>
 7    1  0.1302069E-013  0.7246151E+02  0.7816164E-02  0.1226708E+00
        -11   -1    0    0    0    0  0.00000000000E+00  0.00000000000E+00  0.45593999997E+02  0.45594000000E+02  0.51100000000E-03 0. -1.
         11   -1    0    0    0    0 -0.00000000000E+00 -0.00000000000E+00 -0.45593999997E+02  0.45594000000E+02  0.51100000000E-03 0.  1.
    9900012    2    1    2    0    0  0.32854105543E+01 -0.18426297889E+02 -0.59930780519E+00  0.72461506835E+02  0.69999917332E+02 0.  0.
         12    1    1    2    0    0 -0.32854105543E+01  0.18426297889E+02  0.59930780519E+00  0.18726493165E+02  0.00000000000E+00 0. -1.
         11    1    3    3    0    0 -0.10541454705E+02  0.15695005626E+02 -0.19011145809E+02  0.26811921493E+02  0.51100000000E-03 0.  1.
        -11    1    3    3    0    0  0.16328367268E+02 -0.18092553249E+02  0.16229731086E+02  0.29280714338E+02  0.51100000000E-03 0. -1.
         12    1    3    3    0    0 -0.25015020083E+01 -0.16028750266E+02  0.21821069174E+01  0.16368871005E+02  0.00000000000E+00 0. -1.
</event>
<event>
 7    1  0.1302069E-013  0.7246157E+02  0.7816164E-02  0.1226708E+00
        -11   -1    0    0    0    0  0.00000000000E+00  0.00000000000E+00  0.45593999997E+02  0.45594000000E+02  0.51100000000E-03 0.  1.
         11   -1    0    0    0    0 -0.00000000000E+00 -0.00000000000E+00 -0.45593999997E+02  0.45594000000E+02  0.51100000000E-03 0. -1.
    9900012    2    1    2    0    0  0.51047507495E+01  0.13904761111E+02  0.11457674691E+02  0.72461570252E+02  0.69999999945E+02 0.  0.
         12    1    1    2    0    0 -0.51047507495E+01 -0.13904761111E+02 -0.11457674691E+02  0.18726429748E+02  0.00000000000E+00 0. -1.
         11    1    3    3    0    0 -0.10398698787E+02  0.12521535368E+02  0.36423427824E+01  0.16678982152E+02  0.51100000000E-03 0. -1.
        -11    1    3    3    0    0  0.13299362767E+02 -0.10875379870E+02 -0.19363272882E+02  0.25885966745E+02  0.51100000000E-03 0.  1.
        -12    1    3    3    0    0  0.22040867697E+01  0.12258605614E+02  0.27178604791E+02  0.29896621355E+02  0.00000000000E+00 0.  1.
</event>
<event>
 7    1  0.1302069E-013  0.7246156E+02  0.7816164E-02  0.1226708E+00
        -11   -1    0    0    0    0  0.00000000000E+00  0.00000000000E+00  0.45593999997E+02  0.45594000000E+02  0.51100000000E-03 0. -1.
         11   -1    0    0    0    0 -0.00000000000E+00 -0.00000000000E+00 -0.45593999997E+02  0.45594000000E+02  0.51100000000E-03 0.  1.
    9900012    2    1    2    0    0  0.85500321478E+00 -0.10636371129E+02 -0.15388825457E+02  0.72461564935E+02  0.69999993019E+02 0.  0.
         12    1    1    2    0    0 -0.85500321478E+00  0.10636371129E+02  0.15388825457E+02  0.18726435065E+02  0.00000000000E+00 0. -1.
         11    1    3    3    0    0  0.42983260395E+01  0.27174760130E+02 -0.31777882390E+00  0.27514435820E+02  0.51100000000E-03 0. -1.
        -11    1    3    3    0    0  0.52105050239E+01 -0.21139323567E+02 -0.14492186902E+02  0.26154231874E+02  0.51100000000E-03 0.  1.
         12    1    3    3    0    0 -0.86538278487E+01 -0.16671807691E+02 -0.57885973140E+00  0.18792897241E+02  0.00000000000E+00 0. -1.
</event>
<event>
 7    1  0.1302069E-013  0.7246160E+02  0.7816164E-02  0.1226708E+00
        -11   -1    0    0    0    0  0.00000000000E+00  0.00000000000E+00  0.45593999997E+02  0.45594000000E+02  0.51100000000E-03 0. -1.
         11   -1    0    0    0    0 -0.00000000000E+00 -0.00000000000E+00 -0.45593999997E+02  0.45594000000E+02  0.51100000000E-03 0.  1.
    9900012    2    1    2    0    0  0.23355200139E+01 -0.14242231056E+02 -0.11932401590E+02  0.72461601337E+02  0.70000040438E+02 0.  0.
         12    1    1    2    0    0 -0.23355200139E+01  0.14242231056E+02  0.11932401590E+02  0.18726398663E+02  0.00000000000E+00 0. -1.
         11    1    3    3    0    0  0.28798690154E+02 -0.15945340459E+02 -0.10275782042E+02  0.34484926181E+02  0.51100000000E-03 0.  1.
        -11    1    3    3    0    0 -0.12263894313E+02  0.75308900114E+01  0.10974757564E+02  0.18098693653E+02  0.51100000000E-03 0. -1.
        -12    1    3    3    0    0 -0.14199275827E+02 -0.58277806089E+01 -0.12631377113E+02  0.19877981502E+02  0.00000000000E+00 0.  1.
</event>
<event>
 7    1  0.1302069E-013  0.7246161E+02  0.7816164E-02  0.1226708E+00
        -11   -1    0    0    0    0  0.00000000000E+00  0.00000000000E+00  0.45593999997E+02  0.45594000000E+02  0.51100000000E-03 0.  1.
         11   -1    0    0    0    0 -0.00000000000E+00 -0.00000000000E+00 -0.45593999997E+02  0.45594000000E+02  0.51100000000E-03 0. -1.
    9900012    2    1    2    0    0 -0.55787185614E+01  0.20596585714E+01  0.17757061398E+02  0.72461614238E+02  0.70000057245E+02 0.  0.
         12    1    1    2    0    0  0.55787185614E+01 -0.20596585714E+01 -0.17757061398E+02  0.18726385762E+02  0.00000000000E+00 0. -1.
         11    1    3    3    0    0 -0.21104615315E+01 -0.14398296499E+01 -0.18218514439E+01  0.31378814894E+01  0.51100000000E-03 0. -1.
        -11    1    3    3    0    0  0.18983941201E+02  0.21143334984E+02  0.27651880422E+02  0.39649175640E+02  0.51100000000E-03 0.  1.
        -12    1    3    3    0    0 -0.22452198231E+02 -0.17643846763E+02 -0.80729675805E+01  0.29674557108E+02  0.00000000000E+00 0.  1.
</event>
<event>
 7    1  0.1302069E-013  0.7246154E+02  0.7816164E-02  0.1226708E+00
        -11   -1    0    0    0    0  0.00000000000E+00  0.00000000000E+00  0.45593999997E+02  0.45594000000E+02  0.51100000000E-03 0.  1.
         11   -1    0    0    0    0 -0.00000000000E+00 -0.00000000000E+00 -0.45593999997E+02  0.45594000000E+02  0.51100000000E-03 0. -1.
    9900012    2    1    2    0    0 -0.90472585232E+01  0.27219579660E+01  0.16168433880E+02  0.72461542884E+02  0.69999964294E+02 0.  0.
         12    1    1    2    0    0  0.90472585232E+01 -0.27219579660E+01 -0.16168433880E+02  0.18726457116E+02  0.00000000000E+00 0. -1.
         11    1    3    3    0    0 -0.11839039296E+02  0.27060751050E+02 -0.47737344621E+01  0.29920488629E+02  0.51100000000E-03 0. -1.
        -11    1    3    3    0    0  0.14371696372E+02 -0.67836861487E+01  0.10619860429E+02  0.19114012926E+02  0.51100000000E-03 0.  1.
         12    1    3    3    0    0 -0.11579915599E+02 -0.17555106935E+02  0.10322307914E+02  0.23427041329E+02  0.00000000000E+00 0. -1.
</event>
<event>
 7    1  0.1302069E-013  0.7246156E+02  0.7816164E-02  0.1226708E+00
        -11   -1    0    0    0    0  0.00000000000E+00  0.00000000000E+00  0.45593999997E+02  0.45594000000E+02  0.51100000000E-03 0.  1.
         11   -1    0    0    0    0 -0.00000000000E+00 -0.00000000000E+00 -0.45593999997E+02  0.45594000000E+02  0.51100000000E-03 0. -1.
    9900012    2    1    2    0    0  0.20641173519E+01  0.16656240259E+02  0.83059392460E+01  0.72461560222E+02  0.69999986879E+02 0.  0.
         12    1    1    2    0    0 -0.20641173519E+01 -0.16656240259E+02 -0.83059392460E+01  0.18726439778E+02  0.00000000000E+00 0. -1.
         11    1    3    3    0    0  0.12152064065E+02 -0.83033530382E+01 -0.12129427658E+02  0.19072004307E+02  0.51100000000E-03 0. -1.
        -11    1    3    3    0    0 -0.14218015757E+02  0.25303883134E+02 -0.33757656026E+01  0.29220442628E+02  0.51100000000E-03 0.  1.
        -12    1    3    3    0    0  0.41300690434E+01 -0.34428983710E+00  0.23811132507E+02  0.24169113286E+02  0.00000000000E+00 0.  1.
</event>
<event>
 7    1  0.1302069E-013  0.7246157E+02  0.7816164E-02  0.1226708E+00
        -11   -1    0    0    0    0  0.00000000000E+00  0.00000000000E+00  0.45593999997E+02  0.45594000000E+02  0.51100000000E-03 0. -1.
         11   -1    0    0    0    0 -0.00000000000E+00 -0.00000000000E+00 -0.45593999997E+02  0.45594000000E+02  0.51100000000E-03 0.  1.
    9900012    2    1    2    0    0 -0.17795535563E+02  0.58251549456E+01  0.25614408538E+00  0.72461571459E+02  0.70000001518E+02 0.  0.
         12    1    1    2    0    0  0.17795535563E+02 -0.58251549456E+01 -0.25614408538E+00  0.18726428541E+02  0.00000000000E+00 0. -1.
         11    1    3    3    0    0 -0.23273651064E+02  0.12797334263E+02  0.24028061175E+02  0.35815950667E+02  0.51100000000E-03 0. -1.
        -11    1    3    3    0    0 -0.58107647300E+01 -0.10428621760E+02 -0.21544722854E+02  0.24631204227E+02  0.51100000000E-03 0.  1.
         12    1    3    3    0    0  0.11288880232E+02  0.34564424422E+01 -0.22271942354E+01  0.12014416565E+02  0.00000000000E+00 0. -1.
</event>
<event>
 7    1  0.1302069E-013  0.7246158E+02  0.7816164E-02  0.1226708E+00
        -11   -1    0    0    0    0  0.00000000000E+00  0.00000000000E+00  0.45593999997E+02  0.45594000000E+02  0.51100000000E-03 0. -1.
         11   -1    0    0    0    0 -0.00000000000E+00 -0.00000000000E+00 -0.45593999997E+02  0.45594000000E+02  0.51100000000E-03 0.  1.
    9900012    2    1    2    0    0 -0.16166836546E+02  0.29167328835E+01 -0.89891513302E+01  0.72461580795E+02  0.70000013679E+02 0.  0.
         12    1    1    2    0    0  0.16166836546E+02 -0.29167328835E+01  0.89891513302E+01  0.18726419205E+02  0.00000000000E+00 0. -1.
         11    1    3    3    0    0 -0.24455207431E+01 -0.53887695565E+01  0.28545254892E+02  0.29152203795E+02  0.51100000000E-03 0. -1.
        -11    1    3    3    0    0 -0.35098188050E+01  0.66418490664E+00 -0.25581773613E+02  0.25829965372E+02  0.51100000000E-03 0.  1.
         12    1    3    3    0    0 -0.10211496998E+02  0.76413175333E+01 -0.11952632609E+02  0.17479411628E+02  0.00000000000E+00 0. -1.
</event>
<event>
 7    1  0.1302069E-013  0.7246156E+02  0.7816164E-02  0.1226708E+00
        -11   -1    0    0    0    0  0.00000000000E+00  0.00000000000E+00  0.45593999997E+02  0.45594000000E+02  0.51100000000E-03 0. -1.
         11   -1    0    0    0    0 -0.00000000000E+00 -0.00000000000E+00 -0.45593999997E+02  0.45594000000E+02  0.51100000000E-03 0.  1.
    9900012    2    1    2    0    0  0.16602029090E+01  0.86983953951E+01 -0.16500343733E+02  0.72461556145E+02  0.69999981568E+02 0.  0.
         12    1    1    2    0    0 -0.16602029090E+01 -0.86983953951E+01  0.16500343733E+02  0.18726443855E+02  0.00000000000E+00 0. -1.
         11    1    3    3    0    0  0.95402337205E+01  0.11624504706E+02 -0.38105248848E+02  0.40965292128E+02  0.51100000000E-03 0. -1.
        -11    1    3    3    0    0 -0.59926895853E+00 -0.10812158270E+02  0.55077121368E+01  0.12148941640E+02  0.51100000000E-03 0.  1.
         12    1    3    3    0    0 -0.72807618529E+01  0.78860489586E+01  0.16097192979E+02  0.19347322376E+02  0.00000000000E+00 0. -1.
</event>
<event>
 7    1  0.1302069E-013  0.7246157E+02  0.7816164E-02  0.1226708E+00
        -11   -1    0    0    0    0  0.00000000000E+00  0.00000000000E+00  0.45593999997E+02  0.45594000000E+02  0.51100000000E-03 0. -1.
         11   -1    0    0    0    0 -0.00000000000E+00 -0.00000000000E+00 -0.45593999997E+02  0.45594000000E+02  0.51100000000E-03 0.  1.
    9900012    2    1    2    0    0 -0.13786905861E+02 -0.92178118830E+01 -0.86966888867E+01  0.72461568767E+02  0.69999998011E+02 0.  0.
         12    1    1    2    0    0  0.13786905861E+02  0.92178118830E+01  0.86966888867E+01  0.18726431233E+02  0.00000000000E+00 0. -1.
         11    1    3    3    0    0 -0.95892931927E+01  0.13358913684E+01  0.90645515382E+01  0.13262927450E+02  0.51100000000E-03 0. -1.
        -11    1    3    3    0    0 -0.10723812015E+02 -0.32115695567E+02 -0.90732541228E+01  0.35053416189E+02  0.51100000000E-03 0.  1.
        -12    1    3    3    0    0  0.65261993466E+01  0.21561992316E+02 -0.86879863020E+01  0.24145225129E+02  0.00000000000E+00 0.  1.
</event>
<event>
 7    1  0.1302069E-013  0.7246160E+02  0.7816164E-02  0.1226708E+00
        -11   -1    0    0    0    0  0.00000000000E+00  0.00000000000E+00  0.45593999997E+02  0.45594000000E+02  0.51100000000E-03 0. -1.
         11   -1    0    0    0    0 -0.00000000000E+00 -0.00000000000E+00 -0.45593999997E+02  0.45594000000E+02  0.51100000000E-03 0.  1.
    9900012    2    1    2    0    0 -0.62274902346E+01  0.17235714603E+02  0.38505228559E+01  0.72461601020E+02  0.70000040026E+02 0.  0.
         12    1    1    2    0    0  0.62274902346E+01 -0.17235714603E+02 -0.38505228559E+01  0.18726398980E+02  0.00000000000E+00 0. -1.
         11    1    3    3    0    0 -0.21727739985E+02  0.25673774898E+02 -0.28106479761E+01  0.33751105829E+02  0.51100000000E-03 0. -1.
        -11    1    3    3    0    0  0.20276110073E+02 -0.11824245273E+01  0.16074393583E+02  0.25901831920E+02  0.51100000000E-03 0.  1.
         12    1    3    3    0    0 -0.47758603232E+01 -0.72556357682E+01 -0.94132227513E+01  0.12808663271E+02  0.00000000000E+00 0. -1.
</event>
<event>
 7    1  0.1302069E-013  0.7246156E+02  0.7816164E-02  0.1226708E+00
        -11   -1    0    0    0    0  0.00000000000E+00  0.00000000000E+00  0.45593999997E+02  0.45594000000E+02  0.51100000000E-03 0.  1.
         11   -1    0    0    0    0 -0.00000000000E+00 -0.00000000000E+00 -0.45593999997E+02  0.45594000000E+02  0.51100000000E-03 0. -1.
    9900012    2    1    2    0    0  0.15321562986E+02  0.76818813146E+01  0.75443979894E+01  0.72461560566E+02  0.69999987327E+02 0.  0.
         12    1    1    2    0    0 -0.15321562986E+02 -0.76818813146E+01 -0.75443979894E+01  0.18726439434E+02  0.00000000000E+00 0. -1.
         11    1    3    3    0    0  0.13903475139E+02  0.19896461110E+02 -0.21131206764E+02  0.32182350523E+02  0.51100000000E-03 0. -1.
        -11    1    3    3    0    0 -0.11254526625E+02 -0.13366421179E+01  0.90088090094E+01  0.14477901151E+02  0.51100000000E-03 0.  1.
         12    1    3    3    0    0  0.12672614472E+02 -0.10877937678E+02  0.19666795744E+02  0.25801308892E+02  0.00000000000E+00 0. -1.
</event>
<event>
 7    1  0.1302069E-013  0.7246167E+02  0.7816164E-02  0.1226708E+00
        -11   -1    0    0    0    0  0.00000000000E+00  0.00000000000E+00  0.45593999997E+02  0.45594000000E+02  0.51100000000E-03 0. -1.
         11   -1    0    0    0    0 -0.00000000000E+00 -0.00000000000E+00 -0.45593999997E+02  0.45594000000E+02  0.51100000000E-03 0.  1.
    9900012    2    1    2    0    0 -0.14575730663E+02 -0.85152309847E+01 -0.81064284316E+01  0.72461674547E+02  0.70000135808E+02 0.  0.
         12    1    1    2    0    0  0.14575730663E+02  0.85152309847E+01  0.81064284316E+01  0.18726325453E+02  0.00000000000E+00 0. -1.
         11    1    3    3    0    0  0.28993894881E+01 -0.25221344899E+02  0.15115859622E+02  0.29546774956E+02  0.51100000000E-03 0. -1.
        -11    1    3    3    0    0 -0.92272055552E+01  0.21026107243E+02 -0.66484234512E+01  0.23904812127E+02  0.51100000000E-03 0.  1.
         12    1    3    3    0    0 -0.82479145955E+01 -0.43199933288E+01 -0.16573864602E+02  0.19010087464E+02  0.00000000000E+00 0. -1.
</event>
<event>
 7    1  0.1302069E-013  0.7246159E+02  0.7816164E-02  0.1226708E+00
        -11   -1    0    0    0    0  0.00000000000E+00  0.00000000000E+00  0.45593999997E+02  0.45594000000E+02  0.51100000000E-03 0. -1.
         11   -1    0    0    0    0 -0.00000000000E+00 -0.00000000000E+00 -0.45593999997E+02  0.45594000000E+02  0.51100000000E-03 0.  1.
    9900012    2    1    2    0    0 -0.32251642195E+01  0.18207360749E+02 -0.29612189632E+01  0.72461588506E+02  0.70000023725E+02 0.  0.
         12    1    1    2    0    0  0.32251642195E+01 -0.18207360749E+02  0.29612189632E+01  0.18726411494E+02  0.00000000000E+00 0. -1.
         11    1    3    3    0    0  0.31983910059E+01 -0.10103710104E+02 -0.82270580035E+01  0.13416376059E+02  0.51100000000E-03 0. -1.
        -11    1    3    3    0    0  0.21559418343E+02  0.19063022904E+02  0.66655426653E+01  0.29540426889E+02  0.51100000000E-03 0.  1.
        -12    1    3    3    0    0 -0.27982973568E+02  0.92480479491E+01 -0.13997036250E+01  0.29504785558E+02  0.00000000000E+00 0.  1.
</event>
<event>
 7    1  0.1302069E-013  0.7246157E+02  0.7816164E-02  0.1226708E+00
        -11   -1    0    0    0    0  0.00000000000E+00  0.00000000000E+00  0.45593999997E+02  0.45594000000E+02  0.51100000000E-03 0. -1.
         11   -1    0    0    0    0 -0.00000000000E+00 -0.00000000000E+00 -0.45593999997E+02  0.45594000000E+02  0.51100000000E-03 0.  1.
    9900012    2    1    2    0    0 -0.69863898737E+01  0.17120675597E+02  0.29584073575E+01  0.72461565463E+02  0.69999993706E+02 0.  0.
         12    1    1    2    0    0  0.69863898737E+01 -0.17120675597E+02 -0.29584073575E+01  0.18726434537E+02  0.00000000000E+00 0. -1.
         11    1    3    3    0    0 -0.29933017891E+01 -0.52822823829E+01  0.63601700369E+01  0.87928451558E+01  0.51100000000E-03 0. -1.
        -11    1    3    3    0    0 -0.39102596811E+01  0.40660366979E+02  0.87005097203E+01  0.41764272331E+02  0.51100000000E-03 0.  1.
        -12    1    3    3    0    0 -0.82828403458E-01 -0.18257408999E+02 -0.12102272400E+02  0.21904447976E+02  0.00000000000E+00 0.  1.
</event>
<event>
 7    1  0.1302069E-013  0.7246159E+02  0.7816164E-02  0.1226708E+00
        -11   -1    0    0    0    0  0.00000000000E+00  0.00000000000E+00  0.45593999997E+02  0.45594000000E+02  0.51100000000E-03 0. -1.
         11   -1    0    0    0    0 -0.00000000000E+00 -0.00000000000E+00 -0.45593999997E+02  0.45594000000E+02  0.51100000000E-03 0.  1.
    9900012    2    1    2    0    0 -0.14085419144E+02  0.10974028437E+02 -0.56436003047E+01  0.72461586649E+02  0.70000021306E+02 0.  0.
         12    1    1    2    0    0  0.14085419144E+02 -0.10974028437E+02  0.56436003047E+01  0.18726413351E+02  0.00000000000E+00 0. -1.
         11    1    3    3    0    0 -0.29284323439E+02  0.16928747507E+02  0.30200878901E+01  0.33959903159E+02  0.51100000000E-03 0. -1.
        -11    1    3    3    0    0  0.85605095394E+01  0.13514388979E+02 -0.80833052409E+01  0.17923751195E+02  0.51100000000E-03 0.  1.
         12    1    3    3    0    0  0.66383947563E+01 -0.19469108049E+02 -0.58038295389E+00  0.20577932295E+02  0.00000000000E+00 0. -1.
</event>
<event>
 7    1  0.1302069E-013  0.7246160E+02  0.7816164E-02  0.1226708E+00
        -11   -1    0    0    0    0  0.00000000000E+00  0.00000000000E+00  0.45593999997E+02  0.45594000000E+02  0.51100000000E-03 0. -1.
         11   -1    0    0    0    0 -0.00000000000E+00 -0.00000000000E+00 -0.45593999997E+02  0.45594000000E+02  0.51100000000E-03 0.  1.
    9900012    2    1    2    0    0 -0.44914941736E+01  0.16003635216E+02 -0.86248506645E+01  0.72461603950E+02  0.70000043843E+02 0.  0.
         12    1    1    2    0    0  0.44914941736E+01 -0.16003635216E+02  0.86248506645E+01  0.18726396050E+02  0.00000000000E+00 0. -1.
         11    1    3    3    0    0 -0.98681797108E+01  0.34352944560E+02 -0.63448706094E+01  0.36301007618E+02  0.51100000000E-03 0. -1.
        -11    1    3    3    0    0  0.15370422810E+02 -0.15884542163E+02  0.60527352647E+01  0.22917333648E+02  0.51100000000E-03 0.  1.
        -12    1    3    3    0    0 -0.99937372724E+01 -0.24647671811E+01 -0.83327153198E+01  0.13243262684E+02  0.00000000000E+00 0.  1.
</event>
<event>
 7    1  0.1302069E-013  0.7246149E+02  0.7816164E-02  0.1226708E+00
        -11   -1    0    0    0    0  0.00000000000E+00  0.00000000000E+00  0.45593999997E+02  0.45594000000E+02  0.51100000000E-03 0.  1.
         11   -1    0    0    0    0 -0.00000000000E+00 -0.00000000000E+00 -0.45593999997E+02  0.45594000000E+02  0.51100000000E-03 0. -1.
    9900012    2    1    2    0    0  0.98677521706E+01  0.13729028659E+02  0.80512904146E+01  0.72461493701E+02  0.69999900223E+02 0.  0.
         12    1    1    2    0    0 -0.98677521706E+01 -0.13729028659E+02 -0.80512904146E+01  0.18726506299E+02  0.00000000000E+00 0. -1.
         11    1    3    3    0    0 -0.11702759162E+02  0.58000113019E+01  0.33598649883E+02  0.36048078691E+02  0.51100000000E-03 0. -1.
        -11    1    3    3    0    0  0.28358762971E+01 -0.30916274289E+01 -0.36666032444E+01  0.55717442641E+01  0.51100000000E-03 0.  1.
         12    1    3    3    0    0  0.18734635036E+02  0.11020644786E+02 -0.21880756224E+02  0.30841670745E+02  0.00000000000E+00 0. -1.
</event>
<event>
 7    1  0.1302069E-013  0.7246157E+02  0.7816164E-02  0.1226708E+00
        -11   -1    0    0    0    0  0.00000000000E+00  0.00000000000E+00  0.45593999997E+02  0.45594000000E+02  0.51100000000E-03 0. -1.
         11   -1    0    0    0    0 -0.00000000000E+00 -0.00000000000E+00 -0.45593999997E+02  0.45594000000E+02  0.51100000000E-03 0.  1.
    9900012    2    1    2    0    0 -0.10432494359E+02 -0.18612909318E+01 -0.15439489129E+02  0.72461570361E+02  0.70000000087E+02 0.  0.
         12    1    1    2    0    0  0.10432494359E+02  0.18612909318E+01  0.15439489129E+02  0.18726429639E+02  0.00000000000E+00 0. -1.
         11    1    3    3    0    0  0.83412854669E+01  0.23921010604E+02  0.31372546532E+01  0.25527125936E+02  0.51100000000E-03 0. -1.
        -11    1    3    3    0    0  0.82122885480E+00 -0.23118671470E+02 -0.77965698496E+01  0.24411757189E+02  0.51100000000E-03 0.  1.
        -12    1    3    3    0    0 -0.19595008680E+02 -0.26636300656E+01 -0.10780173932E+02  0.22522687236E+02  0.00000000000E+00 0.  1.
</event>
<event>
 7    1  0.1302069E-013  0.7246153E+02  0.7816164E-02  0.1226708E+00
        -11   -1    0    0    0    0  0.00000000000E+00  0.00000000000E+00  0.45593999997E+02  0.45594000000E+02  0.51100000000E-03 0.  1.
         11   -1    0    0    0    0 -0.00000000000E+00 -0.00000000000E+00 -0.45593999997E+02  0.45594000000E+02  0.51100000000E-03 0. -1.
    9900012    2    1    2    0    0 -0.25214555985E+01  0.99114650358E+01  0.15687124377E+02  0.72461528129E+02  0.69999945072E+02 0.  0.
         12    1    1    2    0    0  0.25214555985E+01 -0.99114650358E+01 -0.15687124377E+02  0.18726471871E+02  0.00000000000E+00 0. -1.
         11    1    3    3    0    0  0.55688817453E+01  0.26553757396E+02  0.56323293239E+01  0.27709882887E+02  0.51100000000E-03 0. -1.
        -11    1    3    3    0    0 -0.12742779609E+02 -0.17303318983E+02 -0.10322293934E+02  0.23839736414E+02  0.51100000000E-03 0.  1.
        -12    1    3    3    0    0  0.46524422649E+01  0.66102662294E+00  0.20377088988E+02  0.20911908828E+02  0.00000000000E+00 0.  1.
</event>
<event>
 7    1  0.1302069E-013  0.7246157E+02  0.7816164E-02  0.1226708E+00
        -11   -1    0    0    0    0  0.00000000000E+00  0.00000000000E+00  0.45593999997E+02  0.45594000000E+02  0.51100000000E-03 0.  1.
         11   -1    0    0    0    0 -0.00000000000E+00 -0.00000000000E+00 -0.45593999997E+02  0.45594000000E+02  0.51100000000E-03 0. -1.
    9900012    2    1    2    0    0  0.55149370068E+01 -0.17889290173E+02 -0.48791291511E+00  0.72461567022E+02  0.69999995737E+02 0.  0.
         12    1    1    2    0    0 -0.55149370068E+01  0.17889290173E+02  0.48791291511E+00  0.18726432978E+02  0.00000000000E+00 0. -1.
         11    1    3    3    0    0  0.80173087445E+01 -0.19738719536E+02 -0.19656079531E+02  0.28987165284E+02  0.51100000000E-03 0. -1.
        -11    1    3    3    0    0 -0.71215156495E+01 -0.33329017754E+01  0.29776129170E+02  0.30796786975E+02  0.51100000000E-03 0.  1.
        -12    1    3    3    0    0  0.46191439119E+01  0.51823311387E+01 -0.10607962554E+02  0.12677614762E+02  0.00000000000E+00 0.  1.
</event>
<event>
 7    1  0.1302069E-013  0.7246156E+02  0.7816164E-02  0.1226708E+00
        -11   -1    0    0    0    0  0.00000000000E+00  0.00000000000E+00  0.45593999997E+02  0.45594000000E+02  0.51100000000E-03 0.  1.
         11   -1    0    0    0    0 -0.00000000000E+00 -0.00000000000E+00 -0.45593999997E+02  0.45594000000E+02  0.51100000000E-03 0. -1.
    9900012    2    1    2    0    0  0.43490218978E+01  0.95747650291E+01  0.15494824860E+02  0.72461555749E+02  0.69999981053E+02 0.  0.
         12    1    1    2    0    0 -0.43490218978E+01 -0.95747650291E+01 -0.15494824860E+02  0.18726444251E+02  0.00000000000E+00 0. -1.
         11    1    3    3    0    0  0.28157230332E+02  0.42531961093E+01  0.23860122633E+02  0.37151376144E+02  0.51100000000E-03 0.  1.
        -11    1    3    3    0    0 -0.12818007318E+02 -0.71820903214E+01 -0.11133210453E+02  0.18434535748E+02  0.51100000000E-03 0. -1.
        -12    1    3    3    0    0 -0.10990201116E+02  0.12503659241E+02  0.27679126803E+01  0.16875643857E+02  0.00000000000E+00 0.  1.
</event>
<event>
 7    1  0.1302069E-013  0.7246156E+02  0.7816164E-02  0.1226708E+00
        -11   -1    0    0    0    0  0.00000000000E+00  0.00000000000E+00  0.45593999997E+02  0.45594000000E+02  0.51100000000E-03 0.  1.
         11   -1    0    0    0    0 -0.00000000000E+00 -0.00000000000E+00 -0.45593999997E+02  0.45594000000E+02  0.51100000000E-03 0. -1.
    9900012    2    1    2    0    0 -0.82643799110E+00 -0.12040977523E+02  0.14318220587E+02  0.72461559328E+02  0.69999985714E+02 0.  0.
         12    1    1    2    0    0  0.82643799110E+00  0.12040977523E+02 -0.14318220587E+02  0.18726440672E+02  0.00000000000E+00 0. -1.
         11    1    3    3    0    0 -0.72636641733E+01 -0.39220446603E+02  0.26872476985E+01  0.39977813214E+02  0.51100000000E-03 0. -1.
        -11    1    3    3    0    0  0.30919201504E+01  0.30766547033E+01  0.61507962671E+01  0.75404289905E+01  0.51100000000E-03 0.  1.
         12    1    3    3    0    0  0.33453060318E+01  0.24102814376E+02  0.54801766214E+01  0.24943317123E+02  0.00000000000E+00 0. -1.
</event>
<event>
 7    1  0.1302069E-013  0.7246124E+02  0.7816164E-02  0.1226709E+00
        -11   -1    0    0    0    0  0.00000000000E+00  0.00000000000E+00  0.45593999997E+02  0.45594000000E+02  0.51100000000E-03 0.  1.
         11   -1    0    0    0    0 -0.00000000000E+00 -0.00000000000E+00 -0.45593999997E+02  0.45594000000E+02  0.51100000000E-03 0. -1.
    9900012    2    1    2    0    0  0.10065818864E+02  0.32181964407E+01  0.15460078110E+02  0.72461240726E+02  0.69999570675E+02 0.  0.
         12    1    1    2    0    0 -0.10065818864E+02 -0.32181964407E+01 -0.15460078110E+02  0.18726759274E+02  0.00000000000E+00 0. -1.
         11    1    3    3    0    0 -0.19253602587E+01  0.27962543193E+02 -0.21533502780E+01  0.28111345603E+02  0.51100000000E-03 0. -1.
        -11    1    3    3    0    0  0.17642025565E+02 -0.68456837929E+01  0.17205382641E+02  0.25575958334E+02  0.51100000000E-03 0.  1.
        -12    1    3    3    0    0 -0.56508464430E+01 -0.17898662959E+02  0.40804574710E+00  0.18773936789E+02  0.00000000000E+00 0.  1.
</event>
<event>
 7    1  0.1302069E-013  0.7246155E+02  0.7816164E-02  0.1226708E+00
        -11   -1    0    0    0    0  0.00000000000E+00  0.00000000000E+00  0.45593999997E+02  0.45594000000E+02  0.51100000000E-03 0.  1.
         11   -1    0    0    0    0 -0.00000000000E+00 -0.00000000000E+00 -0.45593999997E+02  0.45594000000E+02  0.51100000000E-03 0. -1.
    9900012    2    1    2    0    0  0.14579406605E+01 -0.53448816449E+00  0.18661959510E+02  0.72461548086E+02  0.69999971069E+02 0.  0.
         12    1    1    2    0    0 -0.14579406605E+01  0.53448816449E+00 -0.18661959510E+02  0.18726451914E+02  0.00000000000E+00 0. -1.
         11    1    3    3    0    0  0.97900306388E+00 -0.24575709200E+02  0.17326025799E+02  0.30085130878E+02  0.51100000000E-03 0. -1.
        -11    1    3    3    0    0  0.17154050019E+02  0.16561399805E+02 -0.14560501048E+01  0.23888521882E+02  0.51100000000E-03 0.  1.
         12    1    3    3    0    0 -0.16675112423E+02  0.74798212306E+01  0.27919838149E+01  0.18487895326E+02  0.00000000000E+00 0. -1.
</event>
<event>
 7    1  0.1302069E-013  0.7246125E+02  0.7816164E-02  0.1226709E+00
        -11   -1    0    0    0    0  0.00000000000E+00  0.00000000000E+00  0.45593999997E+02  0.45594000000E+02  0.51100000000E-03 0. -1.
         11   -1    0    0    0    0 -0.00000000000E+00 -0.00000000000E+00 -0.45593999997E+02  0.45594000000E+02  0.51100000000E-03 0.  1.
    9900012    2    1    2    0    0 -0.13793913579E+02 -0.96456330261E+01 -0.82085851125E+01  0.72461250206E+02  0.69999583025E+02 0.  0.
         12    1    1    2    0    0  0.13793913579E+02  0.96456330261E+01  0.82085851125E+01  0.18726749794E+02  0.00000000000E+00 0. -1.
         11    1    3    3    0    0 -0.18448131470E+02  0.90428574007E+01 -0.37799118557E+01  0.20890058846E+02  0.51100000000E-03 0.  1.
        -11    1    3    3    0    0 -0.10782202700E+02 -0.14428166276E+02  0.17035357161E+02  0.24791758127E+02  0.51100000000E-03 0. -1.
        -12    1    3    3    0    0  0.15436420591E+02 -0.42603241505E+01 -0.21464030417E+02  0.26779433233E+02  0.00000000000E+00 0.  1.
</event>
<event>
 7    1  0.1302069E-013  0.7246184E+02  0.7816164E-02  0.1226707E+00
        -11   -1    0    0    0    0  0.00000000000E+00  0.00000000000E+00  0.45593999997E+02  0.45594000000E+02  0.51100000000E-03 0. -1.
         11   -1    0    0    0    0 -0.00000000000E+00 -0.00000000000E+00 -0.45593999997E+02  0.45594000000E+02  0.51100000000E-03 0.  1.
    9900012    2    1    2    0    0 -0.15167508406E+02 -0.49040188276E+01 -0.98268270998E+01  0.72461835343E+02  0.70000345274E+02 0.  0.
         12    1    1    2    0    0  0.15167508406E+02  0.49040188276E+01  0.98268270998E+01  0.18726164657E+02  0.00000000000E+00 0. -1.
         11    1    3    3    0    0 -0.21823806004E+02 -0.16503148561E+01  0.18405713577E+02  0.28596719045E+02  0.51100000000E-03 0. -1.
        -11    1    3    3    0    0  0.16033355602E+02 -0.12399790454E+02 -0.14752751233E+02  0.25069243394E+02  0.51100000000E-03 0.  1.
        -12    1    3    3    0    0 -0.93770580039E+01  0.91460864825E+01 -0.13479789444E+02  0.18795872903E+02  0.00000000000E+00 0.  1.
</event>
<event>
 7    1  0.1302069E-013  0.7246161E+02  0.7816164E-02  0.1226708E+00
        -11   -1    0    0    0    0  0.00000000000E+00  0.00000000000E+00  0.45593999997E+02  0.45594000000E+02  0.51100000000E-03 0.  1.
         11   -1    0    0    0    0 -0.00000000000E+00 -0.00000000000E+00 -0.45593999997E+02  0.45594000000E+02  0.51100000000E-03 0. -1.
    9900012    2    1    2    0    0  0.15415357291E+02 -0.10414959254E+02  0.21385122437E+01  0.72461605491E+02  0.70000045851E+02 0.  0.
         12    1    1    2    0    0 -0.15415357291E+02  0.10414959254E+02 -0.21385122437E+01  0.18726394509E+02  0.00000000000E+00 0. -1.
         11    1    3    3    0    0 -0.29497726924E+01 -0.24937066139E+02  0.20668364960E+02  0.32522910954E+02  0.51100000000E-03 0. -1.
        -11    1    3    3    0    0  0.22052136648E+02  0.77673203665E+01 -0.43157030581E+01  0.23775056037E+02  0.51100000000E-03 0.  1.
         12    1    3    3    0    0 -0.36870066645E+01  0.67547865188E+01 -0.14214149658E+02  0.16163638500E+02  0.00000000000E+00 0. -1.
</event>
<event>
 7    1  0.1302069E-013  0.7246157E+02  0.7816164E-02  0.1226708E+00
        -11   -1    0    0    0    0  0.00000000000E+00  0.00000000000E+00  0.45593999997E+02  0.45594000000E+02  0.51100000000E-03 0.  1.
         11   -1    0    0    0    0 -0.00000000000E+00 -0.00000000000E+00 -0.45593999997E+02  0.45594000000E+02  0.51100000000E-03 0. -1.
    9900012    2    1    2    0    0 -0.66507031590E-01 -0.18088724247E+02  0.48448725272E+01  0.72461570605E+02  0.70000000405E+02 0.  0.
         12    1    1    2    0    0  0.66507031590E-01  0.18088724247E+02 -0.48448725272E+01  0.18726429395E+02  0.00000000000E+00 0. -1.
         11    1    3    3    0    0  0.14073994509E+02 -0.13906220216E+02  0.10819490597E+02  0.22550424811E+02  0.51100000000E-03 0. -1.
        -11    1    3    3    0    0 -0.21386659175E+02 -0.16562040620E+02 -0.16886623421E+02  0.31888060947E+02  0.51100000000E-03 0.  1.
        -12    1    3    3    0    0  0.72461576343E+01  0.12379536588E+02  0.10912005351E+02  0.18023084846E+02  0.00000000000E+00 0.  1.
</event>
<event>
 7    1  0.1302069E-013  0.7246164E+02  0.7816164E-02  0.1226708E+00
        -11   -1    0    0    0    0  0.00000000000E+00  0.00000000000E+00  0.45593999997E+02  0.45594000000E+02  0.51100000000E-03 0. -1.
         11   -1    0    0    0    0 -0.00000000000E+00 -0.00000000000E+00 -0.45593999997E+02  0.45594000000E+02  0.51100000000E-03 0.  1.
    9900012    2    1    2    0    0 -0.88542681885E+01  0.19081628290E+01 -0.16390163194E+02  0.72461638900E+02  0.70000089371E+02 0.  0.
         12    1    1    2    0    0  0.88542681885E+01 -0.19081628290E+01  0.16390163194E+02  0.18726361100E+02  0.00000000000E+00 0. -1.
         11    1    3    3    0    0 -0.12042595940E+02  0.17961188611E+02  0.21308608792E+02  0.30359269132E+02  0.51100000000E-03 0. -1.
        -11    1    3    3    0    0  0.63496695772E+01 -0.11580506159E+02 -0.25038781195E+02  0.28308426142E+02  0.51100000000E-03 0.  1.
        -12    1    3    3    0    0 -0.31613418261E+01 -0.44725196235E+01 -0.12659990791E+02  0.13793943626E+02  0.00000000000E+00 0.  1.
</event>
<event>
 7    1  0.1302069E-013  0.7246158E+02  0.7816164E-02  0.1226708E+00
        -11   -1    0    0    0    0  0.00000000000E+00  0.00000000000E+00  0.45593999997E+02  0.45594000000E+02  0.51100000000E-03 0.  1.
         11   -1    0    0    0    0 -0.00000000000E+00 -0.00000000000E+00 -0.45593999997E+02  0.45594000000E+02  0.51100000000E-03 0. -1.
    9900012    2    1    2    0    0 -0.19522376476E+00  0.13975676191E+02  0.12462788013E+02  0.72461582233E+02  0.70000015553E+02 0.  0.
         12    1    1    2    0    0  0.19522376476E+00 -0.13975676191E+02 -0.12462788013E+02  0.18726417767E+02  0.00000000000E+00 0. -1.
         11    1    3    3    0    0 -0.82631891403E+01  0.14324032298E+02 -0.12288680427E+02  0.20602666404E+02  0.51100000000E-03 0. -1.
        -11    1    3    3    0    0  0.89531404491E+01 -0.18009806572E+02  0.27388224227E+02  0.33979798163E+02  0.51100000000E-03 0.  1.
        -12    1    3    3    0    0 -0.88517507363E+00  0.17661450465E+02 -0.26367557861E+01  0.17879117666E+02  0.00000000000E+00 0.  1.
</event>
<event>
 7    1  0.1302069E-013  0.7246157E+02  0.7816164E-02  0.1226708E+00
        -11   -1    0    0    0    0  0.00000000000E+00  0.00000000000E+00  0.45593999997E+02  0.45594000000E+02  0.51100000000E-03 0.  1.
         11   -1    0    0    0    0 -0.00000000000E+00 -0.00000000000E+00 -0.45593999997E+02  0.45594000000E+02  0.51100000000E-03 0. -1.
    9900012    2    1    2    0    0  0.14565058658E+02 -0.70955616588E+01  0.93910239239E+01  0.72461567897E+02  0.69999996877E+02 0.  0.
         12    1    1    2    0    0 -0.14565058658E+02  0.70955616588E+01 -0.93910239239E+01  0.18726432103E+02  0.00000000000E+00 0. -1.
         11    1    3    3    0    0  0.30487336679E+02  0.87536830944E+00  0.10616740105E+02  0.32294877894E+02  0.51100000000E-03 0. -1.
        -11    1    3    3    0    0 -0.21472759039E+02  0.62102320947E+01  0.62386278653E+01  0.23207042925E+02  0.51100000000E-03 0.  1.
        -12    1    3    3    0    0  0.55504810177E+01 -0.14181162063E+02 -0.74643440460E+01  0.16959647078E+02  0.00000000000E+00 0.  1.
</event>
<event>
 7    1  0.1302069E-013  0.7246184E+02  0.7816164E-02  0.1226707E+00
        -11   -1    0    0    0    0  0.00000000000E+00  0.00000000000E+00  0.45593999997E+02  0.45594000000E+02  0.51100000000E-03 0.  1.
         11   -1    0    0    0    0 -0.00000000000E+00 -0.00000000000E+00 -0.45593999997E+02  0.45594000000E+02  0.51100000000E-03 0. -1.
    9900012    2    1    2    0    0  0.93469080474E-01  0.11509024383E+02  0.14771690321E+02  0.72461836120E+02  0.70000346287E+02 0.  0.
         12    1    1    2    0    0 -0.93469080474E-01 -0.11509024383E+02 -0.14771690321E+02  0.18726163880E+02  0.00000000000E+00 0. -1.
         11    1    3    3    0    0  0.67304421998E+01 -0.13228317982E+02  0.26008202277E+02  0.29945180493E+02  0.51100000000E-03 0. -1.
        -11    1    3    3    0    0 -0.12457687956E+02  0.24034979904E+02  0.28864408821E+01  0.27225094847E+02  0.51100000000E-03 0.  1.
         12    1    3    3    0    0  0.58207148371E+01  0.70236246138E+00 -0.14122952838E+02  0.15291560780E+02  0.00000000000E+00 0. -1.
</event>
<event>
 7    1  0.1302069E-013  0.7246159E+02  0.7816164E-02  0.1226708E+00
        -11   -1    0    0    0    0  0.00000000000E+00  0.00000000000E+00  0.45593999997E+02  0.45594000000E+02  0.51100000000E-03 0.  1.
         11   -1    0    0    0    0 -0.00000000000E+00 -0.00000000000E+00 -0.45593999997E+02  0.45594000000E+02  0.51100000000E-03 0. -1.
    9900012    2    1    2    0    0  0.17869825667E+02  0.16497637862E+01  0.53503296151E+01  0.72461590390E+02  0.70000026178E+02 0.  0.
         12    1    1    2    0    0 -0.17869825667E+02 -0.16497637862E+01 -0.53503296151E+01  0.18726409610E+02  0.00000000000E+00 0. -1.
         11    1    3    3    0    0 -0.12160603812E+01 -0.55519941456E+01 -0.27472644062E+02  0.28054404536E+02  0.51100000000E-03 0. -1.
        -11    1    3    3    0    0  0.14430637357E+02 -0.29424769036E+01  0.70640458174E+01  0.16334081193E+02  0.51100000000E-03 0.  1.
         12    1    3    3    0    0  0.46552486908E+01  0.10144234835E+02  0.25758927860E+02  0.28073104660E+02  0.00000000000E+00 0. -1.
</event>
<event>
 7    1  0.1302069E-013  0.7246149E+02  0.7816164E-02  0.1226708E+00
        -11   -1    0    0    0    0  0.00000000000E+00  0.00000000000E+00  0.45593999997E+02  0.45594000000E+02  0.51100000000E-03 0. -1.
         11   -1    0    0    0    0 -0.00000000000E+00 -0.00000000000E+00 -0.45593999997E+02  0.45594000000E+02  0.51100000000E-03 0.  1.
    9900012    2    1    2    0    0  0.17843385496E+02 -0.40321619643E+01 -0.40046702675E+01  0.72461491515E+02  0.69999897375E+02 0.  0.
         12    1    1    2    0    0 -0.17843385496E+02  0.40321619643E+01  0.40046702675E+01  0.18726508485E+02  0.00000000000E+00 0. -1.
         11    1    3    3    0    0  0.54382905853E+01 -0.25613184817E+02  0.95187195919E+01  0.27860657994E+02  0.51100000000E-03 0. -1.
        -11    1    3    3    0    0  0.35628055247E+01  0.93226835502E+01 -0.24145620294E+02  0.26126939956E+02  0.51100000000E-03 0.  1.
        -12    1    3    3    0    0  0.88422893865E+01  0.12258339302E+02  0.10622230435E+02  0.18473893565E+02  0.00000000000E+00 0.  1.
</event>
<event>
 7    1  0.1302069E-013  0.7246156E+02  0.7816164E-02  0.1226708E+00
        -11   -1    0    0    0    0  0.00000000000E+00  0.00000000000E+00  0.45593999997E+02  0.45594000000E+02  0.51100000000E-03 0.  1.
         11   -1    0    0    0    0 -0.00000000000E+00 -0.00000000000E+00 -0.45593999997E+02  0.45594000000E+02  0.51100000000E-03 0. -1.
    9900012    2    1    2    0    0 -0.58166968672E+01  0.12206528480E+01  0.17758249862E+02  0.72461564301E+02  0.69999992193E+02 0.  0.
         12    1    1    2    0    0  0.58166968672E+01 -0.12206528480E+01 -0.17758249862E+02  0.18726435699E+02  0.00000000000E+00 0. -1.
         11    1    3    3    0    0  0.17430580399E+02 -0.10180438890E+02  0.17432481412E+02  0.26671293135E+02  0.51100000000E-03 0. -1.
        -11    1    3    3    0    0 -0.33692313826E+02  0.97534152434E+01  0.17571542301E+01  0.35119634268E+02  0.51100000000E-03 0.  1.
        -12    1    3    3    0    0  0.10445036559E+02  0.16476764950E+01 -0.14313857802E+01  0.10670636898E+02  0.00000000000E+00 0.  1.
</event>
<event>
 7    1  0.1302069E-013  0.7246155E+02  0.7816164E-02  0.1226708E+00
        -11   -1    0    0    0    0  0.00000000000E+00  0.00000000000E+00  0.45593999997E+02  0.45594000000E+02  0.51100000000E-03 0.  1.
         11   -1    0    0    0    0 -0.00000000000E+00 -0.00000000000E+00 -0.45593999997E+02  0.45594000000E+02  0.51100000000E-03 0. -1.
    9900012    2    1    2    0    0  0.66021537997E+01 -0.36290441133E+01  0.17144143197E+02  0.72461547001E+02  0.69999969656E+02 0.  0.
         12    1    1    2    0    0 -0.66021537997E+01  0.36290441133E+01 -0.17144143197E+02  0.18726452999E+02  0.00000000000E+00 0. -1.
         11    1    3    3    0    0 -0.13694299243E+02 -0.28579045873E+02  0.90890936693E+01  0.32968277462E+02  0.51100000000E-03 0. -1.
        -11    1    3    3    0    0  0.11234587452E+02  0.14501577982E+02 -0.64557488867E+01  0.19447066954E+02  0.51100000000E-03 0.  1.
         12    1    3    3    0    0  0.90618655907E+01  0.10448423778E+02  0.14510798415E+02  0.20046202585E+02  0.00000000000E+00 0. -1.
</event>
<event>
 7    1  0.1302069E-013  0.7246162E+02  0.7816164E-02  0.1226708E+00
        -11   -1    0    0    0    0  0.00000000000E+00  0.00000000000E+00  0.45593999997E+02  0.45594000000E+02  0.51100000000E-03 0.  1.
         11   -1    0    0    0    0 -0.00000000000E+00 -0.00000000000E+00 -0.45593999997E+02  0.45594000000E+02  0.51100000000E-03 0. -1.
    9900012    2    1    2    0    0  0.58022161083E+01 -0.67756097388E+00  0.17791922286E+02  0.72461620230E+02  0.70000065051E+02 0.  0.
         12    1    1    2    0    0 -0.58022161083E+01  0.67756097388E+00 -0.17791922286E+02  0.18726379770E+02  0.00000000000E+00 0. -1.
         11    1    3    3    0    0  0.63357972638E+01  0.15770895478E+02  0.13412256824E+02  0.21650683696E+02  0.51100000000E-03 0. -1.
        -11    1    3    3    0    0 -0.12042437968E+02 -0.17032424658E+02  0.21640290790E+02  0.30057045558E+02  0.51100000000E-03 0.  1.
         12    1    3    3    0    0  0.11508856812E+02  0.58396820589E+00 -0.17260625327E+02  0.20753890977E+02  0.00000000000E+00 0. -1.
</event>
<event>
 7    1  0.1302069E-013  0.7246163E+02  0.7816164E-02  0.1226708E+00
        -11   -1    0    0    0    0  0.00000000000E+00  0.00000000000E+00  0.45593999997E+02  0.45594000000E+02  0.51100000000E-03 0.  1.
         11   -1    0    0    0    0 -0.00000000000E+00 -0.00000000000E+00 -0.45593999997E+02  0.45594000000E+02  0.51100000000E-03 0. -1.
    9900012    2    1    2    0    0  0.83947768081E+01 -0.97873906002E+01  0.13579831670E+02  0.72461625001E+02  0.70000071266E+02 0.  0.
         12    1    1    2    0    0 -0.83947768081E+01  0.97873906002E+01 -0.13579831670E+02  0.18726374999E+02  0.00000000000E+00 0. -1.
         11    1    3    3    0    0 -0.80065066359E+01  0.18889678778E+02 -0.11658919525E+02  0.23597765098E+02  0.51100000000E-03 0. -1.
        -11    1    3    3    0    0  0.81038796887E+01 -0.73871213086E+01  0.23518826493E+02  0.25949520749E+02  0.51100000000E-03 0.  1.
         12    1    3    3    0    0  0.82974037552E+01 -0.21289948070E+02  0.17199247017E+01  0.22914339154E+02  0.00000000000E+00 0. -1.
</event>
<event>
 7    1  0.1302069E-013  0.7246164E+02  0.7816164E-02  0.1226708E+00
        -11   -1    0    0    0    0  0.00000000000E+00  0.00000000000E+00  0.45593999997E+02  0.45594000000E+02  0.51100000000E-03 0.  1.
         11   -1    0    0    0    0 -0.00000000000E+00 -0.00000000000E+00 -0.45593999997E+02  0.45594000000E+02  0.51100000000E-03 0. -1.
    9900012    2    1    2    0    0  0.51159529057E+01 -0.16962935774E+02  0.60631919105E+01  0.72461642630E+02  0.70000094230E+02 0.  0.
         12    1    1    2    0    0 -0.51159529057E+01  0.16962935774E+02 -0.60631919105E+01  0.18726357370E+02  0.00000000000E+00 0. -1.
         11    1    3    3    0    0 -0.92378774464E+00 -0.19311406326E+02  0.36525507083E+00  0.19336938993E+02  0.51100000000E-03 0. -1.
        -11    1    3    3    0    0  0.19354363090E+02  0.15179784285E+02  0.18377203856E+02  0.30704052556E+02  0.51100000000E-03 0.  1.
        -12    1    3    3    0    0 -0.13314622440E+02 -0.12831313733E+02 -0.12679267016E+02  0.22420651081E+02  0.00000000000E+00 0.  1.
</event>
<event>
 7    1  0.1302069E-013  0.7246158E+02  0.7816164E-02  0.1226708E+00
        -11   -1    0    0    0    0  0.00000000000E+00  0.00000000000E+00  0.45593999997E+02  0.45594000000E+02  0.51100000000E-03 0.  1.
         11   -1    0    0    0    0 -0.00000000000E+00 -0.00000000000E+00 -0.45593999997E+02  0.45594000000E+02  0.51100000000E-03 0. -1.
    9900012    2    1    2    0    0  0.45824998693E+01 -0.89932638192E+01  0.15773422860E+02  0.72461575678E+02  0.70000007013E+02 0.  0.
         12    1    1    2    0    0 -0.45824998693E+01  0.89932638192E+01 -0.15773422860E+02  0.18726424322E+02  0.00000000000E+00 0. -1.
         11    1    3    3    0    0  0.24586260429E+02 -0.17434455131E+02  0.93422968758E+01  0.31555077860E+02  0.51100000000E-03 0. -1.
        -11    1    3    3    0    0 -0.30445685719E+01 -0.13730176873E+01  0.17895741951E+02  0.18204728935E+02  0.51100000000E-03 0.  1.
         12    1    3    3    0    0 -0.16959191988E+02  0.98142089990E+01 -0.11464615966E+02  0.22701768883E+02  0.00000000000E+00 0. -1.
</event>
<event>
 7    1  0.1302069E-013  0.7246155E+02  0.7816164E-02  0.1226708E+00
        -11   -1    0    0    0    0  0.00000000000E+00  0.00000000000E+00  0.45593999997E+02  0.45594000000E+02  0.51100000000E-03 0.  1.
         11   -1    0    0    0    0 -0.00000000000E+00 -0.00000000000E+00 -0.45593999997E+02  0.45594000000E+02  0.51100000000E-03 0. -1.
    9900012    2    1    2    0    0  0.58511247037E+01  0.28134455358E+01  0.17564988012E+02  0.72461549724E+02  0.69999973203E+02 0.  0.
         12    1    1    2    0    0 -0.58511247037E+01 -0.28134455358E+01 -0.17564988012E+02  0.18726450276E+02  0.00000000000E+00 0. -1.
         11    1    3    3    0    0 -0.15449395447E+02  0.13373299467E+02 -0.17824380859E+02  0.27115263443E+02  0.51100000000E-03 0. -1.
        -11    1    3    3    0    0  0.95141641766E+01 -0.11938098528E+02  0.13191293209E+02  0.20175423992E+02  0.51100000000E-03 0.  1.
         12    1    3    3    0    0  0.11786355974E+02  0.13782445970E+01  0.22198075661E+02  0.25170862289E+02  0.00000000000E+00 0. -1.
</event>
<event>
 7    1  0.1302069E-013  0.7246164E+02  0.7816164E-02  0.1226708E+00
        -11   -1    0    0    0    0  0.00000000000E+00  0.00000000000E+00  0.45593999997E+02  0.45594000000E+02  0.51100000000E-03 0. -1.
         11   -1    0    0    0    0 -0.00000000000E+00 -0.00000000000E+00 -0.45593999997E+02  0.45594000000E+02  0.51100000000E-03 0.  1.
    9900012    2    1    2    0    0  0.11061693765E+02 -0.61827262587E+01 -0.13787286736E+02  0.72461642946E+02  0.70000094643E+02 0.  0.
         12    1    1    2    0    0 -0.11061693765E+02  0.61827262587E+01  0.13787286736E+02  0.18726357054E+02  0.00000000000E+00 0. -1.
         11    1    3    3    0    0  0.65664824271E+01 -0.27883185562E+01  0.10740982509E+01  0.72143675502E+01  0.51100000000E-03 0. -1.
        -11    1    3    3    0    0 -0.17908002049E+02 -0.94345542964E+01 -0.30971881562E+02  0.36999524320E+02  0.51100000000E-03 0.  1.
        -12    1    3    3    0    0  0.22403213388E+02  0.60401465939E+01  0.16110496575E+02  0.28247751076E+02  0.00000000000E+00 0.  1.
</event>
<event>
 7    1  0.1302069E-013  0.7246157E+02  0.7816164E-02  0.1226708E+00
        -11   -1    0    0    0    0  0.00000000000E+00  0.00000000000E+00  0.45593999997E+02  0.45594000000E+02  0.51100000000E-03 0.  1.
         11   -1    0    0    0    0 -0.00000000000E+00 -0.00000000000E+00 -0.45593999997E+02  0.45594000000E+02  0.51100000000E-03 0. -1.
    9900012    2    1    2    0    0 -0.16381620499E+02 -0.41996520141E+01 -0.80426828871E+01  0.72461566403E+02  0.69999994931E+02 0.  0.
         12    1    1    2    0    0  0.16381620499E+02  0.41996520141E+01  0.80426828871E+01  0.18726433597E+02  0.00000000000E+00 0. -1.
         11    1    3    3    0    0 -0.24948200412E+02  0.10101773957E+02 -0.12745302655E+02  0.29780887846E+02  0.51100000000E-03 0. -1.
        -11    1    3    3    0    0  0.23989537750E+02 -0.67773475687E+01  0.53977775919E+01  0.25506202476E+02  0.51100000000E-03 0.  1.
        -12    1    3    3    0    0 -0.15422957838E+02 -0.75240784023E+01 -0.69515782357E+00  0.17174476081E+02  0.00000000000E+00 0.  1.
</event>
<event>
 8    1  0.1302069E-013  0.7246158E+02  0.7816164E-02  0.1226708E+00
        -11   -1    0    0    0    0  0.00000000000E+00  0.00000000000E+00  0.45593999997E+02  0.45594000000E+02  0.51100000000E-03 0.  1.
         11   -1    0    0    0    0 -0.00000000000E+00 -0.00000000000E+00 -0.45593999997E+02  0.45594000000E+02  0.51100000000E-03 0. -1.
    9900012    2    1    2    0    0 -0.41651113115E+01  0.14740753704E+02  0.10772233202E+02  0.72461575350E+02  0.70000006587E+02 0.  0.
        -24    2    3    3    0    0 -0.95426000140E+01  0.12699627749E+02  0.24717247474E+02  0.57376914161E+02  0.49283122831E+02 0.  0.
         12    1    1    2    0    0  0.41651113115E+01 -0.14740753704E+02 -0.10772233202E+02  0.18726424650E+02  0.00000000000E+00 0. -1.
         11    1    4    4    0    0 -0.20856098012E+02 -0.11407987452E+02  0.18257775724E+02  0.29974412032E+02  0.51100000000E-03 0. -1.
        -11    1    3    3    0    0  0.53774887025E+01  0.20411259552E+01 -0.13945014272E+02  0.15084661190E+02  0.51100000000E-03 0.  1.
        -12    1    4    4    0    0  0.11313497998E+02  0.24107615201E+02  0.64594717496E+01  0.27402502129E+02  0.00000000000E+00 0.  1.
</event>
<event>
 7    1  0.1302069E-013  0.7246151E+02  0.7816164E-02  0.1226708E+00
        -11   -1    0    0    0    0  0.00000000000E+00  0.00000000000E+00  0.45593999997E+02  0.45594000000E+02  0.51100000000E-03 0. -1.
         11   -1    0    0    0    0 -0.00000000000E+00 -0.00000000000E+00 -0.45593999997E+02  0.45594000000E+02  0.51100000000E-03 0.  1.
    9900012    2    1    2    0    0  0.12165928379E+02  0.12878186139E+02 -0.60682628033E+01  0.72461513276E+02  0.69999925723E+02 0.  0.
         12    1    1    2    0    0 -0.12165928379E+02 -0.12878186139E+02  0.60682628033E+01  0.18726486724E+02  0.00000000000E+00 0. -1.
         11    1    3    3    0    0 -0.16436799481E+02  0.85261271808E+01 -0.14168043265E+02  0.23315159706E+02  0.51100000000E-03 0. -1.
        -11    1    3    3    0    0  0.24280823151E+02 -0.37134065666E+01 -0.11794862453E+02  0.27248239242E+02  0.51100000000E-03 0.  1.
        -12    1    3    3    0    0  0.43219047092E+01  0.80654655250E+01  0.19894642915E+02  0.21898114329E+02  0.00000000000E+00 0.  1.
</event>
<event>
 7    1  0.1302069E-013  0.7246157E+02  0.7816164E-02  0.1226708E+00
        -11   -1    0    0    0    0  0.00000000000E+00  0.00000000000E+00  0.45593999997E+02  0.45594000000E+02  0.51100000000E-03 0.  1.
         11   -1    0    0    0    0 -0.00000000000E+00 -0.00000000000E+00 -0.45593999997E+02  0.45594000000E+02  0.51100000000E-03 0. -1.
    9900012    2    1    2    0    0 -0.63157405781E+01  0.54409750854E-01  0.17629172558E+02  0.72461567757E+02  0.69999996695E+02 0.  0.
         12    1    1    2    0    0  0.63157405781E+01 -0.54409750854E-01 -0.17629172558E+02  0.18726432243E+02  0.00000000000E+00 0. -1.
         11    1    3    3    0    0  0.15757216643E+02  0.97767919338E+01 -0.17708811719E+02  0.25641325037E+02  0.51100000000E-03 0. -1.
        -11    1    3    3    0    0  0.17575175587E+01 -0.12464420164E+01  0.12682826327E+02  0.12864547002E+02  0.51100000000E-03 0.  1.
         12    1    3    3    0    0 -0.23830474780E+02 -0.84759401666E+01  0.22655157950E+02  0.33955695718E+02  0.00000000000E+00 0. -1.
</event>
<event>
 7    1  0.1302069E-013  0.7246160E+02  0.7816164E-02  0.1226708E+00
        -11   -1    0    0    0    0  0.00000000000E+00  0.00000000000E+00  0.45593999997E+02  0.45594000000E+02  0.51100000000E-03 0.  1.
         11   -1    0    0    0    0 -0.00000000000E+00 -0.00000000000E+00 -0.45593999997E+02  0.45594000000E+02  0.51100000000E-03 0. -1.
    9900012    2    1    2    0    0  0.12272232923E+02  0.98846266179E+01  0.10117537371E+02  0.72461598671E+02  0.70000036966E+02 0.  0.
         12    1    1    2    0    0 -0.12272232923E+02 -0.98846266179E+01 -0.10117537371E+02  0.18726401329E+02  0.00000000000E+00 0. -1.
         11    1    3    3    0    0 -0.10678173215E+02 -0.13389165464E+02 -0.52415647229E+01  0.17909973089E+02  0.51100000000E-03 0. -1.
        -11    1    3    3    0    0  0.17654968046E+02  0.26468897589E+02 -0.59455564573E+01  0.32367423100E+02  0.51100000000E-03 0.  1.
         12    1    3    3    0    0  0.52954380923E+01 -0.31951055066E+01  0.21304658551E+02  0.22184202482E+02  0.00000000000E+00 0. -1.
</event>
<event>
 7    1  0.1302069E-013  0.7246156E+02  0.7816164E-02  0.1226708E+00
        -11   -1    0    0    0    0  0.00000000000E+00  0.00000000000E+00  0.45593999997E+02  0.45594000000E+02  0.51100000000E-03 0.  1.
         11   -1    0    0    0    0 -0.00000000000E+00 -0.00000000000E+00 -0.45593999997E+02  0.45594000000E+02  0.51100000000E-03 0. -1.
    9900012    2    1    2    0    0 -0.11526753060E+02 -0.90513981326E+01  0.11657003019E+02  0.72461559771E+02  0.69999986291E+02 0.  0.
         12    1    1    2    0    0  0.11526753060E+02  0.90513981326E+01 -0.11657003019E+02  0.18726440229E+02  0.00000000000E+00 0. -1.
         11    1    3    3    0    0 -0.37654727758E+02  0.29549344655E+01  0.35924292305E+01  0.37940950282E+02  0.51100000000E-03 0. -1.
        -11    1    3    3    0    0  0.18181813109E+02 -0.16398312147E+02  0.57199214643E+01  0.25143597019E+02  0.51100000000E-03 0.  1.
         12    1    3    3    0    0  0.79461615887E+01  0.43919795490E+01  0.23446523244E+01  0.93770124706E+01  0.00000000000E+00 0. -1.
</event>
<event>
 7    1  0.1302069E-013  0.7246159E+02  0.7816164E-02  0.1226708E+00
        -11   -1    0    0    0    0  0.00000000000E+00  0.00000000000E+00  0.45593999997E+02  0.45594000000E+02  0.51100000000E-03 0. -1.
         11   -1    0    0    0    0 -0.00000000000E+00 -0.00000000000E+00 -0.45593999997E+02  0.45594000000E+02  0.51100000000E-03 0.  1.
    9900012    2    1    2    0    0  0.20814789065E+01  0.15130003692E+02 -0.10836454636E+02  0.72461593104E+02  0.70000029714E+02 0.  0.
         12    1    1    2    0    0 -0.20814789065E+01 -0.15130003692E+02  0.10836454636E+02  0.18726406896E+02  0.00000000000E+00 0. -1.
         11    1    3    3    0    0 -0.83383014238E+01 -0.97093579231E+00  0.37473155130E+01  0.91930604677E+01  0.51100000000E-03 0. -1.
        -11    1    3    3    0    0 -0.58119397451E+01  0.96570209098E+01 -0.34784687923E+02  0.36565163895E+02  0.51100000000E-03 0.  1.
        -12    1    3    3    0    0  0.16231720075E+02  0.64439185747E+01  0.20200917775E+02  0.26703368742E+02  0.00000000000E+00 0.  1.
</event>
<event>
 7    1  0.1302069E-013  0.7246162E+02  0.7816164E-02  0.1226708E+00
        -11   -1    0    0    0    0  0.00000000000E+00  0.00000000000E+00  0.45593999997E+02  0.45594000000E+02  0.51100000000E-03 0. -1.
         11   -1    0    0    0    0 -0.00000000000E+00 -0.00000000000E+00 -0.45593999997E+02  0.45594000000E+02  0.51100000000E-03 0.  1.
    9900012    2    1    2    0    0 -0.29493858317E+00 -0.18685191831E+02 -0.12057934568E+01  0.72461619667E+02  0.70000064317E+02 0.  0.
         12    1    1    2    0    0  0.29493858317E+00  0.18685191831E+02  0.12057934568E+01  0.18726380333E+02  0.00000000000E+00 0. -1.
         11    1    3    3    0    0 -0.16454819085E+02 -0.30653421495E+02  0.60746317658E+01  0.35317056387E+02  0.51100000000E-03 0.  1.
        -11    1    3    3    0    0  0.13423251049E+02 -0.22708446797E+01  0.82331349420E+01  0.15909899922E+02  0.51100000000E-03 0. -1.
         12    1    3    3    0    0  0.27366294532E+01  0.14239074344E+02 -0.15513560165E+02  0.21234663358E+02  0.00000000000E+00 0. -1.
</event>
<event>
 7    1  0.1302069E-013  0.7246147E+02  0.7816164E-02  0.1226708E+00
        -11   -1    0    0    0    0  0.00000000000E+00  0.00000000000E+00  0.45593999997E+02  0.45594000000E+02  0.51100000000E-03 0. -1.
         11   -1    0    0    0    0 -0.00000000000E+00 -0.00000000000E+00 -0.45593999997E+02  0.45594000000E+02  0.51100000000E-03 0.  1.
    9900012    2    1    2    0    0 -0.11958090602E+02  0.10746170797E+02 -0.96024433067E+01  0.72461467083E+02  0.69999865547E+02 0.  0.
         12    1    1    2    0    0  0.11958090602E+02 -0.10746170797E+02  0.96024433067E+01  0.18726532917E+02  0.00000000000E+00 0. -1.
         11    1    3    3    0    0 -0.33955512414E+02 -0.67589410285E+01  0.12168880617E+02  0.36697980365E+02  0.51100000000E-03 0. -1.
        -11    1    3    3    0    0  0.75308633423E+01  0.82122034735E+01 -0.76804389206E+01  0.13533045882E+02  0.51100000000E-03 0.  1.
         12    1    3    3    0    0  0.14466558469E+02  0.92929083520E+01 -0.14090885003E+02  0.22230440836E+02  0.00000000000E+00 0. -1.
</event>
<event>
 7    1  0.1302069E-013  0.7246159E+02  0.7816164E-02  0.1226708E+00
        -11   -1    0    0    0    0  0.00000000000E+00  0.00000000000E+00  0.45593999997E+02  0.45594000000E+02  0.51100000000E-03 0.  1.
         11   -1    0    0    0    0 -0.00000000000E+00 -0.00000000000E+00 -0.45593999997E+02  0.45594000000E+02  0.51100000000E-03 0. -1.
    9900012    2    1    2    0    0 -0.17058566345E+02  0.33897751597E+01  0.69421382050E+01  0.72461586989E+02  0.70000021748E+02 0.  0.
         12    1    1    2    0    0  0.17058566345E+02 -0.33897751597E+01 -0.69421382050E+01  0.18726413011E+02  0.00000000000E+00 0. -1.
         11    1    3    3    0    0  0.21484388126E+02 -0.64154429407E+01  0.83695857496E+01  0.23932964863E+02  0.51100000000E-03 0. -1.
        -11    1    3    3    0    0 -0.34449982501E+02 -0.33151021935E+01 -0.27671465507E+01  0.34719566489E+02  0.51100000000E-03 0.  1.
        -12    1    3    3    0    0 -0.40929719703E+01  0.13120320294E+02  0.13396990061E+01  0.13809055637E+02  0.00000000000E+00 0.  1.
</event>
<event>
 7    1  0.1302069E-013  0.7246157E+02  0.7816164E-02  0.1226708E+00
        -11   -1    0    0    0    0  0.00000000000E+00  0.00000000000E+00  0.45593999997E+02  0.45594000000E+02  0.51100000000E-03 0. -1.
         11   -1    0    0    0    0 -0.00000000000E+00 -0.00000000000E+00 -0.45593999997E+02  0.45594000000E+02  0.51100000000E-03 0.  1.
    9900012    2    1    2    0    0  0.90560372807E+00 -0.84361895692E+01  0.16693998373E+02  0.72461574974E+02  0.70000006096E+02 0.  0.
         12    1    1    2    0    0 -0.90560372807E+00  0.84361895692E+01 -0.16693998373E+02  0.18726425026E+02  0.00000000000E+00 0. -1.
         11    1    3    3    0    0  0.50284723923E+01 -0.25644369475E+02  0.20648706240E+02  0.33305979794E+02  0.51100000000E-03 0. -1.
        -11    1    3    3    0    0  0.48574369212E+00  0.20071343015E+02 -0.16176778379E+02  0.25783384501E+02  0.51100000000E-03 0.  1.
        -12    1    3    3    0    0 -0.46086123563E+01 -0.28631631094E+01  0.12222070512E+02  0.13372210679E+02  0.00000000000E+00 0.  1.
</event>
<event>
 7    1  0.1302069E-013  0.7246157E+02  0.7816164E-02  0.1226708E+00
        -11   -1    0    0    0    0  0.00000000000E+00  0.00000000000E+00  0.45593999997E+02  0.45594000000E+02  0.51100000000E-03 0.  1.
         11   -1    0    0    0    0 -0.00000000000E+00 -0.00000000000E+00 -0.45593999997E+02  0.45594000000E+02  0.51100000000E-03 0. -1.
    9900012    2    1    2    0    0  0.45370751461E+01  0.11126874355E+02  0.14362692026E+02  0.72461566650E+02  0.69999995252E+02 0.  0.
         12    1    1    2    0    0 -0.45370751461E+01 -0.11126874355E+02 -0.14362692026E+02  0.18726433350E+02  0.00000000000E+00 0. -1.
         11    1    3    3    0    0 -0.55889348138E+01  0.23336068616E+02 -0.17239067969E+02  0.29546467734E+02  0.51100000000E-03 0. -1.
        -11    1    3    3    0    0  0.26128620715E+01  0.60799318353E+01  0.17271659340E+02  0.18496022165E+02  0.51100000000E-03 0.  1.
         12    1    3    3    0    0  0.75131478884E+01 -0.18289126097E+02  0.14330100655E+02  0.24419076751E+02  0.00000000000E+00 0. -1.
</event>
<event>
 7    1  0.1302069E-013  0.7246157E+02  0.7816164E-02  0.1226708E+00
        -11   -1    0    0    0    0  0.00000000000E+00  0.00000000000E+00  0.45593999997E+02  0.45594000000E+02  0.51100000000E-03 0.  1.
         11   -1    0    0    0    0 -0.00000000000E+00 -0.00000000000E+00 -0.45593999997E+02  0.45594000000E+02  0.51100000000E-03 0. -1.
    9900012    2    1    2    0    0  0.11208323818E+02  0.14395916062E+02  0.42202281010E+01  0.72461568218E+02  0.69999997295E+02 0.  0.
         12    1    1    2    0    0 -0.11208323818E+02 -0.14395916062E+02 -0.42202281010E+01  0.18726431782E+02  0.00000000000E+00 0. -1.
         11    1    3    3    0    0  0.47664947608E+01 -0.15410737830E+02 -0.21667751322E+02  0.27012992437E+02  0.51100000000E-03 0. -1.
        -11    1    3    3    0    0  0.63496167669E+01  0.25177590974E+02  0.29700733516E+02  0.39450757813E+02  0.51100000000E-03 0.  1.
        -12    1    3    3    0    0  0.92212290101E-01  0.46290629182E+01 -0.38127540932E+01  0.59978179684E+01  0.00000000000E+00 0.  1.
</event>
<event>
 7    1  0.1302069E-013  0.7246159E+02  0.7816164E-02  0.1226708E+00
        -11   -1    0    0    0    0  0.00000000000E+00  0.00000000000E+00  0.45593999997E+02  0.45594000000E+02  0.51100000000E-03 0.  1.
         11   -1    0    0    0    0 -0.00000000000E+00 -0.00000000000E+00 -0.45593999997E+02  0.45594000000E+02  0.51100000000E-03 0. -1.
    9900012    2    1    2    0    0 -0.17970766721E+02  0.37235484347E+01 -0.37235709760E+01  0.72461594838E+02  0.70000031972E+02 0.  0.
         12    1    1    2    0    0  0.17970766721E+02 -0.37235484347E+01  0.37235709760E+01  0.18726405162E+02  0.00000000000E+00 0. -1.
         11    1    3    3    0    0 -0.65243091014E+01 -0.79736865657E+01 -0.23890875206E+02  0.26017690233E+02  0.51100000000E-03 0. -1.
        -11    1    3    3    0    0 -0.90915737323E+00  0.12672458786E+02  0.29635556714E+02  0.32244131261E+02  0.51100000000E-03 0.  1.
        -12    1    3    3    0    0 -0.10537300246E+02 -0.97522378562E+00 -0.94682524836E+01  0.14199773344E+02  0.00000000000E+00 0.  1.
</event>
<event>
 7    1  0.1302069E-013  0.7246159E+02  0.7816164E-02  0.1226708E+00
        -11   -1    0    0    0    0  0.00000000000E+00  0.00000000000E+00  0.45593999997E+02  0.45594000000E+02  0.51100000000E-03 0.  1.
         11   -1    0    0    0    0 -0.00000000000E+00 -0.00000000000E+00 -0.45593999997E+02  0.45594000000E+02  0.51100000000E-03 0. -1.
    9900012    2    1    2    0    0  0.10168393952E+02 -0.14391398490E+02  0.63379750945E+01  0.72461587788E+02  0.70000022788E+02 0.  0.
         12    1    1    2    0    0 -0.10168393952E+02  0.14391398490E+02 -0.63379750945E+01  0.18726412212E+02  0.00000000000E+00 0. -1.
         11    1    3    3    0    0 -0.54195614643E+01 -0.10561644445E+01  0.11059951081E+02  0.12361619957E+02  0.51100000000E-03 0. -1.
        -11    1    3    3    0    0  0.31715077614E+02  0.13926581543E+01 -0.15966910162E+02  0.35534882371E+02  0.51100000000E-03 0.  1.
        -12    1    3    3    0    0 -0.16127122197E+02 -0.14727892199E+02  0.11244934176E+02  0.24565085459E+02  0.00000000000E+00 0.  1.
</event>
<event>
 7    1  0.1302069E-013  0.7246154E+02  0.7816164E-02  0.1226708E+00
        -11   -1    0    0    0    0  0.00000000000E+00  0.00000000000E+00  0.45593999997E+02  0.45594000000E+02  0.51100000000E-03 0.  1.
         11   -1    0    0    0    0 -0.00000000000E+00 -0.00000000000E+00 -0.45593999997E+02  0.45594000000E+02  0.51100000000E-03 0. -1.
    9900012    2    1    2    0    0 -0.96252343588E+01 -0.10960043149E+02  0.11743612637E+02  0.72461544914E+02  0.69999966938E+02 0.  0.
         12    1    1    2    0    0  0.96252343588E+01  0.10960043149E+02 -0.11743612637E+02  0.18726455086E+02  0.00000000000E+00 0. -1.
         11    1    3    3    0    0  0.19701889555E+02  0.10167740163E+02  0.16784968803E+02  0.27807958753E+02  0.51100000000E-03 0. -1.
        -11    1    3    3    0    0  0.36007327636E+01 -0.74758572302E+01 -0.34081119652E+01  0.89704484386E+01  0.51100000000E-03 0.  1.
         12    1    3    3    0    0 -0.32927856677E+02 -0.13651926082E+02 -0.16332441999E+01  0.35683137723E+02  0.00000000000E+00 0. -1.
</event>
<event>
 7    1  0.1302069E-013  0.7246154E+02  0.7816164E-02  0.1226708E+00
        -11   -1    0    0    0    0  0.00000000000E+00  0.00000000000E+00  0.45593999997E+02  0.45594000000E+02  0.51100000000E-03 0. -1.
         11   -1    0    0    0    0 -0.00000000000E+00 -0.00000000000E+00 -0.45593999997E+02  0.45594000000E+02  0.51100000000E-03 0.  1.
    9900012    2    1    2    0    0 -0.12818403034E+02  0.45088926734E+01 -0.12885597435E+02  0.72461543028E+02  0.69999964480E+02 0.  0.
         12    1    1    2    0    0  0.12818403034E+02 -0.45088926734E+01  0.12885597435E+02  0.18726456972E+02  0.00000000000E+00 0. -1.
         11    1    3    3    0    0  0.71390922001E+01 -0.26837303159E+01  0.13446347068E+02  0.15458761127E+02  0.51100000000E-03 0. -1.
        -11    1    3    3    0    0  0.48553400304E+01 -0.66702712397E+01 -0.27344420282E+02  0.28561935614E+02  0.51100000000E-03 0.  1.
         12    1    3    3    0    0 -0.24812835265E+02  0.13862894229E+02  0.10124757793E+01  0.28440846286E+02  0.00000000000E+00 0. -1.
</event>
<event>
 7    1  0.1302069E-013  0.7246162E+02  0.7816164E-02  0.1226708E+00
        -11   -1    0    0    0    0  0.00000000000E+00  0.00000000000E+00  0.45593999997E+02  0.45594000000E+02  0.51100000000E-03 0.  1.
         11   -1    0    0    0    0 -0.00000000000E+00 -0.00000000000E+00 -0.45593999997E+02  0.45594000000E+02  0.51100000000E-03 0. -1.
    9900012    2    1    2    0    0  0.71622112316E+01  0.15793020515E+02  0.70682864800E+01  0.72461616460E+02  0.70000060140E+02 0.  0.
         12    1    1    2    0    0 -0.71622112316E+01 -0.15793020515E+02 -0.70682864800E+01  0.18726383540E+02  0.00000000000E+00 0. -1.
         11    1    3    3    0    0 -0.50494055434E+00  0.31693037595E+02 -0.86063066598E+01  0.32844666409E+02  0.51100000000E-03 0. -1.
        -11    1    3    3    0    0  0.36062362093E+01 -0.18986028882E+02  0.23406955353E+02  0.30353908998E+02  0.51100000000E-03 0.  1.
        -12    1    3    3    0    0  0.40609155765E+01  0.30860118020E+01 -0.77323622130E+01  0.92630410533E+01  0.00000000000E+00 0.  1.
</event>
<event>
 7    1  0.1302069E-013  0.7246157E+02  0.7816164E-02  0.1226708E+00
        -11   -1    0    0    0    0  0.00000000000E+00  0.00000000000E+00  0.45593999997E+02  0.45594000000E+02  0.51100000000E-03 0.  1.
         11   -1    0    0    0    0 -0.00000000000E+00 -0.00000000000E+00 -0.45593999997E+02  0.45594000000E+02  0.51100000000E-03 0. -1.
    9900012    2    1    2    0    0  0.15845560507E+02 -0.70729793435E+01  0.70406196463E+01  0.72461570827E+02  0.70000000694E+02 0.  0.
         12    1    1    2    0    0 -0.15845560507E+02  0.70729793435E+01 -0.70406196463E+01  0.18726429173E+02  0.00000000000E+00 0. -1.
         11    1    3    3    0    0  0.26206526356E+01 -0.28372894480E+02 -0.17105351784E+02  0.33233748228E+02  0.51100000000E-03 0. -1.
        -11    1    3    3    0    0 -0.15326160107E+01  0.22449749092E+01  0.11875608076E+02  0.12182729235E+02  0.51100000000E-03 0.  1.
         12    1    3    3    0    0  0.14757523882E+02  0.19054940227E+02  0.12270363354E+02  0.27045093363E+02  0.00000000000E+00 0. -1.
</event>
<event>
 7    1  0.1302069E-013  0.7246151E+02  0.7816164E-02  0.1226708E+00
        -11   -1    0    0    0    0  0.00000000000E+00  0.00000000000E+00  0.45593999997E+02  0.45594000000E+02  0.51100000000E-03 0.  1.
         11   -1    0    0    0    0 -0.00000000000E+00 -0.00000000000E+00 -0.45593999997E+02  0.45594000000E+02  0.51100000000E-03 0. -1.
    9900012    2    1    2    0    0 -0.65264049258E+01  0.94503322558E+01  0.14791174749E+02  0.72461505628E+02  0.69999915761E+02 0.  0.
         12    1    1    2    0    0  0.65264049258E+01 -0.94503322558E+01 -0.14791174749E+02  0.18726494372E+02  0.00000000000E+00 0. -1.
         11    1    3    3    0    0  0.99351191301E+01  0.16362504054E+02 -0.80805356388E+01  0.20778190189E+02  0.51100000000E-03 0. -1.
        -11    1    3    3    0    0 -0.29786098627E+02 -0.35053367669E+01  0.72216535614E+01  0.30848846618E+02  0.51100000000E-03 0.  1.
        -12    1    3    3    0    0  0.13324574571E+02 -0.34068350311E+01  0.15650056826E+02  0.20834468822E+02  0.00000000000E+00 0.  1.
</event>
<event>
 7    1  0.1302069E-013  0.7246157E+02  0.7816164E-02  0.1226708E+00
        -11   -1    0    0    0    0  0.00000000000E+00  0.00000000000E+00  0.45593999997E+02  0.45594000000E+02  0.51100000000E-03 0.  1.
         11   -1    0    0    0    0 -0.00000000000E+00 -0.00000000000E+00 -0.45593999997E+02  0.45594000000E+02  0.51100000000E-03 0. -1.
    9900012    2    1    2    0    0  0.15453176597E+02  0.59150180333E+01  0.87687535961E+01  0.72461570952E+02  0.70000000856E+02 0.  0.
         12    1    1    2    0    0 -0.15453176597E+02 -0.59150180333E+01 -0.87687535961E+01  0.18726429048E+02  0.00000000000E+00 0. -1.
         11    1    3    3    0    0  0.69889663351E+01  0.57724211164E+01  0.28301313025E+02  0.29717516975E+02  0.51100000000E-03 0.  1.
        -11    1    3    3    0    0 -0.47160028239E+01 -0.88233232932E+01 -0.24156484289E+02  0.26146270290E+02  0.51100000000E-03 0. -1.
         12    1    3    3    0    0  0.13180213086E+02  0.89659202102E+01  0.46239248603E+01  0.16597783687E+02  0.00000000000E+00 0. -1.
</event>
<event>
 7    1  0.1302069E-013  0.7246157E+02  0.7816164E-02  0.1226708E+00
        -11   -1    0    0    0    0  0.00000000000E+00  0.00000000000E+00  0.45593999997E+02  0.45594000000E+02  0.51100000000E-03 0. -1.
         11   -1    0    0    0    0 -0.00000000000E+00 -0.00000000000E+00 -0.45593999997E+02  0.45594000000E+02  0.51100000000E-03 0.  1.
    9900012    2    1    2    0    0 -0.97769034903E+01 -0.15966484564E+02 -0.40331540688E+00  0.72461571229E+02  0.70000001218E+02 0.  0.
         12    1    1    2    0    0  0.97769034903E+01  0.15966484564E+02  0.40331540688E+00  0.18726428771E+02  0.00000000000E+00 0. -1.
         11    1    3    3    0    0 -0.29512461370E+02 -0.92595671171E+01  0.20899609892E+02  0.37329862754E+02  0.51100000000E-03 0. -1.
        -11    1    3    3    0    0  0.17517924032E+02  0.14902593112E+01 -0.79218344626E+01  0.19283516192E+02  0.51100000000E-03 0.  1.
         12    1    3    3    0    0  0.22176338472E+01 -0.81971767582E+01 -0.13381090836E+02  0.15848192284E+02  0.00000000000E+00 0. -1.
</event>
<event>
 7    1  0.1302069E-013  0.7246156E+02  0.7816164E-02  0.1226708E+00
        -11   -1    0    0    0    0  0.00000000000E+00  0.00000000000E+00  0.45593999997E+02  0.45594000000E+02  0.51100000000E-03 0. -1.
         11   -1    0    0    0    0 -0.00000000000E+00 -0.00000000000E+00 -0.45593999997E+02  0.45594000000E+02  0.51100000000E-03 0.  1.
    9900012    2    1    2    0    0  0.10541201802E+02  0.79053253791E+01  0.13306710708E+02  0.72461557342E+02  0.69999983127E+02 0.  0.
         12    1    1    2    0    0 -0.10541201802E+02 -0.79053253791E+01 -0.13306710708E+02  0.18726442658E+02  0.00000000000E+00 0. -1.
         11    1    3    3    0    0  0.22684536446E+02  0.21435401323E+02  0.63889891044E+01  0.31857241024E+02  0.51100000000E-03 0. -1.
        -11    1    3    3    0    0 -0.15817402812E+02 -0.24026192611E+02  0.64170527321E+01  0.29472474092E+02  0.51100000000E-03 0.  1.
        -12    1    3    3    0    0  0.36740681682E+01  0.10496116667E+02  0.50066887125E+00  0.11131842225E+02  0.00000000000E+00 0.  1.
</event>
<event>
 7    1  0.1882109E-013  0.7246160E+02  0.7816164E-02  0.1226708E+00
        -11   -1    0    0    0    0  0.00000000000E+00  0.00000000000E+00  0.45593999997E+02  0.45594000000E+02  0.51100000000E-03 0. -1.
         11   -1    0    0    0    0 -0.00000000000E+00 -0.00000000000E+00 -0.45593999997E+02  0.45594000000E+02  0.51100000000E-03 0.  1.
    9900012    2    1    2    0    0 -0.56429575132E+01 -0.33265052980E+01 -0.17543364162E+02  0.72461595296E+02  0.70000032570E+02 0.  0.
         12    1    1    2    0    0  0.56429575132E+01  0.33265052980E+01  0.17543364162E+02  0.18726404704E+02  0.00000000000E+00 0. -1.
         11    1    3    3    0    0  0.16738663637E+02  0.99594967072E+01 -0.29578439385E+01  0.19700844551E+02  0.51100000000E-03 0. -1.
        -11    1    3    3    0    0 -0.16300555160E+02 -0.96350160680E+01  0.13846232847E+02  0.23457617046E+02  0.51100000000E-03 0.  1.
        -12    1    3    3    0    0 -0.60810659906E+01 -0.36509859372E+01 -0.28431753071E+02  0.29303133699E+02  0.00000000000E+00 0.  1.
</event>
<event>
 7    1  0.1302069E-013  0.7246159E+02  0.7816164E-02  0.1226708E+00
        -11   -1    0    0    0    0  0.00000000000E+00  0.00000000000E+00  0.45593999997E+02  0.45594000000E+02  0.51100000000E-03 0. -1.
         11   -1    0    0    0    0 -0.00000000000E+00 -0.00000000000E+00 -0.45593999997E+02  0.45594000000E+02  0.51100000000E-03 0.  1.
    9900012    2    1    2    0    0 -0.17562115246E+01 -0.14398927119E+01 -0.18588188084E+02  0.72461593346E+02  0.70000030029E+02 0.  0.
         12    1    1    2    0    0  0.17562115246E+01  0.14398927119E+01  0.18588188084E+02  0.18726406654E+02  0.00000000000E+00 0. -1.
         11    1    3    3    0    0 -0.72859518075E+01  0.82902077338E+01  0.57305786143E+01  0.12435922544E+02  0.51100000000E-03 0. -1.
        -11    1    3    3    0    0  0.28322306914E+02 -0.14097859563E+02 -0.12975695869E+02  0.34194610639E+02  0.51100000000E-03 0.  1.
        -12    1    3    3    0    0 -0.22792566631E+02  0.43677591176E+01 -0.11343070829E+02  0.25831060163E+02  0.00000000000E+00 0.  1.
</event>
<event>
 7    1  0.1302069E-013  0.7246161E+02  0.7816164E-02  0.1226708E+00
        -11   -1    0    0    0    0  0.00000000000E+00  0.00000000000E+00  0.45593999997E+02  0.45594000000E+02  0.51100000000E-03 0.  1.
         11   -1    0    0    0    0 -0.00000000000E+00 -0.00000000000E+00 -0.45593999997E+02  0.45594000000E+02  0.51100000000E-03 0. -1.
    9900012    2    1    2    0    0 -0.11627596355E+02  0.63164613268E+01  0.13250624511E+02  0.72461608713E+02  0.70000050048E+02 0.  0.
         12    1    1    2    0    0  0.11627596355E+02 -0.63164613268E+01 -0.13250624511E+02  0.18726391287E+02  0.00000000000E+00 0. -1.
         11    1    3    3    0    0 -0.19772800195E+02  0.94057322258E+01  0.38611479968E+01  0.22233755652E+02  0.51100000000E-03 0. -1.
        -11    1    3    3    0    0  0.18381924426E+02 -0.10344825516E+02 -0.12845809134E+02  0.24696667248E+02  0.51100000000E-03 0.  1.
        -12    1    3    3    0    0 -0.10236720586E+02  0.72555546174E+01  0.22235285649E+02  0.25531185814E+02  0.00000000000E+00 0.  1.
</event>
<event>
 7    1  0.1302069E-013  0.7246161E+02  0.7816164E-02  0.1226708E+00
        -11   -1    0    0    0    0  0.00000000000E+00  0.00000000000E+00  0.45593999997E+02  0.45594000000E+02  0.51100000000E-03 0.  1.
         11   -1    0    0    0    0 -0.00000000000E+00 -0.00000000000E+00 -0.45593999997E+02  0.45594000000E+02  0.51100000000E-03 0. -1.
    9900012    2    1    2    0    0 -0.79800039616E+01 -0.16512504299E+02  0.37860900553E+01  0.72461608480E+02  0.70000049743E+02 0.  0.
         12    1    1    2    0    0  0.79800039616E+01  0.16512504299E+02 -0.37860900553E+01  0.18726391520E+02  0.00000000000E+00 0. -1.
         11    1    3    3    0    0  0.19233740901E+01 -0.12582245744E+02  0.15935858360E+02  0.20395192027E+02  0.51100000000E-03 0. -1.
        -11    1    3    3    0    0 -0.15429435794E+02  0.20419420796E+02 -0.48133079732E+01  0.26042046165E+02  0.51100000000E-03 0.  1.
        -12    1    3    3    0    0  0.55260577427E+01 -0.24349679351E+02 -0.73364603319E+01  0.26024370288E+02  0.00000000000E+00 0.  1.
</event>
<event>
 7    1  0.1302069E-013  0.7246156E+02  0.7816164E-02  0.1226708E+00
        -11   -1    0    0    0    0  0.00000000000E+00  0.00000000000E+00  0.45593999997E+02  0.45594000000E+02  0.51100000000E-03 0.  1.
         11   -1    0    0    0    0 -0.00000000000E+00 -0.00000000000E+00 -0.45593999997E+02  0.45594000000E+02  0.51100000000E-03 0. -1.
    9900012    2    1    2    0    0  0.10614995793E+02 -0.98482375080E+01  0.11874911026E+02  0.72461563351E+02  0.69999990955E+02 0.  0.
         12    1    1    2    0    0 -0.10614995793E+02  0.98482375080E+01 -0.11874911026E+02  0.18726436649E+02  0.00000000000E+00 0. -1.
         11    1    3    3    0    0 -0.63944287806E+01 -0.31186656406E+01  0.18370479604E+02  0.19699982639E+02  0.51100000000E-03 0. -1.
        -11    1    3    3    0    0 -0.37611529490E+01 -0.17739313071E+02 -0.18890854287E+02  0.26185757116E+02  0.51100000000E-03 0.  1.
        -12    1    3    3    0    0  0.20770577523E+02  0.11009741204E+02  0.12395285709E+02  0.26575823596E+02  0.00000000000E+00 0.  1.
</event>
<event>
 7    1  0.1302069E-013  0.7246155E+02  0.7816164E-02  0.1226708E+00
        -11   -1    0    0    0    0  0.00000000000E+00  0.00000000000E+00  0.45593999997E+02  0.45594000000E+02  0.51100000000E-03 0. -1.
         11   -1    0    0    0    0 -0.00000000000E+00 -0.00000000000E+00 -0.45593999997E+02  0.45594000000E+02  0.51100000000E-03 0.  1.
    9900012    2    1    2    0    0 -0.18252052602E+02  0.15406714338E+01  0.38947123414E+01  0.72461551407E+02  0.69999975396E+02 0.  0.
         12    1    1    2    0    0  0.18252052602E+02 -0.15406714338E+01 -0.38947123414E+01  0.18726448593E+02  0.00000000000E+00 0. -1.
         11    1    3    3    0    0  0.18558334193E+00 -0.17379597455E+02 -0.16149609964E+01  0.17455456114E+02  0.51100000000E-03 0. -1.
        -11    1    3    3    0    0 -0.16498447301E+02  0.34466894805E+02 -0.52830287588E+00  0.38215765137E+02  0.51100000000E-03 0.  1.
        -12    1    3    3    0    0 -0.19391886437E+01 -0.15546625917E+02  0.60379762137E+01  0.16790330156E+02  0.00000000000E+00 0.  1.
</event>
<event>
 7    1  0.1302069E-013  0.7246158E+02  0.7816164E-02  0.1226708E+00
        -11   -1    0    0    0    0  0.00000000000E+00  0.00000000000E+00  0.45593999997E+02  0.45594000000E+02  0.51100000000E-03 0.  1.
         11   -1    0    0    0    0 -0.00000000000E+00 -0.00000000000E+00 -0.45593999997E+02  0.45594000000E+02  0.51100000000E-03 0. -1.
    9900012    2    1    2    0    0 -0.12405452308E+02 -0.11714147053E+02  0.77176511537E+01  0.72461584767E+02  0.70000018853E+02 0.  0.
         12    1    1    2    0    0  0.12405452308E+02  0.11714147053E+02 -0.77176511537E+01  0.18726415233E+02  0.00000000000E+00 0. -1.
         11    1    3    3    0    0 -0.10390917056E+02 -0.14981123997E+02 -0.14553702672E+02  0.23328426762E+02  0.51100000000E-03 0. -1.
        -11    1    3    3    0    0 -0.85598518072E+01  0.18669548196E+02  0.24807875324E+02  0.32206424377E+02  0.51100000000E-03 0.  1.
        -12    1    3    3    0    0  0.65453165558E+01 -0.15402571252E+02 -0.25365214989E+01  0.16926733628E+02  0.00000000000E+00 0.  1.
</event>
<event>
 7    1  0.1302069E-013  0.7246156E+02  0.7816164E-02  0.1226708E+00
        -11   -1    0    0    0    0  0.00000000000E+00  0.00000000000E+00  0.45593999997E+02  0.45594000000E+02  0.51100000000E-03 0.  1.
         11   -1    0    0    0    0 -0.00000000000E+00 -0.00000000000E+00 -0.45593999997E+02  0.45594000000E+02  0.51100000000E-03 0. -1.
    9900012    2    1    2    0    0  0.16758501043E+02  0.33346736761E+01  0.76623873599E+01  0.72461559180E+02  0.69999985522E+02 0.  0.
         12    1    1    2    0    0 -0.16758501043E+02 -0.33346736761E+01 -0.76623873599E+01  0.18726440820E+02  0.00000000000E+00 0. -1.
         11    1    3    3    0    0  0.39184897159E+02  0.14819925907E+02 -0.46750570359E+01  0.42153796125E+02  0.51100000000E-03 0. -1.
        -11    1    3    3    0    0 -0.18199426354E+02 -0.13656727384E+02  0.11455242558E+02  0.25474455927E+02  0.51100000000E-03 0.  1.
        -12    1    3    3    0    0 -0.42269697620E+01  0.21714751531E+01  0.88220183796E+00  0.48333071279E+01  0.00000000000E+00 0.  1.
</event>
<event>
 7    1  0.1302069E-013  0.7246143E+02  0.7816164E-02  0.1226708E+00
        -11   -1    0    0    0    0  0.00000000000E+00  0.00000000000E+00  0.45593999997E+02  0.45594000000E+02  0.51100000000E-03 0. -1.
         11   -1    0    0    0    0 -0.00000000000E+00 -0.00000000000E+00 -0.45593999997E+02  0.45594000000E+02  0.51100000000E-03 0.  1.
    9900012    2    1    2    0    0 -0.21963106598E+01 -0.11482934842E+02 -0.14628830766E+02  0.72461434306E+02  0.69999822850E+02 0.  0.
         12    1    1    2    0    0  0.21963106598E+01  0.11482934842E+02  0.14628830766E+02  0.18726565694E+02  0.00000000000E+00 0. -1.
         11    1    3    3    0    0  0.26095904539E+01 -0.17082072091E+02 -0.26870560799E+02  0.31947365888E+02  0.51100000000E-03 0. -1.
        -11    1    3    3    0    0  0.15296608778E+02  0.87776639105E+01  0.93379229529E+01  0.19955711693E+02  0.51100000000E-03 0.  1.
         12    1    3    3    0    0 -0.20102509892E+02 -0.31785266616E+01  0.29038070799E+01  0.20558356726E+02  0.00000000000E+00 0. -1.
</event>
<event>
 7    1  0.1302069E-013  0.7246159E+02  0.7816164E-02  0.1226708E+00
        -11   -1    0    0    0    0  0.00000000000E+00  0.00000000000E+00  0.45593999997E+02  0.45594000000E+02  0.51100000000E-03 0. -1.
         11   -1    0    0    0    0 -0.00000000000E+00 -0.00000000000E+00 -0.45593999997E+02  0.45594000000E+02  0.51100000000E-03 0.  1.
    9900012    2    1    2    0    0 -0.16997906371E+02  0.67833389781E+01  0.39668550299E+01  0.72461589572E+02  0.70000025113E+02 0.  0.
         12    1    1    2    0    0  0.16997906371E+02 -0.67833389781E+01 -0.39668550299E+01  0.18726410428E+02  0.00000000000E+00 0. -1.
         11    1    3    3    0    0  0.22893393539E+02 -0.20150028385E+00 -0.11478061191E+02  0.25610426765E+02  0.51100000000E-03 0.  1.
        -11    1    3    3    0    0 -0.23655519886E+02 -0.40540240725E+01  0.12297152773E+02  0.26967363587E+02  0.51100000000E-03 0. -1.
         12    1    3    3    0    0 -0.16235780024E+02  0.11038863334E+02  0.31477634484E+01  0.19883799221E+02  0.00000000000E+00 0. -1.
</event>
<event>
 7    1  0.1302069E-013  0.7246153E+02  0.7816164E-02  0.1226708E+00
        -11   -1    0    0    0    0  0.00000000000E+00  0.00000000000E+00  0.45593999997E+02  0.45594000000E+02  0.51100000000E-03 0.  1.
         11   -1    0    0    0    0 -0.00000000000E+00 -0.00000000000E+00 -0.45593999997E+02  0.45594000000E+02  0.51100000000E-03 0. -1.
    9900012    2    1    2    0    0  0.73867354424E+01 -0.30201907493E+01  0.16940931684E+02  0.72461532661E+02  0.69999950976E+02 0.  0.
         12    1    1    2    0    0 -0.73867354424E+01  0.30201907493E+01 -0.16940931684E+02  0.18726467339E+02  0.00000000000E+00 0. -1.
         11    1    3    3    0    0  0.15427589879E+02 -0.24797809947E+02  0.15350172753E+02  0.32993479833E+02  0.51100000000E-03 0. -1.
        -11    1    3    3    0    0 -0.91266294300E+01  0.25660380687E+02  0.10890654577E+02  0.29331840363E+02  0.51100000000E-03 0.  1.
         12    1    3    3    0    0  0.10857749931E+01 -0.38827614889E+01 -0.92998956459E+01  0.10136212465E+02  0.00000000000E+00 0. -1.
</event>
<event>
 7    1  0.1302069E-013  0.7246156E+02  0.7816164E-02  0.1226708E+00
        -11   -1    0    0    0    0  0.00000000000E+00  0.00000000000E+00  0.45593999997E+02  0.45594000000E+02  0.51100000000E-03 0.  1.
         11   -1    0    0    0    0 -0.00000000000E+00 -0.00000000000E+00 -0.45593999997E+02  0.45594000000E+02  0.51100000000E-03 0. -1.
    9900012    2    1    2    0    0  0.17326808369E+02 -0.14575973295E+01 -0.69524492898E+01  0.72461563356E+02  0.69999990962E+02 0.  0.
         12    1    1    2    0    0 -0.17326808369E+02  0.14575973295E+01  0.69524492898E+01  0.18726436644E+02  0.00000000000E+00 0. -1.
         11    1    3    3    0    0  0.99531898241E+01 -0.14554147443E+02 -0.24963913986E+02  0.30562823777E+02  0.51100000000E-03 0. -1.
        -11    1    3    3    0    0  0.17856206539E+02  0.38165645982E+00  0.18087867964E+02  0.25419692000E+02  0.51100000000E-03 0.  1.
        -12    1    3    3    0    0 -0.10482587994E+02  0.12714893653E+02 -0.76403267639E-01  0.16479047579E+02  0.00000000000E+00 0.  1.
</event>
<event>
 7    1  0.1302069E-013  0.7246132E+02  0.7816164E-02  0.1226709E+00
        -11   -1    0    0    0    0  0.00000000000E+00  0.00000000000E+00  0.45593999997E+02  0.45594000000E+02  0.51100000000E-03 0. -1.
         11   -1    0    0    0    0 -0.00000000000E+00 -0.00000000000E+00 -0.45593999997E+02  0.45594000000E+02  0.51100000000E-03 0.  1.
    9900012    2    1    2    0    0  0.99749485196E+01 -0.76343437865E+01 -0.13889045775E+02  0.72461323959E+02  0.69999679102E+02 0.  0.
         12    1    1    2    0    0 -0.99749485196E+01  0.76343437865E+01  0.13889045775E+02  0.18726676041E+02  0.00000000000E+00 0. -1.
         11    1    3    3    0    0 -0.20248140789E+01  0.16413690556E+02 -0.10868453273E+02  0.19789704053E+02  0.51100000000E-03 0. -1.
        -11    1    3    3    0    0  0.12959396664E+01 -0.33795911118E+02 -0.11705427260E+02  0.35789105822E+02  0.51100000000E-03 0.  1.
        -12    1    3    3    0    0  0.10703822932E+02  0.97478767761E+01  0.86848347583E+01  0.16882514084E+02  0.00000000000E+00 0.  1.
</event>
<event>
 7    1  0.1302069E-013  0.7246151E+02  0.7816164E-02  0.1226708E+00
        -11   -1    0    0    0    0  0.00000000000E+00  0.00000000000E+00  0.45593999997E+02  0.45594000000E+02  0.51100000000E-03 0.  1.
         11   -1    0    0    0    0 -0.00000000000E+00 -0.00000000000E+00 -0.45593999997E+02  0.45594000000E+02  0.51100000000E-03 0. -1.
    9900012    2    1    2    0    0 -0.67579847811E+01  0.47872316390E+00  0.17457999773E+02  0.72461513670E+02  0.69999926237E+02 0.  0.
         12    1    1    2    0    0  0.67579847811E+01 -0.47872316390E+00 -0.17457999773E+02  0.18726486330E+02  0.00000000000E+00 0. -1.
         11    1    3    3    0    0  0.21151167725E+02  0.25136155959E+02  0.10613092074E+02  0.34522977220E+02  0.51100000000E-03 0.  1.
        -11    1    3    3    0    0 -0.18603949706E+02 -0.15700174735E+02  0.34741673841E+01  0.24590084804E+02  0.51100000000E-03 0. -1.
        -12    1    3    3    0    0 -0.93052027998E+01 -0.89572580596E+01  0.33707403146E+01  0.13348451647E+02  0.00000000000E+00 0.  1.
</event>
<event>
 7    1  0.1302069E-013  0.7246164E+02  0.7816164E-02  0.1226708E+00
        -11   -1    0    0    0    0  0.00000000000E+00  0.00000000000E+00  0.45593999997E+02  0.45594000000E+02  0.51100000000E-03 0.  1.
         11   -1    0    0    0    0 -0.00000000000E+00 -0.00000000000E+00 -0.45593999997E+02  0.45594000000E+02  0.51100000000E-03 0. -1.
    9900012    2    1    2    0    0  0.45960378099E+01 -0.43507831399E+01  0.17624521339E+02  0.72461638103E+02  0.70000088333E+02 0.  0.
         12    1    1    2    0    0 -0.45960378099E+01  0.43507831399E+01 -0.17624521339E+02  0.18726361897E+02  0.00000000000E+00 0. -1.
         11    1    3    3    0    0  0.37000773683E+01 -0.88944191255E+01 -0.69592270730E+01  0.11884111487E+02  0.51100000000E-03 0. -1.
        -11    1    3    3    0    0 -0.40279092993E+01 -0.55644984798E+01  0.40506668766E+02  0.41085008354E+02  0.51100000000E-03 0.  1.
        -12    1    3    3    0    0  0.49238697410E+01  0.10108134465E+02 -0.15922920354E+02  0.19492518262E+02  0.00000000000E+00 0.  1.
</event>
<event>
 7    1  0.1302069E-013  0.7246152E+02  0.7816164E-02  0.1226708E+00
        -11   -1    0    0    0    0  0.00000000000E+00  0.00000000000E+00  0.45593999997E+02  0.45594000000E+02  0.51100000000E-03 0.  1.
         11   -1    0    0    0    0 -0.00000000000E+00 -0.00000000000E+00 -0.45593999997E+02  0.45594000000E+02  0.51100000000E-03 0. -1.
    9900012    2    1    2    0    0 -0.17200588003E+02  0.17232744479E+01  0.72007658053E+01  0.72461523272E+02  0.69999938745E+02 0.  0.
         12    1    1    2    0    0  0.17200588003E+02 -0.17232744479E+01 -0.72007658053E+01  0.18726476728E+02  0.00000000000E+00 0. -1.
         11    1    3    3    0    0  0.26030993478E+01  0.20279339335E+02 -0.51738943243E+01  0.21090208933E+02  0.51100000000E-03 0. -1.
        -11    1    3    3    0    0 -0.14530963896E+02 -0.23394426448E+02 -0.88864546537E+01  0.28938161261E+02  0.51100000000E-03 0.  1.
        -12    1    3    3    0    0 -0.52727234545E+01  0.48383615606E+01  0.21261114783E+02  0.22433153079E+02  0.00000000000E+00 0.  1.
</event>
<event>
 7    1  0.1302069E-013  0.7246168E+02  0.7816164E-02  0.1226708E+00
        -11   -1    0    0    0    0  0.00000000000E+00  0.00000000000E+00  0.45593999997E+02  0.45594000000E+02  0.51100000000E-03 0. -1.
         11   -1    0    0    0    0 -0.00000000000E+00 -0.00000000000E+00 -0.45593999997E+02  0.45594000000E+02  0.51100000000E-03 0.  1.
    9900012    2    1    2    0    0 -0.54233634335E+01  0.13085768344E+02 -0.12248457001E+02  0.72461684212E+02  0.70000148399E+02 0.  0.
         12    1    1    2    0    0  0.54233634335E+01 -0.13085768344E+02  0.12248457001E+02  0.18726315788E+02  0.00000000000E+00 0. -1.
         11    1    3    3    0    0 -0.16281248563E+02  0.25319667491E+02 -0.22590645305E+02  0.37636443405E+02  0.51100000000E-03 0. -1.
        -11    1    3    3    0    0 -0.67961848337E+01 -0.12770046222E+02  0.91629209557E+01  0.17123706652E+02  0.51100000000E-03 0.  1.
        -12    1    3    3    0    0  0.17654069963E+02  0.53614707432E+00  0.11792673488E+01  0.17701534155E+02  0.00000000000E+00 0.  1.
</event>
<event>
 7    1  0.1302069E-013  0.7246153E+02  0.7816164E-02  0.1226708E+00
        -11   -1    0    0    0    0  0.00000000000E+00  0.00000000000E+00  0.45593999997E+02  0.45594000000E+02  0.51100000000E-03 0.  1.
         11   -1    0    0    0    0 -0.00000000000E+00 -0.00000000000E+00 -0.45593999997E+02  0.45594000000E+02  0.51100000000E-03 0. -1.
    9900012    2    1    2    0    0 -0.79962202784E+01  0.15991355522E+02 -0.55693572197E+01  0.72461528629E+02  0.69999945723E+02 0.  0.
         12    1    1    2    0    0  0.79962202784E+01 -0.15991355522E+02  0.55693572197E+01  0.18726471371E+02  0.00000000000E+00 0. -1.
         11    1    3    3    0    0 -0.47808382591E+01  0.17334144766E+02 -0.23464430822E+02  0.29561943496E+02  0.51100000000E-03 0. -1.
        -11    1    3    3    0    0 -0.68110855380E+01  0.46943219697E+01  0.28779105820E+02  0.29944356346E+02  0.51100000000E-03 0.  1.
         12    1    3    3    0    0  0.35957035187E+01 -0.60371112129E+01 -0.10884032217E+02  0.12955228786E+02  0.00000000000E+00 0. -1.
</event>
<event>
 7    1  0.1302069E-013  0.7246157E+02  0.7816164E-02  0.1226708E+00
        -11   -1    0    0    0    0  0.00000000000E+00  0.00000000000E+00  0.45593999997E+02  0.45594000000E+02  0.51100000000E-03 0. -1.
         11   -1    0    0    0    0 -0.00000000000E+00 -0.00000000000E+00 -0.45593999997E+02  0.45594000000E+02  0.51100000000E-03 0.  1.
    9900012    2    1    2    0    0  0.15856227921E+02  0.32480420327E+01 -0.94185757298E+01  0.72461566552E+02  0.69999995125E+02 0.  0.
         12    1    1    2    0    0 -0.15856227921E+02 -0.32480420327E+01  0.94185757298E+01  0.18726433448E+02  0.00000000000E+00 0. -1.
         11    1    3    3    0    0 -0.15680887958E+02  0.23360370181E+02 -0.51976323432E+01  0.28611405495E+02  0.51100000000E-03 0. -1.
        -11    1    3    3    0    0  0.18391044209E+02 -0.15837049044E+02 -0.12942077474E+02  0.27505272206E+02  0.51100000000E-03 0.  1.
        -12    1    3    3    0    0  0.13146071670E+02 -0.42752791042E+01  0.87211340873E+01  0.16344888850E+02  0.00000000000E+00 0.  1.
</event>
<event>
 7    1  0.1302069E-013  0.7246151E+02  0.7816164E-02  0.1226708E+00
        -11   -1    0    0    0    0  0.00000000000E+00  0.00000000000E+00  0.45593999997E+02  0.45594000000E+02  0.51100000000E-03 0.  1.
         11   -1    0    0    0    0 -0.00000000000E+00 -0.00000000000E+00 -0.45593999997E+02  0.45594000000E+02  0.51100000000E-03 0. -1.
    9900012    2    1    2    0    0  0.16375856826E+02  0.16819062133E+01  0.89265945816E+01  0.72461505771E+02  0.69999915946E+02 0.  0.
         12    1    1    2    0    0 -0.16375856826E+02 -0.16819062133E+01 -0.89265945816E+01  0.18726494229E+02  0.00000000000E+00 0. -1.
         11    1    3    3    0    0 -0.53656611894E+01 -0.28282761179E+02  0.64618823491E+01  0.29503573066E+02  0.51100000000E-03 0.  1.
        -11    1    3    3    0    0  0.26042844920E+02  0.27630837673E+02  0.17263572717E+01  0.38008857806E+02  0.51100000000E-03 0. -1.
        -12    1    3    3    0    0 -0.43013269046E+01  0.23338297200E+01  0.73835496076E+00  0.49490748984E+01  0.00000000000E+00 0.  1.
</event>
<event>
 7    1  0.1302069E-013  0.7246160E+02  0.7816164E-02  0.1226708E+00
        -11   -1    0    0    0    0  0.00000000000E+00  0.00000000000E+00  0.45593999997E+02  0.45594000000E+02  0.51100000000E-03 0.  1.
         11   -1    0    0    0    0 -0.00000000000E+00 -0.00000000000E+00 -0.45593999997E+02  0.45594000000E+02  0.51100000000E-03 0. -1.
    9900012    2    1    2    0    0 -0.17835039639E+02  0.38918217041E+01 -0.41764904437E+01  0.72461601854E+02  0.70000041112E+02 0.  0.
         12    1    1    2    0    0  0.17835039639E+02 -0.38918217041E+01  0.41764904437E+01  0.18726398146E+02  0.00000000000E+00 0. -1.
         11    1    3    3    0    0 -0.31272416406E+02  0.97723055224E+00 -0.14644599640E+02  0.34545380390E+02  0.51100000000E-03 0. -1.
        -11    1    3    3    0    0  0.19063914882E+02  0.57918003203E+01  0.18843856516E+02  0.27423871540E+02  0.51100000000E-03 0.  1.
        -12    1    3    3    0    0 -0.56265381153E+01 -0.28772091685E+01 -0.83757473202E+01  0.10492349924E+02  0.00000000000E+00 0.  1.
</event>
<event>
 7    1  0.1302069E-013  0.7246162E+02  0.7816164E-02  0.1226708E+00
        -11   -1    0    0    0    0  0.00000000000E+00  0.00000000000E+00  0.45593999997E+02  0.45594000000E+02  0.51100000000E-03 0.  1.
         11   -1    0    0    0    0 -0.00000000000E+00 -0.00000000000E+00 -0.45593999997E+02  0.45594000000E+02  0.51100000000E-03 0. -1.
    9900012    2    1    2    0    0 -0.16271953489E+02  0.34834147017E+01  0.85887424537E+01  0.72461624343E+02  0.70000070408E+02 0.  0.
         12    1    1    2    0    0  0.16271953489E+02 -0.34834147017E+01 -0.85887424537E+01  0.18726375657E+02  0.00000000000E+00 0. -1.
         11    1    3    3    0    0 -0.39593601302E+01  0.18164119789E+02  0.14075310826E+02  0.23317936347E+02  0.51100000000E-03 0. -1.
        -11    1    3    3    0    0 -0.92273031068E+01 -0.24700480510E+02  0.11830613542E+02  0.28900177804E+02  0.51100000000E-03 0.  1.
         12    1    3    3    0    0 -0.30852902518E+01  0.10019775422E+02 -0.17317181915E+02  0.20243510192E+02  0.00000000000E+00 0. -1.
</event>
<event>
 7    1  0.1302069E-013  0.7246155E+02  0.7816164E-02  0.1226708E+00
        -11   -1    0    0    0    0  0.00000000000E+00  0.00000000000E+00  0.45593999997E+02  0.45594000000E+02  0.51100000000E-03 0. -1.
         11   -1    0    0    0    0 -0.00000000000E+00 -0.00000000000E+00 -0.45593999997E+02  0.45594000000E+02  0.51100000000E-03 0.  1.
    9900012    2    1    2    0    0 -0.16033548782E+02  0.89922982109E+01  0.35698387309E+01  0.72461551799E+02  0.69999975907E+02 0.  0.
         12    1    1    2    0    0  0.16033548782E+02 -0.89922982109E+01 -0.35698387309E+01  0.18726448201E+02  0.00000000000E+00 0. -1.
         11    1    3    3    0    0  0.10543628950E+02  0.12473297980E+00  0.61473056278E+01  0.12205451098E+02  0.51100000000E-03 0. -1.
        -11    1    3    3    0    0 -0.33442516603E+02 -0.14045131226E+02 -0.10240468843E+01  0.36286585678E+02  0.51100000000E-03 0.  1.
        -12    1    3    3    0    0  0.68653388714E+01  0.22912696457E+02 -0.15534200126E+01  0.23969515024E+02  0.00000000000E+00 0.  1.
</event>
<event>
 7    1  0.1302069E-013  0.7246160E+02  0.7816164E-02  0.1226708E+00
        -11   -1    0    0    0    0  0.00000000000E+00  0.00000000000E+00  0.45593999997E+02  0.45594000000E+02  0.51100000000E-03 0.  1.
         11   -1    0    0    0    0 -0.00000000000E+00 -0.00000000000E+00 -0.45593999997E+02  0.45594000000E+02  0.51100000000E-03 0. -1.
    9900012    2    1    2    0    0 -0.57531036473E+01  0.15662051505E+02  0.85017589379E+01  0.72461602483E+02  0.70000041931E+02 0.  0.
         12    1    1    2    0    0  0.57531036473E+01 -0.15662051505E+02 -0.85017589379E+01  0.18726397517E+02  0.00000000000E+00 0. -1.
         11    1    3    3    0    0  0.17029814659E+01  0.12669076702E+02 -0.98761254016E+01  0.16153745806E+02  0.51100000000E-03 0. -1.
        -11    1    3    3    0    0 -0.23495682350E+01 -0.24616085093E+02  0.50964023379E+01  0.25247681740E+02  0.51100000000E-03 0.  1.
        -12    1    3    3    0    0 -0.51065168783E+01  0.27609059896E+02  0.13281482002E+02  0.31060174937E+02  0.00000000000E+00 0.  1.
</event>
<event>
 7    1  0.1302069E-013  0.7246150E+02  0.7816164E-02  0.1226708E+00
        -11   -1    0    0    0    0  0.00000000000E+00  0.00000000000E+00  0.45593999997E+02  0.45594000000E+02  0.51100000000E-03 0.  1.
         11   -1    0    0    0    0 -0.00000000000E+00 -0.00000000000E+00 -0.45593999997E+02  0.45594000000E+02  0.51100000000E-03 0. -1.
    9900012    2    1    2    0    0 -0.97227828547E+01  0.14568466805E+02 -0.66263862771E+01  0.72461502020E+02  0.69999911061E+02 0.  0.
         12    1    1    2    0    0  0.97227828547E+01 -0.14568466805E+02  0.66263862771E+01  0.18726497980E+02  0.00000000000E+00 0. -1.
         11    1    3    3    0    0 -0.30115710667E+02  0.17748829151E+02 -0.42588017876E+01  0.35215257463E+02  0.51100000000E-03 0. -1.
        -11    1    3    3    0    0  0.41675754989E+01 -0.15896417697E+02 -0.25534763702E+01  0.16630845527E+02  0.51100000000E-03 0.  1.
         12    1    3    3    0    0  0.16225352314E+02  0.12716055351E+02  0.18589188070E+00  0.20615399031E+02  0.00000000000E+00 0. -1.
</event>
<event>
 7    1  0.1302069E-013  0.7246155E+02  0.7816164E-02  0.1226708E+00
        -11   -1    0    0    0    0  0.00000000000E+00  0.00000000000E+00  0.45593999997E+02  0.45594000000E+02  0.51100000000E-03 0.  1.
         11   -1    0    0    0    0 -0.00000000000E+00 -0.00000000000E+00 -0.45593999997E+02  0.45594000000E+02  0.51100000000E-03 0. -1.
    9900012    2    1    2    0    0 -0.44084871630E+01 -0.15213783954E+02 -0.99892884334E+01  0.72461551734E+02  0.69999975822E+02 0.  0.
         12    1    1    2    0    0  0.44084871630E+01  0.15213783954E+02  0.99892884334E+01  0.18726448266E+02  0.00000000000E+00 0. -1.
         11    1    3    3    0    0  0.54250101556E+01  0.83118194657E+01  0.17377454939E+02  0.20012321665E+02  0.51100000000E-03 0.  1.
        -11    1    3    3    0    0 -0.90322822871E+01 -0.32549049942E+02 -0.27232471108E+02  0.43389287369E+02  0.51100000000E-03 0. -1.
         12    1    3    3    0    0 -0.80121503147E+00  0.90234465228E+01 -0.13427226419E+00  0.90599426995E+01  0.00000000000E+00 0. -1.
</event>
<event>
 7    1  0.1578643E-013  0.7246154E+02  0.7816164E-02  0.1226708E+00
        -11   -1    0    0    0    0  0.00000000000E+00  0.00000000000E+00  0.45593999997E+02  0.45594000000E+02  0.51100000000E-03 0. -1.
         11   -1    0    0    0    0 -0.00000000000E+00 -0.00000000000E+00 -0.45593999997E+02  0.45594000000E+02  0.51100000000E-03 0.  1.
    9900012    2    1    2    0    0 -0.11398183656E+02  0.16858060122E+01 -0.14762106804E+02  0.72461539313E+02  0.69999959642E+02 0.  0.
         12    1    1    2    0    0  0.11398183656E+02 -0.16858060122E+01  0.14762106804E+02  0.18726460687E+02  0.00000000000E+00 0. -1.
         11    1    3    3    0    0 -0.15705346576E+02  0.22114435393E+02 -0.71300216161E+01  0.28045380588E+02  0.51100000000E-03 0. -1.
        -11    1    3    3    0    0  0.17158127002E+02 -0.41819530423E+01  0.70608593302E+01  0.19019615880E+02  0.51100000000E-03 0.  1.
        -12    1    3    3    0    0 -0.12850964082E+02 -0.16246676339E+02 -0.14692944518E+02  0.25396542845E+02  0.00000000000E+00 0.  1.
</event>
<event>
 7    1  0.1302069E-013  0.7246157E+02  0.7816164E-02  0.1226708E+00
        -11   -1    0    0    0    0  0.00000000000E+00  0.00000000000E+00  0.45593999997E+02  0.45594000000E+02  0.51100000000E-03 0. -1.
         11   -1    0    0    0    0 -0.00000000000E+00 -0.00000000000E+00 -0.45593999997E+02  0.45594000000E+02  0.51100000000E-03 0.  1.
    9900012    2    1    2    0    0  0.11967953392E+02  0.47100076259E+01 -0.13611140316E+02  0.72461568921E+02  0.69999998211E+02 0.  0.
         12    1    1    2    0    0 -0.11967953392E+02 -0.47100076259E+01  0.13611140316E+02  0.18726431079E+02  0.00000000000E+00 0. -1.
         11    1    3    3    0    0 -0.11392427482E+02  0.28804257106E+02 -0.76074172393E+01  0.31895852844E+02  0.51100000000E-03 0. -1.
        -11    1    3    3    0    0  0.73287302846E+01  0.34768620877E+01  0.34704994355E-02  0.81116502555E+01  0.51100000000E-03 0.  1.
         12    1    3    3    0    0  0.16031650589E+02 -0.27571111567E+02 -0.60071935766E+01  0.32454065822E+02  0.00000000000E+00 0. -1.
</event>
<event>
 7    1  0.1302069E-013  0.7246160E+02  0.7816164E-02  0.1226708E+00
        -11   -1    0    0    0    0  0.00000000000E+00  0.00000000000E+00  0.45593999997E+02  0.45594000000E+02  0.51100000000E-03 0.  1.
         11   -1    0    0    0    0 -0.00000000000E+00 -0.00000000000E+00 -0.45593999997E+02  0.45594000000E+02  0.51100000000E-03 0. -1.
    9900012    2    1    2    0    0 -0.83383827197E+01 -0.37796223066E+01  0.16335971186E+02  0.72461598163E+02  0.70000036304E+02 0.  0.
         12    1    1    2    0    0  0.83383827197E+01  0.37796223066E+01 -0.16335971186E+02  0.18726401837E+02  0.00000000000E+00 0. -1.
         11    1    3    3    0    0  0.19474947482E+02  0.45901217495E+01  0.26113830540E+02  0.32897947396E+02  0.51100000000E-03 0. -1.
        -11    1    3    3    0    0 -0.83194210669E+01 -0.13901021711E+02  0.16764672352E+01  0.16286857099E+02  0.51100000000E-03 0.  1.
         12    1    3    3    0    0 -0.19493909135E+02  0.55312776552E+01 -0.11454326589E+02  0.23276793668E+02  0.00000000000E+00 0. -1.
</event>
<event>
 7    1  0.1302069E-013  0.7246152E+02  0.7816164E-02  0.1226708E+00
        -11   -1    0    0    0    0  0.00000000000E+00  0.00000000000E+00  0.45593999997E+02  0.45594000000E+02  0.51100000000E-03 0.  1.
         11   -1    0    0    0    0 -0.00000000000E+00 -0.00000000000E+00 -0.45593999997E+02  0.45594000000E+02  0.51100000000E-03 0. -1.
    9900012    2    1    2    0    0 -0.76032876504E+01  0.15731228864E+02  0.67379083217E+01  0.72461522669E+02  0.69999937959E+02 0.  0.
         12    1    1    2    0    0  0.76032876504E+01 -0.15731228864E+02 -0.67379083217E+01  0.18726477331E+02  0.00000000000E+00 0. -1.
         11    1    3    3    0    0  0.11139846912E+02 -0.95160007556E+01  0.13970238867E+02  0.20243962899E+02  0.51100000000E-03 0.  1.
        -11    1    3    3    0    0  0.44184108588E+01  0.24618705131E+02 -0.13213698936E+02  0.28287892051E+02  0.51100000000E-03 0. -1.
        -12    1    3    3    0    0 -0.23161545421E+02  0.62852448892E+00  0.59813683907E+01  0.23929667719E+02  0.00000000000E+00 0.  1.
</event>
<event>
 7    1  0.1302069E-013  0.7246159E+02  0.7816164E-02  0.1226708E+00
        -11   -1    0    0    0    0  0.00000000000E+00  0.00000000000E+00  0.45593999997E+02  0.45594000000E+02  0.51100000000E-03 0. -1.
         11   -1    0    0    0    0 -0.00000000000E+00 -0.00000000000E+00 -0.45593999997E+02  0.45594000000E+02  0.51100000000E-03 0.  1.
    9900012    2    1    2    0    0  0.12926278752E+02 -0.13382356983E+02 -0.21218633796E+01  0.72461589105E+02  0.70000024505E+02 0.  0.
         12    1    1    2    0    0 -0.12926278752E+02  0.13382356983E+02  0.21218633796E+01  0.18726410895E+02  0.00000000000E+00 0. -1.
         11    1    3    3    0    0  0.11893749143E+02 -0.37878479686E+02 -0.90376526643E+00  0.39712180549E+02  0.51100000000E-03 0. -1.
        -11    1    3    3    0    0 -0.54678658399E+01  0.19325918847E+02  0.68004276046E+01  0.21204587051E+02  0.51100000000E-03 0.  1.
        -12    1    3    3    0    0  0.65003954491E+01  0.51702038562E+01 -0.80185257177E+01  0.11544821506E+02  0.00000000000E+00 0.  1.
</event>
<event>
 7    1  0.1302069E-013  0.7246156E+02  0.7816164E-02  0.1226708E+00
        -11   -1    0    0    0    0  0.00000000000E+00  0.00000000000E+00  0.45593999997E+02  0.45594000000E+02  0.51100000000E-03 0. -1.
         11   -1    0    0    0    0 -0.00000000000E+00 -0.00000000000E+00 -0.45593999997E+02  0.45594000000E+02  0.51100000000E-03 0.  1.
    9900012    2    1    2    0    0  0.11050830556E+02 -0.14753570594E+02  0.33001509508E+01  0.72461556196E+02  0.69999981634E+02 0.  0.
         12    1    1    2    0    0 -0.11050830556E+02  0.14753570594E+02 -0.33001509508E+01  0.18726443804E+02  0.00000000000E+00 0. -1.
         11    1    3    3    0    0 -0.34918623781E+01 -0.22126254814E+02  0.15774196938E+02  0.27396889317E+02  0.51100000000E-03 0. -1.
        -11    1    3    3    0    0  0.27911807105E+02  0.61279093186E+01 -0.13487428425E+02  0.31599540729E+02  0.51100000000E-03 0.  1.
         12    1    3    3    0    0 -0.13369114171E+02  0.12447749022E+01  0.10133824379E+01  0.13465126150E+02  0.00000000000E+00 0. -1.
</event>
<event>
 7    1  0.1302069E-013  0.7246151E+02  0.7816164E-02  0.1226708E+00
        -11   -1    0    0    0    0  0.00000000000E+00  0.00000000000E+00  0.45593999997E+02  0.45594000000E+02  0.51100000000E-03 0.  1.
         11   -1    0    0    0    0 -0.00000000000E+00 -0.00000000000E+00 -0.45593999997E+02  0.45594000000E+02  0.51100000000E-03 0. -1.
    9900012    2    1    2    0    0 -0.34810287219E+01  0.13542127726E+02  0.12456909579E+02  0.72461511259E+02  0.69999923095E+02 0.  0.
         12    1    1    2    0    0  0.34810287219E+01 -0.13542127726E+02 -0.12456909579E+02  0.18726488741E+02  0.00000000000E+00 0. -1.
         11    1    3    3    0    0 -0.10670848521E+02  0.21097947250E+02 -0.27664067331E+01  0.23804272575E+02  0.51100000000E-03 0. -1.
        -11    1    3    3    0    0  0.21799620532E+02  0.77108692322E+01  0.14929908000E+02  0.27524227743E+02  0.51100000000E-03 0.  1.
        -12    1    3    3    0    0 -0.14609800733E+02 -0.15266688756E+02  0.29340831169E+00  0.21133010942E+02  0.00000000000E+00 0.  1.
</event>
<event>
 7    1  0.1302069E-013  0.7246152E+02  0.7816164E-02  0.1226708E+00
        -11   -1    0    0    0    0  0.00000000000E+00  0.00000000000E+00  0.45593999997E+02  0.45594000000E+02  0.51100000000E-03 0.  1.
         11   -1    0    0    0    0 -0.00000000000E+00 -0.00000000000E+00 -0.45593999997E+02  0.45594000000E+02  0.51100000000E-03 0. -1.
    9900012    2    1    2    0    0  0.70328542589E+01 -0.16104659891E+02  0.64699255498E+01  0.72461520196E+02  0.69999934738E+02 0.  0.
         12    1    1    2    0    0 -0.70328542589E+01  0.16104659891E+02 -0.64699255498E+01  0.18726479804E+02  0.00000000000E+00 0. -1.
         11    1    3    3    0    0 -0.50369291120E+01  0.17201512849E+01 -0.10466820219E+02  0.11742397587E+02  0.51100000000E-03 0. -1.
        -11    1    3    3    0    0  0.18545845678E+01  0.68257065747E+01  0.30132301196E+02  0.30951338094E+02  0.51100000000E-03 0.  1.
        -12    1    3    3    0    0  0.10215198803E+02 -0.24650517750E+02 -0.13195555427E+02  0.29767784516E+02  0.00000000000E+00 0.  1.
</event>
<event>
 7    1  0.1302069E-013  0.7246161E+02  0.7816164E-02  0.1226708E+00
        -11   -1    0    0    0    0  0.00000000000E+00  0.00000000000E+00  0.45593999997E+02  0.45594000000E+02  0.51100000000E-03 0. -1.
         11   -1    0    0    0    0 -0.00000000000E+00 -0.00000000000E+00 -0.45593999997E+02  0.45594000000E+02  0.51100000000E-03 0.  1.
    9900012    2    1    2    0    0 -0.39520263988E+01 -0.18286445954E+02  0.81540943370E+00  0.72461614582E+02  0.70000057692E+02 0.  0.
         12    1    1    2    0    0  0.39520263988E+01  0.18286445954E+02 -0.81540943370E+00  0.18726385418E+02  0.00000000000E+00 0. -1.
         11    1    3    3    0    0  0.85338610696E+01 -0.24148969246E+02 -0.64877424573E+01  0.26421398579E+02  0.51100000000E-03 0.  1.
        -11    1    3    3    0    0 -0.19006035694E+02  0.88555289271E+01 -0.12888248270E+02  0.24612125652E+02  0.51100000000E-03 0. -1.
         12    1    3    3    0    0  0.65201482251E+01 -0.29930056349E+01  0.20191400161E+02  0.21428090351E+02  0.00000000000E+00 0. -1.
</event>
<event>
 7    1  0.1302069E-013  0.7246159E+02  0.7816164E-02  0.1226708E+00
        -11   -1    0    0    0    0  0.00000000000E+00  0.00000000000E+00  0.45593999997E+02  0.45594000000E+02  0.51100000000E-03 0.  1.
         11   -1    0    0    0    0 -0.00000000000E+00 -0.00000000000E+00 -0.45593999997E+02  0.45594000000E+02  0.51100000000E-03 0. -1.
    9900012    2    1    2    0    0  0.15262739125E+01  0.16585591937E+02  0.85596120341E+01  0.72461592707E+02  0.70000029196E+02 0.  0.
         12    1    1    2    0    0 -0.15262739125E+01 -0.16585591937E+02 -0.85596120341E+01  0.18726407293E+02  0.00000000000E+00 0. -1.
         11    1    3    3    0    0 -0.27124407630E+02  0.11776382935E+02  0.18654426365E+01  0.29629319277E+02  0.51100000000E-03 0.  1.
        -11    1    3    3    0    0  0.90224752947E+01  0.83315265389E+01  0.16533264466E+02  0.20595344840E+02  0.51100000000E-03 0. -1.
         12    1    3    3    0    0  0.19628206248E+02 -0.35223175372E+01 -0.98390950688E+01  0.22236928590E+02  0.00000000000E+00 0. -1.
</event>
<event>
 7    1  0.1302069E-013  0.7246157E+02  0.7816164E-02  0.1226708E+00
        -11   -1    0    0    0    0  0.00000000000E+00  0.00000000000E+00  0.45593999997E+02  0.45594000000E+02  0.51100000000E-03 0. -1.
         11   -1    0    0    0    0 -0.00000000000E+00 -0.00000000000E+00 -0.45593999997E+02  0.45594000000E+02  0.51100000000E-03 0.  1.
    9900012    2    1    2    0    0 -0.76411643372E+01 -0.36609984077E+01 -0.16699964709E+02  0.72461571535E+02  0.70000001617E+02 0.  0.
         12    1    1    2    0    0  0.76411643372E+01  0.36609984077E+01  0.16699964709E+02  0.18726428465E+02  0.00000000000E+00 0. -1.
         11    1    3    3    0    0  0.69659873136E+01  0.97077449391E+01  0.29805787850E+01  0.12314590582E+02  0.51100000000E-03 0. -1.
        -11    1    3    3    0    0 -0.17344619278E+02 -0.15290623746E+02  0.13515671607E+02  0.26782687910E+02  0.51100000000E-03 0.  1.
        -12    1    3    3    0    0  0.27374676274E+01  0.19218803988E+01 -0.33196215100E+02  0.33364293043E+02  0.00000000000E+00 0.  1.
</event>
<event>
 7    1  0.1302069E-013  0.7246153E+02  0.7816164E-02  0.1226708E+00
        -11   -1    0    0    0    0  0.00000000000E+00  0.00000000000E+00  0.45593999997E+02  0.45594000000E+02  0.51100000000E-03 0.  1.
         11   -1    0    0    0    0 -0.00000000000E+00 -0.00000000000E+00 -0.45593999997E+02  0.45594000000E+02  0.51100000000E-03 0. -1.
    9900012    2    1    2    0    0 -0.92992220363E+01 -0.15028997169E+02  0.61914897988E+01  0.72461525897E+02  0.69999942164E+02 0.  0.
         12    1    1    2    0    0  0.92992220363E+01  0.15028997169E+02 -0.61914897988E+01  0.18726474103E+02  0.00000000000E+00 0. -1.
         11    1    3    3    0    0  0.48333792960E+00 -0.59408094640E+00 -0.19983785334E+02  0.19998455547E+02  0.51100000000E-03 0. -1.
        -11    1    3    3    0    0 -0.12807206213E+02 -0.43321414118E+01  0.35748756886E+02  0.38219963362E+02  0.51100000000E-03 0.  1.
        -12    1    3    3    0    0  0.30246462474E+01 -0.10102774811E+02 -0.95734817534E+01  0.14243106989E+02  0.00000000000E+00 0.  1.
</event>
<event>
 7    1  0.1302069E-013  0.7246174E+02  0.7816164E-02  0.1226708E+00
        -11   -1    0    0    0    0  0.00000000000E+00  0.00000000000E+00  0.45593999997E+02  0.45594000000E+02  0.51100000000E-03 0.  1.
         11   -1    0    0    0    0 -0.00000000000E+00 -0.00000000000E+00 -0.45593999997E+02  0.45594000000E+02  0.51100000000E-03 0. -1.
    9900012    2    1    2    0    0  0.18292851462E+02  0.11215223304E+01 -0.38453450290E+01  0.72461737550E+02  0.70000217882E+02 0.  0.
         12    1    1    2    0    0 -0.18292851462E+02 -0.11215223304E+01  0.38453450290E+01  0.18726262450E+02  0.00000000000E+00 0. -1.
         11    1    3    3    0    0  0.11787157274E+01  0.13696997437E+02 -0.27735852337E+01  0.14024617102E+02  0.51100000000E-03 0.  1.
        -11    1    3    3    0    0 -0.16021623112E+02 -0.18809665492E+02 -0.21657229516E+00  0.24709164836E+02  0.51100000000E-03 0. -1.
        -12    1    3    3    0    0  0.33135758847E+02  0.62341903855E+01 -0.85518750019E+00  0.33727955612E+02  0.00000000000E+00 0.  1.
</event>
<event>
 7    1  0.1302069E-013  0.7246158E+02  0.7816164E-02  0.1226708E+00
        -11   -1    0    0    0    0  0.00000000000E+00  0.00000000000E+00  0.45593999997E+02  0.45594000000E+02  0.51100000000E-03 0.  1.
         11   -1    0    0    0    0 -0.00000000000E+00 -0.00000000000E+00 -0.45593999997E+02  0.45594000000E+02  0.51100000000E-03 0. -1.
    9900012    2    1    2    0    0  0.83461636470E+01 -0.16693031924E+02  0.15371630195E+01  0.72461584631E+02  0.70000018676E+02 0.  0.
         12    1    1    2    0    0 -0.83461636470E+01  0.16693031924E+02 -0.15371630195E+01  0.18726415369E+02  0.00000000000E+00 0. -1.
         11    1    3    3    0    0 -0.60446853669E+01 -0.41224214693E+02 -0.56472989353E+01  0.42045999617E+02  0.51100000000E-03 0. -1.
        -11    1    3    3    0    0  0.83499212744E+01  0.20367332089E+02  0.38096821444E+01  0.22339719784E+02  0.51100000000E-03 0.  1.
         12    1    3    3    0    0  0.60409277396E+01  0.41638506805E+01  0.33747798105E+01  0.80758652300E+01  0.00000000000E+00 0. -1.
</event>
<event>
 7    1  0.1302069E-013  0.7246133E+02  0.7816164E-02  0.1226709E+00
        -11   -1    0    0    0    0  0.00000000000E+00  0.00000000000E+00  0.45593999997E+02  0.45594000000E+02  0.51100000000E-03 0. -1.
         11   -1    0    0    0    0 -0.00000000000E+00 -0.00000000000E+00 -0.45593999997E+02  0.45594000000E+02  0.51100000000E-03 0.  1.
    9900012    2    1    2    0    0 -0.17542577697E+02 -0.51462574668E+01 -0.40573589899E+01  0.72461330244E+02  0.69999687290E+02 0.  0.
         12    1    1    2    0    0  0.17542577697E+02  0.51462574668E+01  0.40573589899E+01  0.18726669756E+02  0.00000000000E+00 0. -1.
         11    1    3    3    0    0 -0.24213832006E+02 -0.33021546398E+02  0.65807975629E+00  0.40953208130E+02  0.51100000000E-03 0. -1.
        -11    1    3    3    0    0  0.63386638472E+00  0.21031045091E+02  0.40264312447E+00  0.21044447390E+02  0.51100000000E-03 0.  1.
         12    1    3    3    0    0  0.60373879250E+01  0.68442438395E+01 -0.51180818707E+01  0.10463674724E+02  0.00000000000E+00 0. -1.
</event>
<event>
 7    1  0.1302069E-013  0.7246156E+02  0.7816164E-02  0.1226708E+00
        -11   -1    0    0    0    0  0.00000000000E+00  0.00000000000E+00  0.45593999997E+02  0.45594000000E+02  0.51100000000E-03 0.  1.
         11   -1    0    0    0    0 -0.00000000000E+00 -0.00000000000E+00 -0.45593999997E+02  0.45594000000E+02  0.51100000000E-03 0. -1.
    9900012    2    1    2    0    0 -0.10380982375E+02  0.43565730136E+01  0.14964456345E+02  0.72461562080E+02  0.69999989299E+02 0.  0.
         12    1    1    2    0    0  0.10380982375E+02 -0.43565730136E+01 -0.14964456345E+02  0.18726437920E+02  0.00000000000E+00 0. -1.
         11    1    3    3    0    0  0.60303574892E+01 -0.12594883244E+01  0.20421334722E+02  0.21330317259E+02  0.51100000000E-03 0. -1.
        -11    1    3    3    0    0 -0.29337767886E+02  0.21942581369E+01  0.96448969025E+01  0.30960352546E+02  0.51100000000E-03 0.  1.
         12    1    3    3    0    0  0.12926428021E+02  0.34218032012E+01 -0.15101775280E+02  0.20170892274E+02  0.00000000000E+00 0. -1.
</event>
<event>
 7    1  0.1302069E-013  0.7246152E+02  0.7816164E-02  0.1226708E+00
        -11   -1    0    0    0    0  0.00000000000E+00  0.00000000000E+00  0.45593999997E+02  0.45594000000E+02  0.51100000000E-03 0.  1.
         11   -1    0    0    0    0 -0.00000000000E+00 -0.00000000000E+00 -0.45593999997E+02  0.45594000000E+02  0.51100000000E-03 0. -1.
    9900012    2    1    2    0    0 -0.80629804818E+01  0.16727504795E+02 -0.24207382250E+01  0.72461520233E+02  0.69999934785E+02 0.  0.
         12    1    1    2    0    0  0.80629804818E+01 -0.16727504795E+02  0.24207382250E+01  0.18726479767E+02  0.00000000000E+00 0. -1.
         11    1    3    3    0    0 -0.32967461570E+02  0.21438688957E+02  0.78805878916E+01  0.40107038938E+02  0.51100000000E-03 0. -1.
        -11    1    3    3    0    0  0.11642607625E+02 -0.10494145764E+02 -0.83383547317E+01  0.17754029614E+02  0.51100000000E-03 0.  1.
        -12    1    3    3    0    0  0.13261873463E+02  0.57829616022E+01 -0.19629713849E+01  0.14600451681E+02  0.00000000000E+00 0.  1.
</event>
<event>
 8    1  0.1302069E-013  0.7246158E+02  0.7816164E-02  0.1226708E+00
        -11   -1    0    0    0    0  0.00000000000E+00  0.00000000000E+00  0.45593999997E+02  0.45594000000E+02  0.51100000000E-03 0.  1.
         11   -1    0    0    0    0 -0.00000000000E+00 -0.00000000000E+00 -0.45593999997E+02  0.45594000000E+02  0.51100000000E-03 0. -1.
    9900012    2    1    2    0    0  0.15193624563E+02  0.10129154083E+02  0.41512324865E+01  0.72461582271E+02  0.70000015602E+02 0.  0.
        -24    2    3    3    0    0  0.15862852888E+02  0.43584210060E+01  0.17644206612E+02  0.57771123538E+02  0.52493416277E+02 0.  0.
         12    1    1    2    0    0 -0.15193624563E+02 -0.10129154083E+02 -0.41512324865E+01  0.18726417729E+02  0.00000000000E+00 0. -1.
         11    1    4    4    0    0  0.33730799978E+02 -0.61330413749E+01  0.11429123651E+02  0.36138704063E+02  0.51100000000E-03 0.  1.
        -11    1    3    3    0    0 -0.66922832525E+00  0.57707330767E+01 -0.13492974126E+02  0.14690458734E+02  0.51100000000E-03 0. -1.
        -12    1    4    4    0    0 -0.17867947090E+02  0.10491462381E+02  0.62150829608E+01  0.21632419474E+02  0.00000000000E+00 0.  1.
</event>
<event>
 7    1  0.1302069E-013  0.7246161E+02  0.7816164E-02  0.1226708E+00
        -11   -1    0    0    0    0  0.00000000000E+00  0.00000000000E+00  0.45593999997E+02  0.45594000000E+02  0.51100000000E-03 0. -1.
         11   -1    0    0    0    0 -0.00000000000E+00 -0.00000000000E+00 -0.45593999997E+02  0.45594000000E+02  0.51100000000E-03 0.  1.
    9900012    2    1    2    0    0 -0.99754417432E+01 -0.15667449684E+02 -0.23873241614E+01  0.72461608617E+02  0.70000049922E+02 0.  0.
         12    1    1    2    0    0  0.99754417432E+01  0.15667449684E+02  0.23873241614E+01  0.18726391383E+02  0.00000000000E+00 0. -1.
         11    1    3    3    0    0 -0.12166121392E+02  0.16511488287E+01  0.24372776652E+01  0.12517233115E+02  0.51100000000E-03 0. -1.
        -11    1    3    3    0    0  0.37713858027E+01 -0.36368353712E+02  0.73316529647E+01  0.37291200544E+02  0.51100000000E-03 0.  1.
        -12    1    3    3    0    0 -0.15807061536E+01  0.19049755199E+02 -0.12156254791E+02  0.22653174957E+02  0.00000000000E+00 0.  1.
</event>
<event>
 7    1  0.1302069E-013  0.7246155E+02  0.7816164E-02  0.1226708E+00
        -11   -1    0    0    0    0  0.00000000000E+00  0.00000000000E+00  0.45593999997E+02  0.45594000000E+02  0.51100000000E-03 0.  1.
         11   -1    0    0    0    0 -0.00000000000E+00 -0.00000000000E+00 -0.45593999997E+02  0.45594000000E+02  0.51100000000E-03 0. -1.
    9900012    2    1    2    0    0  0.99527190127E+00  0.75862599586E+00  0.18684589542E+02  0.72461549031E+02  0.69999972300E+02 0.  0.
         12    1    1    2    0    0 -0.99527190127E+00 -0.75862599586E+00 -0.18684589542E+02  0.18726450969E+02  0.00000000000E+00 0. -1.
         11    1    3    3    0    0  0.13247161824E+02 -0.16796162354E+01  0.27532857071E+01  0.13634111249E+02  0.51100000000E-03 0. -1.
        -11    1    3    3    0    0 -0.30296688017E+02  0.12510714515E+02  0.19074384480E+02  0.37924127228E+02  0.51100000000E-03 0.  1.
        -12    1    3    3    0    0  0.18044798094E+02 -0.10072472283E+02 -0.31430806453E+01  0.20903310554E+02  0.00000000000E+00 0.  1.
</event>
<event>
 7    1  0.1302069E-013  0.7246160E+02  0.7816164E-02  0.1226708E+00
        -11   -1    0    0    0    0  0.00000000000E+00  0.00000000000E+00  0.45593999997E+02  0.45594000000E+02  0.51100000000E-03 0. -1.
         11   -1    0    0    0    0 -0.00000000000E+00 -0.00000000000E+00 -0.45593999997E+02  0.45594000000E+02  0.51100000000E-03 0.  1.
    9900012    2    1    2    0    0  0.10839433538E+02 -0.15231126712E+02 -0.10943225036E+01  0.72461599329E+02  0.70000037823E+02 0.  0.
         12    1    1    2    0    0 -0.10839433538E+02  0.15231126712E+02  0.10943225036E+01  0.18726400671E+02  0.00000000000E+00 0. -1.
         11    1    3    3    0    0  0.58297168142E+01 -0.96016566334E+01  0.29914640938E+02  0.31954078784E+02  0.51100000000E-03 0. -1.
        -11    1    3    3    0    0  0.14295632724E+02 -0.55693470569E+01 -0.25355435742E+02  0.29635803744E+02  0.51100000000E-03 0.  1.
        -12    1    3    3    0    0 -0.92859160005E+01 -0.60123022055E-01 -0.56535277002E+01  0.10871716801E+02  0.00000000000E+00 0.  1.
</event>
<event>
 7    1  0.1302069E-013  0.7246158E+02  0.7816164E-02  0.1226708E+00
        -11   -1    0    0    0    0  0.00000000000E+00  0.00000000000E+00  0.45593999997E+02  0.45594000000E+02  0.51100000000E-03 0.  1.
         11   -1    0    0    0    0 -0.00000000000E+00 -0.00000000000E+00 -0.45593999997E+02  0.45594000000E+02  0.51100000000E-03 0. -1.
    9900012    2    1    2    0    0 -0.67717171390E+01  0.50406825198E+01  0.16715683673E+02  0.72461582458E+02  0.70000015846E+02 0.  0.
         12    1    1    2    0    0  0.67717171390E+01 -0.50406825198E+01 -0.16715683673E+02  0.18726417542E+02  0.00000000000E+00 0. -1.
         11    1    3    3    0    0  0.40124515044E+01 -0.34623152486E+01 -0.13694561603E+02  0.14684291325E+02  0.51100000000E-03 0. -1.
        -11    1    3    3    0    0  0.12881436495E+02  0.15261372922E+02  0.25981807714E+02  0.32770340889E+02  0.51100000000E-03 0.  1.
         12    1    3    3    0    0 -0.23665605138E+02 -0.67583751541E+01  0.44284375622E+01  0.25006950244E+02  0.00000000000E+00 0. -1.
</event>
<event>
 7    1  0.1302069E-013  0.7246157E+02  0.7816164E-02  0.1226708E+00
        -11   -1    0    0    0    0  0.00000000000E+00  0.00000000000E+00  0.45593999997E+02  0.45594000000E+02  0.51100000000E-03 0. -1.
         11   -1    0    0    0    0 -0.00000000000E+00 -0.00000000000E+00 -0.45593999997E+02  0.45594000000E+02  0.51100000000E-03 0.  1.
    9900012    2    1    2    0    0  0.15887158475E+02  0.59919739664E+01 -0.78976856843E+01  0.72461574938E+02  0.70000006050E+02 0.  0.
         12    1    1    2    0    0 -0.15887158475E+02 -0.59919739664E+01  0.78976856843E+01  0.18726425062E+02  0.00000000000E+00 0. -1.
         11    1    3    3    0    0  0.92917180324E+01  0.10431793396E+01  0.26104218054E+02  0.27728224746E+02  0.51100000000E-03 0. -1.
        -11    1    3    3    0    0  0.16291597588E+02 -0.22655580435E+01 -0.23724557693E+02  0.28868729505E+02  0.51100000000E-03 0.  1.
         12    1    3    3    0    0 -0.96961571455E+01  0.72143526703E+01 -0.10277346044E+02  0.15864620687E+02  0.00000000000E+00 0. -1.
</event>
<event>
 7    1  0.1302069E-013  0.7246157E+02  0.7816164E-02  0.1226708E+00
        -11   -1    0    0    0    0  0.00000000000E+00  0.00000000000E+00  0.45593999997E+02  0.45594000000E+02  0.51100000000E-03 0. -1.
         11   -1    0    0    0    0 -0.00000000000E+00 -0.00000000000E+00 -0.45593999997E+02  0.45594000000E+02  0.51100000000E-03 0.  1.
    9900012    2    1    2    0    0  0.11696659624E+02  0.71617727043E+01  0.12750539355E+02  0.72461572458E+02  0.70000002819E+02 0.  0.
         12    1    1    2    0    0 -0.11696659624E+02 -0.71617727043E+01 -0.12750539355E+02  0.18726427542E+02  0.00000000000E+00 0. -1.
         11    1    3    3    0    0 -0.41783340286E+01 -0.76955086457E+01  0.85431537236E+01  0.12233756756E+02  0.51100000000E-03 0. -1.
        -11    1    3    3    0    0  0.32948069529E+02  0.16061805184E+01  0.14805085726E+02  0.36157235309E+02  0.51100000000E-03 0.  1.
        -12    1    3    3    0    0 -0.17073075877E+02  0.13251100832E+02 -0.10597700095E+02  0.24070580392E+02  0.00000000000E+00 0.  1.
</event>
<event>
 7    1  0.1302069E-013  0.7246114E+02  0.7816164E-02  0.1226709E+00
        -11   -1    0    0    0    0  0.00000000000E+00  0.00000000000E+00  0.45593999997E+02  0.45594000000E+02  0.51100000000E-03 0.  1.
         11   -1    0    0    0    0 -0.00000000000E+00 -0.00000000000E+00 -0.45593999997E+02  0.45594000000E+02  0.51100000000E-03 0. -1.
    9900012    2    1    2    0    0  0.94542997418E+01 -0.16164574511E+02 -0.13452268118E+00  0.72461138301E+02  0.69999437246E+02 0.  0.
         12    1    1    2    0    0 -0.94542997418E+01  0.16164574511E+02  0.13452268118E+00  0.18726861699E+02  0.00000000000E+00 0. -1.
         11    1    3    3    0    0  0.21329725778E+02 -0.88801648817E+01 -0.19843288354E+02  0.30456044114E+02  0.51100000000E-03 0. -1.
        -11    1    3    3    0    0 -0.17400500157E+02  0.29857009938E+01 -0.15862353298E+01  0.17725912076E+02  0.51100000000E-03 0.  1.
         12    1    3    3    0    0  0.55250741215E+01 -0.10270110623E+02  0.21295001003E+02  0.24279182111E+02  0.00000000000E+00 0. -1.
</event>
<event>
 7    1  0.1302069E-013  0.7246149E+02  0.7816164E-02  0.1226708E+00
        -11   -1    0    0    0    0  0.00000000000E+00  0.00000000000E+00  0.45593999997E+02  0.45594000000E+02  0.51100000000E-03 0.  1.
         11   -1    0    0    0    0 -0.00000000000E+00 -0.00000000000E+00 -0.45593999997E+02  0.45594000000E+02  0.51100000000E-03 0. -1.
    9900012    2    1    2    0    0 -0.25481999390E+00 -0.74163661048E+01  0.17193451586E+02  0.72461489463E+02  0.69999894703E+02 0.  0.
         12    1    1    2    0    0  0.25481999390E+00  0.74163661048E+01 -0.17193451586E+02  0.18726510537E+02  0.00000000000E+00 0. -1.
         11    1    3    3    0    0 -0.85843051832E+01 -0.30201346129E+02  0.19235367214E+02  0.36821338318E+02  0.51100000000E-03 0. -1.
        -11    1    3    3    0    0  0.11115819813E+02  0.46819312946E+01 -0.10001862999E+02  0.15669052125E+02  0.51100000000E-03 0.  1.
        -12    1    3    3    0    0 -0.27863346236E+01  0.18103048729E+02  0.79599473720E+01  0.19971099020E+02  0.00000000000E+00 0.  1.
</event>
<event>
 7    1  0.1302069E-013  0.7246159E+02  0.7816164E-02  0.1226708E+00
        -11   -1    0    0    0    0  0.00000000000E+00  0.00000000000E+00  0.45593999997E+02  0.45594000000E+02  0.51100000000E-03 0.  1.
         11   -1    0    0    0    0 -0.00000000000E+00 -0.00000000000E+00 -0.45593999997E+02  0.45594000000E+02  0.51100000000E-03 0. -1.
    9900012    2    1    2    0    0 -0.13067639977E+02 -0.29884034816E+01  0.13076105910E+02  0.72461593092E+02  0.70000029698E+02 0.  0.
         12    1    1    2    0    0  0.13067639977E+02  0.29884034816E+01 -0.13076105910E+02  0.18726406908E+02  0.00000000000E+00 0. -1.
         11    1    3    3    0    0  0.23180904714E+00 -0.25313948718E+02  0.10420533087E+02  0.27375851497E+02  0.51100000000E-03 0. -1.
        -11    1    3    3    0    0 -0.88987166681E+01  0.31685989840E+02 -0.34216096124E+01  0.33089220648E+02  0.51100000000E-03 0.  1.
        -12    1    3    3    0    0 -0.44007323558E+01 -0.93604446037E+01  0.60771824359E+01  0.11996520946E+02  0.00000000000E+00 0.  1.
</event>
<event>
 7    1  0.1302069E-013  0.7246155E+02  0.7816164E-02  0.1226708E+00
        -11   -1    0    0    0    0  0.00000000000E+00  0.00000000000E+00  0.45593999997E+02  0.45594000000E+02  0.51100000000E-03 0.  1.
         11   -1    0    0    0    0 -0.00000000000E+00 -0.00000000000E+00 -0.45593999997E+02  0.45594000000E+02  0.51100000000E-03 0. -1.
    9900012    2    1    2    0    0  0.98195223057E+01  0.98601105977E+01 -0.12531362441E+02  0.72461552287E+02  0.69999976542E+02 0.  0.
         12    1    1    2    0    0 -0.98195223057E+01 -0.98601105977E+01  0.12531362441E+02  0.18726447713E+02  0.00000000000E+00 0. -1.
         11    1    3    3    0    0  0.16857981828E+02  0.34934640902E+02  0.25133477814E-01  0.38789448542E+02  0.51100000000E-03 0. -1.
        -11    1    3    3    0    0 -0.10436304587E+02 -0.12902323703E+02 -0.11274930722E+01  0.16633028926E+02  0.51100000000E-03 0.  1.
         12    1    3    3    0    0  0.33978450648E+01 -0.12172206601E+02 -0.11429002847E+02  0.17039074819E+02  0.00000000000E+00 0. -1.
</event>
<event>
 7    1  0.1302069E-013  0.7246159E+02  0.7816164E-02  0.1226708E+00
        -11   -1    0    0    0    0  0.00000000000E+00  0.00000000000E+00  0.45593999997E+02  0.45594000000E+02  0.51100000000E-03 0. -1.
         11   -1    0    0    0    0 -0.00000000000E+00 -0.00000000000E+00 -0.45593999997E+02  0.45594000000E+02  0.51100000000E-03 0.  1.
    9900012    2    1    2    0    0 -0.20563372528E+01 -0.15808890265E+02 -0.98249177718E+01  0.72461587008E+02  0.70000021773E+02 0.  0.
         12    1    1    2    0    0  0.20563372528E+01  0.15808890265E+02  0.98249177718E+01  0.18726412992E+02  0.00000000000E+00 0. -1.
         11    1    3    3    0    0  0.31652449745E+02 -0.14386241808E+02  0.17181612767E+01  0.34810825998E+02  0.51100000000E-03 0. -1.
        -11    1    3    3    0    0 -0.16359604597E+02 -0.39398641354E+01 -0.11015082195E+02  0.20111967283E+02  0.51100000000E-03 0.  1.
         12    1    3    3    0    0 -0.17349182401E+02  0.25172156779E+01 -0.52799685369E+00  0.17538793728E+02  0.00000000000E+00 0. -1.
</event>
<event>
 7    1  0.1302069E-013  0.7246161E+02  0.7816164E-02  0.1226708E+00
        -11   -1    0    0    0    0  0.00000000000E+00  0.00000000000E+00  0.45593999997E+02  0.45594000000E+02  0.51100000000E-03 0.  1.
         11   -1    0    0    0    0 -0.00000000000E+00 -0.00000000000E+00 -0.45593999997E+02  0.45594000000E+02  0.51100000000E-03 0. -1.
    9900012    2    1    2    0    0  0.70031531733E+01  0.14325178782E+02  0.98195165884E+01  0.72461606660E+02  0.70000047373E+02 0.  0.
         12    1    1    2    0    0 -0.70031531733E+01 -0.14325178782E+02 -0.98195165884E+01  0.18726393340E+02  0.00000000000E+00 0. -1.
         11    1    3    3    0    0  0.14558747466E+02 -0.92803022190E+00 -0.13315026199E+02  0.19751159227E+02  0.51100000000E-03 0. -1.
        -11    1    3    3    0    0  0.96681167262E+01  0.22772354998E+02  0.23201336236E+02  0.33916878343E+02  0.51100000000E-03 0.  1.
        -12    1    3    3    0    0 -0.17223711019E+02 -0.75191459937E+01 -0.66793447916E-01  0.18793569089E+02  0.00000000000E+00 0.  1.
</event>
<event>
 7    1  0.1302069E-013  0.7246181E+02  0.7816164E-02  0.1226707E+00
        -11   -1    0    0    0    0  0.00000000000E+00  0.00000000000E+00  0.45593999997E+02  0.45594000000E+02  0.51100000000E-03 0.  1.
         11   -1    0    0    0    0 -0.00000000000E+00 -0.00000000000E+00 -0.45593999997E+02  0.45594000000E+02  0.51100000000E-03 0. -1.
    9900012    2    1    2    0    0 -0.10417367604E+02  0.51565620520E+01  0.14681917266E+02  0.72461805122E+02  0.70000305907E+02 0.  0.
         12    1    1    2    0    0  0.10417367604E+02 -0.51565620520E+01 -0.14681917266E+02  0.18726194878E+02  0.00000000000E+00 0. -1.
         11    1    3    3    0    0 -0.28979634410E+00 -0.51174510805E+01 -0.19396305368E+02  0.20062127247E+02  0.51100000000E-03 0. -1.
        -11    1    3    3    0    0  0.14001637302E+01  0.22740715637E+02  0.20699274176E+02  0.30782471600E+02  0.51100000000E-03 0.  1.
        -12    1    3    3    0    0 -0.11527734990E+02 -0.12466702504E+02  0.13378948458E+02  0.21617206276E+02  0.00000000000E+00 0.  1.
</event>
<event>
 7    1  0.1302069E-013  0.7246152E+02  0.7816164E-02  0.1226708E+00
        -11   -1    0    0    0    0  0.00000000000E+00  0.00000000000E+00  0.45593999997E+02  0.45594000000E+02  0.51100000000E-03 0. -1.
         11   -1    0    0    0    0 -0.00000000000E+00 -0.00000000000E+00 -0.45593999997E+02  0.45594000000E+02  0.51100000000E-03 0.  1.
    9900012    2    1    2    0    0 -0.13905831462E+02 -0.74305868852E+01 -0.10104227982E+02  0.72461516261E+02  0.69999929612E+02 0.  0.
         12    1    1    2    0    0  0.13905831462E+02  0.74305868852E+01  0.10104227982E+02  0.18726483739E+02  0.00000000000E+00 0. -1.
         11    1    3    3    0    0  0.93813450862E+01  0.70128308822E+01  0.10729903808E+02  0.15884592176E+02  0.51100000000E-03 0. -1.
        -11    1    3    3    0    0 -0.16502997713E+02  0.11582257544E+02 -0.21761185249E+02  0.29665582870E+02  0.51100000000E-03 0.  1.
        -12    1    3    3    0    0 -0.67841788356E+01 -0.26025675311E+02  0.92705345961E+00  0.26911341215E+02  0.00000000000E+00 0.  1.
</event>
<event>
 7    1  0.1302069E-013  0.7246156E+02  0.7816164E-02  0.1226708E+00
        -11   -1    0    0    0    0  0.00000000000E+00  0.00000000000E+00  0.45593999997E+02  0.45594000000E+02  0.51100000000E-03 0.  1.
         11   -1    0    0    0    0 -0.00000000000E+00 -0.00000000000E+00 -0.45593999997E+02  0.45594000000E+02  0.51100000000E-03 0. -1.
    9900012    2    1    2    0    0 -0.61825519205E+01 -0.14642362405E+02  0.99023639464E+01  0.72461560489E+02  0.69999987226E+02 0.  0.
         12    1    1    2    0    0  0.61825519205E+01  0.14642362405E+02 -0.99023639464E+01  0.18726439511E+02  0.00000000000E+00 0. -1.
         11    1    3    3    0    0 -0.30042273967E+02  0.63635054060E+01 -0.18576328622E+01  0.30764967517E+02  0.51100000000E-03 0. -1.
        -11    1    3    3    0    0  0.22112394348E+02 -0.13497752277E+02 -0.19375246753E+01  0.25978862609E+02  0.51100000000E-03 0.  1.
         12    1    3    3    0    0  0.17473276987E+01 -0.75081155336E+01  0.13697521484E+02  0.15717730363E+02  0.00000000000E+00 0. -1.
</event>
<event>
 7    1  0.1302069E-013  0.7246158E+02  0.7816164E-02  0.1226708E+00
        -11   -1    0    0    0    0  0.00000000000E+00  0.00000000000E+00  0.45593999997E+02  0.45594000000E+02  0.51100000000E-03 0. -1.
         11   -1    0    0    0    0 -0.00000000000E+00 -0.00000000000E+00 -0.45593999997E+02  0.45594000000E+02  0.51100000000E-03 0.  1.
    9900012    2    1    2    0    0  0.79255630656E+01  0.15121350263E+02 -0.76947516473E+01  0.72461575179E+02  0.70000006363E+02 0.  0.
         12    1    1    2    0    0 -0.79255630656E+01 -0.15121350263E+02  0.76947516473E+01  0.18726424821E+02  0.00000000000E+00 0. -1.
         11    1    3    3    0    0  0.28237029801E+02  0.11245075658E+02 -0.64437490001E+01  0.31069333433E+02  0.51100000000E-03 0. -1.
        -11    1    3    3    0    0 -0.18591676821E+02  0.18724403726E+02 -0.16651704150E+01  0.26439109944E+02  0.51100000000E-03 0.  1.
        -12    1    3    3    0    0 -0.17197899147E+01 -0.14848129120E+02  0.41416776774E+00  0.14953131801E+02  0.00000000000E+00 0.  1.
</event>
<event>
 7    1  0.1302069E-013  0.7246132E+02  0.7816164E-02  0.1226709E+00
        -11   -1    0    0    0    0  0.00000000000E+00  0.00000000000E+00  0.45593999997E+02  0.45594000000E+02  0.51100000000E-03 0.  1.
         11   -1    0    0    0    0 -0.00000000000E+00 -0.00000000000E+00 -0.45593999997E+02  0.45594000000E+02  0.51100000000E-03 0. -1.
    9900012    2    1    2    0    0  0.13813254436E+02  0.86246376843E+01 -0.92465287300E+01  0.72461316715E+02  0.69999669666E+02 0.  0.
         12    1    1    2    0    0 -0.13813254436E+02 -0.86246376843E+01  0.92465287300E+01  0.18726683285E+02  0.00000000000E+00 0. -1.
         11    1    3    3    0    0  0.16539730208E+02 -0.46301465200E+01 -0.75227415333E+01  0.18750801918E+02  0.51100000000E-03 0. -1.
        -11    1    3    3    0    0 -0.26978021144E+02  0.11450406630E+02 -0.21720304479E+01  0.29387806202E+02  0.51100000000E-03 0.  1.
        -12    1    3    3    0    0  0.24251545372E+02  0.18043775747E+01  0.44824325116E+00  0.24322708595E+02  0.00000000000E+00 0.  1.
</event>
<event>
 7    1  0.1302069E-013  0.7246153E+02  0.7816164E-02  0.1226708E+00
        -11   -1    0    0    0    0  0.00000000000E+00  0.00000000000E+00  0.45593999997E+02  0.45594000000E+02  0.51100000000E-03 0.  1.
         11   -1    0    0    0    0 -0.00000000000E+00 -0.00000000000E+00 -0.45593999997E+02  0.45594000000E+02  0.51100000000E-03 0. -1.
    9900012    2    1    2    0    0  0.61062138695E+01  0.17514592919E+02  0.25756535615E+01  0.72461526648E+02  0.69999943143E+02 0.  0.
         12    1    1    2    0    0 -0.61062138695E+01 -0.17514592919E+02 -0.25756535615E+01  0.18726473352E+02  0.00000000000E+00 0. -1.
         11    1    3    3    0    0  0.39333789857E+01  0.94944051501E+01 -0.22700470162E+02  0.24918397726E+02  0.51100000000E-03 0. -1.
        -11    1    3    3    0    0 -0.18352887847E+01  0.18213153661E+02  0.30372866793E+02  0.35462632287E+02  0.51100000000E-03 0.  1.
         12    1    3    3    0    0  0.40081236686E+01 -0.10192965893E+02 -0.50967430695E+01  0.12080496635E+02  0.00000000000E+00 0. -1.
</event>
<event>
 7    1  0.1302069E-013  0.7246148E+02  0.7816164E-02  0.1226708E+00
        -11   -1    0    0    0    0  0.00000000000E+00  0.00000000000E+00  0.45593999997E+02  0.45594000000E+02  0.51100000000E-03 0.  1.
         11   -1    0    0    0    0 -0.00000000000E+00 -0.00000000000E+00 -0.45593999997E+02  0.45594000000E+02  0.51100000000E-03 0. -1.
    9900012    2    1    2    0    0 -0.54079483841E+01  0.17409043755E+02 -0.42850836432E+01  0.72461477311E+02  0.69999878872E+02 0.  0.
         12    1    1    2    0    0  0.54079483841E+01 -0.17409043755E+02  0.42850836432E+01  0.18726522689E+02  0.00000000000E+00 0. -1.
         11    1    3    3    0    0 -0.96545022971E+01  0.20616557277E+02 -0.11035089884E+02  0.25298716520E+02  0.51100000000E-03 0. -1.
        -11    1    3    3    0    0 -0.85602358135E+00 -0.18704102835E+02  0.19064932881E+02  0.26721674821E+02  0.51100000000E-03 0.  1.
        -12    1    3    3    0    0  0.51025774943E+01  0.15496589314E+02 -0.12314926641E+02  0.20441085970E+02  0.00000000000E+00 0.  1.
</event>
<event>
 7    1  0.1302069E-013  0.7246159E+02  0.7816164E-02  0.1226708E+00
        -11   -1    0    0    0    0  0.00000000000E+00  0.00000000000E+00  0.45593999997E+02  0.45594000000E+02  0.51100000000E-03 0. -1.
         11   -1    0    0    0    0 -0.00000000000E+00 -0.00000000000E+00 -0.45593999997E+02  0.45594000000E+02  0.51100000000E-03 0.  1.
    9900012    2    1    2    0    0 -0.12161727230E+02 -0.10271941184E+02 -0.98619495973E+01  0.72461589913E+02  0.70000025556E+02 0.  0.
         12    1    1    2    0    0  0.12161727230E+02  0.10271941184E+02  0.98619495973E+01  0.18726410087E+02  0.00000000000E+00 0. -1.
         11    1    3    3    0    0  0.11672835419E+02 -0.40899063079E+01  0.13351686234E+02  0.18200273237E+02  0.51100000000E-03 0. -1.
        -11    1    3    3    0    0 -0.16441209419E+02 -0.98290550573E+01 -0.34987648859E+02  0.39888084229E+02  0.51100000000E-03 0.  1.
        -12    1    3    3    0    0 -0.73933532304E+01  0.36470201816E+01  0.11774013028E+02  0.14373232447E+02  0.00000000000E+00 0.  1.
</event>
<event>
 7    1  0.1302069E-013  0.7246160E+02  0.7816164E-02  0.1226708E+00
        -11   -1    0    0    0    0  0.00000000000E+00  0.00000000000E+00  0.45593999997E+02  0.45594000000E+02  0.51100000000E-03 0.  1.
         11   -1    0    0    0    0 -0.00000000000E+00 -0.00000000000E+00 -0.45593999997E+02  0.45594000000E+02  0.51100000000E-03 0. -1.
    9900012    2    1    2    0    0  0.11037301691E+02 -0.14272185229E+02  0.50160521964E+01  0.72461599399E+02  0.70000037914E+02 0.  0.
         12    1    1    2    0    0 -0.11037301691E+02  0.14272185229E+02 -0.50160521964E+01  0.18726400601E+02  0.00000000000E+00 0. -1.
         11    1    3    3    0    0  0.16251618000E+02  0.48270110389E+01 -0.17298131390E+02  0.24220662110E+02  0.51100000000E-03 0. -1.
        -11    1    3    3    0    0 -0.62938933800E+01 -0.26242735780E+02  0.24431472588E+01  0.27097292188E+02  0.51100000000E-03 0.  1.
        -12    1    3    3    0    0  0.10795770710E+01  0.71435395126E+01  0.19871036328E+02  0.21143645101E+02  0.00000000000E+00 0.  1.
</event>
<event>
 7    1  0.1302069E-013  0.7246156E+02  0.7816164E-02  0.1226708E+00
        -11   -1    0    0    0    0  0.00000000000E+00  0.00000000000E+00  0.45593999997E+02  0.45594000000E+02  0.51100000000E-03 0.  1.
         11   -1    0    0    0    0 -0.00000000000E+00 -0.00000000000E+00 -0.45593999997E+02  0.45594000000E+02  0.51100000000E-03 0. -1.
    9900012    2    1    2    0    0 -0.14974027376E+02 -0.10637431417E+02  0.36473244237E+01  0.72461563648E+02  0.69999991342E+02 0.  0.
         12    1    1    2    0    0  0.14974027376E+02  0.10637431417E+02 -0.36473244237E+01  0.18726436352E+02  0.00000000000E+00 0. -1.
         11    1    3    3    0    0 -0.15048126520E+02 -0.37057084685E+02  0.49241680103E+01  0.40297904015E+02  0.51100000000E-03 0. -1.
        -11    1    3    3    0    0 -0.86159102693E+01  0.79412751478E+01 -0.59535459530E+00  0.11732527780E+02  0.51100000000E-03 0.  1.
         12    1    3    3    0    0  0.86900094136E+01  0.18478378120E+02 -0.68148899135E+00  0.20431131854E+02  0.00000000000E+00 0. -1.
</event>
<event>
 7    1  0.1302069E-013  0.7246151E+02  0.7816164E-02  0.1226708E+00
        -11   -1    0    0    0    0  0.00000000000E+00  0.00000000000E+00  0.45593999997E+02  0.45594000000E+02  0.51100000000E-03 0. -1.
         11   -1    0    0    0    0 -0.00000000000E+00 -0.00000000000E+00 -0.45593999997E+02  0.45594000000E+02  0.51100000000E-03 0.  1.
    9900012    2    1    2    0    0 -0.10610747187E+02 -0.15298755198E+02 -0.20103454921E+01  0.72461511929E+02  0.69999923968E+02 0.  0.
         12    1    1    2    0    0  0.10610747187E+02  0.15298755198E+02  0.20103454921E+01  0.18726488071E+02  0.00000000000E+00 0. -1.
         11    1    3    3    0    0 -0.53413505837E+01 -0.80352830822E+00  0.90726563549E+01  0.10558824622E+02  0.51100000000E-03 0. -1.
        -11    1    3    3    0    0 -0.39932137108E+01 -0.19382260869E+02 -0.33508304966E+02  0.38915604763E+02  0.51100000000E-03 0.  1.
        -12    1    3    3    0    0 -0.12761828930E+01  0.48870339786E+01  0.22425303119E+02  0.22987082544E+02  0.00000000000E+00 0.  1.
</event>
<event>
 7    1  0.1302069E-013  0.7246133E+02  0.7816164E-02  0.1226709E+00
        -11   -1    0    0    0    0  0.00000000000E+00  0.00000000000E+00  0.45593999997E+02  0.45594000000E+02  0.51100000000E-03 0.  1.
         11   -1    0    0    0    0 -0.00000000000E+00 -0.00000000000E+00 -0.45593999997E+02  0.45594000000E+02  0.51100000000E-03 0. -1.
    9900012    2    1    2    0    0 -0.12603705282E+02 -0.12481909316E+02 -0.60030629727E+01  0.72461328858E+02  0.69999685484E+02 0.  0.
         12    1    1    2    0    0  0.12603705282E+02  0.12481909316E+02  0.60030629727E+01  0.18726671142E+02  0.00000000000E+00 0. -1.
         11    1    3    3    0    0  0.15733791015E+02 -0.92598592161E+01  0.20609744875E+02  0.27532866841E+02  0.51100000000E-03 0.  1.
        -11    1    3    3    0    0 -0.15309623405E+02  0.70301886196E+01 -0.47737885560E+01  0.17509916569E+02  0.51100000000E-03 0. -1.
         12    1    3    3    0    0 -0.13027872892E+02 -0.10252238720E+02 -0.21839019291E+02  0.27418545448E+02  0.00000000000E+00 0. -1.
</event>
<event>
 7    1  0.1302069E-013  0.7246156E+02  0.7816164E-02  0.1226708E+00
        -11   -1    0    0    0    0  0.00000000000E+00  0.00000000000E+00  0.45593999997E+02  0.45594000000E+02  0.51100000000E-03 0. -1.
         11   -1    0    0    0    0 -0.00000000000E+00 -0.00000000000E+00 -0.45593999997E+02  0.45594000000E+02  0.51100000000E-03 0.  1.
    9900012    2    1    2    0    0 -0.31773349041E+01  0.12248091506E+02 -0.13804647580E+02  0.72461561539E+02  0.69999988594E+02 0.  0.
         12    1    1    2    0    0  0.31773349041E+01 -0.12248091506E+02  0.13804647580E+02  0.18726438461E+02  0.00000000000E+00 0. -1.
         11    1    3    3    0    0 -0.41181493742E+01 -0.56668433965E+01 -0.27228641200E+01  0.75157340045E+01  0.51100000000E-03 0. -1.
        -11    1    3    3    0    0  0.16884105788E+02  0.84838245873E+01 -0.31901934497E+02  0.37078049205E+02  0.51100000000E-03 0.  1.
        -12    1    3    3    0    0 -0.15943291318E+02  0.94311103149E+01  0.20820151037E+02  0.27867778329E+02  0.00000000000E+00 0.  1.
</event>
<event>
 7    1  0.1302069E-013  0.7246169E+02  0.7816164E-02  0.1226708E+00
        -11   -1    0    0    0    0  0.00000000000E+00  0.00000000000E+00  0.45593999997E+02  0.45594000000E+02  0.51100000000E-03 0.  1.
         11   -1    0    0    0    0 -0.00000000000E+00 -0.00000000000E+00 -0.45593999997E+02  0.45594000000E+02  0.51100000000E-03 0. -1.
    9900012    2    1    2    0    0 -0.32856927587E+01  0.13494873428E+02  0.12560549910E+02  0.72461686967E+02  0.70000151988E+02 0.  0.
         12    1    1    2    0    0  0.32856927587E+01 -0.13494873428E+02 -0.12560549910E+02  0.18726313033E+02  0.00000000000E+00 0. -1.
         11    1    3    3    0    0 -0.89495660795E+01 -0.99763037563E+01 -0.70446468045E+01  0.15140951704E+02  0.51100000000E-03 0. -1.
        -11    1    3    3    0    0 -0.12334810173E+02  0.31178264662E+02  0.16923895634E+02  0.37558620489E+02  0.51100000000E-03 0.  1.
        -12    1    3    3    0    0  0.17998683493E+02 -0.77070874775E+01  0.26813010810E+01  0.19762114775E+02  0.00000000000E+00 0.  1.
</event>
<event>
 7    1  0.1302069E-013  0.7246158E+02  0.7816164E-02  0.1226708E+00
        -11   -1    0    0    0    0  0.00000000000E+00  0.00000000000E+00  0.45593999997E+02  0.45594000000E+02  0.51100000000E-03 0. -1.
         11   -1    0    0    0    0 -0.00000000000E+00 -0.00000000000E+00 -0.45593999997E+02  0.45594000000E+02  0.51100000000E-03 0.  1.
    9900012    2    1    2    0    0 -0.12185253131E+02  0.76863944912E+01 -0.11963188895E+02  0.72461576351E+02  0.70000007889E+02 0.  0.
         12    1    1    2    0    0  0.12185253131E+02 -0.76863944912E+01  0.11963188895E+02  0.18726423649E+02  0.00000000000E+00 0. -1.
         11    1    3    3    0    0  0.19145653194E+02 -0.63721472023E+01 -0.59619948427E+01  0.21040572211E+02  0.51100000000E-03 0. -1.
        -11    1    3    3    0    0 -0.18932807670E+02  0.26270368244E+02  0.16214725630E+01  0.32422409341E+02  0.51100000000E-03 0.  1.
         12    1    3    3    0    0 -0.12398098656E+02 -0.12211826551E+02 -0.76226666156E+01  0.18998594798E+02  0.00000000000E+00 0. -1.
</event>
<event>
 7    1  0.1302069E-013  0.7246155E+02  0.7816164E-02  0.1226708E+00
        -11   -1    0    0    0    0  0.00000000000E+00  0.00000000000E+00  0.45593999997E+02  0.45594000000E+02  0.51100000000E-03 0.  1.
         11   -1    0    0    0    0 -0.00000000000E+00 -0.00000000000E+00 -0.45593999997E+02  0.45594000000E+02  0.51100000000E-03 0. -1.
    9900012    2    1    2    0    0  0.18042365950E+02  0.49985918115E+01 -0.40889515066E+00  0.72461545867E+02  0.69999968178E+02 0.  0.
         12    1    1    2    0    0 -0.18042365950E+02 -0.49985918115E+01  0.40889515066E+00  0.18726454133E+02  0.00000000000E+00 0. -1.
         11    1    3    3    0    0  0.95809454315E+00  0.10074660611E+01 -0.24084390432E+00  0.14110064015E+01  0.51100000000E-03 0. -1.
        -11    1    3    3    0    0  0.55537554251E+01  0.10197198161E+02  0.33217677781E+02  0.35188651112E+02  0.51100000000E-03 0.  1.
        -12    1    3    3    0    0  0.11530515982E+02 -0.62060724102E+01 -0.33385729027E+02  0.35861888353E+02  0.00000000000E+00 0.  1.
</event>
<event>
 7    1  0.1992258E-013  0.7246164E+02  0.7816164E-02  0.1226708E+00
        -11   -1    0    0    0    0  0.00000000000E+00  0.00000000000E+00  0.45593999997E+02  0.45594000000E+02  0.51100000000E-03 0. -1.
         11   -1    0    0    0    0 -0.00000000000E+00 -0.00000000000E+00 -0.45593999997E+02  0.45594000000E+02  0.51100000000E-03 0.  1.
    9900012    2    1    2    0    0 -0.19985763563E+01  0.69708711437E+01 -0.17265261319E+02  0.72461638891E+02  0.70000089360E+02 0.  0.
         12    1    1    2    0    0  0.19985763563E+01 -0.69708711437E+01  0.17265261319E+02  0.18726361109E+02  0.00000000000E+00 0. -1.
         11    1    3    3    0    0  0.18702366134E+02  0.57599903512E+01 -0.17967220271E+02  0.26566463679E+02  0.51100000000E-03 0.  1.
        -11    1    3    3    0    0 -0.21529616525E+02 -0.13776531915E+02 -0.10014564598E+02  0.27451934789E+02  0.51100000000E-03 0. -1.
         12    1    3    3    0    0  0.82867403476E+00  0.14987412708E+02  0.10716523550E+02  0.18443240424E+02  0.00000000000E+00 0. -1.
</event>
<event>
 7    1  0.1302069E-013  0.7246156E+02  0.7816164E-02  0.1226708E+00
        -11   -1    0    0    0    0  0.00000000000E+00  0.00000000000E+00  0.45593999997E+02  0.45594000000E+02  0.51100000000E-03 0.  1.
         11   -1    0    0    0    0 -0.00000000000E+00 -0.00000000000E+00 -0.45593999997E+02  0.45594000000E+02  0.51100000000E-03 0. -1.
    9900012    2    1    2    0    0 -0.93967016973E+01  0.38271408943E+01  0.15739591213E+02  0.72461555015E+02  0.69999980096E+02 0.  0.
         12    1    1    2    0    0  0.93967016973E+01 -0.38271408943E+01 -0.15739591213E+02  0.18726444985E+02  0.00000000000E+00 0. -1.
         11    1    3    3    0    0  0.85960963906E+01 -0.29330929950E+02  0.29365550634E+00  0.30566036032E+02  0.51100000000E-03 0. -1.
        -11    1    3    3    0    0 -0.58287456588E+01  0.20729249087E+02  0.92173288036E+01  0.23422962968E+02  0.51100000000E-03 0.  1.
         12    1    3    3    0    0 -0.12164052429E+02  0.12428821758E+02  0.62286069030E+01  0.18472556015E+02  0.00000000000E+00 0. -1.
</event>
<event>
 7    1  0.1302069E-013  0.7246158E+02  0.7816164E-02  0.1226708E+00
        -11   -1    0    0    0    0  0.00000000000E+00  0.00000000000E+00  0.45593999997E+02  0.45594000000E+02  0.51100000000E-03 0. -1.
         11   -1    0    0    0    0 -0.00000000000E+00 -0.00000000000E+00 -0.45593999997E+02  0.45594000000E+02  0.51100000000E-03 0.  1.
    9900012    2    1    2    0    0 -0.83910593875E+01  0.14883884743E+02 -0.76641303435E+01  0.72461580251E+02  0.70000012971E+02 0.  0.
         12    1    1    2    0    0  0.83910593875E+01 -0.14883884743E+02  0.76641303435E+01  0.18726419749E+02  0.00000000000E+00 0. -1.
         11    1    3    3    0    0  0.57755721691E+01  0.25179946457E+02  0.42388103747E+01  0.26179275221E+02  0.51100000000E-03 0. -1.
        -11    1    3    3    0    0 -0.27538570109E+02  0.17378818134E+00 -0.52082139091E+01  0.28027282036E+02  0.51100000000E-03 0.  1.
         12    1    3    3    0    0  0.13371938552E+02 -0.10469849895E+02 -0.66947268092E+01  0.18255022994E+02  0.00000000000E+00 0. -1.
</event>
<event>
 7    1  0.1302069E-013  0.7246157E+02  0.7816164E-02  0.1226708E+00
        -11   -1    0    0    0    0  0.00000000000E+00  0.00000000000E+00  0.45593999997E+02  0.45594000000E+02  0.51100000000E-03 0.  1.
         11   -1    0    0    0    0 -0.00000000000E+00 -0.00000000000E+00 -0.45593999997E+02  0.45594000000E+02  0.51100000000E-03 0. -1.
    9900012    2    1    2    0    0 -0.13016633881E+02  0.13178457261E+02  0.27522418692E+01  0.72461566045E+02  0.69999994464E+02 0.  0.
         12    1    1    2    0    0  0.13016633881E+02 -0.13178457261E+02 -0.27522418692E+01  0.18726433955E+02  0.00000000000E+00 0. -1.
         11    1    3    3    0    0 -0.27939380304E+02  0.24937162322E+02  0.35582685722E+01  0.37618244403E+02  0.51100000000E-03 0. -1.
        -11    1    3    3    0    0  0.51378821282E+01 -0.53901535467E+01  0.14078376591E+02  0.15926464633E+02  0.51100000000E-03 0.  1.
         12    1    3    3    0    0  0.97848642953E+01 -0.63685515142E+01 -0.14884403294E+02  0.18916857008E+02  0.00000000000E+00 0. -1.
</event>
<event>
 7    1  0.1302069E-013  0.7246153E+02  0.7816164E-02  0.1226708E+00
        -11   -1    0    0    0    0  0.00000000000E+00  0.00000000000E+00  0.45593999997E+02  0.45594000000E+02  0.51100000000E-03 0.  1.
         11   -1    0    0    0    0 -0.00000000000E+00 -0.00000000000E+00 -0.45593999997E+02  0.45594000000E+02  0.51100000000E-03 0. -1.
    9900012    2    1    2    0    0  0.31463960080E+01  0.18452404897E+02  0.53822110288E+00  0.72461528461E+02  0.69999945505E+02 0.  0.
         12    1    1    2    0    0 -0.31463960080E+01 -0.18452404897E+02 -0.53822110288E+00  0.18726471539E+02  0.00000000000E+00 0. -1.
         11    1    3    3    0    0  0.45259942006E-01  0.41225544929E+01 -0.27244760054E+02  0.27554935214E+02  0.51100000000E-03 0. -1.
        -11    1    3    3    0    0  0.17242208205E+02  0.42964456060E+01  0.16274609701E+02  0.24095977046E+02  0.51100000000E-03 0.  1.
         12    1    3    3    0    0 -0.14141072139E+02  0.10033404799E+02  0.11508371455E+02  0.20810616200E+02  0.00000000000E+00 0. -1.
</event>
<event>
 7    1  0.1302069E-013  0.7246160E+02  0.7816164E-02  0.1226708E+00
        -11   -1    0    0    0    0  0.00000000000E+00  0.00000000000E+00  0.45593999997E+02  0.45594000000E+02  0.51100000000E-03 0.  1.
         11   -1    0    0    0    0 -0.00000000000E+00 -0.00000000000E+00 -0.45593999997E+02  0.45594000000E+02  0.51100000000E-03 0. -1.
    9900012    2    1    2    0    0  0.60325638764E+01 -0.82813045390E+01  0.15675016466E+02  0.72461602242E+02  0.70000041617E+02 0.  0.
         12    1    1    2    0    0 -0.60325638764E+01  0.82813045390E+01 -0.15675016466E+02  0.18726397758E+02  0.00000000000E+00 0. -1.
         11    1    3    3    0    0  0.29291957263E+02 -0.93333925830E+01  0.11131752264E+01  0.30763129502E+02  0.51100000000E-03 0. -1.
        -11    1    3    3    0    0 -0.17840836868E+02 -0.14178436483E+02  0.10112658119E+02  0.24931694201E+02  0.51100000000E-03 0.  1.
        -12    1    3    3    0    0 -0.54185565191E+01  0.15230524527E+02  0.44491831202E+01  0.16766778538E+02  0.00000000000E+00 0.  1.
</event>
<event>
 7    1  0.1302069E-013  0.7246154E+02  0.7816164E-02  0.1226708E+00
        -11   -1    0    0    0    0  0.00000000000E+00  0.00000000000E+00  0.45593999997E+02  0.45594000000E+02  0.51100000000E-03 0. -1.
         11   -1    0    0    0    0 -0.00000000000E+00 -0.00000000000E+00 -0.45593999997E+02  0.45594000000E+02  0.51100000000E-03 0.  1.
    9900012    2    1    2    0    0  0.14405922684E+02 -0.10331971913E+02 -0.60332587761E+01  0.72461535746E+02  0.69999954994E+02 0.  0.
         12    1    1    2    0    0 -0.14405922684E+02  0.10331971913E+02  0.60332587761E+01  0.18726464254E+02  0.00000000000E+00 0. -1.
         11    1    3    3    0    0  0.77008186774E+01 -0.29519438700E+02  0.14458019392E+02  0.33759949563E+02  0.51100000000E-03 0. -1.
        -11    1    3    3    0    0  0.14287383812E+02  0.85991658489E+01 -0.19474953901E+02  0.25638814700E+02  0.51100000000E-03 0.  1.
         12    1    3    3    0    0 -0.75822798052E+01  0.10588300938E+02 -0.10163242670E+01  0.13062771483E+02  0.00000000000E+00 0. -1.
</event>
<event>
 7    1  0.1302069E-013  0.7246097E+02  0.7816164E-02  0.1226710E+00
        -11   -1    0    0    0    0  0.00000000000E+00  0.00000000000E+00  0.45593999997E+02  0.45594000000E+02  0.51100000000E-03 0. -1.
         11   -1    0    0    0    0 -0.00000000000E+00 -0.00000000000E+00 -0.45593999997E+02  0.45594000000E+02  0.51100000000E-03 0.  1.
    9900012    2    1    2    0    0 -0.13571839420E+02  0.99768347447E+01 -0.81834908859E+01  0.72460971943E+02  0.69999220532E+02 0.  0.
         12    1    1    2    0    0  0.13571839420E+02 -0.99768347447E+01  0.81834908859E+01  0.18727028057E+02  0.00000000000E+00 0. -1.
         11    1    3    3    0    0  0.13385258631E+02  0.11044231834E+02 -0.14648865491E+02  0.22709677802E+02  0.51100000000E-03 0.  1.
        -11    1    3    3    0    0 -0.16237318839E+02 -0.13613567508E+02 -0.12508044106E+02  0.24605505705E+02  0.51100000000E-03 0. -1.
        -12    1    3    3    0    0 -0.10719779211E+02  0.12546170418E+02  0.18973418711E+02  0.25145788436E+02  0.00000000000E+00 0.  1.
</event>
<event>
 7    1  0.1302069E-013  0.7246156E+02  0.7816164E-02  0.1226708E+00
        -11   -1    0    0    0    0  0.00000000000E+00  0.00000000000E+00  0.45593999997E+02  0.45594000000E+02  0.51100000000E-03 0.  1.
         11   -1    0    0    0    0 -0.00000000000E+00 -0.00000000000E+00 -0.45593999997E+02  0.45594000000E+02  0.51100000000E-03 0. -1.
    9900012    2    1    2    0    0 -0.11913594452E+01 -0.84592354651E+01  0.16664378564E+02  0.72461561072E+02  0.69999987986E+02 0.  0.
         12    1    1    2    0    0  0.11913594452E+01  0.84592354651E+01 -0.16664378564E+02  0.18726438928E+02  0.00000000000E+00 0. -1.
         11    1    3    3    0    0  0.19835373005E+02  0.62703381440E+01  0.20409596802E+01  0.20902743346E+02  0.51100000000E-03 0. -1.
        -11    1    3    3    0    0 -0.13359974656E+02 -0.10579002785E+02 -0.13737042245E+02  0.21888594122E+02  0.51100000000E-03 0.  1.
        -12    1    3    3    0    0 -0.76667577945E+01 -0.41505708236E+01  0.28360461129E+02  0.29670223604E+02  0.00000000000E+00 0.  1.
</event>
<event>
 7    1  0.1302069E-013  0.7246163E+02  0.7816164E-02  0.1226708E+00
        -11   -1    0    0    0    0  0.00000000000E+00  0.00000000000E+00  0.45593999997E+02  0.45594000000E+02  0.51100000000E-03 0.  1.
         11   -1    0    0    0    0 -0.00000000000E+00 -0.00000000000E+00 -0.45593999997E+02  0.45594000000E+02  0.51100000000E-03 0. -1.
    9900012    2    1    2    0    0  0.16462300005E+02 -0.34278427230E+01  0.82413228149E+01  0.72461632788E+02  0.70000081410E+02 0.  0.
         12    1    1    2    0    0 -0.16462300005E+02  0.34278427230E+01 -0.82413228149E+01  0.18726367212E+02  0.00000000000E+00 0. -1.
         11    1    3    3    0    0  0.29417176647E+02 -0.46902876184E+01  0.33969471588E+01  0.29981799981E+02  0.51100000000E-03 0.  1.
        -11    1    3    3    0    0 -0.20826232511E+02  0.44007785176E+01 -0.11408430013E+02  0.24150591872E+02  0.51100000000E-03 0. -1.
         12    1    3    3    0    0  0.78713558696E+01 -0.31383336222E+01  0.16252805669E+02  0.18329240935E+02  0.00000000000E+00 0. -1.
</event>
<event>
 7    1  0.1302069E-013  0.7246158E+02  0.7816164E-02  0.1226708E+00
        -11   -1    0    0    0    0  0.00000000000E+00  0.00000000000E+00  0.45593999997E+02  0.45594000000E+02  0.51100000000E-03 0.  1.
         11   -1    0    0    0    0 -0.00000000000E+00 -0.00000000000E+00 -0.45593999997E+02  0.45594000000E+02  0.51100000000E-03 0. -1.
    9900012    2    1    2    0    0 -0.28164525626E+00 -0.96906294391E+01  0.16021581660E+02  0.72461582781E+02  0.70000016266E+02 0.  0.
         12    1    1    2    0    0  0.28164525626E+00  0.96906294391E+01 -0.16021581660E+02  0.18726417219E+02  0.00000000000E+00 0. -1.
         11    1    3    3    0    0  0.19666952838E+02  0.18547169071E+02  0.52693436392E+01  0.27541831768E+02  0.51100000000E-03 0. -1.
        -11    1    3    3    0    0 -0.12863371013E+02 -0.27427183026E+02  0.17597957016E+02  0.35034337070E+02  0.51100000000E-03 0.  1.
         12    1    3    3    0    0 -0.70852270812E+01 -0.81061548427E+00 -0.68457189949E+01  0.98854139424E+01  0.00000000000E+00 0. -1.
</event>
<event>
 7    1  0.1302069E-013  0.7246188E+02  0.7816164E-02  0.1226707E+00
        -11   -1    0    0    0    0  0.00000000000E+00  0.00000000000E+00  0.45593999997E+02  0.45594000000E+02  0.51100000000E-03 0. -1.
         11   -1    0    0    0    0 -0.00000000000E+00 -0.00000000000E+00 -0.45593999997E+02  0.45594000000E+02  0.51100000000E-03 0.  1.
    9900012    2    1    2    0    0 -0.81025479330E+01  0.74449487632E+01 -0.15152200176E+02  0.72461876128E+02  0.70000398404E+02 0.  0.
         12    1    1    2    0    0  0.81025479330E+01 -0.74449487632E+01  0.15152200176E+02  0.18726123872E+02  0.00000000000E+00 0. -1.
         11    1    3    3    0    0 -0.17247454330E+01 -0.56642579929E+01  0.26978368797E+02  0.27620480601E+02  0.51100000000E-03 0. -1.
        -11    1    3    3    0    0 -0.49099768303E+01  0.50613940303E+01 -0.22347180498E+02  0.23433353547E+02  0.51100000000E-03 0.  1.
         12    1    3    3    0    0 -0.14678256697E+01  0.80478127258E+01 -0.19783388475E+02  0.21408041980E+02  0.00000000000E+00 0. -1.
</event>
<event>
 7    1  0.1302069E-013  0.7246123E+02  0.7816164E-02  0.1226709E+00
        -11   -1    0    0    0    0  0.00000000000E+00  0.00000000000E+00  0.45593999997E+02  0.45594000000E+02  0.51100000000E-03 0. -1.
         11   -1    0    0    0    0 -0.00000000000E+00 -0.00000000000E+00 -0.45593999997E+02  0.45594000000E+02  0.51100000000E-03 0.  1.
    9900012    2    1    2    0    0 -0.61344581566E+01  0.16729357905E+02  0.57609982941E+01  0.72461225208E+02  0.69999550459E+02 0.  0.
         12    1    1    2    0    0  0.61344581566E+01 -0.16729357905E+02 -0.57609982941E+01  0.18726774792E+02  0.00000000000E+00 0. -1.
         11    1    3    3    0    0  0.23067721169E+02  0.66737974321E+01  0.92249788587E+00  0.24031444707E+02  0.51100000000E-03 0. -1.
        -11    1    3    3    0    0 -0.22972240170E+02 -0.77937966357E+01 -0.80385745982E+01  0.25555542770E+02  0.51100000000E-03 0.  1.
         12    1    3    3    0    0 -0.62299391554E+01  0.17849357108E+02  0.12877075006E+02  0.22874237731E+02  0.00000000000E+00 0. -1.
</event>
<event>
 7    1  0.1302069E-013  0.7246145E+02  0.7816164E-02  0.1226708E+00
        -11   -1    0    0    0    0  0.00000000000E+00  0.00000000000E+00  0.45593999997E+02  0.45594000000E+02  0.51100000000E-03 0.  1.
         11   -1    0    0    0    0 -0.00000000000E+00 -0.00000000000E+00 -0.45593999997E+02  0.45594000000E+02  0.51100000000E-03 0. -1.
    9900012    2    1    2    0    0 -0.13613842322E+02  0.12613576135E+02 -0.24988973010E+01  0.72461454846E+02  0.69999849607E+02 0.  0.
         12    1    1    2    0    0  0.13613842322E+02 -0.12613576135E+02  0.24988973010E+01  0.18726545154E+02  0.00000000000E+00 0. -1.
         11    1    3    3    0    0  0.19334421793E+01 -0.25349928816E+02  0.22722420301E+00  0.25424569234E+02  0.51100000000E-03 0. -1.
        -11    1    3    3    0    0 -0.19152711581E+02  0.33715745702E+02 -0.77405977329E+01  0.39541051107E+02  0.51100000000E-03 0.  1.
        -12    1    3    3    0    0  0.36054270793E+01  0.42477592499E+01  0.50144762289E+01  0.74958345045E+01  0.00000000000E+00 0.  1.
</event>
<event>
 7    1  0.1302069E-013  0.7246159E+02  0.7816164E-02  0.1226708E+00
        -11   -1    0    0    0    0  0.00000000000E+00  0.00000000000E+00  0.45593999997E+02  0.45594000000E+02  0.51100000000E-03 0. -1.
         11   -1    0    0    0    0 -0.00000000000E+00 -0.00000000000E+00 -0.45593999997E+02  0.45594000000E+02  0.51100000000E-03 0.  1.
    9900012    2    1    2    0    0 -0.10950491656E+02 -0.13469622445E+02  0.70238498245E+01  0.72461589167E+02  0.70000024585E+02 0.  0.
         12    1    1    2    0    0  0.10950491656E+02  0.13469622445E+02 -0.70238498245E+01  0.18726410833E+02  0.00000000000E+00 0. -1.
         11    1    3    3    0    0 -0.42293329187E+01  0.24543841588E+02  0.70783080100E+01  0.25891887946E+02  0.51100000000E-03 0. -1.
        -11    1    3    3    0    0 -0.80711800372E+01 -0.28035390318E+02  0.11396877886E+02  0.31321173083E+02  0.51100000000E-03 0.  1.
        -12    1    3    3    0    0  0.13500213002E+01 -0.99780737151E+01 -0.11451336071E+02  0.15248528138E+02  0.00000000000E+00 0.  1.
</event>
<event>
 7    1  0.1302069E-013  0.7246148E+02  0.7816164E-02  0.1226708E+00
        -11   -1    0    0    0    0  0.00000000000E+00  0.00000000000E+00  0.45593999997E+02  0.45594000000E+02  0.51100000000E-03 0.  1.
         11   -1    0    0    0    0 -0.00000000000E+00 -0.00000000000E+00 -0.45593999997E+02  0.45594000000E+02  0.51100000000E-03 0. -1.
    9900012    2    1    2    0    0 -0.69797758263E+01  0.16802455058E+02 -0.44320077116E+01  0.72461482467E+02  0.69999885588E+02 0.  0.
         12    1    1    2    0    0  0.69797758263E+01 -0.16802455058E+02  0.44320077116E+01  0.18726517533E+02  0.00000000000E+00 0. -1.
         11    1    3    3    0    0 -0.21893389128E+01 -0.16018735786E+02 -0.10538878222E+01  0.16201968425E+02  0.51100000000E-03 0. -1.
        -11    1    3    3    0    0 -0.51363775871E+01  0.32119151944E+02  0.16426313396E+02  0.36439622232E+02  0.51100000000E-03 0.  1.
        -12    1    3    3    0    0  0.34594067356E+00  0.70203890012E+00 -0.19804433286E+02  0.19819891809E+02  0.00000000000E+00 0.  1.
</event>
<event>
 7    1  0.1302069E-013  0.7246153E+02  0.7816164E-02  0.1226708E+00
        -11   -1    0    0    0    0  0.00000000000E+00  0.00000000000E+00  0.45593999997E+02  0.45594000000E+02  0.51100000000E-03 0.  1.
         11   -1    0    0    0    0 -0.00000000000E+00 -0.00000000000E+00 -0.45593999997E+02  0.45594000000E+02  0.51100000000E-03 0. -1.
    9900012    2    1    2    0    0 -0.54599798847E+01 -0.28333906887E+01  0.17687315434E+02  0.72461531822E+02  0.69999949883E+02 0.  0.
         12    1    1    2    0    0  0.54599798847E+01  0.28333906887E+01 -0.17687315434E+02  0.18726468178E+02  0.00000000000E+00 0. -1.
         11    1    3    3    0    0  0.29935937646E+01 -0.94305671570E+01  0.16927975958E+01  0.10038065774E+02  0.51100000000E-03 0. -1.
        -11    1    3    3    0    0 -0.24380012037E+02  0.18541744448E+02 -0.75938496821E+01  0.31557056697E+02  0.51100000000E-03 0.  1.
        -12    1    3    3    0    0  0.15926438388E+02 -0.11944567980E+02  0.23588367521E+02  0.30866409351E+02  0.00000000000E+00 0.  1.
</event>
<event>
 7    1  0.1302069E-013  0.7246153E+02  0.7816164E-02  0.1226708E+00
        -11   -1    0    0    0    0  0.00000000000E+00  0.00000000000E+00  0.45593999997E+02  0.45594000000E+02  0.51100000000E-03 0.  1.
         11   -1    0    0    0    0 -0.00000000000E+00 -0.00000000000E+00 -0.45593999997E+02  0.45594000000E+02  0.51100000000E-03 0. -1.
    9900012    2    1    2    0    0  0.63776703188E+01  0.71002291180E+01  0.16111877648E+02  0.72461533874E+02  0.69999952555E+02 0.  0.
         12    1    1    2    0    0 -0.63776703188E+01 -0.71002291180E+01 -0.16111877648E+02  0.18726466126E+02  0.00000000000E+00 0. -1.
         11    1    3    3    0    0 -0.14796808039E+02 -0.22410208310E+02 -0.50550525966E+01  0.27326114280E+02  0.51100000000E-03 0. -1.
        -11    1    3    3    0    0  0.74796581371E+01  0.13715178459E+02  0.33961083211E+00  0.15625835715E+02  0.51100000000E-03 0.  1.
         12    1    3    3    0    0  0.13694820220E+02  0.15795258968E+02  0.20827319413E+02  0.29509583878E+02  0.00000000000E+00 0. -1.
</event>
<event>
 7    1  0.1302069E-013  0.7246162E+02  0.7816164E-02  0.1226708E+00
        -11   -1    0    0    0    0  0.00000000000E+00  0.00000000000E+00  0.45593999997E+02  0.45594000000E+02  0.51100000000E-03 0. -1.
         11   -1    0    0    0    0 -0.00000000000E+00 -0.00000000000E+00 -0.45593999997E+02  0.45594000000E+02  0.51100000000E-03 0.  1.
    9900012    2    1    2    0    0 -0.18136956954E+02  0.43530567307E+01  0.16670835514E+01  0.72461615458E+02  0.70000058834E+02 0.  0.
         12    1    1    2    0    0  0.18136956954E+02 -0.43530567307E+01 -0.16670835514E+01  0.18726384542E+02  0.00000000000E+00 0. -1.
         11    1    3    3    0    0 -0.13662944607E+01  0.98877289168E+01  0.12045781408E+02  0.15644001843E+02  0.51100000000E-03 0. -1.
        -11    1    3    3    0    0  0.34385104219E+01 -0.26400346678E+02 -0.26240999672E+01  0.26752337459E+02  0.51100000000E-03 0.  1.
        -12    1    3    3    0    0 -0.20209172915E+02  0.20865674492E+02 -0.77545978891E+01  0.30065276156E+02  0.00000000000E+00 0.  1.
</event>
<event>
 7    1  0.1302069E-013  0.7246163E+02  0.7816164E-02  0.1226708E+00
        -11   -1    0    0    0    0  0.00000000000E+00  0.00000000000E+00  0.45593999997E+02  0.45594000000E+02  0.51100000000E-03 0. -1.
         11   -1    0    0    0    0 -0.00000000000E+00 -0.00000000000E+00 -0.45593999997E+02  0.45594000000E+02  0.51100000000E-03 0.  1.
    9900012    2    1    2    0    0  0.16330848742E+02 -0.29329233584E+01 -0.86820577214E+01  0.72461633926E+02  0.70000082892E+02 0.  0.
         12    1    1    2    0    0 -0.16330848742E+02  0.29329233584E+01  0.86820577214E+01  0.18726366074E+02  0.00000000000E+00 0. -1.
         11    1    3    3    0    0  0.28922936565E+02  0.80209380546E+01  0.10478117404E+02  0.31790920895E+02  0.51100000000E-03 0. -1.
        -11    1    3    3    0    0 -0.51417561783E+01  0.21968617918E+00 -0.25361511568E+02  0.25878411618E+02  0.51100000000E-03 0.  1.
        -12    1    3    3    0    0 -0.74503316446E+01 -0.11173547592E+02  0.62013364429E+01  0.14792301413E+02  0.00000000000E+00 0.  1.
</event>
<event>
 7    1  0.1302069E-013  0.7246149E+02  0.7816164E-02  0.1226708E+00
        -11   -1    0    0    0    0  0.00000000000E+00  0.00000000000E+00  0.45593999997E+02  0.45594000000E+02  0.51100000000E-03 0.  1.
         11   -1    0    0    0    0 -0.00000000000E+00 -0.00000000000E+00 -0.45593999997E+02  0.45594000000E+02  0.51100000000E-03 0. -1.
    9900012    2    1    2    0    0 -0.17163044756E+02  0.27135457369E+01  0.69820318545E+01  0.72461489257E+02  0.69999894434E+02 0.  0.
         12    1    1    2    0    0  0.17163044756E+02 -0.27135457369E+01 -0.69820318545E+01  0.18726510743E+02  0.00000000000E+00 0. -1.
         11    1    3    3    0    0  0.13244910956E+02 -0.23888989495E+02 -0.45490721120E+01  0.27691253902E+02  0.51100000000E-03 0. -1.
        -11    1    3    3    0    0 -0.16815301396E+02  0.23186419388E+02  0.11191295735E+02  0.30750764309E+02  0.51100000000E-03 0.  1.
         12    1    3    3    0    0 -0.13592654316E+02  0.34161158438E+01  0.33980823105E+00  0.14019471047E+02  0.00000000000E+00 0. -1.
</event>
<event>
 7    1  0.1302069E-013  0.7246152E+02  0.7816164E-02  0.1226708E+00
        -11   -1    0    0    0    0  0.00000000000E+00  0.00000000000E+00  0.45593999997E+02  0.45594000000E+02  0.51100000000E-03 0.  1.
         11   -1    0    0    0    0 -0.00000000000E+00 -0.00000000000E+00 -0.45593999997E+02  0.45594000000E+02  0.51100000000E-03 0. -1.
    9900012    2    1    2    0    0  0.12818357175E+02 -0.33083074302E+01  0.13244842732E+02  0.72461520413E+02  0.69999935021E+02 0.  0.
         12    1    1    2    0    0 -0.12818357175E+02  0.33083074302E+01 -0.13244842732E+02  0.18726479587E+02  0.00000000000E+00 0. -1.
         11    1    3    3    0    0 -0.10240117788E+02  0.49500806724E+01 -0.18690862210E+02  0.21879479916E+02  0.51100000000E-03 0. -1.
        -11    1    3    3    0    0  0.23586302135E+02  0.51798938615E+01  0.13204164933E+02  0.27522625613E+02  0.51100000000E-03 0.  1.
         12    1    3    3    0    0 -0.52782717163E+00 -0.13438281964E+02  0.18731540009E+02  0.23059414884E+02  0.00000000000E+00 0. -1.
</event>
<event>
 7    1  0.1302069E-013  0.7246158E+02  0.7816164E-02  0.1226708E+00
        -11   -1    0    0    0    0  0.00000000000E+00  0.00000000000E+00  0.45593999997E+02  0.45594000000E+02  0.51100000000E-03 0.  1.
         11   -1    0    0    0    0 -0.00000000000E+00 -0.00000000000E+00 -0.45593999997E+02  0.45594000000E+02  0.51100000000E-03 0. -1.
    9900012    2    1    2    0    0 -0.16046529883E+02 -0.94526074719E+01  0.19585074414E+01  0.72461583880E+02  0.70000017698E+02 0.  0.
         12    1    1    2    0    0  0.16046529883E+02  0.94526074719E+01 -0.19585074414E+01  0.18726416120E+02  0.00000000000E+00 0. -1.
         11    1    3    3    0    0 -0.10317437985E+02 -0.10454876228E+00 -0.55901614820E+01  0.11735005866E+02  0.51100000000E-03 0. -1.
        -11    1    3    3    0    0  0.26199373598E+02 -0.10165508721E+02  0.98181311155E+00  0.28119543057E+02  0.51100000000E-03 0.  1.
        -12    1    3    3    0    0 -0.31928465495E+02  0.81745001164E+00  0.65668558119E+01  0.32607034957E+02  0.00000000000E+00 0.  1.
</event>
<event>
 7    1  0.1302069E-013  0.7246150E+02  0.7816164E-02  0.1226708E+00
        -11   -1    0    0    0    0  0.00000000000E+00  0.00000000000E+00  0.45593999997E+02  0.45594000000E+02  0.51100000000E-03 0. -1.
         11   -1    0    0    0    0 -0.00000000000E+00 -0.00000000000E+00 -0.45593999997E+02  0.45594000000E+02  0.51100000000E-03 0.  1.
    9900012    2    1    2    0    0 -0.48601193163E+01 -0.12180670534E+02 -0.13367581882E+02  0.72461501668E+02  0.69999910601E+02 0.  0.
         12    1    1    2    0    0  0.48601193163E+01  0.12180670534E+02  0.13367581882E+02  0.18726498332E+02  0.00000000000E+00 0. -1.
         11    1    3    3    0    0  0.75179441468E+01  0.29976356878E+01  0.13158703918E+02  0.15448520738E+02  0.51100000000E-03 0. -1.
        -11    1    3    3    0    0 -0.14771505815E+02  0.52584398704E+01 -0.32074347030E+02  0.35701713006E+02  0.51100000000E-03 0.  1.
        -12    1    3    3    0    0  0.23934423523E+01 -0.20436746092E+02  0.55480612293E+01  0.21311267924E+02  0.00000000000E+00 0.  1.
</event>
<event>
 7    1  0.1302069E-013  0.7246157E+02  0.7816164E-02  0.1226708E+00
        -11   -1    0    0    0    0  0.00000000000E+00  0.00000000000E+00  0.45593999997E+02  0.45594000000E+02  0.51100000000E-03 0. -1.
         11   -1    0    0    0    0 -0.00000000000E+00 -0.00000000000E+00 -0.45593999997E+02  0.45594000000E+02  0.51100000000E-03 0.  1.
    9900012    2    1    2    0    0  0.14517775165E+02  0.97480504087E+01 -0.66999114061E+01  0.72461572274E+02  0.70000002579E+02 0.  0.
         12    1    1    2    0    0 -0.14517775165E+02 -0.97480504087E+01  0.66999114061E+01  0.18726427726E+02  0.00000000000E+00 0. -1.
         11    1    3    3    0    0  0.13754489028E+02 -0.30035187517E+01  0.78558028378E+01  0.16122057307E+02  0.51100000000E-03 0. -1.
        -11    1    3    3    0    0 -0.14702733753E+02 -0.88312867553E+01  0.10268740420E+02  0.19990223502E+02  0.51100000000E-03 0.  1.
        -12    1    3    3    0    0  0.15466019890E+02  0.21582855916E+02 -0.24824454663E+02  0.36349291466E+02  0.00000000000E+00 0.  1.
</event>
<event>
 7    1  0.1302069E-013  0.7246147E+02  0.7816164E-02  0.1226708E+00
        -11   -1    0    0    0    0  0.00000000000E+00  0.00000000000E+00  0.45593999997E+02  0.45594000000E+02  0.51100000000E-03 0. -1.
         11   -1    0    0    0    0 -0.00000000000E+00 -0.00000000000E+00 -0.45593999997E+02  0.45594000000E+02  0.51100000000E-03 0.  1.
    9900012    2    1    2    0    0 -0.11576967758E+02 -0.14698040523E+02  0.79012452458E+00  0.72461471372E+02  0.69999871136E+02 0.  0.
         12    1    1    2    0    0  0.11576967758E+02  0.14698040523E+02 -0.79012452458E+00  0.18726528628E+02  0.00000000000E+00 0. -1.
         11    1    3    3    0    0 -0.14576852183E+02  0.81413520480E+01  0.89049648147E+01  0.18922595788E+02  0.51100000000E-03 0. -1.
        -11    1    3    3    0    0 -0.28865206559E+01 -0.35182511768E+02  0.36641937775E+01  0.35490385347E+02  0.51100000000E-03 0.  1.
        -12    1    3    3    0    0  0.58864050806E+01  0.12343119197E+02 -0.11779034068E+02  0.18048490238E+02  0.00000000000E+00 0.  1.
</event>
<event>
 7    1  0.1302069E-013  0.7246158E+02  0.7816164E-02  0.1226708E+00
        -11   -1    0    0    0    0  0.00000000000E+00  0.00000000000E+00  0.45593999997E+02  0.45594000000E+02  0.51100000000E-03 0. -1.
         11   -1    0    0    0    0 -0.00000000000E+00 -0.00000000000E+00 -0.45593999997E+02  0.45594000000E+02  0.51100000000E-03 0.  1.
    9900012    2    1    2    0    0 -0.32361780199E+01  0.18382774579E+02  0.15098479149E+01  0.72461577754E+02  0.70000009718E+02 0.  0.
         12    1    1    2    0    0  0.32361780199E+01 -0.18382774579E+02 -0.15098479149E+01  0.18726422246E+02  0.00000000000E+00 0. -1.
         11    1    3    3    0    0 -0.10212140815E+02  0.24661770880E+02  0.20682056119E+02  0.33767413412E+02  0.51100000000E-03 0. -1.
        -11    1    3    3    0    0 -0.84547746872E+01 -0.13544370301E+02 -0.12882944152E+02  0.20515931179E+02  0.51100000000E-03 0.  1.
         12    1    3    3    0    0  0.15430737482E+02  0.72653739999E+01 -0.62892640526E+01  0.18178233163E+02  0.00000000000E+00 0. -1.
</event>
<event>
 7    1  0.1302069E-013  0.7246152E+02  0.7816164E-02  0.1226708E+00
        -11   -1    0    0    0    0  0.00000000000E+00  0.00000000000E+00  0.45593999997E+02  0.45594000000E+02  0.51100000000E-03 0. -1.
         11   -1    0    0    0    0 -0.00000000000E+00 -0.00000000000E+00 -0.45593999997E+02  0.45594000000E+02  0.51100000000E-03 0.  1.
    9900012    2    1    2    0    0  0.91365267886E+01  0.10122863327E+02 -0.12834812990E+02  0.72461523872E+02  0.69999939526E+02 0.  0.
         12    1    1    2    0    0 -0.91365267886E+01 -0.10122863327E+02  0.12834812990E+02  0.18726476128E+02  0.00000000000E+00 0. -1.
         11    1    3    3    0    0  0.13416146459E+02  0.11939027601E+02  0.13984363939E+02  0.22761717881E+02  0.51100000000E-03 0. -1.
        -11    1    3    3    0    0  0.17011817061E+02 -0.16467837841E+01 -0.22018105164E+02  0.27873119162E+02  0.51100000000E-03 0.  1.
         12    1    3    3    0    0 -0.21291436731E+02 -0.16938048982E+00 -0.48010717646E+01  0.21826686828E+02  0.00000000000E+00 0. -1.
</event>
<event>
 7    1  0.1302069E-013  0.7246149E+02  0.7816164E-02  0.1226708E+00
        -11   -1    0    0    0    0  0.00000000000E+00  0.00000000000E+00  0.45593999997E+02  0.45594000000E+02  0.51100000000E-03 0.  1.
         11   -1    0    0    0    0 -0.00000000000E+00 -0.00000000000E+00 -0.45593999997E+02  0.45594000000E+02  0.51100000000E-03 0. -1.
    9900012    2    1    2    0    0 -0.15890609325E+02 -0.87765471538E+01 -0.45981431017E+01  0.72461490324E+02  0.69999895824E+02 0.  0.
         12    1    1    2    0    0  0.15890609325E+02  0.87765471538E+01  0.45981431017E+01  0.18726509676E+02  0.00000000000E+00 0. -1.
         11    1    3    3    0    0  0.81977178672E+01  0.15222659124E+02 -0.12341217715E+02  0.21242353541E+02  0.51100000000E-03 0. -1.
        -11    1    3    3    0    0 -0.54988215648E+01 -0.30793246534E+01  0.19776040145E+02  0.20755988124E+02  0.51100000000E-03 0.  1.
        -12    1    3    3    0    0 -0.18589505628E+02 -0.20919881624E+02 -0.12032965533E+02  0.30463148658E+02  0.00000000000E+00 0.  1.
</event>
<event>
 7    1  0.1302069E-013  0.7246160E+02  0.7816164E-02  0.1226708E+00
        -11   -1    0    0    0    0  0.00000000000E+00  0.00000000000E+00  0.45593999997E+02  0.45594000000E+02  0.51100000000E-03 0. -1.
         11   -1    0    0    0    0 -0.00000000000E+00 -0.00000000000E+00 -0.45593999997E+02  0.45594000000E+02  0.51100000000E-03 0.  1.
    9900012    2    1    2    0    0  0.17988951712E+02 -0.13535313385E+01 -0.50243085989E+01  0.72461598646E+02  0.70000036933E+02 0.  0.
         12    1    1    2    0    0 -0.17988951712E+02  0.13535313385E+01  0.50243085989E+01  0.18726401354E+02  0.00000000000E+00 0. -1.
         11    1    3    3    0    0 -0.20268523172E+01 -0.29014455933E+02 -0.40221368615E+01  0.29361954441E+02  0.51100000000E-03 0. -1.
        -11    1    3    3    0    0  0.16546745590E+01  0.17759694566E+02  0.89846489094E+01  0.19971695352E+02  0.51100000000E-03 0.  1.
         12    1    3    3    0    0  0.18361129470E+02  0.99012300286E+01 -0.99868206467E+01  0.23127948853E+02  0.00000000000E+00 0. -1.
</event>
<event>
 7    1  0.1302069E-013  0.7246155E+02  0.7816164E-02  0.1226708E+00
        -11   -1    0    0    0    0  0.00000000000E+00  0.00000000000E+00  0.45593999997E+02  0.45594000000E+02  0.51100000000E-03 0.  1.
         11   -1    0    0    0    0 -0.00000000000E+00 -0.00000000000E+00 -0.45593999997E+02  0.45594000000E+02  0.51100000000E-03 0. -1.
    9900012    2    1    2    0    0 -0.14249088007E+02  0.12023852177E+02  0.17522360987E+01  0.72461551817E+02  0.69999975930E+02 0.  0.
         12    1    1    2    0    0  0.14249088007E+02 -0.12023852177E+02 -0.17522360987E+01  0.18726448183E+02  0.00000000000E+00 0. -1.
         11    1    3    3    0    0 -0.16389263566E+02  0.26390803068E+02 -0.26009174197E+02  0.40516164546E+02  0.51100000000E-03 0. -1.
        -11    1    3    3    0    0  0.17698012991E+01 -0.10685454178E+02  0.14030783566E+02  0.17724954594E+02  0.51100000000E-03 0.  1.
         12    1    3    3    0    0  0.37037426032E+00 -0.36814967140E+01  0.13730626730E+02  0.14220432678E+02  0.00000000000E+00 0. -1.
</event>
<event>
 7    1  0.1302069E-013  0.7246159E+02  0.7816164E-02  0.1226708E+00
        -11   -1    0    0    0    0  0.00000000000E+00  0.00000000000E+00  0.45593999997E+02  0.45594000000E+02  0.51100000000E-03 0. -1.
         11   -1    0    0    0    0 -0.00000000000E+00 -0.00000000000E+00 -0.45593999997E+02  0.45594000000E+02  0.51100000000E-03 0.  1.
    9900012    2    1    2    0    0 -0.77991186055E+01 -0.15527387206E+02 -0.69822921403E+01  0.72461590627E+02  0.70000026487E+02 0.  0.
         12    1    1    2    0    0  0.77991186055E+01  0.15527387206E+02  0.69822921403E+01  0.18726409373E+02  0.00000000000E+00 0. -1.
         11    1    3    3    0    0  0.32284781675E+01  0.14811557771E+02  0.11227502849E+02  0.18864308505E+02  0.51100000000E-03 0. -1.
        -11    1    3    3    0    0 -0.16742615414E+02 -0.15037490760E+02  0.69917932497E+01  0.23565365950E+02  0.51100000000E-03 0.  1.
         12    1    3    3    0    0  0.57150186410E+01 -0.15301454216E+02 -0.25201588239E+02  0.30031916172E+02  0.00000000000E+00 0. -1.
</event>
<event>
 7    1  0.1302069E-013  0.7246155E+02  0.7816164E-02  0.1226708E+00
        -11   -1    0    0    0    0  0.00000000000E+00  0.00000000000E+00  0.45593999997E+02  0.45594000000E+02  0.51100000000E-03 0.  1.
         11   -1    0    0    0    0 -0.00000000000E+00 -0.00000000000E+00 -0.45593999997E+02  0.45594000000E+02  0.51100000000E-03 0. -1.
    9900012    2    1    2    0    0  0.20212175980E+01  0.14837370700E+02 -0.11244861882E+02  0.72461553231E+02  0.69999977771E+02 0.  0.
         12    1    1    2    0    0 -0.20212175980E+01 -0.14837370700E+02  0.11244861882E+02  0.18726446769E+02  0.00000000000E+00 0. -1.
         11    1    3    3    0    0 -0.82294450054E+01  0.19466012252E+02 -0.16923127219E+02  0.27074741609E+02  0.51100000000E-03 0. -1.
        -11    1    3    3    0    0  0.23014270046E+02 -0.52303866057E+01 -0.95918409273E+01  0.25475811713E+02  0.51100000000E-03 0.  1.
        -12    1    3    3    0    0 -0.12763607442E+02  0.60174505406E+00  0.15270106264E+02  0.19910999909E+02  0.00000000000E+00 0.  1.
</event>
<event>
 7    1  0.1302069E-013  0.7246158E+02  0.7816164E-02  0.1226708E+00
        -11   -1    0    0    0    0  0.00000000000E+00  0.00000000000E+00  0.45593999997E+02  0.45594000000E+02  0.51100000000E-03 0. -1.
         11   -1    0    0    0    0 -0.00000000000E+00 -0.00000000000E+00 -0.45593999997E+02  0.45594000000E+02  0.51100000000E-03 0.  1.
    9900012    2    1    2    0    0  0.74948225381E+01  0.81723861208E+01 -0.15090343532E+02  0.72461582091E+02  0.70000015367E+02 0.  0.
         12    1    1    2    0    0 -0.74948225381E+01 -0.81723861208E+01  0.15090343532E+02  0.18726417909E+02  0.00000000000E+00 0. -1.
         11    1    3    3    0    0  0.23568881864E+02 -0.11291275093E+02  0.62316467479E+01  0.26866680238E+02  0.51100000000E-03 0. -1.
        -11    1    3    3    0    0 -0.22592294885E+02  0.33060542585E+01 -0.13174732663E+02  0.26361247389E+02  0.51100000000E-03 0.  1.
        -12    1    3    3    0    0  0.65182355589E+01  0.16157606956E+02 -0.81472576173E+01  0.19233654463E+02  0.00000000000E+00 0.  1.
</event>
<event>
 7    1  0.1302069E-013  0.7246157E+02  0.7816164E-02  0.1226708E+00
        -11   -1    0    0    0    0  0.00000000000E+00  0.00000000000E+00  0.45593999997E+02  0.45594000000E+02  0.51100000000E-03 0. -1.
         11   -1    0    0    0    0 -0.00000000000E+00 -0.00000000000E+00 -0.45593999997E+02  0.45594000000E+02  0.51100000000E-03 0.  1.
    9900012    2    1    2    0    0 -0.13170340568E+01  0.70027834671E+01  0.17317781236E+02  0.72461572099E+02  0.70000002351E+02 0.  0.
         12    1    1    2    0    0  0.13170340568E+01 -0.70027834671E+01 -0.17317781236E+02  0.18726427901E+02  0.00000000000E+00 0. -1.
         11    1    3    3    0    0 -0.11224534189E+02 -0.98795210456E+01  0.17347899565E+02  0.22902941371E+02  0.51100000000E-03 0. -1.
        -11    1    3    3    0    0  0.27106284877E+02  0.17011616652E+02  0.28141254763E+01  0.32125769771E+02  0.51100000000E-03 0.  1.
        -12    1    3    3    0    0 -0.17198784744E+02 -0.12931213953E+00 -0.28442438059E+01  0.17432860957E+02  0.00000000000E+00 0.  1.
</event>
<event>
 7    1  0.1302069E-013  0.7246152E+02  0.7816164E-02  0.1226708E+00
        -11   -1    0    0    0    0  0.00000000000E+00  0.00000000000E+00  0.45593999997E+02  0.45594000000E+02  0.51100000000E-03 0. -1.
         11   -1    0    0    0    0 -0.00000000000E+00 -0.00000000000E+00 -0.45593999997E+02  0.45594000000E+02  0.51100000000E-03 0.  1.
    9900012    2    1    2    0    0 -0.70583887164E+01  0.16687189681E+02 -0.47326619543E+01  0.72461515015E+02  0.69999927989E+02 0.  0.
         12    1    1    2    0    0  0.70583887164E+01 -0.16687189681E+02  0.47326619543E+01  0.18726484985E+02  0.00000000000E+00 0. -1.
         11    1    3    3    0    0 -0.87336268199E+01 -0.17009158045E+02  0.85126575882E+01  0.20929716537E+02  0.51100000000E-03 0. -1.
        -11    1    3    3    0    0 -0.15514879756E+02  0.27410639845E+02 -0.82917783242E+01  0.32570051560E+02  0.51100000000E-03 0.  1.
         12    1    3    3    0    0  0.17190117860E+02  0.62857078808E+01 -0.49535412182E+01  0.18961746918E+02  0.00000000000E+00 0. -1.
</event>
<event>
 7    1  0.1302069E-013  0.7246154E+02  0.7816164E-02  0.1226708E+00
        -11   -1    0    0    0    0  0.00000000000E+00  0.00000000000E+00  0.45593999997E+02  0.45594000000E+02  0.51100000000E-03 0.  1.
         11   -1    0    0    0    0 -0.00000000000E+00 -0.00000000000E+00 -0.45593999997E+02  0.45594000000E+02  0.51100000000E-03 0. -1.
    9900012    2    1    2    0    0 -0.17859065742E+02 -0.49465226718E+01 -0.26955454352E+01  0.72461540620E+02  0.69999961344E+02 0.  0.
         12    1    1    2    0    0  0.17859065742E+02  0.49465226718E+01  0.26955454352E+01  0.18726459380E+02  0.00000000000E+00 0. -1.
         11    1    3    3    0    0 -0.18828860545E+02  0.28958857651E+02 -0.36967143712E+01  0.34739129570E+02  0.51100000000E-03 0.  1.
        -11    1    3    3    0    0 -0.54327776173E+01 -0.21249065871E+02  0.59073900375E+01  0.22714205475E+02  0.51100000000E-03 0. -1.
         12    1    3    3    0    0  0.64025724209E+01 -0.12656314451E+02 -0.49062211014E+01  0.15008205575E+02  0.00000000000E+00 0. -1.
</event>
<event>
 7    1  0.1302069E-013  0.7246153E+02  0.7816164E-02  0.1226708E+00
        -11   -1    0    0    0    0  0.00000000000E+00  0.00000000000E+00  0.45593999997E+02  0.45594000000E+02  0.51100000000E-03 0.  1.
         11   -1    0    0    0    0 -0.00000000000E+00 -0.00000000000E+00 -0.45593999997E+02  0.45594000000E+02  0.51100000000E-03 0. -1.
    9900012    2    1    2    0    0  0.17725376501E+02 -0.16812213377E+01 -0.58021814387E+01  0.72461527115E+02  0.69999943750E+02 0.  0.
         12    1    1    2    0    0 -0.17725376501E+02  0.16812213377E+01  0.58021814387E+01  0.18726472885E+02  0.00000000000E+00 0. -1.
         11    1    3    3    0    0  0.24771555540E+02  0.47650804806E+01  0.20473099367E+02  0.32488209458E+02  0.51100000000E-03 0.  1.
        -11    1    3    3    0    0 -0.98849635720E+01 -0.15475749444E+02 -0.24034003615E+02  0.30246399054E+02  0.51100000000E-03 0. -1.
        -12    1    3    3    0    0  0.28387845331E+01  0.90294476260E+01 -0.22412771904E+01  0.97269186026E+01  0.00000000000E+00 0.  1.
</event>
<event>
 7    1  0.1302069E-013  0.7246158E+02  0.7816164E-02  0.1226708E+00
        -11   -1    0    0    0    0  0.00000000000E+00  0.00000000000E+00  0.45593999997E+02  0.45594000000E+02  0.51100000000E-03 0. -1.
         11   -1    0    0    0    0 -0.00000000000E+00 -0.00000000000E+00 -0.45593999997E+02  0.45594000000E+02  0.51100000000E-03 0.  1.
    9900012    2    1    2    0    0 -0.16566636078E+02  0.34058552582E+00  0.87240692689E+01  0.72461579786E+02  0.70000012364E+02 0.  0.
         12    1    1    2    0    0  0.16566636078E+02 -0.34058552582E+00 -0.87240692689E+01  0.18726420214E+02  0.00000000000E+00 0. -1.
         11    1    3    3    0    0  0.47716829307E+00 -0.10357143657E+02  0.14988764011E+01  0.10475912612E+02  0.51100000000E-03 0. -1.
        -11    1    3    3    0    0  0.10666637385E+02  0.25600926521E+02 -0.50902703950E+01  0.28197436848E+02  0.51100000000E-03 0.  1.
        -12    1    3    3    0    0 -0.27710441756E+02 -0.14903197338E+02  0.12315463263E+02  0.33788230326E+02  0.00000000000E+00 0.  1.
</event>
<event>
 7    1  0.1302069E-013  0.7246158E+02  0.7816164E-02  0.1226708E+00
        -11   -1    0    0    0    0  0.00000000000E+00  0.00000000000E+00  0.45593999997E+02  0.45594000000E+02  0.51100000000E-03 0.  1.
         11   -1    0    0    0    0 -0.00000000000E+00 -0.00000000000E+00 -0.45593999997E+02  0.45594000000E+02  0.51100000000E-03 0. -1.
    9900012    2    1    2    0    0 -0.16391590958E+00 -0.15518415791E+02  0.10480022832E+02  0.72461575470E+02  0.70000006743E+02 0.  0.
         12    1    1    2    0    0  0.16391590958E+00  0.15518415791E+02 -0.10480022832E+02  0.18726424530E+02  0.00000000000E+00 0. -1.
         11    1    3    3    0    0 -0.42798958352E+01 -0.56169797962E+01  0.38816794054E+02  0.39453915791E+02  0.51100000000E-03 0.  1.
        -11    1    3    3    0    0  0.45562758594E+01 -0.12499618353E+02 -0.18263994441E+02  0.22595875771E+02  0.51100000000E-03 0. -1.
        -12    1    3    3    0    0 -0.44029593381E+00  0.25981823578E+01 -0.10072776780E+02  0.10411783908E+02  0.00000000000E+00 0.  1.
</event>
<event>
 7    1  0.1302069E-013  0.7246156E+02  0.7816164E-02  0.1226708E+00
        -11   -1    0    0    0    0  0.00000000000E+00  0.00000000000E+00  0.45593999997E+02  0.45594000000E+02  0.51100000000E-03 0.  1.
         11   -1    0    0    0    0 -0.00000000000E+00 -0.00000000000E+00 -0.45593999997E+02  0.45594000000E+02  0.51100000000E-03 0. -1.
    9900012    2    1    2    0    0  0.75261822922E+01 -0.16487952143E+02  0.47099433743E+01  0.72461560072E+02  0.69999986684E+02 0.  0.
         12    1    1    2    0    0 -0.75261822922E+01  0.16487952143E+02 -0.47099433743E+01  0.18726439928E+02  0.00000000000E+00 0. -1.
         11    1    3    3    0    0  0.28821379161E+02 -0.82802863825E+01 -0.21655101627E+01  0.30065336749E+02  0.51100000000E-03 0. -1.
        -11    1    3    3    0    0 -0.28901361078E+02 -0.55311147450E+01 -0.30781009133E+01  0.29586426076E+02  0.51100000000E-03 0.  1.
        -12    1    3    3    0    0  0.76061642089E+01 -0.26765510157E+01  0.99535544503E+01  0.12809797247E+02  0.00000000000E+00 0.  1.
</event>
<event>
 7    1  0.1302069E-013  0.7246172E+02  0.7816164E-02  0.1226708E+00
        -11   -1    0    0    0    0  0.00000000000E+00  0.00000000000E+00  0.45593999997E+02  0.45594000000E+02  0.51100000000E-03 0.  1.
         11   -1    0    0    0    0 -0.00000000000E+00 -0.00000000000E+00 -0.45593999997E+02  0.45594000000E+02  0.51100000000E-03 0. -1.
    9900012    2    1    2    0    0  0.15039425547E+02 -0.59792132528E+01 -0.94200933862E+01  0.72461722438E+02  0.70000198195E+02 0.  0.
         12    1    1    2    0    0 -0.15039425547E+02  0.59792132528E+01  0.94200933862E+01  0.18726277562E+02  0.00000000000E+00 0. -1.
         11    1    3    3    0    0  0.10486027661E+01 -0.15705008224E+02 -0.18649027969E+02  0.24403546782E+02  0.51100000000E-03 0. -1.
        -11    1    3    3    0    0 -0.49109714423E+01  0.23340834758E+02  0.40232033901E+01  0.24188806781E+02  0.51100000000E-03 0.  1.
        -12    1    3    3    0    0  0.18901794223E+02 -0.13615039786E+02  0.52057311930E+01  0.23869368875E+02  0.00000000000E+00 0.  1.
</event>
<event>
 7    1  0.1302069E-013  0.7246157E+02  0.7816164E-02  0.1226708E+00
        -11   -1    0    0    0    0  0.00000000000E+00  0.00000000000E+00  0.45593999997E+02  0.45594000000E+02  0.51100000000E-03 0. -1.
         11   -1    0    0    0    0 -0.00000000000E+00 -0.00000000000E+00 -0.45593999997E+02  0.45594000000E+02  0.51100000000E-03 0.  1.
    9900012    2    1    2    0    0 -0.11751925154E+02  0.66018613100E+01 -0.12999494516E+02  0.72461570141E+02  0.69999999801E+02 0.  0.
         12    1    1    2    0    0  0.11751925154E+02 -0.66018613100E+01  0.12999494516E+02  0.18726429859E+02  0.00000000000E+00 0. -1.
         11    1    3    3    0    0 -0.17869064707E+02  0.27135500629E+02 -0.25855350108E+02  0.41522740725E+02  0.51100000000E-03 0. -1.
        -11    1    3    3    0    0  0.51123545003E+01 -0.15327168783E+02 -0.91416571968E+00  0.16183138468E+02  0.51100000000E-03 0.  1.
         12    1    3    3    0    0  0.10047850522E+01 -0.52064705361E+01  0.13770021312E+02  0.14755690948E+02  0.00000000000E+00 0. -1.
</event>
<event>
 7    1  0.1302069E-013  0.7246156E+02  0.7816164E-02  0.1226708E+00
        -11   -1    0    0    0    0  0.00000000000E+00  0.00000000000E+00  0.45593999997E+02  0.45594000000E+02  0.51100000000E-03 0. -1.
         11   -1    0    0    0    0 -0.00000000000E+00 -0.00000000000E+00 -0.45593999997E+02  0.45594000000E+02  0.51100000000E-03 0.  1.
    9900012    2    1    2    0    0  0.43392866584E+01 -0.37826681377E+01 -0.17819695075E+02  0.72461560950E+02  0.69999987827E+02 0.  0.
         12    1    1    2    0    0 -0.43392866584E+01  0.37826681377E+01  0.17819695075E+02  0.18726439050E+02  0.00000000000E+00 0. -1.
         11    1    3    3    0    0  0.17323203779E+02 -0.26991715467E+02 -0.11743025399E+00  0.32072728028E+02  0.51100000000E-03 0. -1.
        -11    1    3    3    0    0 -0.65673935921E+01  0.26619425508E+02 -0.85853715049E+01  0.28730351149E+02  0.51100000000E-03 0.  1.
        -12    1    3    3    0    0 -0.64165235288E+01 -0.34103781792E+01 -0.91168933159E+01  0.11658481773E+02  0.00000000000E+00 0.  1.
</event>
<event>
 8    1  0.1302069E-013  0.7246159E+02  0.7816164E-02  0.1226708E+00
        -11   -1    0    0    0    0  0.00000000000E+00  0.00000000000E+00  0.45593999997E+02  0.45594000000E+02  0.51100000000E-03 0.  1.
         11   -1    0    0    0    0 -0.00000000000E+00 -0.00000000000E+00 -0.45593999997E+02  0.45594000000E+02  0.51100000000E-03 0. -1.
    9900012    2    1    2    0    0 -0.11924870324E+02 -0.14426013305E+02  0.60511301700E+00  0.72461586732E+02  0.70000021413E+02 0.  0.
         24    2    3    3    0    0  0.13186144600E+01  0.31931459990E+01  0.38607213800E+01  0.50181020090E+02  0.49912870908E+02 0.  0.
         12    1    1    2    0    0  0.11924870324E+02  0.14426013305E+02 -0.60511301700E+00  0.18726413268E+02  0.00000000000E+00 0. -1.
         11    1    3    3    0    0 -0.13243484784E+02 -0.17619159305E+02 -0.32556083630E+01  0.22280566642E+02  0.51100000000E-03 0.  1.
        -11    1    4    4    0    0  0.47291421733E+00  0.14901386496E+02 -0.19197468272E+02  0.24306743009E+02  0.51100000000E-03 0. -1.
         12    1    4    4    0    0  0.84570024269E+00 -0.11708240497E+02  0.23058189652E+02  0.25874277081E+02  0.00000000000E+00 0. -1.
</event>
<event>
 7    1  0.1302069E-013  0.7246155E+02  0.7816164E-02  0.1226708E+00
        -11   -1    0    0    0    0  0.00000000000E+00  0.00000000000E+00  0.45593999997E+02  0.45594000000E+02  0.51100000000E-03 0.  1.
         11   -1    0    0    0    0 -0.00000000000E+00 -0.00000000000E+00 -0.45593999997E+02  0.45594000000E+02  0.51100000000E-03 0. -1.
    9900012    2    1    2    0    0  0.74837175230E+01  0.15715949069E+02  0.69052885677E+01  0.72461545629E+02  0.69999967869E+02 0.  0.
         12    1    1    2    0    0 -0.74837175230E+01 -0.15715949069E+02 -0.69052885677E+01  0.18726454371E+02  0.00000000000E+00 0. -1.
         11    1    3    3    0    0  0.22517486423E+02  0.44306973551E+01 -0.16868505394E+02  0.28481831900E+02  0.51100000000E-03 0. -1.
        -11    1    3    3    0    0  0.77069678872E+01  0.20854818496E+01  0.16601407077E+02  0.18421544609E+02  0.51100000000E-03 0.  1.
         12    1    3    3    0    0 -0.22740736787E+02  0.91997698639E+01  0.71723868848E+01  0.25558169121E+02  0.00000000000E+00 0. -1.
</event>
<event>
 7    1  0.1302069E-013  0.7246164E+02  0.7816164E-02  0.1226708E+00
        -11   -1    0    0    0    0  0.00000000000E+00  0.00000000000E+00  0.45593999997E+02  0.45594000000E+02  0.51100000000E-03 0.  1.
         11   -1    0    0    0    0 -0.00000000000E+00 -0.00000000000E+00 -0.45593999997E+02  0.45594000000E+02  0.51100000000E-03 0. -1.
    9900012    2    1    2    0    0  0.11425916225E+02 -0.13826321168E+02  0.53812598249E+01  0.72461636874E+02  0.70000086732E+02 0.  0.
         12    1    1    2    0    0 -0.11425916225E+02  0.13826321168E+02 -0.53812598249E+01  0.18726363126E+02  0.00000000000E+00 0. -1.
         11    1    3    3    0    0 -0.14731847763E+01 -0.19167045039E+02  0.17103912928E+02  0.25731104263E+02  0.51100000000E-03 0.  1.
        -11    1    3    3    0    0  0.95094774689E+01  0.23339957499E+02 -0.13023235095E+02  0.28368793249E+02  0.51100000000E-03 0. -1.
        -12    1    3    3    0    0  0.33896235329E+01 -0.17999233628E+02  0.13005819920E+01  0.18361739362E+02  0.00000000000E+00 0.  1.
</event>
<event>
 7    1  0.1302069E-013  0.7246164E+02  0.7816164E-02  0.1226708E+00
        -11   -1    0    0    0    0  0.00000000000E+00  0.00000000000E+00  0.45593999997E+02  0.45594000000E+02  0.51100000000E-03 0. -1.
         11   -1    0    0    0    0 -0.00000000000E+00 -0.00000000000E+00 -0.45593999997E+02  0.45594000000E+02  0.51100000000E-03 0.  1.
    9900012    2    1    2    0    0  0.54895643107E+01  0.79111922431E+01 -0.16060957317E+02  0.72461638128E+02  0.70000088366E+02 0.  0.
         12    1    1    2    0    0 -0.54895643107E+01 -0.79111922431E+01  0.16060957317E+02  0.18726361872E+02  0.00000000000E+00 0. -1.
         11    1    3    3    0    0  0.21667493343E+02  0.15156296147E+02  0.36773777811E+01  0.26696754265E+02  0.51100000000E-03 0.  1.
        -11    1    3    3    0    0 -0.15295431253E+02 -0.64848036972E+01 -0.30611709906E+02  0.34829293415E+02  0.51100000000E-03 0. -1.
         12    1    3    3    0    0 -0.88249777953E+00 -0.76030020664E+00  0.10873374808E+02  0.10935590448E+02  0.00000000000E+00 0. -1.
</event>
<event>
 7    1  0.1302069E-013  0.7246145E+02  0.7816164E-02  0.1226708E+00
        -11   -1    0    0    0    0  0.00000000000E+00  0.00000000000E+00  0.45593999997E+02  0.45594000000E+02  0.51100000000E-03 0.  1.
         11   -1    0    0    0    0 -0.00000000000E+00 -0.00000000000E+00 -0.45593999997E+02  0.45594000000E+02  0.51100000000E-03 0. -1.
    9900012    2    1    2    0    0 -0.68143277808E+01  0.13315815360E+02  0.11266659189E+02  0.72461451704E+02  0.69999845513E+02 0.  0.
         12    1    1    2    0    0  0.68143277808E+01 -0.13315815360E+02 -0.11266659189E+02  0.18726548296E+02  0.00000000000E+00 0. -1.
         11    1    3    3    0    0 -0.15134327825E+02 -0.16406270651E+02 -0.72209876292E+01  0.23459673016E+02  0.51100000000E-03 0. -1.
        -11    1    3    3    0    0  0.17938554831E+02  0.98360101835E+01  0.17446496257E+02  0.26887154510E+02  0.51100000000E-03 0.  1.
         12    1    3    3    0    0 -0.96185547865E+01  0.19886075828E+02  0.10411505617E+01  0.22114624177E+02  0.00000000000E+00 0. -1.
</event>
<event>
 7    1  0.1302069E-013  0.7246157E+02  0.7816164E-02  0.1226708E+00
        -11   -1    0    0    0    0  0.00000000000E+00  0.00000000000E+00  0.45593999997E+02  0.45594000000E+02  0.51100000000E-03 0. -1.
         11   -1    0    0    0    0 -0.00000000000E+00 -0.00000000000E+00 -0.45593999997E+02  0.45594000000E+02  0.51100000000E-03 0.  1.
    9900012    2    1    2    0    0  0.49017595305E+01  0.12648313641E+02  0.12910154853E+02  0.72461569940E+02  0.69999999539E+02 0.  0.
         12    1    1    2    0    0 -0.49017595305E+01 -0.12648313641E+02 -0.12910154853E+02  0.18726430060E+02  0.00000000000E+00 0. -1.
         11    1    3    3    0    0 -0.20938170726E+02  0.12541240277E+02  0.13203278322E+02  0.27749166830E+02  0.51100000000E-03 0. -1.
        -11    1    3    3    0    0  0.84315620094E+01 -0.17784249568E+02 -0.13415839913E+01  0.19727407799E+02  0.51100000000E-03 0.  1.
         12    1    3    3    0    0  0.17408368247E+02  0.17891322931E+02  0.10484605220E+01  0.24984995311E+02  0.00000000000E+00 0. -1.
</event>
<event>
 7    1  0.1302069E-013  0.7246162E+02  0.7816164E-02  0.1226708E+00
        -11   -1    0    0    0    0  0.00000000000E+00  0.00000000000E+00  0.45593999997E+02  0.45594000000E+02  0.51100000000E-03 0.  1.
         11   -1    0    0    0    0 -0.00000000000E+00 -0.00000000000E+00 -0.45593999997E+02  0.45594000000E+02  0.51100000000E-03 0. -1.
    9900012    2    1    2    0    0 -0.39068628121E+01  0.11373910631E+02  0.14354371796E+02  0.72461617281E+02  0.70000061209E+02 0.  0.
         12    1    1    2    0    0  0.39068628121E+01 -0.11373910631E+02 -0.14354371796E+02  0.18726382719E+02  0.00000000000E+00 0. -1.
         11    1    3    3    0    0  0.22859623263E+01  0.34164070651E+02 -0.53791532723E+01  0.34660418887E+02  0.51100000000E-03 0. -1.
        -11    1    3    3    0    0  0.43772953687E+01 -0.23939404272E+01  0.12904228378E+02  0.13835128327E+02  0.51100000000E-03 0.  1.
         12    1    3    3    0    0 -0.10570120507E+02 -0.20396219593E+02  0.68292966899E+01  0.23966070068E+02  0.00000000000E+00 0. -1.
</event>
<event>
 7    1  0.1302069E-013  0.7246155E+02  0.7816164E-02  0.1226708E+00
        -11   -1    0    0    0    0  0.00000000000E+00  0.00000000000E+00  0.45593999997E+02  0.45594000000E+02  0.51100000000E-03 0.  1.
         11   -1    0    0    0    0 -0.00000000000E+00 -0.00000000000E+00 -0.45593999997E+02  0.45594000000E+02  0.51100000000E-03 0. -1.
    9900012    2    1    2    0    0  0.44295847120E+01 -0.15539803396E+02 -0.94643147998E+01  0.72461549057E+02  0.69999972334E+02 0.  0.
         12    1    1    2    0    0 -0.44295847120E+01  0.15539803396E+02  0.94643147998E+01  0.18726450943E+02  0.00000000000E+00 0. -1.
         11    1    3    3    0    0  0.20736284528E+02  0.57653142370E+01 -0.36635265448E+00  0.21525950822E+02  0.51100000000E-03 0. -1.
        -11    1    3    3    0    0 -0.12606697893E+02 -0.31564735920E+02 -0.16472054835E+02  0.37770226055E+02  0.51100000000E-03 0.  1.
        -12    1    3    3    0    0 -0.37000019225E+01  0.10259618287E+02  0.73740926899E+01  0.13165372179E+02  0.00000000000E+00 0.  1.
</event>
<event>
 7    1  0.1302069E-013  0.7246156E+02  0.7816164E-02  0.1226708E+00
        -11   -1    0    0    0    0  0.00000000000E+00  0.00000000000E+00  0.45593999997E+02  0.45594000000E+02  0.51100000000E-03 0. -1.
         11   -1    0    0    0    0 -0.00000000000E+00 -0.00000000000E+00 -0.45593999997E+02  0.45594000000E+02  0.51100000000E-03 0.  1.
    9900012    2    1    2    0    0 -0.81441004421E+01  0.19667483679E+01 -0.16747693645E+02  0.72461555768E+02  0.69999981077E+02 0.  0.
         12    1    1    2    0    0  0.81441004421E+01 -0.19667483679E+01  0.16747693645E+02  0.18726444232E+02  0.00000000000E+00 0. -1.
         11    1    3    3    0    0  0.61869104077E+01  0.88116415086E+01 -0.31833330926E+02  0.33604818770E+02  0.51100000000E-03 0. -1.
        -11    1    3    3    0    0 -0.18952457841E+02 -0.15814603673E+02  0.14761903373E+02  0.28761278466E+02  0.51100000000E-03 0.  1.
         12    1    3    3    0    0  0.46214469915E+01  0.89697105319E+01  0.32373390785E+00  0.10095458532E+02  0.00000000000E+00 0. -1.
</event>
<event>
 7    1  0.1302069E-013  0.7246155E+02  0.7816164E-02  0.1226708E+00
        -11   -1    0    0    0    0  0.00000000000E+00  0.00000000000E+00  0.45593999997E+02  0.45594000000E+02  0.51100000000E-03 0.  1.
         11   -1    0    0    0    0 -0.00000000000E+00 -0.00000000000E+00 -0.45593999997E+02  0.45594000000E+02  0.51100000000E-03 0. -1.
    9900012    2    1    2    0    0  0.17991058013E+02  0.50954816333E+01  0.10187833692E+01  0.72461547558E+02  0.69999970381E+02 0.  0.
         12    1    1    2    0    0 -0.17991058013E+02 -0.50954816333E+01 -0.10187833692E+01  0.18726452442E+02  0.00000000000E+00 0. -1.
         11    1    3    3    0    0  0.27910696360E+02  0.81422901949E+01 -0.71159621907E+01  0.29932269862E+02  0.51100000000E-03 0. -1.
        -11    1    3    3    0    0 -0.99498350209E+01  0.56584310544E+01  0.22778897588E+02  0.25493042865E+02  0.51100000000E-03 0.  1.
        -12    1    3    3    0    0  0.30196674414E-01 -0.87052396160E+01 -0.14644152028E+02  0.17036234831E+02  0.00000000000E+00 0.  1.
</event>
<event>
 7    1  0.1302069E-013  0.7246154E+02  0.7816164E-02  0.1226708E+00
        -11   -1    0    0    0    0  0.00000000000E+00  0.00000000000E+00  0.45593999997E+02  0.45594000000E+02  0.51100000000E-03 0. -1.
         11   -1    0    0    0    0 -0.00000000000E+00 -0.00000000000E+00 -0.45593999997E+02  0.45594000000E+02  0.51100000000E-03 0.  1.
    9900012    2    1    2    0    0 -0.62760384286E+01 -0.91407945896E+01 -0.15090969801E+02  0.72461544018E+02  0.69999965771E+02 0.  0.
         12    1    1    2    0    0  0.62760384286E+01  0.91407945896E+01  0.15090969801E+02  0.18726455982E+02  0.00000000000E+00 0. -1.
         11    1    3    3    0    0 -0.20936536779E+02 -0.20038396252E+02 -0.13142269198E+02  0.31821300046E+02  0.51100000000E-03 0. -1.
        -11    1    3    3    0    0  0.75313770618E+01  0.18885908097E+02  0.11571166463E+02  0.23394252684E+02  0.51100000000E-03 0.  1.
        -12    1    3    3    0    0  0.71291212885E+01 -0.79883064338E+01 -0.13519867067E+02  0.17245991289E+02  0.00000000000E+00 0.  1.
</event>
<event>
 7    1  0.1302069E-013  0.7246159E+02  0.7816164E-02  0.1226708E+00
        -11   -1    0    0    0    0  0.00000000000E+00  0.00000000000E+00  0.45593999997E+02  0.45594000000E+02  0.51100000000E-03 0.  1.
         11   -1    0    0    0    0 -0.00000000000E+00 -0.00000000000E+00 -0.45593999997E+02  0.45594000000E+02  0.51100000000E-03 0. -1.
    9900012    2    1    2    0    0  0.15800444531E+02  0.50047823908E+01  0.87164568339E+01  0.72461587800E+02  0.70000022804E+02 0.  0.
         12    1    1    2    0    0 -0.15800444531E+02 -0.50047823908E+01 -0.87164568339E+01  0.18726412200E+02  0.00000000000E+00 0. -1.
         11    1    3    3    0    0 -0.18932395788E+00  0.13844404245E+02 -0.13551458390E+02  0.19373832796E+02  0.51100000000E-03 0. -1.
        -11    1    3    3    0    0  0.31119059781E+02 -0.10708040926E+02  0.14235109017E+02  0.35856608193E+02  0.51100000000E-03 0.  1.
        -12    1    3    3    0    0 -0.15129291292E+02  0.18684190722E+01  0.80328062067E+01  0.17231146810E+02  0.00000000000E+00 0.  1.
</event>
<event>
 7    1  0.1302069E-013  0.7246129E+02  0.7816164E-02  0.1226709E+00
        -11   -1    0    0    0    0  0.00000000000E+00  0.00000000000E+00  0.45593999997E+02  0.45594000000E+02  0.51100000000E-03 0.  1.
         11   -1    0    0    0    0 -0.00000000000E+00 -0.00000000000E+00 -0.45593999997E+02  0.45594000000E+02  0.51100000000E-03 0. -1.
    9900012    2    1    2    0    0  0.17742480064E+01 -0.16609727175E+02  0.84651541311E+01  0.72461285732E+02  0.69999629303E+02 0.  0.
         12    1    1    2    0    0 -0.17742480064E+01  0.16609727175E+02 -0.84651541311E+01  0.18726714268E+02  0.00000000000E+00 0. -1.
         11    1    3    3    0    0 -0.81711862018E+01 -0.15092464193E+02 -0.17845998685E+02  0.24759451300E+02  0.51100000000E-03 0. -1.
        -11    1    3    3    0    0  0.16913823875E+02  0.11667482980E+02  0.25525429340E+02  0.32768203192E+02  0.51100000000E-03 0.  1.
        -12    1    3    3    0    0 -0.69683896671E+01 -0.13184745962E+02  0.78572347639E+00  0.14933631240E+02  0.00000000000E+00 0.  1.
</event>
<event>
 7    1  0.1302069E-013  0.7246116E+02  0.7816164E-02  0.1226709E+00
        -11   -1    0    0    0    0  0.00000000000E+00  0.00000000000E+00  0.45593999997E+02  0.45594000000E+02  0.51100000000E-03 0.  1.
         11   -1    0    0    0    0 -0.00000000000E+00 -0.00000000000E+00 -0.45593999997E+02  0.45594000000E+02  0.51100000000E-03 0. -1.
    9900012    2    1    2    0    0  0.12448191798E+02  0.11558304894E+02 -0.78830680142E+01  0.72461156903E+02  0.69999461479E+02 0.  0.
         12    1    1    2    0    0 -0.12448191798E+02 -0.11558304894E+02  0.78830680142E+01  0.18726843097E+02  0.00000000000E+00 0. -1.
         11    1    3    3    0    0  0.27254742915E+02  0.65958428290E+01  0.89133667053E+01  0.29424042215E+02  0.51100000000E-03 0. -1.
        -11    1    3    3    0    0  0.10003394763E+01 -0.47456488341E+01 -0.22977946093E+02  0.23484204667E+02  0.51100000000E-03 0.  1.
        -12    1    3    3    0    0 -0.15806890593E+02  0.97081108992E+01  0.61815113734E+01  0.19552910021E+02  0.00000000000E+00 0.  1.
</event>
<event>
 7    1  0.1302069E-013  0.7246159E+02  0.7816164E-02  0.1226708E+00
        -11   -1    0    0    0    0  0.00000000000E+00  0.00000000000E+00  0.45593999997E+02  0.45594000000E+02  0.51100000000E-03 0.  1.
         11   -1    0    0    0    0 -0.00000000000E+00 -0.00000000000E+00 -0.45593999997E+02  0.45594000000E+02  0.51100000000E-03 0. -1.
    9900012    2    1    2    0    0  0.99731080051E+01 -0.12078468848E+02  0.10262854734E+02  0.72461588697E+02  0.70000023973E+02 0.  0.
         12    1    1    2    0    0 -0.99731080051E+01  0.12078468848E+02 -0.10262854734E+02  0.18726411303E+02  0.00000000000E+00 0. -1.
         11    1    3    3    0    0  0.27233995038E+01 -0.28707249472E+02 -0.11301755485E+02  0.30971805798E+02  0.51100000000E-03 0. -1.
        -11    1    3    3    0    0  0.50439820661E+01  0.23526211430E+02  0.67336501265E+01  0.24985324164E+02  0.51100000000E-03 0.  1.
        -12    1    3    3    0    0  0.22057264352E+01 -0.68974308054E+01  0.14830960093E+02  0.16504458734E+02  0.00000000000E+00 0.  1.
</event>
<event>
 7    1  0.1302069E-013  0.7246157E+02  0.7816164E-02  0.1226708E+00
        -11   -1    0    0    0    0  0.00000000000E+00  0.00000000000E+00  0.45593999997E+02  0.45594000000E+02  0.51100000000E-03 0.  1.
         11   -1    0    0    0    0 -0.00000000000E+00 -0.00000000000E+00 -0.45593999997E+02  0.45594000000E+02  0.51100000000E-03 0. -1.
    9900012    2    1    2    0    0 -0.11268096388E+02  0.11284949821E+02  0.98162636305E+01  0.72461571608E+02  0.70000001711E+02 0.  0.
         12    1    1    2    0    0  0.11268096388E+02 -0.11284949821E+02 -0.98162636305E+01  0.18726428392E+02  0.00000000000E+00 0. -1.
         11    1    3    3    0    0  0.19437709424E+02  0.60368158651E+01 -0.12302681643E+02  0.23782844012E+02  0.51100000000E-03 0. -1.
        -11    1    3    3    0    0 -0.13722520036E+01 -0.77802803125E+01  0.13169942487E+02  0.15357839127E+02  0.51100000000E-03 0.  1.
         12    1    3    3    0    0 -0.29333553809E+02  0.13028414268E+02  0.89490027868E+01  0.33320888468E+02  0.00000000000E+00 0. -1.
</event>
<event>
 7    1  0.1302069E-013  0.7246161E+02  0.7816164E-02  0.1226708E+00
        -11   -1    0    0    0    0  0.00000000000E+00  0.00000000000E+00  0.45593999997E+02  0.45594000000E+02  0.51100000000E-03 0.  1.
         11   -1    0    0    0    0 -0.00000000000E+00 -0.00000000000E+00 -0.45593999997E+02  0.45594000000E+02  0.51100000000E-03 0. -1.
    9900012    2    1    2    0    0 -0.64178670360E+01 -0.59717210352E+01  0.16547729433E+02  0.72461606359E+02  0.70000046981E+02 0.  0.
         12    1    1    2    0    0  0.64178670360E+01  0.59717210352E+01 -0.16547729433E+02  0.18726393641E+02  0.00000000000E+00 0. -1.
         11    1    3    3    0    0  0.17165048935E+02 -0.31429963667E+01 -0.13618306861E+02  0.22135392771E+02  0.51100000000E-03 0. -1.
        -11    1    3    3    0    0 -0.16624840889E+02 -0.16686882175E+02  0.24030323822E+02  0.33649574063E+02  0.51100000000E-03 0.  1.
        -12    1    3    3    0    0 -0.69580750822E+01  0.13858157507E+02  0.61357124712E+01  0.16676639526E+02  0.00000000000E+00 0.  1.
</event>
<event>
 7    1  0.1302069E-013  0.7246150E+02  0.7816164E-02  0.1226708E+00
        -11   -1    0    0    0    0  0.00000000000E+00  0.00000000000E+00  0.45593999997E+02  0.45594000000E+02  0.51100000000E-03 0.  1.
         11   -1    0    0    0    0 -0.00000000000E+00 -0.00000000000E+00 -0.45593999997E+02  0.45594000000E+02  0.51100000000E-03 0. -1.
    9900012    2    1    2    0    0 -0.12619850733E+02 -0.12862983564E+02  0.50955681707E+01  0.72461500229E+02  0.69999908727E+02 0.  0.
         12    1    1    2    0    0  0.12619850733E+02  0.12862983564E+02 -0.50955681707E+01  0.18726499771E+02  0.00000000000E+00 0. -1.
         11    1    3    3    0    0 -0.53519314195E+01 -0.27404656481E+02  0.11138748075E+02  0.30062103647E+02  0.51100000000E-03 0. -1.
        -11    1    3    3    0    0  0.93580389081E+01  0.94123903219E+01  0.11594651505E+02  0.17623902166E+02  0.51100000000E-03 0.  1.
         12    1    3    3    0    0 -0.16625958222E+02  0.51292825950E+01 -0.17637831409E+02  0.24775494416E+02  0.00000000000E+00 0. -1.
</event>
<event>
 7    1  0.1302069E-013  0.7246158E+02  0.7816164E-02  0.1226708E+00
        -11   -1    0    0    0    0  0.00000000000E+00  0.00000000000E+00  0.45593999997E+02  0.45594000000E+02  0.51100000000E-03 0.  1.
         11   -1    0    0    0    0 -0.00000000000E+00 -0.00000000000E+00 -0.45593999997E+02  0.45594000000E+02  0.51100000000E-03 0. -1.
    9900012    2    1    2    0    0 -0.19162625890E+01 -0.15712941871E+02  0.10005517562E+02  0.72461575188E+02  0.70000006375E+02 0.  0.
         12    1    1    2    0    0  0.19162625890E+01  0.15712941871E+02 -0.10005517562E+02  0.18726424812E+02  0.00000000000E+00 0. -1.
         11    1    3    3    0    0  0.28125183531E+02 -0.16138761967E+02  0.21259703833E+02  0.38774483798E+02  0.51100000000E-03 0. -1.
        -11    1    3    3    0    0 -0.27514893773E+02 -0.87162010670E+00 -0.67203904639E+01  0.28337126693E+02  0.51100000000E-03 0.  1.
        -12    1    3    3    0    0 -0.25265523466E+01  0.12974402027E+01 -0.45337958069E+01  0.53499646969E+01  0.00000000000E+00 0.  1.
</event>
<event>
 7    1  0.1302069E-013  0.7246157E+02  0.7816164E-02  0.1226708E+00
        -11   -1    0    0    0    0  0.00000000000E+00  0.00000000000E+00  0.45593999997E+02  0.45594000000E+02  0.51100000000E-03 0.  1.
         11   -1    0    0    0    0 -0.00000000000E+00 -0.00000000000E+00 -0.45593999997E+02  0.45594000000E+02  0.51100000000E-03 0. -1.
    9900012    2    1    2    0    0  0.13185311666E+02 -0.13207003993E+02  0.15497693904E+01  0.72461569925E+02  0.69999999519E+02 0.  0.
         12    1    1    2    0    0 -0.13185311666E+02  0.13207003993E+02 -0.15497693904E+01  0.18726430075E+02  0.00000000000E+00 0. -1.
         11    1    3    3    0    0  0.49812852440E+01  0.20922403025E+01 -0.29664335435E+02  0.30152337708E+02  0.51100000000E-03 0. -1.
        -11    1    3    3    0    0 -0.28885192478E+01 -0.54928786265E+00  0.21021597981E+02  0.21226230059E+02  0.51100000000E-03 0.  1.
         12    1    3    3    0    0  0.11092545670E+02 -0.14749956433E+02  0.10192506845E+02  0.21083002158E+02  0.00000000000E+00 0. -1.
</event>
<event>
 7    1  0.1302069E-013  0.7246156E+02  0.7816164E-02  0.1226708E+00
        -11   -1    0    0    0    0  0.00000000000E+00  0.00000000000E+00  0.45593999997E+02  0.45594000000E+02  0.51100000000E-03 0.  1.
         11   -1    0    0    0    0 -0.00000000000E+00 -0.00000000000E+00 -0.45593999997E+02  0.45594000000E+02  0.51100000000E-03 0. -1.
    9900012    2    1    2    0    0 -0.13785750247E+02  0.12301823137E+02  0.30492497937E+01  0.72461556486E+02  0.69999982013E+02 0.  0.
         12    1    1    2    0    0  0.13785750247E+02 -0.12301823137E+02 -0.30492497937E+01  0.18726443514E+02  0.00000000000E+00 0. -1.
         11    1    3    3    0    0  0.22316913451E+02  0.46574195482E+01  0.89205360543E+01  0.24480852652E+02  0.51100000000E-03 0. -1.
        -11    1    3    3    0    0 -0.79444904225E+01  0.10872835558E+02  0.87796257079E+01  0.16075301210E+02  0.51100000000E-03 0.  1.
         12    1    3    3    0    0 -0.28158173275E+02 -0.32284319693E+01 -0.14650911968E+02  0.31905402625E+02  0.00000000000E+00 0. -1.
</event>
<event>
 7    1  0.1302069E-013  0.7246156E+02  0.7816164E-02  0.1226708E+00
        -11   -1    0    0    0    0  0.00000000000E+00  0.00000000000E+00  0.45593999997E+02  0.45594000000E+02  0.51100000000E-03 0. -1.
         11   -1    0    0    0    0 -0.00000000000E+00 -0.00000000000E+00 -0.45593999997E+02  0.45594000000E+02  0.51100000000E-03 0.  1.
    9900012    2    1    2    0    0 -0.67158484025E+01 -0.76221329194E+01 -0.15731495036E+02  0.72461562376E+02  0.69999989685E+02 0.  0.
         12    1    1    2    0    0  0.67158484025E+01  0.76221329194E+01  0.15731495036E+02  0.18726437624E+02  0.00000000000E+00 0. -1.
         11    1    3    3    0    0 -0.37725022262E+01 -0.13029564492E+02  0.25760725079E+02  0.29113850326E+02  0.51100000000E-03 0. -1.
        -11    1    3    3    0    0  0.37428437680E+01 -0.23748444851E+00 -0.14207365218E+02  0.14694029571E+02  0.51100000000E-03 0.  1.
         12    1    3    3    0    0 -0.66861899443E+01  0.56449160213E+01 -0.27284854898E+02  0.28653682480E+02  0.00000000000E+00 0. -1.
</event>
<event>
 7    1  0.1302069E-013  0.7246156E+02  0.7816164E-02  0.1226708E+00
        -11   -1    0    0    0    0  0.00000000000E+00  0.00000000000E+00  0.45593999997E+02  0.45594000000E+02  0.51100000000E-03 0.  1.
         11   -1    0    0    0    0 -0.00000000000E+00 -0.00000000000E+00 -0.45593999997E+02  0.45594000000E+02  0.51100000000E-03 0. -1.
    9900012    2    1    2    0    0 -0.92966483426E+00  0.94969667596E+01  0.16112818839E+02  0.72461559194E+02  0.69999985540E+02 0.  0.
         12    1    1    2    0    0  0.92966483426E+00 -0.94969667596E+01 -0.16112818839E+02  0.18726440806E+02  0.00000000000E+00 0. -1.
         11    1    3    3    0    0  0.66415598356E+00 -0.22943756334E+02  0.12641251588E+02  0.26204165697E+02  0.51100000000E-03 0. -1.
        -11    1    3    3    0    0 -0.14908174460E+02  0.28536803526E+02  0.34675072512E+01  0.32382501880E+02  0.51100000000E-03 0.  1.
        -12    1    3    3    0    0  0.13314353642E+02  0.39039195671E+01  0.40599995613E-02  0.13874891617E+02  0.00000000000E+00 0.  1.
</event>
<event>
 7    1  0.1302069E-013  0.7246164E+02  0.7816164E-02  0.1226708E+00
        -11   -1    0    0    0    0  0.00000000000E+00  0.00000000000E+00  0.45593999997E+02  0.45594000000E+02  0.51100000000E-03 0.  1.
         11   -1    0    0    0    0 -0.00000000000E+00 -0.00000000000E+00 -0.45593999997E+02  0.45594000000E+02  0.51100000000E-03 0. -1.
    9900012    2    1    2    0    0  0.16703387317E+02 -0.63502790228E+01  0.55988706714E+01  0.72461640388E+02  0.70000091310E+02 0.  0.
         12    1    1    2    0    0 -0.16703387317E+02  0.63502790228E+01 -0.55988706714E+01  0.18726359612E+02  0.00000000000E+00 0. -1.
         11    1    3    3    0    0 -0.20756862769E+02 -0.12038802252E+02  0.14799702121E+02  0.28192397819E+02  0.51100000000E-03 0.  1.
        -11    1    3    3    0    0  0.21482166135E+02  0.82885270621E+01  0.40129167364E+01  0.23372775695E+02  0.51100000000E-03 0. -1.
        -12    1    3    3    0    0  0.15978083951E+02 -0.26000038330E+01 -0.13213748186E+02  0.20896466873E+02  0.00000000000E+00 0.  1.
</event>
<event>
 7    1  0.1302069E-013  0.7246154E+02  0.7816164E-02  0.1226708E+00
        -11   -1    0    0    0    0  0.00000000000E+00  0.00000000000E+00  0.45593999997E+02  0.45594000000E+02  0.51100000000E-03 0.  1.
         11   -1    0    0    0    0 -0.00000000000E+00 -0.00000000000E+00 -0.45593999997E+02  0.45594000000E+02  0.51100000000E-03 0. -1.
    9900012    2    1    2    0    0 -0.17459322439E+02 -0.65852345574E+01  0.15770237822E+01  0.72461541226E+02  0.69999962133E+02 0.  0.
         12    1    1    2    0    0  0.17459322439E+02  0.65852345574E+01 -0.15770237822E+01  0.18726458774E+02  0.00000000000E+00 0. -1.
         11    1    3    3    0    0  0.12171457203E+02 -0.13936759571E+02 -0.10158422804E+02  0.21108557315E+02  0.51100000000E-03 0. -1.
        -11    1    3    3    0    0 -0.18526392945E+02  0.15455398612E+02  0.23186036207E+02  0.33461752151E+02  0.51100000000E-03 0.  1.
        -12    1    3    3    0    0 -0.11104386698E+02 -0.81038735987E+01 -0.11450589621E+02  0.17891231760E+02  0.00000000000E+00 0.  1.
</event>
<event>
 7    1  0.1302069E-013  0.7246177E+02  0.7816164E-02  0.1226707E+00
        -11   -1    0    0    0    0  0.00000000000E+00  0.00000000000E+00  0.45593999997E+02  0.45594000000E+02  0.51100000000E-03 0.  1.
         11   -1    0    0    0    0 -0.00000000000E+00 -0.00000000000E+00 -0.45593999997E+02  0.45594000000E+02  0.51100000000E-03 0. -1.
    9900012    2    1    2    0    0 -0.91044099021E+01  0.42939090067E+00  0.16358390989E+02  0.72461772084E+02  0.70000262868E+02 0.  0.
         12    1    1    2    0    0  0.91044099021E+01 -0.42939090067E+00 -0.16358390989E+02  0.18726227916E+02  0.00000000000E+00 0. -1.
         11    1    3    3    0    0 -0.22957709143E+02  0.17826478262E+02 -0.59885355359E+01  0.29676628758E+02  0.51100000000E-03 0. -1.
        -11    1    3    3    0    0  0.14338860975E+02 -0.22439845486E+02  0.83635309414E+01  0.27912331496E+02  0.51100000000E-03 0.  1.
        -12    1    3    3    0    0 -0.48556173491E+00  0.50427581243E+01  0.13983395583E+02  0.14872811830E+02  0.00000000000E+00 0.  1.
</event>
<event>
 7    1  0.1302069E-013  0.7246163E+02  0.7816164E-02  0.1226708E+00
        -11   -1    0    0    0    0  0.00000000000E+00  0.00000000000E+00  0.45593999997E+02  0.45594000000E+02  0.51100000000E-03 0.  1.
         11   -1    0    0    0    0 -0.00000000000E+00 -0.00000000000E+00 -0.45593999997E+02  0.45594000000E+02  0.51100000000E-03 0. -1.
    9900012    2    1    2    0    0  0.17783548384E+02  0.58086517947E+01 -0.82572814902E+00  0.72461632072E+02  0.70000080477E+02 0.  0.
         12    1    1    2    0    0 -0.17783548384E+02 -0.58086517947E+01  0.82572814902E+00  0.18726367928E+02  0.00000000000E+00 0. -1.
         11    1    3    3    0    0 -0.17648457604E+02  0.51719616080E+01  0.15981758107E+02  0.24364602092E+02  0.51100000000E-03 0. -1.
        -11    1    3    3    0    0  0.36362184557E+02 -0.30461147170E+01 -0.64372312156E+01  0.37053005635E+02  0.51100000000E-03 0.  1.
        -12    1    3    3    0    0 -0.93017856913E+00  0.36828049036E+01 -0.10370255040E+02  0.11044024345E+02  0.00000000000E+00 0.  1.
</event>
<event>
 7    1  0.1996486E-013  0.7246165E+02  0.7816164E-02  0.1226708E+00
        -11   -1    0    0    0    0  0.00000000000E+00  0.00000000000E+00  0.45593999997E+02  0.45594000000E+02  0.51100000000E-03 0. -1.
         11   -1    0    0    0    0 -0.00000000000E+00 -0.00000000000E+00 -0.45593999997E+02  0.45594000000E+02  0.51100000000E-03 0.  1.
    9900012    2    1    2    0    0 -0.19071402396E+01 -0.53265494220E+01 -0.17851238747E+02  0.72461653922E+02  0.70000108940E+02 0.  0.
         12    1    1    2    0    0  0.19071402396E+01  0.53265494220E+01  0.17851238747E+02  0.18726346078E+02  0.00000000000E+00 0. -1.
         11    1    3    3    0    0  0.21930860677E+02  0.10318654081E+01  0.51972805064E+01  0.22561895336E+02  0.51100000000E-03 0.  1.
        -11    1    3    3    0    0 -0.20876822304E+02 -0.18966190170E+02 -0.66051552435E+01  0.28968709932E+02  0.51100000000E-03 0. -1.
        -12    1    3    3    0    0 -0.29611786123E+01  0.12607775339E+02 -0.16443364010E+02  0.20931048654E+02  0.00000000000E+00 0.  1.
</event>
<event>
 7    1  0.1302069E-013  0.7246155E+02  0.7816164E-02  0.1226708E+00
        -11   -1    0    0    0    0  0.00000000000E+00  0.00000000000E+00  0.45593999997E+02  0.45594000000E+02  0.51100000000E-03 0. -1.
         11   -1    0    0    0    0 -0.00000000000E+00 -0.00000000000E+00 -0.45593999997E+02  0.45594000000E+02  0.51100000000E-03 0.  1.
    9900012    2    1    2    0    0  0.88308044296E+01 -0.16006628144E+02  0.40601235798E+01  0.72461551994E+02  0.69999976161E+02 0.  0.
         12    1    1    2    0    0 -0.88308044296E+01  0.16006628144E+02 -0.40601235798E+01  0.18726448006E+02  0.00000000000E+00 0. -1.
         11    1    3    3    0    0 -0.14656257397E+02  0.17336372854E+02 -0.34624283996E+01  0.22963974292E+02  0.51100000000E-03 0. -1.
        -11    1    3    3    0    0 -0.18490813802E+01 -0.18147671337E+02 -0.22496627342E+01  0.18379827518E+02  0.51100000000E-03 0.  1.
         12    1    3    3    0    0  0.25336143207E+02 -0.15195329662E+02  0.97722147137E+01  0.31117750184E+02  0.00000000000E+00 0. -1.
</event>
<event>
 7    1  0.1302069E-013  0.7246147E+02  0.7816164E-02  0.1226708E+00
        -11   -1    0    0    0    0  0.00000000000E+00  0.00000000000E+00  0.45593999997E+02  0.45594000000E+02  0.51100000000E-03 0.  1.
         11   -1    0    0    0    0 -0.00000000000E+00 -0.00000000000E+00 -0.45593999997E+02  0.45594000000E+02  0.51100000000E-03 0. -1.
    9900012    2    1    2    0    0 -0.11227111026E+02 -0.37745106956E+01  0.14504752778E+02  0.72461473196E+02  0.69999873512E+02 0.  0.
         12    1    1    2    0    0  0.11227111026E+02  0.37745106956E+01 -0.14504752778E+02  0.18726526804E+02  0.00000000000E+00 0. -1.
         11    1    3    3    0    0  0.51543758740E+01  0.52310334583E+01 -0.17326650501E+02  0.18818717266E+02  0.51100000000E-03 0. -1.
        -11    1    3    3    0    0 -0.18006899620E+02 -0.12188880457E+02  0.39551896828E+02  0.45135017267E+02  0.51100000000E-03 0.  1.
        -12    1    3    3    0    0  0.16254127194E+01  0.31833363028E+01 -0.77204935492E+01  0.85077386636E+01  0.00000000000E+00 0.  1.
</event>
<event>
 7    1  0.1302069E-013  0.7246128E+02  0.7816164E-02  0.1226709E+00
        -11   -1    0    0    0    0  0.00000000000E+00  0.00000000000E+00  0.45593999997E+02  0.45594000000E+02  0.51100000000E-03 0.  1.
         11   -1    0    0    0    0 -0.00000000000E+00 -0.00000000000E+00 -0.45593999997E+02  0.45594000000E+02  0.51100000000E-03 0. -1.
    9900012    2    1    2    0    0 -0.17333762140E+02 -0.68087561709E+01  0.19676491706E+01  0.72461278082E+02  0.69999619338E+02 0.  0.
         12    1    1    2    0    0  0.17333762140E+02  0.68087561709E+01 -0.19676491706E+01  0.18726721918E+02  0.00000000000E+00 0. -1.
         11    1    3    3    0    0  0.48081833951E+01  0.24316725099E+02  0.51007900071E+01  0.25306912219E+02  0.51100000000E-03 0. -1.
        -11    1    3    3    0    0 -0.15466641317E+01 -0.12728553379E+02  0.10298329417E+02  0.16445784570E+02  0.51100000000E-03 0.  1.
         12    1    3    3    0    0 -0.20595281404E+02 -0.18396927890E+02 -0.13431470254E+02  0.30708581294E+02  0.00000000000E+00 0. -1.
</event>
<event>
 7    1  0.1302069E-013  0.7246155E+02  0.7816164E-02  0.1226708E+00
        -11   -1    0    0    0    0  0.00000000000E+00  0.00000000000E+00  0.45593999997E+02  0.45594000000E+02  0.51100000000E-03 0.  1.
         11   -1    0    0    0    0 -0.00000000000E+00 -0.00000000000E+00 -0.45593999997E+02  0.45594000000E+02  0.51100000000E-03 0. -1.
    9900012    2    1    2    0    0  0.36243611638E+00  0.18195423205E+02  0.44130628062E+01  0.72461550553E+02  0.69999974283E+02 0.  0.
         12    1    1    2    0    0 -0.36243611638E+00 -0.18195423205E+02 -0.44130628062E+01  0.18726449447E+02  0.00000000000E+00 0. -1.
         11    1    3    3    0    0  0.82412593160E+01 -0.51874839293E-01 -0.23199711906E+02  0.24620066590E+02  0.51100000000E-03 0. -1.
        -11    1    3    3    0    0 -0.18637131929E+02  0.29925801751E+01  0.72576868763E+01  0.20223062125E+02  0.51100000000E-03 0.  1.
         12    1    3    3    0    0  0.10758308729E+02  0.15254717869E+02  0.20355087836E+02  0.27618421838E+02  0.00000000000E+00 0. -1.
</event>
<event>
 7    1  0.1302069E-013  0.7246174E+02  0.7816164E-02  0.1226708E+00
        -11   -1    0    0    0    0  0.00000000000E+00  0.00000000000E+00  0.45593999997E+02  0.45594000000E+02  0.51100000000E-03 0.  1.
         11   -1    0    0    0    0 -0.00000000000E+00 -0.00000000000E+00 -0.45593999997E+02  0.45594000000E+02  0.51100000000E-03 0. -1.
    9900012    2    1    2    0    0 -0.30822770934E+01  0.15580413364E+01  0.18405018685E+02  0.72461744697E+02  0.70000227192E+02 0.  0.
         12    1    1    2    0    0  0.30822770934E+01 -0.15580413364E+01 -0.18405018685E+02  0.18726255303E+02  0.00000000000E+00 0. -1.
         11    1    3    3    0    0  0.13578197681E+01  0.24102299177E+02 -0.37570367055E+01  0.24431124108E+02  0.51100000000E-03 0. -1.
        -11    1    3    3    0    0 -0.19407037996E+01 -0.25087364889E+02  0.30157466919E+02  0.39276138043E+02  0.51100000000E-03 0.  1.
        -12    1    3    3    0    0 -0.24993930619E+01  0.25431070486E+01 -0.79954115290E+01  0.87544825465E+01  0.00000000000E+00 0.  1.
</event>
<event>
 7    1  0.1302069E-013  0.7246140E+02  0.7816164E-02  0.1226708E+00
        -11   -1    0    0    0    0  0.00000000000E+00  0.00000000000E+00  0.45593999997E+02  0.45594000000E+02  0.51100000000E-03 0.  1.
         11   -1    0    0    0    0 -0.00000000000E+00 -0.00000000000E+00 -0.45593999997E+02  0.45594000000E+02  0.51100000000E-03 0. -1.
    9900012    2    1    2    0    0 -0.40102616771E+01  0.61379861878E+01  0.17231610693E+02  0.72461401798E+02  0.69999780501E+02 0.  0.
         12    1    1    2    0    0  0.40102616771E+01 -0.61379861878E+01 -0.17231610693E+02  0.18726598202E+02  0.00000000000E+00 0. -1.
         11    1    3    3    0    0 -0.22497480019E+02  0.88815612926E+01 -0.32651277990E+01  0.24406552358E+02  0.51100000000E-03 0. -1.
        -11    1    3    3    0    0  0.24380605070E+01 -0.19262665600E+02  0.42679875981E+01  0.19879892944E+02  0.51100000000E-03 0.  1.
        -12    1    3    3    0    0  0.16049157835E+02  0.16519090495E+02  0.16228750894E+02  0.28174956496E+02  0.00000000000E+00 0.  1.
</event>
<event>
 7    1  0.1302069E-013  0.7246161E+02  0.7816164E-02  0.1226708E+00
        -11   -1    0    0    0    0  0.00000000000E+00  0.00000000000E+00  0.45593999997E+02  0.45594000000E+02  0.51100000000E-03 0.  1.
         11   -1    0    0    0    0 -0.00000000000E+00 -0.00000000000E+00 -0.45593999997E+02  0.45594000000E+02  0.51100000000E-03 0. -1.
    9900012    2    1    2    0    0  0.24301079594E+01 -0.11097788809E+02  0.14886616058E+02  0.72461610096E+02  0.70000051850E+02 0.  0.
         12    1    1    2    0    0 -0.24301079594E+01  0.11097788809E+02 -0.14886616058E+02  0.18726389904E+02  0.00000000000E+00 0. -1.
         11    1    3    3    0    0 -0.13891502696E+02  0.19132383711E+02  0.10463122403E+02  0.25855345372E+02  0.51100000000E-03 0.  1.
        -11    1    3    3    0    0  0.21027607900E+02 -0.23740537813E+02  0.13525266183E+02  0.34477619628E+02  0.51100000000E-03 0. -1.
         12    1    3    3    0    0 -0.47059972446E+01 -0.64896347075E+01 -0.91017725278E+01  0.12128645095E+02  0.00000000000E+00 0. -1.
</event>
<event>
 7    1  0.1560219E-013  0.7246159E+02  0.7816164E-02  0.1226708E+00
        -11   -1    0    0    0    0  0.00000000000E+00  0.00000000000E+00  0.45593999997E+02  0.45594000000E+02  0.51100000000E-03 0. -1.
         11   -1    0    0    0    0 -0.00000000000E+00 -0.00000000000E+00 -0.45593999997E+02  0.45594000000E+02  0.51100000000E-03 0.  1.
    9900012    2    1    2    0    0  0.69499017564E+01  0.10183853446E+02 -0.14094908343E+02  0.72461589595E+02  0.70000025143E+02 0.  0.
         12    1    1    2    0    0 -0.69499017564E+01 -0.10183853446E+02  0.14094908343E+02  0.18726410405E+02  0.00000000000E+00 0. -1.
         11    1    3    3    0    0  0.11017237291E+01 -0.18375304371E-01  0.11890878562E+02  0.11941822560E+02  0.51100000000E-03 0. -1.
        -11    1    3    3    0    0  0.16321329692E+02 -0.11492252187E+02 -0.30063394936E+02  0.36086914230E+02  0.51100000000E-03 0.  1.
        -12    1    3    3    0    0 -0.10473151665E+02  0.21694480938E+02  0.40776080318E+01  0.24432852806E+02  0.00000000000E+00 0.  1.
</event>
<event>
 7    1  0.1302069E-013  0.7246152E+02  0.7816164E-02  0.1226708E+00
        -11   -1    0    0    0    0  0.00000000000E+00  0.00000000000E+00  0.45593999997E+02  0.45594000000E+02  0.51100000000E-03 0.  1.
         11   -1    0    0    0    0 -0.00000000000E+00 -0.00000000000E+00 -0.45593999997E+02  0.45594000000E+02  0.51100000000E-03 0. -1.
    9900012    2    1    2    0    0  0.12912451213E+02  0.11243912538E+02  0.75844567206E+01  0.72461522776E+02  0.69999938098E+02 0.  0.
         12    1    1    2    0    0 -0.12912451213E+02 -0.11243912538E+02 -0.75844567206E+01  0.18726477224E+02  0.00000000000E+00 0. -1.
         11    1    3    3    0    0 -0.99005211755E+01 -0.12535103046E+02 -0.24060270174E+01  0.16153578371E+02  0.51100000000E-03 0. -1.
        -11    1    3    3    0    0  0.42111201430E+01  0.33452381834E+02  0.16923457038E+01  0.33758842063E+02  0.51100000000E-03 0.  1.
        -12    1    3    3    0    0  0.18601852245E+02 -0.96733662498E+01  0.82981380342E+01  0.22549102341E+02  0.00000000000E+00 0.  1.
</event>
<event>
 7    1  0.1302069E-013  0.7246163E+02  0.7816164E-02  0.1226708E+00
        -11   -1    0    0    0    0  0.00000000000E+00  0.00000000000E+00  0.45593999997E+02  0.45594000000E+02  0.51100000000E-03 0.  1.
         11   -1    0    0    0    0 -0.00000000000E+00 -0.00000000000E+00 -0.45593999997E+02  0.45594000000E+02  0.51100000000E-03 0. -1.
    9900012    2    1    2    0    0 -0.13991345606E+02  0.12189286667E+02  0.25180092329E+01  0.72461632712E+02  0.70000081311E+02 0.  0.
         12    1    1    2    0    0  0.13991345606E+02 -0.12189286667E+02 -0.25180092329E+01  0.18726367288E+02  0.00000000000E+00 0. -1.
         11    1    3    3    0    0 -0.15896630724E+02  0.53922530981E+01 -0.88756786376E+01  0.18988336772E+02  0.51100000000E-03 0. -1.
        -11    1    3    3    0    0  0.16309365041E+02 -0.15243099879E+02 -0.44238855933E+01  0.22757817250E+02  0.51100000000E-03 0.  1.
        -12    1    3    3    0    0 -0.14404079923E+02  0.22040133448E+02  0.15817573464E+02  0.30715478690E+02  0.00000000000E+00 0.  1.
</event>
<event>
 7    1  0.1302069E-013  0.7246160E+02  0.7816164E-02  0.1226708E+00
        -11   -1    0    0    0    0  0.00000000000E+00  0.00000000000E+00  0.45593999997E+02  0.45594000000E+02  0.51100000000E-03 0.  1.
         11   -1    0    0    0    0 -0.00000000000E+00 -0.00000000000E+00 -0.45593999997E+02  0.45594000000E+02  0.51100000000E-03 0. -1.
    9900012    2    1    2    0    0  0.13426549692E+02 -0.86570599936E+01 -0.97704305290E+01  0.72461595190E+02  0.70000032432E+02 0.  0.
         12    1    1    2    0    0 -0.13426549692E+02  0.86570599936E+01  0.97704305290E+01  0.18726404810E+02  0.00000000000E+00 0. -1.
         11    1    3    3    0    0 -0.66361774438E+01 -0.16652083549E+02  0.14774602085E+02  0.23229713830E+02  0.51100000000E-03 0.  1.
        -11    1    3    3    0    0  0.20434477875E+02  0.96034087095E+01 -0.33349582891E+02  0.40273912451E+02  0.51100000000E-03 0. -1.
         12    1    3    3    0    0 -0.37175073867E+00 -0.16083851537E+01  0.88045502761E+01  0.89579689092E+01  0.00000000000E+00 0. -1.
</event>
<event>
 7    1  0.1302069E-013  0.7246160E+02  0.7816164E-02  0.1226708E+00
        -11   -1    0    0    0    0  0.00000000000E+00  0.00000000000E+00  0.45593999997E+02  0.45594000000E+02  0.51100000000E-03 0. -1.
         11   -1    0    0    0    0 -0.00000000000E+00 -0.00000000000E+00 -0.45593999997E+02  0.45594000000E+02  0.51100000000E-03 0.  1.
    9900012    2    1    2    0    0 -0.45439066183E+01 -0.61755497797E+01 -0.17084888934E+02  0.72461603327E+02  0.70000043032E+02 0.  0.
         12    1    1    2    0    0  0.45439066183E+01  0.61755497797E+01  0.17084888934E+02  0.18726396673E+02  0.00000000000E+00 0. -1.
         11    1    3    3    0    0  0.73266600704E+01  0.97751030801E+01  0.78681550614E+01  0.14530672811E+02  0.51100000000E-03 0. -1.
        -11    1    3    3    0    0 -0.27647066692E+02 -0.20831067539E+00 -0.22233112601E+02  0.35478373500E+02  0.51100000000E-03 0.  1.
        -12    1    3    3    0    0  0.15776500003E+02 -0.15742342184E+02 -0.27199313946E+01  0.22452557017E+02  0.00000000000E+00 0.  1.
</event>
<event>
 7    1  0.1302069E-013  0.7246155E+02  0.7816164E-02  0.1226708E+00
        -11   -1    0    0    0    0  0.00000000000E+00  0.00000000000E+00  0.45593999997E+02  0.45594000000E+02  0.51100000000E-03 0. -1.
         11   -1    0    0    0    0 -0.00000000000E+00 -0.00000000000E+00 -0.45593999997E+02  0.45594000000E+02  0.51100000000E-03 0.  1.
    9900012    2    1    2    0    0  0.18247321549E+02 -0.19596678472E+01  0.37248811247E+01  0.72461553963E+02  0.69999978726E+02 0.  0.
         12    1    1    2    0    0 -0.18247321549E+02  0.19596678472E+01 -0.37248811247E+01  0.18726446037E+02  0.00000000000E+00 0. -1.
         11    1    3    3    0    0  0.54729911417E+01 -0.16410164524E+02 -0.24266229502E+02  0.29800956800E+02  0.51100000000E-03 0. -1.
        -11    1    3    3    0    0  0.10743066232E+02 -0.53329862582E+01  0.13469855087E+02  0.18035831304E+02  0.51100000000E-03 0.  1.
         12    1    3    3    0    0  0.20312641753E+01  0.19783482935E+02  0.14521255539E+02  0.24624765859E+02  0.00000000000E+00 0. -1.
</event>
<event>
 7    1  0.1302069E-013  0.7246154E+02  0.7816164E-02  0.1226708E+00
        -11   -1    0    0    0    0  0.00000000000E+00  0.00000000000E+00  0.45593999997E+02  0.45594000000E+02  0.51100000000E-03 0.  1.
         11   -1    0    0    0    0 -0.00000000000E+00 -0.00000000000E+00 -0.45593999997E+02  0.45594000000E+02  0.51100000000E-03 0. -1.
    9900012    2    1    2    0    0 -0.78715484287E+01  0.15866088626E+02  0.60816382083E+01  0.72461538341E+02  0.69999958375E+02 0.  0.
         12    1    1    2    0    0  0.78715484287E+01 -0.15866088626E+02 -0.60816382083E+01  0.18726461659E+02  0.00000000000E+00 0. -1.
         11    1    3    3    0    0 -0.20868038320E+02  0.13167554217E+02  0.29481988708E+02  0.38445378992E+02  0.51100000000E-03 0. -1.
        -11    1    3    3    0    0  0.16419319743E+01  0.92107425154E+01 -0.30895060788E+01  0.98528557467E+01  0.51100000000E-03 0.  1.
         12    1    3    3    0    0  0.11354557917E+02 -0.65122081062E+01 -0.20310844421E+02  0.24163303603E+02  0.00000000000E+00 0. -1.
</event>
<event>
 7    1  0.1302069E-013  0.7246160E+02  0.7816164E-02  0.1226708E+00
        -11   -1    0    0    0    0  0.00000000000E+00  0.00000000000E+00  0.45593999997E+02  0.45594000000E+02  0.51100000000E-03 0.  1.
         11   -1    0    0    0    0 -0.00000000000E+00 -0.00000000000E+00 -0.45593999997E+02  0.45594000000E+02  0.51100000000E-03 0. -1.
    9900012    2    1    2    0    0  0.11494251967E+02 -0.22258860257E+00  0.14782111483E+02  0.72461596345E+02  0.70000033936E+02 0.  0.
         12    1    1    2    0    0 -0.11494251967E+02  0.22258860257E+00 -0.14782111483E+02  0.18726403655E+02  0.00000000000E+00 0. -1.
         11    1    3    3    0    0  0.78508014215E+00  0.15119792742E+01  0.25354278564E+02  0.25411451629E+02  0.51100000000E-03 0. -1.
        -11    1    3    3    0    0  0.19879927422E+02 -0.14745841994E+02 -0.16845364183E+02  0.29940234889E+02  0.51100000000E-03 0.  1.
         12    1    3    3    0    0 -0.91707555979E+01  0.13011274118E+02  0.62731971024E+01  0.17109909827E+02  0.00000000000E+00 0. -1.
</event>
<event>
 7    1  0.1302069E-013  0.7246158E+02  0.7816164E-02  0.1226708E+00
        -11   -1    0    0    0    0  0.00000000000E+00  0.00000000000E+00  0.45593999997E+02  0.45594000000E+02  0.51100000000E-03 0.  1.
         11   -1    0    0    0    0 -0.00000000000E+00 -0.00000000000E+00 -0.45593999997E+02  0.45594000000E+02  0.51100000000E-03 0. -1.
    9900012    2    1    2    0    0  0.92405202861E+01  0.11050975583E+02 -0.11965265975E+02  0.72461578389E+02  0.70000010545E+02 0.  0.
         12    1    1    2    0    0 -0.92405202861E+01 -0.11050975583E+02  0.11965265975E+02  0.18726421611E+02  0.00000000000E+00 0. -1.
         11    1    3    3    0    0  0.63605770754E+01  0.24489908437E+02  0.37318062587E+01  0.25576139940E+02  0.51100000000E-03 0. -1.
        -11    1    3    3    0    0  0.19148742770E+02 -0.14755183354E+02 -0.18349284976E+02  0.30349399416E+02  0.51100000000E-03 0.  1.
        -12    1    3    3    0    0 -0.16268799560E+02  0.13162504998E+01  0.26522127419E+01  0.16536039034E+02  0.00000000000E+00 0.  1.
</event>
<event>
 7    1  0.1302069E-013  0.7246160E+02  0.7816164E-02  0.1226708E+00
        -11   -1    0    0    0    0  0.00000000000E+00  0.00000000000E+00  0.45593999997E+02  0.45594000000E+02  0.51100000000E-03 0.  1.
         11   -1    0    0    0    0 -0.00000000000E+00 -0.00000000000E+00 -0.45593999997E+02  0.45594000000E+02  0.51100000000E-03 0. -1.
    9900012    2    1    2    0    0  0.10260997528E+02 -0.11550681347E+02  0.10581671989E+02  0.72461599066E+02  0.70000037480E+02 0.  0.
         12    1    1    2    0    0 -0.10260997528E+02  0.11550681347E+02 -0.10581671989E+02  0.18726400934E+02  0.00000000000E+00 0. -1.
         11    1    3    3    0    0  0.21974706720E+02  0.20167378552E+02 -0.25013081849E+01  0.29931044686E+02  0.51100000000E-03 0. -1.
        -11    1    3    3    0    0 -0.13396552414E+02 -0.31629097574E+02  0.55295564557E+01  0.34791427461E+02  0.51100000000E-03 0.  1.
         12    1    3    3    0    0  0.16828432218E+01 -0.88962325139E-01  0.75534237183E+01  0.77391269192E+01  0.00000000000E+00 0. -1.
</event>
<event>
 7    1  0.1302069E-013  0.7246184E+02  0.7816164E-02  0.1226707E+00
        -11   -1    0    0    0    0  0.00000000000E+00  0.00000000000E+00  0.45593999997E+02  0.45594000000E+02  0.51100000000E-03 0. -1.
         11   -1    0    0    0    0 -0.00000000000E+00 -0.00000000000E+00 -0.45593999997E+02  0.45594000000E+02  0.51100000000E-03 0.  1.
    9900012    2    1    2    0    0  0.17812362731E+01 -0.10429072050E+02 -0.15450910289E+02  0.72461842486E+02  0.70000354580E+02 0.  0.
         12    1    1    2    0    0 -0.17812362731E+01  0.10429072050E+02  0.15450910289E+02  0.18726157514E+02  0.00000000000E+00 0. -1.
         11    1    3    3    0    0 -0.10323430993E+02 -0.20776041246E+02 -0.21526537366E+02  0.31648205772E+02  0.51100000000E-03 0. -1.
        -11    1    3    3    0    0  0.22217561681E+02 -0.95751450926E+00  0.11074754203E+02  0.24843249828E+02  0.51100000000E-03 0.  1.
         12    1    3    3    0    0 -0.10112894415E+02  0.11304483706E+02 -0.49991271253E+01  0.15970386887E+02  0.00000000000E+00 0. -1.
</event>
<event>
 7    1  0.1302069E-013  0.7246151E+02  0.7816164E-02  0.1226708E+00
        -11   -1    0    0    0    0  0.00000000000E+00  0.00000000000E+00  0.45593999997E+02  0.45594000000E+02  0.51100000000E-03 0.  1.
         11   -1    0    0    0    0 -0.00000000000E+00 -0.00000000000E+00 -0.45593999997E+02  0.45594000000E+02  0.51100000000E-03 0. -1.
    9900012    2    1    2    0    0  0.80027960956E+01  0.82145500522E+01  0.14803977004E+02  0.72461513062E+02  0.69999925444E+02 0.  0.
         12    1    1    2    0    0 -0.80027960956E+01 -0.82145500522E+01 -0.14803977004E+02  0.18726486938E+02  0.00000000000E+00 0. -1.
         11    1    3    3    0    0  0.43786307537E+01  0.16888347421E+02 -0.19670935111E+02  0.26293238186E+02  0.51100000000E-03 0. -1.
        -11    1    3    3    0    0  0.16093847247E+02 -0.85303051960E+01  0.19584654415E+02  0.26745779382E+02  0.51100000000E-03 0.  1.
         12    1    3    3    0    0 -0.12469681906E+02 -0.14349217293E+00  0.14890257700E+02  0.19422495494E+02  0.00000000000E+00 0. -1.
</event>
<event>
 7    1  0.1302069E-013  0.7246161E+02  0.7816164E-02  0.1226708E+00
        -11   -1    0    0    0    0  0.00000000000E+00  0.00000000000E+00  0.45593999997E+02  0.45594000000E+02  0.51100000000E-03 0.  1.
         11   -1    0    0    0    0 -0.00000000000E+00 -0.00000000000E+00 -0.45593999997E+02  0.45594000000E+02  0.51100000000E-03 0. -1.
    9900012    2    1    2    0    0  0.24830148800E+01 -0.17105120510E+02  0.72060409744E+01  0.72461613881E+02  0.70000056780E+02 0.  0.
         12    1    1    2    0    0 -0.24830148800E+01  0.17105120510E+02 -0.72060409744E+01  0.18726386119E+02  0.00000000000E+00 0. -1.
         11    1    3    3    0    0 -0.18285178149E+01 -0.18766298814E+02 -0.16057270222E+02  0.24765972135E+02  0.51100000000E-03 0. -1.
        -11    1    3    3    0    0  0.21615089954E+02 -0.30142104727E+01  0.19742675954E+02  0.29429081409E+02  0.51100000000E-03 0.  1.
        -12    1    3    3    0    0 -0.17303557259E+02  0.46753887765E+01  0.35206352426E+01  0.18266560337E+02  0.00000000000E+00 0.  1.
</event>
<event>
 7    1  0.1302069E-013  0.7246157E+02  0.7816164E-02  0.1226708E+00
        -11   -1    0    0    0    0  0.00000000000E+00  0.00000000000E+00  0.45593999997E+02  0.45594000000E+02  0.51100000000E-03 0.  1.
         11   -1    0    0    0    0 -0.00000000000E+00 -0.00000000000E+00 -0.45593999997E+02  0.45594000000E+02  0.51100000000E-03 0. -1.
    9900012    2    1    2    0    0  0.65538756574E+01 -0.41529785530E+01  0.17043429779E+02  0.72461574403E+02  0.70000005352E+02 0.  0.
         12    1    1    2    0    0 -0.65538756574E+01  0.41529785530E+01 -0.17043429779E+02  0.18726425597E+02  0.00000000000E+00 0. -1.
         11    1    3    3    0    0 -0.60447406201E+01 -0.10712019409E+02 -0.21513828935E+02  0.24781668320E+02  0.51100000000E-03 0. -1.
        -11    1    3    3    0    0  0.15511311520E+01 -0.51490676713E+01  0.27808526822E+02  0.28323719212E+02  0.51100000000E-03 0.  1.
        -12    1    3    3    0    0  0.11047485125E+02  0.11708108528E+02  0.10748731893E+02  0.19356186871E+02  0.00000000000E+00 0.  1.
</event>
<event>
 7    1  0.1302069E-013  0.7246156E+02  0.7816164E-02  0.1226708E+00
        -11   -1    0    0    0    0  0.00000000000E+00  0.00000000000E+00  0.45593999997E+02  0.45594000000E+02  0.51100000000E-03 0.  1.
         11   -1    0    0    0    0 -0.00000000000E+00 -0.00000000000E+00 -0.45593999997E+02  0.45594000000E+02  0.51100000000E-03 0. -1.
    9900012    2    1    2    0    0  0.90971396086E+01 -0.36228717877E+01  0.15962341420E+02  0.72461561666E+02  0.69999988760E+02 0.  0.
         12    1    1    2    0    0 -0.90971396086E+01  0.36228717877E+01 -0.15962341420E+02  0.18726438334E+02  0.00000000000E+00 0. -1.
         11    1    3    3    0    0 -0.10816795409E+02 -0.15782173060E+01  0.32166941943E+02  0.33973607212E+02  0.51100000000E-03 0. -1.
        -11    1    3    3    0    0  0.11173931005E+02 -0.15261259031E+02 -0.10590725985E+02  0.21677782139E+02  0.51100000000E-03 0.  1.
         12    1    3    3    0    0  0.87400040130E+01  0.13216604549E+02 -0.56138745372E+01  0.16810172316E+02  0.00000000000E+00 0. -1.
</event>
<event>
 7    1  0.1302069E-013  0.7246157E+02  0.7816164E-02  0.1226708E+00
        -11   -1    0    0    0    0  0.00000000000E+00  0.00000000000E+00  0.45593999997E+02  0.45594000000E+02  0.51100000000E-03 0. -1.
         11   -1    0    0    0    0 -0.00000000000E+00 -0.00000000000E+00 -0.45593999997E+02  0.45594000000E+02  0.51100000000E-03 0.  1.
    9900012    2    1    2    0    0 -0.61283432645E+01  0.16844459585E+02 -0.54209531008E+01  0.72461571018E+02  0.70000000943E+02 0.  0.
         12    1    1    2    0    0  0.61283432645E+01 -0.16844459585E+02  0.54209531008E+01  0.18726428982E+02  0.00000000000E+00 0. -1.
         11    1    3    3    0    0  0.11676492523E+02 -0.39592726303E+01  0.44751920339E+01  0.13116541519E+02  0.51100000000E-03 0. -1.
        -11    1    3    3    0    0 -0.25691220395E+02  0.21225495986E+02  0.12503786247E+02  0.35593611168E+02  0.51100000000E-03 0.  1.
        -12    1    3    3    0    0  0.78863846068E+01 -0.42176377051E+00 -0.22399931382E+02  0.23751418331E+02  0.00000000000E+00 0.  1.
</event>
<event>
 7    1  0.1302069E-013  0.7246158E+02  0.7816164E-02  0.1226708E+00
        -11   -1    0    0    0    0  0.00000000000E+00  0.00000000000E+00  0.45593999997E+02  0.45594000000E+02  0.51100000000E-03 0. -1.
         11   -1    0    0    0    0 -0.00000000000E+00 -0.00000000000E+00 -0.45593999997E+02  0.45594000000E+02  0.51100000000E-03 0.  1.
    9900012    2    1    2    0    0 -0.42668891677E+01  0.16951853147E+02 -0.67161949249E+01  0.72461576354E+02  0.70000007894E+02 0.  0.
         12    1    1    2    0    0  0.42668891677E+01 -0.16951853147E+02  0.67161949249E+01  0.18726423646E+02  0.00000000000E+00 0. -1.
         11    1    3    3    0    0 -0.72452293435E+01  0.41388001194E+02 -0.23692651635E+01  0.42084123001E+02  0.51100000000E-03 0. -1.
        -11    1    3    3    0    0  0.68419753976E+01 -0.10360686958E+02  0.46192381289E+01  0.13247408152E+02  0.51100000000E-03 0.  1.
         12    1    3    3    0    0 -0.38636352217E+01 -0.14075461088E+02 -0.89661678903E+01  0.17130045202E+02  0.00000000000E+00 0. -1.
</event>
<event>
 7    1  0.1302069E-013  0.7246162E+02  0.7816164E-02  0.1226708E+00
        -11   -1    0    0    0    0  0.00000000000E+00  0.00000000000E+00  0.45593999997E+02  0.45594000000E+02  0.51100000000E-03 0. -1.
         11   -1    0    0    0    0 -0.00000000000E+00 -0.00000000000E+00 -0.45593999997E+02  0.45594000000E+02  0.51100000000E-03 0.  1.
    9900012    2    1    2    0    0 -0.27852585142E-01  0.16030252099E+02 -0.96802648287E+01  0.72461620604E+02  0.70000065537E+02 0.  0.
         12    1    1    2    0    0  0.27852585142E-01 -0.16030252099E+02  0.96802648287E+01  0.18726379396E+02  0.00000000000E+00 0. -1.
         11    1    3    3    0    0  0.15927094111E+01  0.19552040405E+01  0.56689929206E+01  0.62045972555E+01  0.51100000000E-03 0. -1.
        -11    1    3    3    0    0  0.77382092026E+01  0.35722590098E+02 -0.20794961934E+02  0.42052512018E+02  0.51100000000E-03 0.  1.
        -12    1    3    3    0    0 -0.93587711988E+01 -0.21647542039E+02  0.54457041843E+01  0.24204511330E+02  0.00000000000E+00 0.  1.
</event>
<event>
 7    1  0.1302069E-013  0.7246160E+02  0.7816164E-02  0.1226708E+00
        -11   -1    0    0    0    0  0.00000000000E+00  0.00000000000E+00  0.45593999997E+02  0.45594000000E+02  0.51100000000E-03 0. -1.
         11   -1    0    0    0    0 -0.00000000000E+00 -0.00000000000E+00 -0.45593999997E+02  0.45594000000E+02  0.51100000000E-03 0.  1.
    9900012    2    1    2    0    0 -0.57701767099E+01 -0.17673860806E+02  0.22400178392E+01  0.72461602189E+02  0.70000041549E+02 0.  0.
         12    1    1    2    0    0  0.57701767099E+01  0.17673860806E+02 -0.22400178392E+01  0.18726397811E+02  0.00000000000E+00 0. -1.
         11    1    3    3    0    0 -0.77181586033E+01 -0.55445136980E+01  0.40916101200E+01  0.10346636072E+02  0.51100000000E-03 0. -1.
        -11    1    3    3    0    0  0.23730197603E+01  0.24879725850E+02  0.83017330334E+00  0.25006422558E+02  0.51100000000E-03 0.  1.
        -12    1    3    3    0    0 -0.42503786690E+00 -0.37009072958E+02 -0.26817655842E+01  0.37108543559E+02  0.00000000000E+00 0.  1.
</event>
<event>
 7    1  0.1302069E-013  0.7246165E+02  0.7816164E-02  0.1226708E+00
        -11   -1    0    0    0    0  0.00000000000E+00  0.00000000000E+00  0.45593999997E+02  0.45594000000E+02  0.51100000000E-03 0.  1.
         11   -1    0    0    0    0 -0.00000000000E+00 -0.00000000000E+00 -0.45593999997E+02  0.45594000000E+02  0.51100000000E-03 0. -1.
    9900012    2    1    2    0    0  0.95370099926E+01  0.95800308454E+01  0.12959345154E+02  0.72461650184E+02  0.70000104071E+02 0.  0.
         12    1    1    2    0    0 -0.95370099926E+01 -0.95800308454E+01 -0.12959345154E+02  0.18726349816E+02  0.00000000000E+00 0. -1.
         11    1    3    3    0    0  0.22128571780E+02  0.21789801992E+02  0.50894866411E+01  0.31470176905E+02  0.51100000000E-03 0. -1.
        -11    1    3    3    0    0 -0.18556760880E+02 -0.21898535015E+02  0.72055094684E+01  0.29594232159E+02  0.51100000000E-03 0.  1.
        -12    1    3    3    0    0  0.59651990918E+01  0.96887638683E+01  0.66434904467E+00  0.11397241120E+02  0.00000000000E+00 0.  1.
</event>
<event>
 7    1  0.1302069E-013  0.7246163E+02  0.7816164E-02  0.1226708E+00
        -11   -1    0    0    0    0  0.00000000000E+00  0.00000000000E+00  0.45593999997E+02  0.45594000000E+02  0.51100000000E-03 0. -1.
         11   -1    0    0    0    0 -0.00000000000E+00 -0.00000000000E+00 -0.45593999997E+02  0.45594000000E+02  0.51100000000E-03 0.  1.
    9900012    2    1    2    0    0  0.10575383360E+01 -0.42483964390E+01 -0.18207402655E+02  0.72461634334E+02  0.70000083423E+02 0.  0.
         12    1    1    2    0    0 -0.10575383360E+01  0.42483964390E+01  0.18207402655E+02  0.18726365666E+02  0.00000000000E+00 0. -1.
         11    1    3    3    0    0  0.71073295796E+01 -0.13776318044E+01 -0.58352726289E+00  0.72630921424E+01  0.51100000000E-03 0. -1.
        -11    1    3    3    0    0 -0.33564152900E+02 -0.85474023669E+01 -0.10917729993E+02  0.36315386210E+02  0.51100000000E-03 0.  1.
        -12    1    3    3    0    0  0.27514361657E+02  0.56766377323E+01 -0.67061453984E+01  0.28883155981E+02  0.00000000000E+00 0.  1.
</event>
<event>
 7    1  0.1302069E-013  0.7246157E+02  0.7816164E-02  0.1226708E+00
        -11   -1    0    0    0    0  0.00000000000E+00  0.00000000000E+00  0.45593999997E+02  0.45594000000E+02  0.51100000000E-03 0.  1.
         11   -1    0    0    0    0 -0.00000000000E+00 -0.00000000000E+00 -0.45593999997E+02  0.45594000000E+02  0.51100000000E-03 0. -1.
    9900012    2    1    2    0    0 -0.51336810533E+01 -0.69982111974E+01  0.16593663575E+02  0.72461566491E+02  0.69999995046E+02 0.  0.
         12    1    1    2    0    0  0.51336810533E+01  0.69982111974E+01 -0.16593663575E+02  0.18726433509E+02  0.00000000000E+00 0. -1.
         11    1    3    3    0    0 -0.11424379271E+02  0.37555494812E+01  0.49942766622E+01  0.13021650943E+02  0.51100000000E-03 0. -1.
        -11    1    3    3    0    0  0.16650935472E+02 -0.30256048954E+02  0.85731124610E-01  0.34535336983E+02  0.51100000000E-03 0.  1.
        -12    1    3    3    0    0 -0.10360237255E+02  0.19502288275E+02  0.11513655788E+02  0.24904578566E+02  0.00000000000E+00 0.  1.
</event>
<event>
 7    1  0.1426253E-013  0.7246157E+02  0.7816164E-02  0.1226708E+00
        -11   -1    0    0    0    0  0.00000000000E+00  0.00000000000E+00  0.45593999997E+02  0.45594000000E+02  0.51100000000E-03 0.  1.
         11   -1    0    0    0    0 -0.00000000000E+00 -0.00000000000E+00 -0.45593999997E+02  0.45594000000E+02  0.51100000000E-03 0. -1.
    9900012    2    1    2    0    0  0.12000475341E+02 -0.12832016151E+02 -0.64812861381E+01  0.72461571699E+02  0.70000001829E+02 0.  0.
         12    1    1    2    0    0 -0.12000475341E+02  0.12832016151E+02  0.64812861381E+01  0.18726428301E+02  0.00000000000E+00 0. -1.
         11    1    3    3    0    0 -0.22791905605E+02  0.72355699521E+01  0.34303193276E+01  0.24157639052E+02  0.51100000000E-03 0. -1.
        -11    1    3    3    0    0  0.25001530453E+02 -0.12520764063E+01 -0.10351988350E+02  0.27088888559E+02  0.51100000000E-03 0.  1.
        -12    1    3    3    0    0  0.97908504928E+01 -0.18815509697E+02  0.44038288459E+00  0.21215044087E+02  0.00000000000E+00 0.  1.
</event>
<event>
 7    1  0.1302069E-013  0.7246156E+02  0.7816164E-02  0.1226708E+00
        -11   -1    0    0    0    0  0.00000000000E+00  0.00000000000E+00  0.45593999997E+02  0.45594000000E+02  0.51100000000E-03 0.  1.
         11   -1    0    0    0    0 -0.00000000000E+00 -0.00000000000E+00 -0.45593999997E+02  0.45594000000E+02  0.51100000000E-03 0. -1.
    9900012    2    1    2    0    0 -0.54400202946E+00 -0.18116545811E+02 -0.47089656049E+01  0.72461560739E+02  0.69999987552E+02 0.  0.
         12    1    1    2    0    0  0.54400202946E+00  0.18116545811E+02  0.47089656049E+01  0.18726439261E+02  0.00000000000E+00 0. -1.
         11    1    3    3    0    0 -0.18370233132E+02 -0.25865094499E+02 -0.15771218298E+02  0.35428800511E+02  0.51100000000E-03 0. -1.
        -11    1    3    3    0    0  0.18335352259E+02 -0.76259454998E+01  0.76171378120E+01  0.21268779371E+02  0.51100000000E-03 0.  1.
        -12    1    3    3    0    0 -0.50912115644E+00  0.15374494188E+02  0.34451148815E+01  0.15763980856E+02  0.00000000000E+00 0.  1.
</event>
<event>
 7    1  0.1302069E-013  0.7246159E+02  0.7816164E-02  0.1226708E+00
        -11   -1    0    0    0    0  0.00000000000E+00  0.00000000000E+00  0.45593999997E+02  0.45594000000E+02  0.51100000000E-03 0.  1.
         11   -1    0    0    0    0 -0.00000000000E+00 -0.00000000000E+00 -0.45593999997E+02  0.45594000000E+02  0.51100000000E-03 0. -1.
    9900012    2    1    2    0    0  0.95648332413E+00 -0.22681149079E+01  0.18563925671E+02  0.72461587052E+02  0.70000021830E+02 0.  0.
         12    1    1    2    0    0 -0.95648332413E+00  0.22681149079E+01 -0.18563925671E+02  0.18726412948E+02  0.00000000000E+00 0. -1.
         11    1    3    3    0    0 -0.14949253558E+02  0.97516948139E+01 -0.33525148716E+01  0.18160811928E+02  0.51100000000E-03 0. -1.
        -11    1    3    3    0    0  0.23364764011E+02  0.58777768256E+01  0.24940206536E+02  0.34676712070E+02  0.51100000000E-03 0.  1.
        -12    1    3    3    0    0 -0.74590271288E+01 -0.17897586547E+02 -0.30237659934E+01  0.19624063053E+02  0.00000000000E+00 0.  1.
</event>
<event>
 7    1  0.1302069E-013  0.7246157E+02  0.7816164E-02  0.1226708E+00
        -11   -1    0    0    0    0  0.00000000000E+00  0.00000000000E+00  0.45593999997E+02  0.45594000000E+02  0.51100000000E-03 0. -1.
         11   -1    0    0    0    0 -0.00000000000E+00 -0.00000000000E+00 -0.45593999997E+02  0.45594000000E+02  0.51100000000E-03 0.  1.
    9900012    2    1    2    0    0 -0.61924321113E+01  0.33194484570E+01 -0.17358400214E+02  0.72461574513E+02  0.70000005496E+02 0.  0.
         12    1    1    2    0    0  0.61924321113E+01 -0.33194484570E+01  0.17358400214E+02  0.18726425487E+02  0.00000000000E+00 0. -1.
         11    1    3    3    0    0 -0.18145557972E+02 -0.23807020715E+02 -0.33615454273E+01  0.30122010182E+02  0.51100000000E-03 0. -1.
        -11    1    3    3    0    0  0.18898529216E+02  0.10767817619E+02 -0.10791594745E+02  0.24280832362E+02  0.51100000000E-03 0.  1.
         12    1    3    3    0    0 -0.69454033551E+01  0.16358651553E+02 -0.32052600423E+01  0.18058731970E+02  0.00000000000E+00 0. -1.
</event>
<event>
 7    1  0.1302069E-013  0.7246177E+02  0.7816164E-02  0.1226707E+00
        -11   -1    0    0    0    0  0.00000000000E+00  0.00000000000E+00  0.45593999997E+02  0.45594000000E+02  0.51100000000E-03 0. -1.
         11   -1    0    0    0    0 -0.00000000000E+00 -0.00000000000E+00 -0.45593999997E+02  0.45594000000E+02  0.51100000000E-03 0.  1.
    9900012    2    1    2    0    0 -0.79771596603E+00  0.18174049658E+02  0.44428679556E+01  0.72461774876E+02  0.70000266505E+02 0.  0.
         12    1    1    2    0    0  0.79771596603E+00 -0.18174049658E+02 -0.44428679556E+01  0.18726225124E+02  0.00000000000E+00 0. -1.
         11    1    3    3    0    0 -0.39435375751E+01  0.26034848212E+02 -0.10045296351E+02  0.28182845653E+02  0.51100000000E-03 0.  1.
        -11    1    3    3    0    0 -0.30624102064E+00  0.13390710104E+02  0.18028681870E+02  0.22459703268E+02  0.51100000000E-03 0. -1.
         12    1    3    3    0    0  0.34520626297E+01 -0.21251508659E+02 -0.35405175630E+01  0.21819225955E+02  0.00000000000E+00 0. -1.
</event>
<event>
 8    1  0.1302069E-013  0.7246158E+02  0.7816164E-02  0.1226708E+00
        -11   -1    0    0    0    0  0.00000000000E+00  0.00000000000E+00  0.45593999997E+02  0.45594000000E+02  0.51100000000E-03 0. -1.
         11   -1    0    0    0    0 -0.00000000000E+00 -0.00000000000E+00 -0.45593999997E+02  0.45594000000E+02  0.51100000000E-03 0.  1.
    9900012    2    1    2    0    0  0.15073374301E+02 -0.25645013306E+00 -0.11108840645E+02  0.72461582297E+02  0.70000015636E+02 0.  0.
         24    2    3    3    0    0 -0.33276617331E+01 -0.23448040412E+00 -0.13208140690E+02  0.53941170025E+02  0.52192590753E+02 0.  0.
         12    1    1    2    0    0 -0.15073374301E+02  0.25645013306E+00  0.11108840645E+02  0.18726417703E+02  0.00000000000E+00 0. -1.
         11    1    3    3    0    0  0.18401036034E+02 -0.21969728934E-01  0.20993000454E+01  0.18520412272E+02  0.51100000000E-03 0.  1.
        -11    1    4    4    0    0 -0.84781671813E+01 -0.24724440662E+02 -0.11525349964E+01  0.26163058346E+02  0.51100000000E-03 0. -1.
         12    1    4    4    0    0  0.51505054483E+01  0.24489960258E+02 -0.12055605694E+02  0.27778111679E+02  0.00000000000E+00 0. -1.
</event>
<event>
 7    1  0.1302069E-013  0.7246163E+02  0.7816164E-02  0.1226708E+00
        -11   -1    0    0    0    0  0.00000000000E+00  0.00000000000E+00  0.45593999997E+02  0.45594000000E+02  0.51100000000E-03 0. -1.
         11   -1    0    0    0    0 -0.00000000000E+00 -0.00000000000E+00 -0.45593999997E+02  0.45594000000E+02  0.51100000000E-03 0.  1.
    9900012    2    1    2    0    0 -0.15751372272E+02 -0.50310571206E+01 -0.87897414138E+01  0.72461633072E+02  0.70000081780E+02 0.  0.
         12    1    1    2    0    0  0.15751372272E+02  0.50310571206E+01  0.87897414138E+01  0.18726366928E+02  0.00000000000E+00 0. -1.
         11    1    3    3    0    0  0.12062399563E+02 -0.10928582572E+02  0.98081846779E+01  0.19003575642E+02  0.51100000000E-03 0. -1.
        -11    1    3    3    0    0 -0.92414971389E+01  0.19083365194E+02 -0.21853794848E+02  0.30449440816E+02  0.51100000000E-03 0.  1.
        -12    1    3    3    0    0 -0.18572274696E+02 -0.13185839743E+02  0.32558687565E+01  0.23008616614E+02  0.00000000000E+00 0.  1.
</event>
<event>
 7    1  0.1342105E-013  0.7246160E+02  0.7816164E-02  0.1226708E+00
        -11   -1    0    0    0    0  0.00000000000E+00  0.00000000000E+00  0.45593999997E+02  0.45594000000E+02  0.51100000000E-03 0.  1.
         11   -1    0    0    0    0 -0.00000000000E+00 -0.00000000000E+00 -0.45593999997E+02  0.45594000000E+02  0.51100000000E-03 0. -1.
    9900012    2    1    2    0    0  0.13668786591E+02 -0.81772690110E+01  0.98475687875E+01  0.72461599748E+02  0.70000038369E+02 0.  0.
         12    1    1    2    0    0 -0.13668786591E+02  0.81772690110E+01 -0.98475687875E+01  0.18726400252E+02  0.00000000000E+00 0. -1.
         11    1    3    3    0    0  0.31001266676E+01  0.13044465611E+02 -0.82942742831E+01  0.15765907984E+02  0.51100000000E-03 0.  1.
        -11    1    3    3    0    0  0.11888723955E+02 -0.28507904644E+02 -0.59815367473E+01  0.31461423467E+02  0.51100000000E-03 0. -1.
        -12    1    3    3    0    0 -0.13200640310E+01  0.72861700224E+01  0.24123379818E+02  0.25234268297E+02  0.00000000000E+00 0.  1.
</event>
<event>
 7    1  0.1302069E-013  0.7246151E+02  0.7816164E-02  0.1226708E+00
        -11   -1    0    0    0    0  0.00000000000E+00  0.00000000000E+00  0.45593999997E+02  0.45594000000E+02  0.51100000000E-03 0.  1.
         11   -1    0    0    0    0 -0.00000000000E+00 -0.00000000000E+00 -0.45593999997E+02  0.45594000000E+02  0.51100000000E-03 0. -1.
    9900012    2    1    2    0    0 -0.14597023223E+02  0.11370251813E+02  0.28854541242E+01  0.72461506501E+02  0.69999916897E+02 0.  0.
         12    1    1    2    0    0  0.14597023223E+02 -0.11370251813E+02 -0.28854541242E+01  0.18726493499E+02  0.00000000000E+00 0. -1.
         11    1    3    3    0    0 -0.87655505560E+01  0.22694285159E+02 -0.17080250043E+02  0.29725416687E+02  0.51100000000E-03 0.  1.
        -11    1    3    3    0    0 -0.18753372370E+02 -0.14844802448E+02  0.15971772887E+02  0.28760296667E+02  0.51100000000E-03 0. -1.
        -12    1    3    3    0    0  0.12921899703E+02  0.35207691023E+01  0.39939312809E+01  0.13975793147E+02  0.00000000000E+00 0.  1.
</event>
<event>
 7    1  0.1302069E-013  0.7246157E+02  0.7816164E-02  0.1226708E+00
        -11   -1    0    0    0    0  0.00000000000E+00  0.00000000000E+00  0.45593999997E+02  0.45594000000E+02  0.51100000000E-03 0.  1.
         11   -1    0    0    0    0 -0.00000000000E+00 -0.00000000000E+00 -0.45593999997E+02  0.45594000000E+02  0.51100000000E-03 0. -1.
    9900012    2    1    2    0    0  0.37250403621E+01  0.10452124823E+01  0.18322408788E+02  0.72461573255E+02  0.70000003857E+02 0.  0.
         12    1    1    2    0    0 -0.37250403621E+01 -0.10452124823E+01 -0.18322408788E+02  0.18726426745E+02  0.00000000000E+00 0. -1.
         11    1    3    3    0    0  0.54177779217E+01  0.19095452323E+02 -0.10194599212E+02  0.22314086815E+02  0.51100000000E-03 0. -1.
        -11    1    3    3    0    0  0.17411698787E+02 -0.60143576636E+01  0.15566574212E+02  0.24117586648E+02  0.51100000000E-03 0.  1.
         12    1    3    3    0    0 -0.19104436346E+02 -0.12035882177E+02  0.12950433788E+02  0.26029899792E+02  0.00000000000E+00 0. -1.
</event>
<event>
 7    1  0.1302069E-013  0.7246157E+02  0.7816164E-02  0.1226708E+00
        -11   -1    0    0    0    0  0.00000000000E+00  0.00000000000E+00  0.45593999997E+02  0.45594000000E+02  0.51100000000E-03 0.  1.
         11   -1    0    0    0    0 -0.00000000000E+00 -0.00000000000E+00 -0.45593999997E+02  0.45594000000E+02  0.51100000000E-03 0. -1.
    9900012    2    1    2    0    0  0.45605330796E+01 -0.18136465448E+02  0.97437213027E+00  0.72461568360E+02  0.69999997480E+02 0.  0.
         12    1    1    2    0    0 -0.45605330796E+01  0.18136465448E+02 -0.97437213027E+00  0.18726431640E+02  0.00000000000E+00 0. -1.
         11    1    3    3    0    0  0.23493101431E+02 -0.32006867733E+02 -0.38451324901E+01  0.39889227130E+02  0.51100000000E-03 0. -1.
        -11    1    3    3    0    0 -0.17456581835E+02  0.61834647232E+01  0.11903759657E+02  0.22015153408E+02  0.51100000000E-03 0.  1.
         12    1    3    3    0    0 -0.14759865160E+01  0.76869375621E+01 -0.70842550364E+01  0.10557187822E+02  0.00000000000E+00 0. -1.
</event>
<event>
 7    1  0.1302069E-013  0.7246158E+02  0.7816164E-02  0.1226708E+00
        -11   -1    0    0    0    0  0.00000000000E+00  0.00000000000E+00  0.45593999997E+02  0.45594000000E+02  0.51100000000E-03 0.  1.
         11   -1    0    0    0    0 -0.00000000000E+00 -0.00000000000E+00 -0.45593999997E+02  0.45594000000E+02  0.51100000000E-03 0. -1.
    9900012    2    1    2    0    0 -0.14805389948E+02  0.26531336698E+01  0.11155275839E+02  0.72461578323E+02  0.70000010459E+02 0.  0.
         12    1    1    2    0    0  0.14805389948E+02 -0.26531336698E+01 -0.11155275839E+02  0.18726421677E+02  0.00000000000E+00 0. -1.
         11    1    3    3    0    0 -0.14529490396E+02  0.79201013573E+01 -0.12431804082E+02  0.20697435824E+02  0.51100000000E-03 0. -1.
        -11    1    3    3    0    0 -0.41699509886E+01 -0.25297621104E+02  0.14109258640E+02  0.29264813418E+02  0.51100000000E-03 0.  1.
         12    1    3    3    0    0  0.38940514369E+01  0.20030653416E+02  0.94778212810E+01  0.22499329081E+02  0.00000000000E+00 0. -1.
</event>
<event>
 7    1  0.1302069E-013  0.7246155E+02  0.7816164E-02  0.1226708E+00
        -11   -1    0    0    0    0  0.00000000000E+00  0.00000000000E+00  0.45593999997E+02  0.45594000000E+02  0.51100000000E-03 0.  1.
         11   -1    0    0    0    0 -0.00000000000E+00 -0.00000000000E+00 -0.45593999997E+02  0.45594000000E+02  0.51100000000E-03 0. -1.
    9900012    2    1    2    0    0 -0.79073922259E+01  0.97813613319E+01  0.13873651161E+02  0.72461546041E+02  0.69999968406E+02 0.  0.
         12    1    1    2    0    0  0.79073922259E+01 -0.97813613319E+01 -0.13873651161E+02  0.18726453959E+02  0.00000000000E+00 0. -1.
         11    1    3    3    0    0 -0.16406029124E+02 -0.15156090993E+02 -0.13879283126E+02  0.26296375913E+02  0.51100000000E-03 0. -1.
        -11    1    3    3    0    0  0.11979662181E+02  0.12868842061E+02  0.22348336645E+01  0.17723258270E+02  0.51100000000E-03 0.  1.
         12    1    3    3    0    0 -0.34810252823E+01  0.12068610264E+02  0.25518100623E+02  0.28441911858E+02  0.00000000000E+00 0. -1.
</event>
<event>
 7    1  0.1302069E-013  0.7246146E+02  0.7816164E-02  0.1226708E+00
        -11   -1    0    0    0    0  0.00000000000E+00  0.00000000000E+00  0.45593999997E+02  0.45594000000E+02  0.51100000000E-03 0.  1.
         11   -1    0    0    0    0 -0.00000000000E+00 -0.00000000000E+00 -0.45593999997E+02  0.45594000000E+02  0.51100000000E-03 0. -1.
    9900012    2    1    2    0    0  0.51408684151E+01 -0.75744097746E+01  0.16336552290E+02  0.72461463956E+02  0.69999861474E+02 0.  0.
         12    1    1    2    0    0 -0.51408684151E+01  0.75744097746E+01 -0.16336552290E+02  0.18726536044E+02  0.00000000000E+00 0. -1.
         11    1    3    3    0    0  0.12318851326E+02  0.23435382124E+02  0.36321554968E+01  0.26723843045E+02  0.51100000000E-03 0. -1.
        -11    1    3    3    0    0 -0.70746455717E+00 -0.29475788357E+02  0.20182622948E+02  0.35730391471E+02  0.51100000000E-03 0.  1.
        -12    1    3    3    0    0 -0.64705183537E+01 -0.15340035413E+01 -0.74782261548E+01  0.10007229439E+02  0.00000000000E+00 0.  1.
</event>
<event>
 7    1  0.1302069E-013  0.7246153E+02  0.7816164E-02  0.1226708E+00
        -11   -1    0    0    0    0  0.00000000000E+00  0.00000000000E+00  0.45593999997E+02  0.45594000000E+02  0.51100000000E-03 0. -1.
         11   -1    0    0    0    0 -0.00000000000E+00 -0.00000000000E+00 -0.45593999997E+02  0.45594000000E+02  0.51100000000E-03 0.  1.
    9900012    2    1    2    0    0 -0.65222140643E+01 -0.14761404061E+02 -0.94995892198E+01  0.72461534196E+02  0.69999952976E+02 0.  0.
         12    1    1    2    0    0  0.65222140643E+01  0.14761404061E+02  0.94995892198E+01  0.18726465804E+02  0.00000000000E+00 0. -1.
         11    1    3    3    0    0  0.31471713705E+01 -0.31527391387E+02  0.62455214460E+01  0.32293770819E+02  0.51100000000E-03 0. -1.
        -11    1    3    3    0    0 -0.21264576453E+02  0.11879869183E+02 -0.98839559922E+01  0.26286994690E+02  0.51100000000E-03 0.  1.
        -12    1    3    3    0    0  0.11595191018E+02  0.48861181426E+01 -0.58611546737E+01  0.13880768687E+02  0.00000000000E+00 0.  1.
</event>
<event>
 7    1  0.1302069E-013  0.7246158E+02  0.7816164E-02  0.1226708E+00
        -11   -1    0    0    0    0  0.00000000000E+00  0.00000000000E+00  0.45593999997E+02  0.45594000000E+02  0.51100000000E-03 0. -1.
         11   -1    0    0    0    0 -0.00000000000E+00 -0.00000000000E+00 -0.45593999997E+02  0.45594000000E+02  0.51100000000E-03 0.  1.
    9900012    2    1    2    0    0  0.11901546459E+01  0.16016545127E+02 -0.96297861674E+01  0.72461575688E+02  0.70000007026E+02 0.  0.
         12    1    1    2    0    0 -0.11901546459E+01 -0.16016545127E+02  0.96297861674E+01  0.18726424312E+02  0.00000000000E+00 0. -1.
         11    1    3    3    0    0  0.16096029379E+02  0.12716260882E+02  0.18848450880E+02  0.27857665973E+02  0.51100000000E-03 0. -1.
        -11    1    3    3    0    0 -0.49815109311E+01  0.95802602297E+01 -0.30794936116E+02  0.32633187522E+02  0.51100000000E-03 0.  1.
         12    1    3    3    0    0 -0.99243638024E+01 -0.62799759850E+01  0.23166990679E+01  0.11970722193E+02  0.00000000000E+00 0. -1.
</event>
<event>
 7    1  0.1302069E-013  0.7246157E+02  0.7816164E-02  0.1226708E+00
        -11   -1    0    0    0    0  0.00000000000E+00  0.00000000000E+00  0.45593999997E+02  0.45594000000E+02  0.51100000000E-03 0.  1.
         11   -1    0    0    0    0 -0.00000000000E+00 -0.00000000000E+00 -0.45593999997E+02  0.45594000000E+02  0.51100000000E-03 0. -1.
    9900012    2    1    2    0    0 -0.20463414736E+01 -0.17597802866E+01  0.18530914493E+02  0.72461571296E+02  0.70000001304E+02 0.  0.
         12    1    1    2    0    0  0.20463414736E+01  0.17597802866E+01 -0.18530914493E+02  0.18726428704E+02  0.00000000000E+00 0. -1.
         11    1    3    3    0    0 -0.19373190903E+02  0.10178169435E+02 -0.14235999928E+02  0.26107074769E+02  0.51100000000E-03 0. -1.
        -11    1    3    3    0    0  0.11996790289E+02  0.93155042720E+00  0.29764826380E+02  0.32105072078E+02  0.51100000000E-03 0.  1.
        -12    1    3    3    0    0  0.53300591400E+01 -0.12869500149E+02  0.30020880404E+01  0.14249424449E+02  0.00000000000E+00 0.  1.
</event>
<event>
 7    1  0.1302069E-013  0.7246151E+02  0.7816164E-02  0.1226708E+00
        -11   -1    0    0    0    0  0.00000000000E+00  0.00000000000E+00  0.45593999997E+02  0.45594000000E+02  0.51100000000E-03 0.  1.
         11   -1    0    0    0    0 -0.00000000000E+00 -0.00000000000E+00 -0.45593999997E+02  0.45594000000E+02  0.51100000000E-03 0. -1.
    9900012    2    1    2    0    0 -0.81621785618E+01  0.13373447961E+02  0.10257246753E+02  0.72461511269E+02  0.69999923109E+02 0.  0.
         12    1    1    2    0    0  0.81621785618E+01 -0.13373447961E+02 -0.10257246753E+02  0.18726488731E+02  0.00000000000E+00 0. -1.
         11    1    3    3    0    0 -0.20160767622E+02  0.61823227369E+01  0.29264332023E+01  0.21289473386E+02  0.51100000000E-03 0. -1.
        -11    1    3    3    0    0  0.22557346200E+02  0.12742486857E+02 -0.11925131595E+02  0.28520406776E+02  0.51100000000E-03 0.  1.
        -12    1    3    3    0    0 -0.10558757140E+02 -0.55513616329E+01  0.19255945146E+02  0.22651631106E+02  0.00000000000E+00 0.  1.
</event>
<event>
 7    1  0.1302069E-013  0.7246155E+02  0.7816164E-02  0.1226708E+00
        -11   -1    0    0    0    0  0.00000000000E+00  0.00000000000E+00  0.45593999997E+02  0.45594000000E+02  0.51100000000E-03 0. -1.
         11   -1    0    0    0    0 -0.00000000000E+00 -0.00000000000E+00 -0.45593999997E+02  0.45594000000E+02  0.51100000000E-03 0.  1.
    9900012    2    1    2    0    0  0.17826750565E+01  0.18539573482E+02 -0.19458371591E+01  0.72461548188E+02  0.69999971202E+02 0.  0.
         12    1    1    2    0    0 -0.17826750565E+01 -0.18539573482E+02  0.19458371591E+01  0.18726451812E+02  0.00000000000E+00 0. -1.
         11    1    3    3    0    0  0.72761686368E+01  0.21508841145E+02 -0.31938516148E+01  0.22929752852E+02  0.51100000000E-03 0. -1.
        -11    1    3    3    0    0 -0.12832001540E+01 -0.28880835402E+01  0.25106451561E+02  0.25304575464E+02  0.51100000000E-03 0.  1.
        -12    1    3    3    0    0 -0.42102934263E+01 -0.81184123683E-01 -0.23858437105E+02  0.24227219872E+02  0.00000000000E+00 0.  1.
</event>
<event>
 7    1  0.1302069E-013  0.7246154E+02  0.7816164E-02  0.1226708E+00
        -11   -1    0    0    0    0  0.00000000000E+00  0.00000000000E+00  0.45593999997E+02  0.45594000000E+02  0.51100000000E-03 0.  1.
         11   -1    0    0    0    0 -0.00000000000E+00 -0.00000000000E+00 -0.45593999997E+02  0.45594000000E+02  0.51100000000E-03 0. -1.
    9900012    2    1    2    0    0  0.60039233402E+00  0.18682958472E+02 -0.11255115758E+01  0.72461543194E+02  0.69999964696E+02 0.  0.
         12    1    1    2    0    0 -0.60039233402E+00 -0.18682958472E+02  0.11255115758E+01  0.18726456806E+02  0.00000000000E+00 0. -1.
         11    1    3    3    0    0  0.10860768621E+02 -0.11088419556E+02 -0.24750498299E+02  0.29214662579E+02  0.51100000000E-03 0. -1.
        -11    1    3    3    0    0 -0.10556052173E+02  0.92917422769E+01  0.16220171712E+02  0.21467665981E+02  0.51100000000E-03 0.  1.
         12    1    3    3    0    0  0.29567588631E+00  0.20479635751E+02  0.74048150108E+01  0.21779214634E+02  0.00000000000E+00 0. -1.
</event>
<event>
 7    1  0.1302069E-013  0.7246152E+02  0.7816164E-02  0.1226708E+00
        -11   -1    0    0    0    0  0.00000000000E+00  0.00000000000E+00  0.45593999997E+02  0.45594000000E+02  0.51100000000E-03 0.  1.
         11   -1    0    0    0    0 -0.00000000000E+00 -0.00000000000E+00 -0.45593999997E+02  0.45594000000E+02  0.51100000000E-03 0. -1.
    9900012    2    1    2    0    0 -0.37793237200E+01  0.13890161790E+02  0.11977521141E+02  0.72461524223E+02  0.69999939984E+02 0.  0.
         12    1    1    2    0    0  0.37793237200E+01 -0.13890161790E+02 -0.11977521141E+02  0.18726475777E+02  0.00000000000E+00 0. -1.
         11    1    3    3    0    0 -0.65831438081E-01  0.13542952086E+02  0.35935888898E+02  0.38403176902E+02  0.51100000000E-03 0. -1.
        -11    1    3    3    0    0 -0.68034146803E+01 -0.10251741343E+02 -0.17081970187E+02  0.21051801766E+02  0.51100000000E-03 0.  1.
         12    1    3    3    0    0  0.30899223984E+01  0.10598951047E+02 -0.68763975708E+01  0.13006545555E+02  0.00000000000E+00 0. -1.
</event>
<event>
 7    1  0.1302069E-013  0.7246150E+02  0.7816164E-02  0.1226708E+00
        -11   -1    0    0    0    0  0.00000000000E+00  0.00000000000E+00  0.45593999997E+02  0.45594000000E+02  0.51100000000E-03 0. -1.
         11   -1    0    0    0    0 -0.00000000000E+00 -0.00000000000E+00 -0.45593999997E+02  0.45594000000E+02  0.51100000000E-03 0.  1.
    9900012    2    1    2    0    0 -0.82901943159E+01 -0.71481481151E+01 -0.15194023161E+02  0.72461503182E+02  0.69999912573E+02 0.  0.
         12    1    1    2    0    0  0.82901943159E+01  0.71481481151E+01  0.15194023161E+02  0.18726496818E+02  0.00000000000E+00 0. -1.
         11    1    3    3    0    0 -0.70338253466E+01  0.17924630975E+02  0.87367991283E+01  0.21144709831E+02  0.51100000000E-03 0. -1.
        -11    1    3    3    0    0 -0.10004888417E+02 -0.25252524684E+02 -0.14589948137E+01  0.27201405502E+02  0.51100000000E-03 0.  1.
        -12    1    3    3    0    0  0.87485194474E+01  0.17974559421E+00 -0.22471827475E+02  0.24115387849E+02  0.00000000000E+00 0.  1.
</event>
<event>
 7    1  0.1302069E-013  0.7246159E+02  0.7816164E-02  0.1226708E+00
        -11   -1    0    0    0    0  0.00000000000E+00  0.00000000000E+00  0.45593999997E+02  0.45594000000E+02  0.51100000000E-03 0.  1.
         11   -1    0    0    0    0 -0.00000000000E+00 -0.00000000000E+00 -0.45593999997E+02  0.45594000000E+02  0.51100000000E-03 0. -1.
    9900012    2    1    2    0    0  0.78610001008E+01  0.16676129704E+02  0.32847834430E+01  0.72461590126E+02  0.70000025835E+02 0.  0.
         12    1    1    2    0    0 -0.78610001008E+01 -0.16676129704E+02 -0.32847834430E+01  0.18726409874E+02  0.00000000000E+00 0. -1.
         11    1    3    3    0    0 -0.92274326507E+01  0.53759071678E+01 -0.22043924746E+02  0.24494499580E+02  0.51100000000E-03 0. -1.
        -11    1    3    3    0    0  0.89095916689E+01  0.23391962234E+02  0.21183639591E+02  0.32791939672E+02  0.51100000000E-03 0.  1.
        -12    1    3    3    0    0  0.81788410827E+01 -0.12091739698E+02  0.41450685979E+01  0.15175150874E+02  0.00000000000E+00 0.  1.
</event>
<event>
 7    1  0.1302069E-013  0.7246163E+02  0.7816164E-02  0.1226708E+00
        -11   -1    0    0    0    0  0.00000000000E+00  0.00000000000E+00  0.45593999997E+02  0.45594000000E+02  0.51100000000E-03 0.  1.
         11   -1    0    0    0    0 -0.00000000000E+00 -0.00000000000E+00 -0.45593999997E+02  0.45594000000E+02  0.51100000000E-03 0. -1.
    9900012    2    1    2    0    0 -0.15837975375E+01  0.13600174119E+01  0.18609645061E+02  0.72461629521E+02  0.70000077154E+02 0.  0.
         12    1    1    2    0    0  0.15837975375E+01 -0.13600174119E+01 -0.18609645061E+02  0.18726370479E+02  0.00000000000E+00 0. -1.
         11    1    3    3    0    0  0.90924517490E+01  0.23200026771E+02  0.11047341162E+02  0.27257249825E+02  0.51100000000E-03 0.  1.
        -11    1    3    3    0    0 -0.20799452998E+02 -0.35089044439E+01  0.11305172702E+02  0.23931915625E+02  0.51100000000E-03 0. -1.
         12    1    3    3    0    0  0.10123203712E+02 -0.18331104915E+02 -0.37428688029E+01  0.21272464072E+02  0.00000000000E+00 0. -1.
</event>
<event>
 7    1  0.1302069E-013  0.7246155E+02  0.7816164E-02  0.1226708E+00
        -11   -1    0    0    0    0  0.00000000000E+00  0.00000000000E+00  0.45593999997E+02  0.45594000000E+02  0.51100000000E-03 0.  1.
         11   -1    0    0    0    0 -0.00000000000E+00 -0.00000000000E+00 -0.45593999997E+02  0.45594000000E+02  0.51100000000E-03 0. -1.
    9900012    2    1    2    0    0  0.42280889695E+01 -0.17357573972E+02 -0.56140675879E+01  0.72461551714E+02  0.69999975796E+02 0.  0.
         12    1    1    2    0    0 -0.42280889695E+01  0.17357573972E+02  0.56140675879E+01  0.18726448286E+02  0.00000000000E+00 0. -1.
         11    1    3    3    0    0 -0.78216416175E+01 -0.40427429565E+01 -0.26456564432E+02  0.27883178621E+02  0.51100000000E-03 0. -1.
        -11    1    3    3    0    0 -0.64133180920E+01 -0.15363322773E+02  0.19945371613E+02  0.25980380763E+02  0.51100000000E-03 0.  1.
         12    1    3    3    0    0  0.18463048679E+02  0.20484917577E+01  0.89712523167E+00  0.18597992329E+02  0.00000000000E+00 0. -1.
</event>
<event>
 7    1  0.1302069E-013  0.7246159E+02  0.7816164E-02  0.1226708E+00
        -11   -1    0    0    0    0  0.00000000000E+00  0.00000000000E+00  0.45593999997E+02  0.45594000000E+02  0.51100000000E-03 0.  1.
         11   -1    0    0    0    0 -0.00000000000E+00 -0.00000000000E+00 -0.45593999997E+02  0.45594000000E+02  0.51100000000E-03 0. -1.
    9900012    2    1    2    0    0 -0.11375285006E+02  0.12066013288E+02  0.87001510470E+01  0.72461590470E+02  0.70000026283E+02 0.  0.
         12    1    1    2    0    0  0.11375285006E+02 -0.12066013288E+02 -0.87001510470E+01  0.18726409530E+02  0.00000000000E+00 0. -1.
         11    1    3    3    0    0  0.63365861135E+01 -0.20569199881E+02 -0.55103197825E+00  0.21530163581E+02  0.51100000000E-03 0. -1.
        -11    1    3    3    0    0 -0.10895910683E+02  0.34939974095E+02 -0.30015046591E+01  0.36722359535E+02  0.51100000000E-03 0.  1.
        -12    1    3    3    0    0 -0.68159604363E+01 -0.23047609262E+01  0.12252687684E+02  0.14209067355E+02  0.00000000000E+00 0.  1.
</event>
<event>
 7    1  0.1302069E-013  0.7246159E+02  0.7816164E-02  0.1226708E+00
        -11   -1    0    0    0    0  0.00000000000E+00  0.00000000000E+00  0.45593999997E+02  0.45594000000E+02  0.51100000000E-03 0.  1.
         11   -1    0    0    0    0 -0.00000000000E+00 -0.00000000000E+00 -0.45593999997E+02  0.45594000000E+02  0.51100000000E-03 0. -1.
    9900012    2    1    2    0    0  0.48001430979E+01 -0.17444183596E+02 -0.48309054324E+01  0.72461586505E+02  0.70000021117E+02 0.  0.
         12    1    1    2    0    0 -0.48001430979E+01  0.17444183596E+02  0.48309054324E+01  0.18726413495E+02  0.00000000000E+00 0. -1.
         11    1    3    3    0    0  0.10588484377E+02  0.24045501446E+02  0.59354659200E+01  0.26935699307E+02  0.51100000000E-03 0. -1.
        -11    1    3    3    0    0  0.63354472852E+00 -0.35322561367E+02 -0.83982753375E+01  0.36312749130E+02  0.51100000000E-03 0.  1.
         12    1    3    3    0    0 -0.64218860078E+01 -0.61671236756E+01 -0.23680960150E+01  0.92131380682E+01  0.00000000000E+00 0. -1.
</event>
<event>
 7    1  0.1302069E-013  0.7246155E+02  0.7816164E-02  0.1226708E+00
        -11   -1    0    0    0    0  0.00000000000E+00  0.00000000000E+00  0.45593999997E+02  0.45594000000E+02  0.51100000000E-03 0.  1.
         11   -1    0    0    0    0 -0.00000000000E+00 -0.00000000000E+00 -0.45593999997E+02  0.45594000000E+02  0.51100000000E-03 0. -1.
    9900012    2    1    2    0    0  0.41411287281E+00 -0.18087491659E+02  0.48323026231E+01  0.72461548317E+02  0.69999971371E+02 0.  0.
         12    1    1    2    0    0 -0.41411287281E+00  0.18087491659E+02 -0.48323026231E+01  0.18726451683E+02  0.00000000000E+00 0. -1.
         11    1    3    3    0    0  0.39477158953E+01  0.16038017224E+02  0.23460286682E+02  0.28691244461E+02  0.51100000000E-03 0. -1.
        -11    1    3    3    0    0 -0.10071212246E+02 -0.28520182662E+02 -0.10752563483E+02  0.32100588108E+02  0.51100000000E-03 0.  1.
        -12    1    3    3    0    0  0.65376092235E+01 -0.56053262212E+01 -0.78754205760E+01  0.11669715749E+02  0.00000000000E+00 0.  1.
</event>
<event>
 7    1  0.1302069E-013  0.7246156E+02  0.7816164E-02  0.1226708E+00
        -11   -1    0    0    0    0  0.00000000000E+00  0.00000000000E+00  0.45593999997E+02  0.45594000000E+02  0.51100000000E-03 0. -1.
         11   -1    0    0    0    0 -0.00000000000E+00 -0.00000000000E+00 -0.45593999997E+02  0.45594000000E+02  0.51100000000E-03 0.  1.
    9900012    2    1    2    0    0  0.41710482239E-02 -0.10947117022E+02 -0.15193426587E+02  0.72461558802E+02  0.69999985029E+02 0.  0.
         12    1    1    2    0    0 -0.41710482239E-02  0.10947117022E+02  0.15193426587E+02  0.18726441198E+02  0.00000000000E+00 0. -1.
         11    1    3    3    0    0  0.12247453741E+02  0.12902542352E+02  0.11584250610E+02  0.21229003386E+02  0.51100000000E-03 0. -1.
        -11    1    3    3    0    0 -0.46674175010E+00 -0.19450025320E+02 -0.32136148319E+02  0.37566652258E+02  0.51100000000E-03 0.  1.
         12    1    3    3    0    0 -0.11776540943E+02 -0.43996340531E+01  0.53584711220E+01  0.13665903159E+02  0.00000000000E+00 0. -1.
</event>
<event>
 7    1  0.1302069E-013  0.7246163E+02  0.7816164E-02  0.1226708E+00
        -11   -1    0    0    0    0  0.00000000000E+00  0.00000000000E+00  0.45593999997E+02  0.45594000000E+02  0.51100000000E-03 0. -1.
         11   -1    0    0    0    0 -0.00000000000E+00 -0.00000000000E+00 -0.45593999997E+02  0.45594000000E+02  0.51100000000E-03 0.  1.
    9900012    2    1    2    0    0  0.16477173258E+02  0.33388190738E+01 -0.82481410453E+01  0.72461634039E+02  0.70000083039E+02 0.  0.
         12    1    1    2    0    0 -0.16477173258E+02 -0.33388190738E+01  0.82481410453E+01  0.18726365961E+02  0.00000000000E+00 0. -1.
         11    1    3    3    0    0  0.11649906377E+02 -0.12298973345E+01  0.22709591937E+02  0.25553053286E+02  0.51100000000E-03 0. -1.
        -11    1    3    3    0    0 -0.31622776269E+01  0.18612852435E+02 -0.19187443584E+02  0.26918325860E+02  0.51100000000E-03 0.  1.
         12    1    3    3    0    0  0.79895445088E+01 -0.14044136027E+02 -0.11770289398E+02  0.19990254894E+02  0.00000000000E+00 0. -1.
</event>
<event>
 7    1  0.1302069E-013  0.7246171E+02  0.7816164E-02  0.1226708E+00
        -11   -1    0    0    0    0  0.00000000000E+00  0.00000000000E+00  0.45593999997E+02  0.45594000000E+02  0.51100000000E-03 0.  1.
         11   -1    0    0    0    0 -0.00000000000E+00 -0.00000000000E+00 -0.45593999997E+02  0.45594000000E+02  0.51100000000E-03 0. -1.
    9900012    2    1    2    0    0  0.14307897685E+02  0.64065371281E+01  0.10242766487E+02  0.72461710474E+02  0.70000182609E+02 0.  0.
         12    1    1    2    0    0 -0.14307897685E+02 -0.64065371281E+01 -0.10242766487E+02  0.18726289526E+02  0.00000000000E+00 0. -1.
         11    1    3    3    0    0  0.64424825957E+01 -0.27168839192E+01 -0.92666658189E+00  0.70530668111E+01  0.51100000000E-03 0. -1.
        -11    1    3    3    0    0  0.21526277032E+01  0.25933888708E+02 -0.17731472514E+02  0.31489768296E+02  0.51100000000E-03 0.  1.
        -12    1    3    3    0    0  0.57127873857E+01 -0.16810467660E+02  0.28900905582E+02  0.33918875367E+02  0.00000000000E+00 0.  1.
</event>
<event>
 7    1  0.1302069E-013  0.7246156E+02  0.7816164E-02  0.1226708E+00
        -11   -1    0    0    0    0  0.00000000000E+00  0.00000000000E+00  0.45593999997E+02  0.45594000000E+02  0.51100000000E-03 0.  1.
         11   -1    0    0    0    0 -0.00000000000E+00 -0.00000000000E+00 -0.45593999997E+02  0.45594000000E+02  0.51100000000E-03 0. -1.
    9900012    2    1    2    0    0 -0.14872573948E+01  0.11926989263E+02  0.14360175948E+02  0.72461557180E+02  0.69999982916E+02 0.  0.
         12    1    1    2    0    0  0.14872573948E+01 -0.11926989263E+02 -0.14360175948E+02  0.18726442820E+02  0.00000000000E+00 0. -1.
         11    1    3    3    0    0  0.14258877485E+02  0.12932458674E+01  0.41128042377E+01  0.14896416715E+02  0.51100000000E-03 0. -1.
        -11    1    3    3    0    0 -0.27641673460E+02 -0.12280176601E+02  0.14198500491E+01  0.30280040018E+02  0.51100000000E-03 0.  1.
        -12    1    3    3    0    0  0.11895538581E+02  0.22913919996E+02  0.88275216612E+01  0.27285100447E+02  0.00000000000E+00 0.  1.
</event>
<event>
 7    1  0.1302069E-013  0.7246154E+02  0.7816164E-02  0.1226708E+00
        -11   -1    0    0    0    0  0.00000000000E+00  0.00000000000E+00  0.45593999997E+02  0.45594000000E+02  0.51100000000E-03 0. -1.
         11   -1    0    0    0    0 -0.00000000000E+00 -0.00000000000E+00 -0.45593999997E+02  0.45594000000E+02  0.51100000000E-03 0.  1.
    9900012    2    1    2    0    0 -0.14802470623E-01  0.12954011928E+02 -0.13523079156E+02  0.72461539737E+02  0.69999960193E+02 0.  0.
         12    1    1    2    0    0  0.14802470623E-01 -0.12954011928E+02  0.13523079156E+02  0.18726460263E+02  0.00000000000E+00 0. -1.
         11    1    3    3    0    0  0.39354339919E+01 -0.16941458582E+02  0.17401802213E+02  0.24603320510E+02  0.51100000000E-03 0.  1.
        -11    1    3    3    0    0 -0.11959240555E+02  0.21868983671E+02 -0.23821683246E+02  0.34478231892E+02  0.51100000000E-03 0. -1.
         12    1    3    3    0    0  0.80090040922E+01  0.80264868383E+01 -0.71031981229E+01  0.13379987335E+02  0.00000000000E+00 0. -1.
</event>
<event>
 7    1  0.1302069E-013  0.7246156E+02  0.7816164E-02  0.1226708E+00
        -11   -1    0    0    0    0  0.00000000000E+00  0.00000000000E+00  0.45593999997E+02  0.45594000000E+02  0.51100000000E-03 0.  1.
         11   -1    0    0    0    0 -0.00000000000E+00 -0.00000000000E+00 -0.45593999997E+02  0.45594000000E+02  0.51100000000E-03 0. -1.
    9900012    2    1    2    0    0  0.11009085543E+02  0.95137450269E+01  0.11788483071E+02  0.72461557678E+02  0.69999983564E+02 0.  0.
         12    1    1    2    0    0 -0.11009085543E+02 -0.95137450269E+01 -0.11788483071E+02  0.18726442322E+02  0.00000000000E+00 0. -1.
         11    1    3    3    0    0  0.20979990712E+02  0.23667138112E+02 -0.15918338564E+02  0.35407441867E+02  0.51100000000E-03 0. -1.
        -11    1    3    3    0    0 -0.26187514153E+00 -0.10256278704E+02  0.23745796186E+02  0.25867405517E+02  0.51100000000E-03 0.  1.
        -12    1    3    3    0    0 -0.97090300274E+01 -0.38971143816E+01  0.39610254494E+01  0.11186710293E+02  0.00000000000E+00 0.  1.
</event>
<event>
 7    1  0.1302069E-013  0.7246161E+02  0.7816164E-02  0.1226708E+00
        -11   -1    0    0    0    0  0.00000000000E+00  0.00000000000E+00  0.45593999997E+02  0.45594000000E+02  0.51100000000E-03 0.  1.
         11   -1    0    0    0    0 -0.00000000000E+00 -0.00000000000E+00 -0.45593999997E+02  0.45594000000E+02  0.51100000000E-03 0. -1.
    9900012    2    1    2    0    0  0.17309409231E+01  0.12286291542E+02  0.14025989634E+02  0.72461614829E+02  0.70000058015E+02 0.  0.
         12    1    1    2    0    0 -0.17309409231E+01 -0.12286291542E+02 -0.14025989634E+02  0.18726385171E+02  0.00000000000E+00 0. -1.
         11    1    3    3    0    0 -0.13447922992E+02 -0.53867878854E+00 -0.56621187074E+01  0.14601246390E+02  0.51100000000E-03 0. -1.
        -11    1    3    3    0    0 -0.11957664082E+01  0.10257279345E+02  0.34265173546E+02  0.35787480426E+02  0.51100000000E-03 0.  1.
        -12    1    3    3    0    0  0.16374630323E+02  0.25676909864E+01 -0.14577065204E+02  0.22072888012E+02  0.00000000000E+00 0.  1.
</event>
<event>
 7    1  0.1302069E-013  0.7246160E+02  0.7816164E-02  0.1226708E+00
        -11   -1    0    0    0    0  0.00000000000E+00  0.00000000000E+00  0.45593999997E+02  0.45594000000E+02  0.51100000000E-03 0. -1.
         11   -1    0    0    0    0 -0.00000000000E+00 -0.00000000000E+00 -0.45593999997E+02  0.45594000000E+02  0.51100000000E-03 0.  1.
    9900012    2    1    2    0    0 -0.70581391650E+01 -0.16952282824E+02  0.36716247385E+01  0.72461600196E+02  0.70000038952E+02 0.  0.
         12    1    1    2    0    0  0.70581391650E+01  0.16952282824E+02 -0.36716247385E+01  0.18726399804E+02  0.00000000000E+00 0. -1.
         11    1    3    3    0    0 -0.15253636219E+02  0.15997996937E+02  0.70750699168E+00  0.22115828954E+02  0.51100000000E-03 0. -1.
        -11    1    3    3    0    0 -0.38500511703E+01 -0.24725623352E+02  0.16881555938E+02  0.30185530894E+02  0.51100000000E-03 0.  1.
         12    1    3    3    0    0  0.12045548225E+02 -0.82246564087E+01 -0.13917438192E+02  0.20160240348E+02  0.00000000000E+00 0. -1.
</event>
<event>
 7    1  0.1302069E-013  0.7246158E+02  0.7816164E-02  0.1226708E+00
        -11   -1    0    0    0    0  0.00000000000E+00  0.00000000000E+00  0.45593999997E+02  0.45594000000E+02  0.51100000000E-03 0.  1.
         11   -1    0    0    0    0 -0.00000000000E+00 -0.00000000000E+00 -0.45593999997E+02  0.45594000000E+02  0.51100000000E-03 0. -1.
    9900012    2    1    2    0    0  0.15517866440E+02  0.10057044959E+02  0.29547335278E+01  0.72461580631E+02  0.70000013465E+02 0.  0.
         12    1    1    2    0    0 -0.15517866440E+02 -0.10057044959E+02 -0.29547335278E+01  0.18726419369E+02  0.00000000000E+00 0. -1.
         11    1    3    3    0    0 -0.88561311132E+01 -0.95323100714E+01  0.36941633984E+01  0.13525636291E+02  0.51100000000E-03 0. -1.
        -11    1    3    3    0    0 -0.44008071489E+00  0.26710050356E+02 -0.13730686333E+02  0.30035848723E+02  0.51100000000E-03 0.  1.
        -12    1    3    3    0    0  0.24814078269E+02 -0.71206953253E+01  0.12991256462E+02  0.28900095618E+02  0.00000000000E+00 0.  1.
</event>
<event>
 7    1  0.1302069E-013  0.7246145E+02  0.7816164E-02  0.1226708E+00
        -11   -1    0    0    0    0  0.00000000000E+00  0.00000000000E+00  0.45593999997E+02  0.45594000000E+02  0.51100000000E-03 0.  1.
         11   -1    0    0    0    0 -0.00000000000E+00 -0.00000000000E+00 -0.45593999997E+02  0.45594000000E+02  0.51100000000E-03 0. -1.
    9900012    2    1    2    0    0 -0.14846724905E+02 -0.52450589987E+01 -0.10136455348E+02  0.72461451697E+02  0.69999845505E+02 0.  0.
         12    1    1    2    0    0  0.14846724905E+02  0.52450589987E+01  0.10136455348E+02  0.18726548303E+02  0.00000000000E+00 0. -1.
         11    1    3    3    0    0  0.19125665318E+02 -0.58999091649E+01  0.57649351631E+01  0.20828693663E+02  0.51100000000E-03 0. -1.
        -11    1    3    3    0    0 -0.34313966957E+02  0.51966309833E+01  0.39949200671E+00  0.34707533707E+02  0.51100000000E-03 0.  1.
         12    1    3    3    0    0  0.34157673421E+00 -0.45417808171E+01 -0.16300882518E+02  0.16925224327E+02  0.00000000000E+00 0. -1.
</event>
<event>
 7    1  0.1302069E-013  0.7246148E+02  0.7816164E-02  0.1226708E+00
        -11   -1    0    0    0    0  0.00000000000E+00  0.00000000000E+00  0.45593999997E+02  0.45594000000E+02  0.51100000000E-03 0. -1.
         11   -1    0    0    0    0 -0.00000000000E+00 -0.00000000000E+00 -0.45593999997E+02  0.45594000000E+02  0.51100000000E-03 0.  1.
    9900012    2    1    2    0    0  0.63587141619E+01 -0.78835819775E+01 -0.15751137703E+02  0.72461482718E+02  0.69999885915E+02 0.  0.
         12    1    1    2    0    0 -0.63587141619E+01  0.78835819775E+01  0.15751137703E+02  0.18726517282E+02  0.00000000000E+00 0. -1.
         11    1    3    3    0    0 -0.96555356224E+01  0.20678736894E+02  0.26064834827E+01  0.22970269569E+02  0.51100000000E-03 0. -1.
        -11    1    3    3    0    0  0.12473783987E+02 -0.56080653475E+01 -0.22076624742E+02  0.25969656220E+02  0.51100000000E-03 0.  1.
         12    1    3    3    0    0  0.35404657969E+01 -0.22954253524E+02  0.37190035566E+01  0.23521556929E+02  0.00000000000E+00 0. -1.
</event>
<event>
 7    1  0.1302069E-013  0.7246155E+02  0.7816164E-02  0.1226708E+00
        -11   -1    0    0    0    0  0.00000000000E+00  0.00000000000E+00  0.45593999997E+02  0.45594000000E+02  0.51100000000E-03 0. -1.
         11   -1    0    0    0    0 -0.00000000000E+00 -0.00000000000E+00 -0.45593999997E+02  0.45594000000E+02  0.51100000000E-03 0.  1.
    9900012    2    1    2    0    0  0.73363703373E+01 -0.48021893128E+01 -0.16546794076E+02  0.72461554899E+02  0.69999979945E+02 0.  0.
         12    1    1    2    0    0 -0.73363703373E+01  0.48021893128E+01  0.16546794076E+02  0.18726445101E+02  0.00000000000E+00 0. -1.
         11    1    3    3    0    0 -0.59299950605E+00 -0.21673273163E+02 -0.20903822388E+02  0.30117307461E+02  0.51100000000E-03 0. -1.
        -11    1    3    3    0    0 -0.55341678016E+01  0.99515465748E+01  0.18437591118E+02  0.21670372839E+02  0.51100000000E-03 0.  1.
        -12    1    3    3    0    0  0.13463537645E+02  0.69195372755E+01 -0.14080562805E+02  0.20673874599E+02  0.00000000000E+00 0.  1.
</event>
<event>
 7    1  0.1302069E-013  0.7246158E+02  0.7816164E-02  0.1226708E+00
        -11   -1    0    0    0    0  0.00000000000E+00  0.00000000000E+00  0.45593999997E+02  0.45594000000E+02  0.51100000000E-03 0.  1.
         11   -1    0    0    0    0 -0.00000000000E+00 -0.00000000000E+00 -0.45593999997E+02  0.45594000000E+02  0.51100000000E-03 0. -1.
    9900012    2    1    2    0    0 -0.37213088733E+01  0.79064650183E+01  0.16562560670E+02  0.72461581636E+02  0.70000014774E+02 0.  0.
         12    1    1    2    0    0  0.37213088733E+01 -0.79064650183E+01 -0.16562560670E+02  0.18726418364E+02  0.00000000000E+00 0. -1.
         11    1    3    3    0    0 -0.90695466367E+01 -0.22099472392E+02  0.84346382000E+01  0.25333505048E+02  0.51100000000E-03 0. -1.
        -11    1    3    3    0    0  0.16401365583E+02  0.26483305537E+01  0.55205290042E+01  0.17506989703E+02  0.51100000000E-03 0.  1.
         12    1    3    3    0    0 -0.11053127820E+02  0.27357606857E+02  0.26073934655E+01  0.29621086884E+02  0.00000000000E+00 0. -1.
</event>
<event>
 7    1  0.1302069E-013  0.7246155E+02  0.7816164E-02  0.1226708E+00
        -11   -1    0    0    0    0  0.00000000000E+00  0.00000000000E+00  0.45593999997E+02  0.45594000000E+02  0.51100000000E-03 0.  1.
         11   -1    0    0    0    0 -0.00000000000E+00 -0.00000000000E+00 -0.45593999997E+02  0.45594000000E+02  0.51100000000E-03 0. -1.
    9900012    2    1    2    0    0 -0.11865033901E+01 -0.17628416126E+02  0.62057194465E+01  0.72461553481E+02  0.69999978097E+02 0.  0.
         12    1    1    2    0    0  0.11865033901E+01  0.17628416126E+02 -0.62057194465E+01  0.18726446519E+02  0.00000000000E+00 0. -1.
         11    1    3    3    0    0  0.31623952929E+01  0.13650682512E+01 -0.74861210190E+01  0.82405196130E+01  0.51100000000E-03 0. -1.
        -11    1    3    3    0    0 -0.29166724458E+02  0.32621726534E+01  0.50023098413E+01  0.29771843914E+02  0.51100000000E-03 0.  1.
        -12    1    3    3    0    0  0.24817825775E+02 -0.22255657030E+02  0.86895306242E+01  0.34449189954E+02  0.00000000000E+00 0.  1.
</event>
<event>
 7    1  0.1302069E-013  0.7246165E+02  0.7816164E-02  0.1226708E+00
        -11   -1    0    0    0    0  0.00000000000E+00  0.00000000000E+00  0.45593999997E+02  0.45594000000E+02  0.51100000000E-03 0. -1.
         11   -1    0    0    0    0 -0.00000000000E+00 -0.00000000000E+00 -0.45593999997E+02  0.45594000000E+02  0.51100000000E-03 0.  1.
    9900012    2    1    2    0    0  0.16292129291E+02 -0.54109969043E+01 -0.74808991964E+01  0.72461649125E+02  0.70000102691E+02 0.  0.
         12    1    1    2    0    0 -0.16292129291E+02  0.54109969043E+01  0.74808991964E+01  0.18726350875E+02  0.00000000000E+00 0. -1.
         11    1    3    3    0    0 -0.17553487186E+02 -0.16015695300E+02  0.73624808837E+01  0.24876364955E+02  0.51100000000E-03 0. -1.
        -11    1    3    3    0    0  0.26516444771E+02 -0.57725621377E+01 -0.10699042474E+02  0.29170427269E+02  0.51100000000E-03 0.  1.
         12    1    3    3    0    0  0.73291717061E+01  0.16377260534E+02 -0.41443376058E+01  0.18414856901E+02  0.00000000000E+00 0. -1.
</event>
<event>
 7    1  0.1302069E-013  0.7246157E+02  0.7816164E-02  0.1226708E+00
        -11   -1    0    0    0    0  0.00000000000E+00  0.00000000000E+00  0.45593999997E+02  0.45594000000E+02  0.51100000000E-03 0.  1.
         11   -1    0    0    0    0 -0.00000000000E+00 -0.00000000000E+00 -0.45593999997E+02  0.45594000000E+02  0.51100000000E-03 0. -1.
    9900012    2    1    2    0    0 -0.99686345883E+01  0.15268030516E+02 -0.42652801586E+01  0.72461573586E+02  0.70000004289E+02 0.  0.
         12    1    1    2    0    0  0.99686345883E+01 -0.15268030516E+02  0.42652801586E+01  0.18726426414E+02  0.00000000000E+00 0. -1.
         11    1    3    3    0    0  0.95416603703E+01 -0.68243026888E+01 -0.19036086127E+02  0.22360388304E+02  0.51100000000E-03 0. -1.
        -11    1    3    3    0    0 -0.17010649766E+01  0.90704041818E+01  0.24356766492E+02  0.26046457116E+02  0.51100000000E-03 0.  1.
         12    1    3    3    0    0 -0.17809229982E+02  0.13021929023E+02 -0.95859605238E+01  0.24054728167E+02  0.00000000000E+00 0. -1.
</event>
<event>
 7    1  0.1302069E-013  0.7246155E+02  0.7816164E-02  0.1226708E+00
        -11   -1    0    0    0    0  0.00000000000E+00  0.00000000000E+00  0.45593999997E+02  0.45594000000E+02  0.51100000000E-03 0. -1.
         11   -1    0    0    0    0 -0.00000000000E+00 -0.00000000000E+00 -0.45593999997E+02  0.45594000000E+02  0.51100000000E-03 0.  1.
    9900012    2    1    2    0    0  0.16305963428E+02 -0.46346296683E+01 -0.79571182683E+01  0.72461549012E+02  0.69999972276E+02 0.  0.
         12    1    1    2    0    0 -0.16305963428E+02  0.46346296683E+01  0.79571182683E+01  0.18726450988E+02  0.00000000000E+00 0. -1.
         11    1    3    3    0    0 -0.90111893183E+01 -0.20220360789E+01  0.17948333533E+02  0.20184965685E+02  0.51100000000E-03 0. -1.
        -11    1    3    3    0    0  0.40241760574E+01  0.16184922981E+02 -0.66130073108E+01  0.17940947322E+02  0.51100000000E-03 0.  1.
         12    1    3    3    0    0  0.21292976688E+02 -0.18797516571E+02 -0.19292444490E+02  0.34335636005E+02  0.00000000000E+00 0. -1.
</event>
<event>
 7    1  0.1302069E-013  0.7246163E+02  0.7816164E-02  0.1226708E+00
        -11   -1    0    0    0    0  0.00000000000E+00  0.00000000000E+00  0.45593999997E+02  0.45594000000E+02  0.51100000000E-03 0.  1.
         11   -1    0    0    0    0 -0.00000000000E+00 -0.00000000000E+00 -0.45593999997E+02  0.45594000000E+02  0.51100000000E-03 0. -1.
    9900012    2    1    2    0    0 -0.15019058502E+02 -0.10654823466E+02  0.34028858849E+01  0.72461627854E+02  0.70000074982E+02 0.  0.
         12    1    1    2    0    0  0.15019058502E+02  0.10654823466E+02 -0.34028858849E+01  0.18726372146E+02  0.00000000000E+00 0. -1.
         11    1    3    3    0    0 -0.27430239441E+02  0.15272401492E+02  0.12920899042E-01  0.31395293442E+02  0.51100000000E-03 0.  1.
        -11    1    3    3    0    0  0.10827312058E+02 -0.25645900734E+02 -0.84699512228E+01  0.29097817527E+02  0.51100000000E-03 0. -1.
        -12    1    3    3    0    0  0.15838688803E+01 -0.28132422376E+00  0.11859916209E+02  0.11968516885E+02  0.00000000000E+00 0.  1.
</event>
<event>
 7    1  0.1302069E-013  0.7246155E+02  0.7816164E-02  0.1226708E+00
        -11   -1    0    0    0    0  0.00000000000E+00  0.00000000000E+00  0.45593999997E+02  0.45594000000E+02  0.51100000000E-03 0.  1.
         11   -1    0    0    0    0 -0.00000000000E+00 -0.00000000000E+00 -0.45593999997E+02  0.45594000000E+02  0.51100000000E-03 0. -1.
    9900012    2    1    2    0    0 -0.13838282151E+02 -0.12537738891E+02 -0.14096554068E+01  0.72461546044E+02  0.69999968410E+02 0.  0.
         12    1    1    2    0    0  0.13838282151E+02  0.12537738891E+02  0.14096554068E+01  0.18726453956E+02  0.00000000000E+00 0. -1.
         11    1    3    3    0    0 -0.25194189964E+02 -0.15321028480E+02  0.38213060317E+01  0.29733541694E+02  0.51100000000E-03 0. -1.
        -11    1    3    3    0    0  0.15271806408E+02 -0.28803002537E+01 -0.20648095551E+02  0.25843143203E+02  0.51100000000E-03 0.  1.
        -12    1    3    3    0    0 -0.39158985945E+01  0.56635898429E+01  0.15417134112E+02  0.16884861147E+02  0.00000000000E+00 0.  1.
</event>
<event>
 8    1  0.1302069E-013  0.7246158E+02  0.7816164E-02  0.1226708E+00
        -11   -1    0    0    0    0  0.00000000000E+00  0.00000000000E+00  0.45593999997E+02  0.45594000000E+02  0.51100000000E-03 0.  1.
         11   -1    0    0    0    0 -0.00000000000E+00 -0.00000000000E+00 -0.45593999997E+02  0.45594000000E+02  0.51100000000E-03 0. -1.
    9900012    2    1    2    0    0  0.94577743022E+01  0.62917477135E+01  0.14887686381E+02  0.72461580432E+02  0.70000013207E+02 0.  0.
        -24    2    3    3    0    0  0.38546161053E+00 -0.34633136121E+01  0.25233982690E+02  0.55594039811E+02  0.49414575362E+02 0.  0.
         12    1    1    2    0    0 -0.94577743022E+01 -0.62917477135E+01 -0.14887686381E+02  0.18726419568E+02  0.00000000000E+00 0. -1.
         11    1    4    4    0    0 -0.20329975578E+02 -0.12991692133E+02  0.21835453613E+02  0.32540421114E+02  0.51100000000E-03 0.  1.
        -11    1    3    3    0    0  0.90723126917E+01  0.97550613256E+01 -0.10346296309E+02  0.16867540622E+02  0.51100000000E-03 0. -1.
        -12    1    4    4    0    0  0.20715437189E+02  0.95283785209E+01  0.33985290769E+01  0.23053618697E+02  0.00000000000E+00 0.  1.
</event>
<event>
 7    1  0.1302069E-013  0.7246168E+02  0.7816164E-02  0.1226708E+00
        -11   -1    0    0    0    0  0.00000000000E+00  0.00000000000E+00  0.45593999997E+02  0.45594000000E+02  0.51100000000E-03 0.  1.
         11   -1    0    0    0    0 -0.00000000000E+00 -0.00000000000E+00 -0.45593999997E+02  0.45594000000E+02  0.51100000000E-03 0. -1.
    9900012    2    1    2    0    0  0.49899212778E+01 -0.64219693488E+01  0.16868138939E+02  0.72461678526E+02  0.70000140992E+02 0.  0.
         12    1    1    2    0    0 -0.49899212778E+01  0.64219693488E+01 -0.16868138939E+02  0.18726321474E+02  0.00000000000E+00 0. -1.
         11    1    3    3    0    0  0.48402888274E+01 -0.87677380937E+01 -0.77692275843E+01  0.12675272176E+02  0.51100000000E-03 0. -1.
        -11    1    3    3    0    0 -0.25571611542E+02  0.98767123232E+01  0.15374413999E+02  0.31429752930E+02  0.51100000000E-03 0.  1.
        -12    1    3    3    0    0  0.25721243993E+02 -0.75309435783E+01  0.92629525241E+01  0.28356653420E+02  0.00000000000E+00 0.  1.
</event>
<event>
 7    1  0.1302069E-013  0.7246171E+02  0.7816164E-02  0.1226708E+00
        -11   -1    0    0    0    0  0.00000000000E+00  0.00000000000E+00  0.45593999997E+02  0.45594000000E+02  0.51100000000E-03 0.  1.
         11   -1    0    0    0    0 -0.00000000000E+00 -0.00000000000E+00 -0.45593999997E+02  0.45594000000E+02  0.51100000000E-03 0. -1.
    9900012    2    1    2    0    0  0.51037054125E+01  0.56852782205E+01  0.17096895635E+02  0.72461707315E+02  0.70000178495E+02 0.  0.
         12    1    1    2    0    0 -0.51037054125E+01 -0.56852782205E+01 -0.17096895635E+02  0.18726292685E+02  0.00000000000E+00 0. -1.
         11    1    3    3    0    0  0.53130249586E+01 -0.16147877320E+02 -0.12891534432E+02  0.21334803407E+02  0.51100000000E-03 0. -1.
        -11    1    3    3    0    0 -0.20622944705E+01 -0.45533704030E+01  0.23317378133E+02  0.23847145820E+02  0.51100000000E-03 0.  1.
        -12    1    3    3    0    0  0.18529749245E+01  0.26386525943E+02  0.66710519338E+01  0.27279758088E+02  0.00000000000E+00 0.  1.
</event>
<event>
 7    1  0.1302069E-013  0.7246158E+02  0.7816164E-02  0.1226708E+00
        -11   -1    0    0    0    0  0.00000000000E+00  0.00000000000E+00  0.45593999997E+02  0.45594000000E+02  0.51100000000E-03 0. -1.
         11   -1    0    0    0    0 -0.00000000000E+00 -0.00000000000E+00 -0.45593999997E+02  0.45594000000E+02  0.51100000000E-03 0.  1.
    9900012    2    1    2    0    0  0.11088388036E+02 -0.13282192913E+02 -0.71630984882E+01  0.72461575414E+02  0.70000006670E+02 0.  0.
         12    1    1    2    0    0 -0.11088388036E+02  0.13282192913E+02  0.71630984882E+01  0.18726424586E+02  0.00000000000E+00 0. -1.
         11    1    3    3    0    0 -0.26630438449E+02  0.45826948420E+01  0.63620143845E+01  0.27760701924E+02  0.51100000000E-03 0. -1.
        -11    1    3    3    0    0  0.22558589629E+02 -0.15038099489E+02 -0.98688864208E+01  0.28851851270E+02  0.51100000000E-03 0.  1.
         12    1    3    3    0    0  0.15160236857E+02 -0.28267882654E+01 -0.36562264520E+01  0.15849022220E+02  0.00000000000E+00 0. -1.
</event>
<event>
 7    1  0.1302069E-013  0.7246158E+02  0.7816164E-02  0.1226708E+00
        -11   -1    0    0    0    0  0.00000000000E+00  0.00000000000E+00  0.45593999997E+02  0.45594000000E+02  0.51100000000E-03 0.  1.
         11   -1    0    0    0    0 -0.00000000000E+00 -0.00000000000E+00 -0.45593999997E+02  0.45594000000E+02  0.51100000000E-03 0. -1.
    9900012    2    1    2    0    0  0.71705332688E+01  0.16794777025E+02 -0.41470093948E+01  0.72461580972E+02  0.70000013910E+02 0.  0.
         12    1    1    2    0    0 -0.71705332688E+01 -0.16794777025E+02  0.41470093948E+01  0.18726419028E+02  0.00000000000E+00 0. -1.
         11    1    3    3    0    0 -0.15075861136E+02  0.28417955000E+02 -0.11497939052E+02  0.34162323663E+02  0.51100000000E-03 0. -1.
        -11    1    3    3    0    0  0.26825896465E+02 -0.13451784400E+02  0.69754010673E+00  0.30017757863E+02  0.51100000000E-03 0.  1.
        -12    1    3    3    0    0 -0.45795020596E+01  0.18286064249E+01  0.66533895501E+01  0.82814994461E+01  0.00000000000E+00 0.  1.
</event>
<event>
 7    1  0.1302069E-013  0.7246159E+02  0.7816164E-02  0.1226708E+00
        -11   -1    0    0    0    0  0.00000000000E+00  0.00000000000E+00  0.45593999997E+02  0.45594000000E+02  0.51100000000E-03 0.  1.
         11   -1    0    0    0    0 -0.00000000000E+00 -0.00000000000E+00 -0.45593999997E+02  0.45594000000E+02  0.51100000000E-03 0. -1.
    9900012    2    1    2    0    0 -0.52538091939E+01 -0.11689050043E+02  0.13654381573E+02  0.72461587154E+02  0.70000021963E+02 0.  0.
         12    1    1    2    0    0  0.52538091939E+01  0.11689050043E+02 -0.13654381573E+02  0.18726412846E+02  0.00000000000E+00 0. -1.
         11    1    3    3    0    0 -0.20565374062E+01 -0.36774205701E+02 -0.55284191988E+01  0.37244260902E+02  0.51100000000E-03 0. -1.
        -11    1    3    3    0    0 -0.87596611546E+01  0.18604482296E+02  0.16174871485E+02  0.26162662190E+02  0.51100000000E-03 0.  1.
         12    1    3    3    0    0  0.55623893669E+01  0.64806733616E+01  0.30079292866E+01  0.90546640624E+01  0.00000000000E+00 0. -1.
</event>
<event>
 7    1  0.1302069E-013  0.7246157E+02  0.7816164E-02  0.1226708E+00
        -11   -1    0    0    0    0  0.00000000000E+00  0.00000000000E+00  0.45593999997E+02  0.45594000000E+02  0.51100000000E-03 0. -1.
         11   -1    0    0    0    0 -0.00000000000E+00 -0.00000000000E+00 -0.45593999997E+02  0.45594000000E+02  0.51100000000E-03 0.  1.
    9900012    2    1    2    0    0 -0.67245995945E+01  0.17433320540E+02 -0.12403076924E+01  0.72461567666E+02  0.69999996577E+02 0.  0.
         12    1    1    2    0    0  0.67245995945E+01 -0.17433320540E+02  0.12403076924E+01  0.18726432334E+02  0.00000000000E+00 0. -1.
         11    1    3    3    0    0 -0.60787263869E+01 -0.95918044602E+01  0.17117846307E+02  0.20542012797E+02  0.51100000000E-03 0. -1.
        -11    1    3    3    0    0  0.15109484808E+02  0.11431111951E+02 -0.22451144071E+02  0.29377214333E+02  0.51100000000E-03 0.  1.
         12    1    3    3    0    0 -0.15755358015E+02  0.15594013050E+02  0.40929900716E+01  0.22542340537E+02  0.00000000000E+00 0. -1.
</event>
<event>
 7    1  0.1302069E-013  0.7246107E+02  0.7816164E-02  0.1226709E+00
        -11   -1    0    0    0    0  0.00000000000E+00  0.00000000000E+00  0.45593999997E+02  0.45594000000E+02  0.51100000000E-03 0.  1.
         11   -1    0    0    0    0 -0.00000000000E+00 -0.00000000000E+00 -0.45593999997E+02  0.45594000000E+02  0.51100000000E-03 0. -1.
    9900012    2    1    2    0    0  0.17171519552E+02 -0.54812873061E+01  0.50786130486E+01  0.72461070066E+02  0.69999348357E+02 0.  0.
         12    1    1    2    0    0 -0.17171519552E+02  0.54812873061E+01 -0.50786130486E+01  0.18726929934E+02  0.00000000000E+00 0. -1.
         11    1    3    3    0    0  0.24092136194E+01  0.29649732388E+02  0.11926975903E+02  0.32049394618E+02  0.51100000000E-03 0. -1.
        -11    1    3    3    0    0  0.76570670527E+01 -0.11169095860E+02  0.24181475627E+01  0.13755973832E+02  0.51100000000E-03 0.  1.
         12    1    3    3    0    0  0.71052388794E+01 -0.23961923834E+02 -0.92665104171E+01  0.26655701616E+02  0.00000000000E+00 0. -1.
</event>
<event>
 7    1  0.1302069E-013  0.7246155E+02  0.7816164E-02  0.1226708E+00
        -11   -1    0    0    0    0  0.00000000000E+00  0.00000000000E+00  0.45593999997E+02  0.45594000000E+02  0.51100000000E-03 0. -1.
         11   -1    0    0    0    0 -0.00000000000E+00 -0.00000000000E+00 -0.45593999997E+02  0.45594000000E+02  0.51100000000E-03 0.  1.
    9900012    2    1    2    0    0 -0.13177720878E+02 -0.13013814105E+02 -0.27691371876E+01  0.72461553304E+02  0.69999977866E+02 0.  0.
         12    1    1    2    0    0  0.13177720878E+02  0.13013814105E+02  0.27691371876E+01  0.18726446696E+02  0.00000000000E+00 0. -1.
         11    1    3    3    0    0  0.37389621791E+01 -0.12056701429E+02  0.54528096453E+01  0.13750528020E+02  0.51100000000E-03 0. -1.
        -11    1    3    3    0    0 -0.11456719442E+02  0.23395291336E+02  0.99009951866E+01  0.27868006442E+02  0.51100000000E-03 0.  1.
        -12    1    3    3    0    0 -0.54599636148E+01 -0.24352404012E+02 -0.18122942019E+02  0.30843018842E+02  0.00000000000E+00 0.  1.
</event>
<event>
 7    1  0.1302069E-013  0.7246190E+02  0.7816164E-02  0.1226707E+00
        -11   -1    0    0    0    0  0.00000000000E+00  0.00000000000E+00  0.45593999997E+02  0.45594000000E+02  0.51100000000E-03 0. -1.
         11   -1    0    0    0    0 -0.00000000000E+00 -0.00000000000E+00 -0.45593999997E+02  0.45594000000E+02  0.51100000000E-03 0.  1.
    9900012    2    1    2    0    0  0.10912768894E+02 -0.24099832540E+01 -0.15025653608E+02  0.72461900284E+02  0.70000429871E+02 0.  0.
         12    1    1    2    0    0 -0.10912768894E+02  0.24099832540E+01  0.15025653608E+02  0.18726099716E+02  0.00000000000E+00 0. -1.
         11    1    3    3    0    0  0.15574774417E+02 -0.16249512835E+02  0.74320979577E+01  0.23703509146E+02  0.51100000000E-03 0. -1.
        -11    1    3    3    0    0 -0.14614533940E+02  0.49560314763E+01 -0.29779660803E+02  0.33540647699E+02  0.51100000000E-03 0.  1.
        -12    1    3    3    0    0  0.99525284179E+01  0.88834981051E+01  0.73219092372E+01  0.15217743439E+02  0.00000000000E+00 0.  1.
</event>
<event>
 7    1  0.1302069E-013  0.7246155E+02  0.7816164E-02  0.1226708E+00
        -11   -1    0    0    0    0  0.00000000000E+00  0.00000000000E+00  0.45593999997E+02  0.45594000000E+02  0.51100000000E-03 0. -1.
         11   -1    0    0    0    0 -0.00000000000E+00 -0.00000000000E+00 -0.45593999997E+02  0.45594000000E+02  0.51100000000E-03 0.  1.
    9900012    2    1    2    0    0 -0.13337067333E+02  0.12728638562E+02  0.32839228969E+01  0.72461554681E+02  0.69999979661E+02 0.  0.
         12    1    1    2    0    0  0.13337067333E+02 -0.12728638562E+02 -0.32839228969E+01  0.18726445319E+02  0.00000000000E+00 0. -1.
         11    1    3    3    0    0 -0.10428711499E+02  0.31030116899E+02  0.14675672974E+02  0.35874803913E+02  0.51100000000E-03 0. -1.
        -11    1    3    3    0    0  0.45636605416E+00 -0.17436052920E+02  0.63092151303E+01  0.18548056697E+02  0.51100000000E-03 0.  1.
        -12    1    3    3    0    0 -0.33647218876E+01 -0.86542541696E+00 -0.17700965207E+02  0.18038694071E+02  0.00000000000E+00 0.  1.
</event>
<event>
 7    1  0.1302069E-013  0.7246145E+02  0.7816164E-02  0.1226708E+00
        -11   -1    0    0    0    0  0.00000000000E+00  0.00000000000E+00  0.45593999997E+02  0.45594000000E+02  0.51100000000E-03 0. -1.
         11   -1    0    0    0    0 -0.00000000000E+00 -0.00000000000E+00 -0.45593999997E+02  0.45594000000E+02  0.51100000000E-03 0.  1.
    9900012    2    1    2    0    0 -0.11203681643E+02 -0.71728319721E+01 -0.13179969874E+02  0.72461451820E+02  0.69999845665E+02 0.  0.
         12    1    1    2    0    0  0.11203681643E+02  0.71728319721E+01  0.13179969874E+02  0.18726548180E+02  0.00000000000E+00 0. -1.
         11    1    3    3    0    0  0.89751467494E+01  0.11128679067E+01  0.20159989203E+02  0.22095630769E+02  0.51100000000E-03 0. -1.
        -11    1    3    3    0    0 -0.22993875683E+02  0.30758399752E+01 -0.30501870819E+02  0.38321576614E+02  0.51100000000E-03 0.  1.
         12    1    3    3    0    0  0.28150472904E+01 -0.11361539854E+02 -0.28380882584E+01  0.12044244437E+02  0.00000000000E+00 0. -1.
</event>
<event>
 7    1  0.1302069E-013  0.7246157E+02  0.7816164E-02  0.1226708E+00
        -11   -1    0    0    0    0  0.00000000000E+00  0.00000000000E+00  0.45593999997E+02  0.45594000000E+02  0.51100000000E-03 0. -1.
         11   -1    0    0    0    0 -0.00000000000E+00 -0.00000000000E+00 -0.45593999997E+02  0.45594000000E+02  0.51100000000E-03 0.  1.
    9900012    2    1    2    0    0 -0.24850871897E+01  0.33063522452E+01  0.18263936592E+02  0.72461574731E+02  0.70000005780E+02 0.  0.
         12    1    1    2    0    0  0.24850871897E+01 -0.33063522452E+01 -0.18263936592E+02  0.18726425269E+02  0.00000000000E+00 0. -1.
         11    1    3    3    0    0 -0.12705214609E+02 -0.15503585759E+02  0.73617069907E+01  0.21353650266E+02  0.51100000000E-03 0.  1.
        -11    1    3    3    0    0 -0.10138245089E+02  0.24751716989E+02  0.13106208817E+02  0.29785973497E+02  0.51100000000E-03 0. -1.
        -12    1    3    3    0    0  0.20358372508E+02 -0.59417789850E+01 -0.22039792155E+01  0.21321950968E+02  0.00000000000E+00 0.  1.
</event>
<event>
 7    1  0.1302069E-013  0.7246153E+02  0.7816164E-02  0.1226708E+00
        -11   -1    0    0    0    0  0.00000000000E+00  0.00000000000E+00  0.45593999997E+02  0.45594000000E+02  0.51100000000E-03 0. -1.
         11   -1    0    0    0    0 -0.00000000000E+00 -0.00000000000E+00 -0.45593999997E+02  0.45594000000E+02  0.51100000000E-03 0.  1.
    9900012    2    1    2    0    0  0.70772217769E+01 -0.14474630731E+02  0.95435105796E+01  0.72461532179E+02  0.69999950348E+02 0.  0.
         12    1    1    2    0    0 -0.70772217769E+01  0.14474630731E+02 -0.95435105796E+01  0.18726467821E+02  0.00000000000E+00 0. -1.
         11    1    3    3    0    0  0.89156483441E+01  0.15221248056E+02  0.29277235966E+02  0.34180867804E+02  0.51100000000E-03 0. -1.
        -11    1    3    3    0    0  0.29498801433E+01 -0.16296340448E+02 -0.39421123329E+01  0.17023887769E+02  0.51100000000E-03 0.  1.
         12    1    3    3    0    0 -0.47883067104E+01 -0.13399538339E+02 -0.15791613054E+02  0.21256776606E+02  0.00000000000E+00 0. -1.
</event>
<event>
 7    1  0.1302069E-013  0.7246156E+02  0.7816164E-02  0.1226708E+00
        -11   -1    0    0    0    0  0.00000000000E+00  0.00000000000E+00  0.45593999997E+02  0.45594000000E+02  0.51100000000E-03 0. -1.
         11   -1    0    0    0    0 -0.00000000000E+00 -0.00000000000E+00 -0.45593999997E+02  0.45594000000E+02  0.51100000000E-03 0.  1.
    9900012    2    1    2    0    0  0.26274647978E+01 -0.81284292700E+01 -0.16664467165E+02  0.72461564152E+02  0.69999991999E+02 0.  0.
         12    1    1    2    0    0 -0.26274647978E+01  0.81284292700E+01  0.16664467165E+02  0.18726435848E+02  0.00000000000E+00 0. -1.
         11    1    3    3    0    0  0.22826653228E+02  0.56398548035E+01  0.13100178132E+02  0.26916142501E+02  0.51100000000E-03 0. -1.
        -11    1    3    3    0    0  0.44933508598E+00  0.43248441395E+01 -0.12204262548E+02  0.12955701581E+02  0.51100000000E-03 0.  1.
         12    1    3    3    0    0 -0.20648523516E+02 -0.18093128213E+02 -0.17560382749E+02  0.32589720070E+02  0.00000000000E+00 0. -1.
</event>
<event>
 7    1  0.1302069E-013  0.7246160E+02  0.7816164E-02  0.1226708E+00
        -11   -1    0    0    0    0  0.00000000000E+00  0.00000000000E+00  0.45593999997E+02  0.45594000000E+02  0.51100000000E-03 0.  1.
         11   -1    0    0    0    0 -0.00000000000E+00 -0.00000000000E+00 -0.45593999997E+02  0.45594000000E+02  0.51100000000E-03 0. -1.
    9900012    2    1    2    0    0  0.45026514582E+01  0.17865919834E+02  0.33485993196E+01  0.72461599410E+02  0.70000037928E+02 0.  0.
         12    1    1    2    0    0 -0.45026514582E+01 -0.17865919834E+02 -0.33485993196E+01  0.18726400590E+02  0.00000000000E+00 0. -1.
         11    1    3    3    0    0  0.22286351240E+02 -0.41316870021E+01  0.30395569642E+01  0.22869000763E+02  0.51100000000E-03 0. -1.
        -11    1    3    3    0    0 -0.11664392371E+02  0.27275190351E+02  0.14685513010E+02  0.33100730365E+02  0.51100000000E-03 0.  1.
         12    1    3    3    0    0 -0.61193074111E+01 -0.52775835149E+01 -0.14376470654E+02  0.16491868282E+02  0.00000000000E+00 0. -1.
</event>
<event>
 7    1  0.1302069E-013  0.7246158E+02  0.7816164E-02  0.1226708E+00
        -11   -1    0    0    0    0  0.00000000000E+00  0.00000000000E+00  0.45593999997E+02  0.45594000000E+02  0.51100000000E-03 0. -1.
         11   -1    0    0    0    0 -0.00000000000E+00 -0.00000000000E+00 -0.45593999997E+02  0.45594000000E+02  0.51100000000E-03 0.  1.
    9900012    2    1    2    0    0  0.12516953411E+02  0.72448266507E+00 -0.13909695528E+02  0.72461584766E+02  0.70000018852E+02 0.  0.
         12    1    1    2    0    0 -0.12516953411E+02 -0.72448266507E+00  0.13909695528E+02  0.18726415234E+02  0.00000000000E+00 0. -1.
         11    1    3    3    0    0  0.21656989303E+02  0.19636461335E+02 -0.22305472775E+02  0.36771591146E+02  0.51100000000E-03 0. -1.
        -11    1    3    3    0    0 -0.64676099235E+00 -0.21009343638E+02 -0.30971382951E+01  0.21246248746E+02  0.51100000000E-03 0.  1.
        -12    1    3    3    0    0 -0.84932748992E+01  0.20973649686E+01  0.11492915542E+02  0.14443744874E+02  0.00000000000E+00 0.  1.
</event>
<event>
 7    1  0.1302069E-013  0.7246160E+02  0.7816164E-02  0.1226708E+00
        -11   -1    0    0    0    0  0.00000000000E+00  0.00000000000E+00  0.45593999997E+02  0.45594000000E+02  0.51100000000E-03 0.  1.
         11   -1    0    0    0    0 -0.00000000000E+00 -0.00000000000E+00 -0.45593999997E+02  0.45594000000E+02  0.51100000000E-03 0. -1.
    9900012    2    1    2    0    0 -0.49526012503E+01  0.59218190305E+01  0.17061117002E+02  0.72461603840E+02  0.70000043700E+02 0.  0.
         12    1    1    2    0    0  0.49526012503E+01 -0.59218190305E+01 -0.17061117002E+02  0.18726396160E+02  0.00000000000E+00 0. -1.
         11    1    3    3    0    0  0.17487607797E+02  0.70927527798E+01  0.25483604235E+01  0.19042523718E+02  0.51100000000E-03 0. -1.
        -11    1    3    3    0    0 -0.24727960107E+02  0.13731954636E+02  0.22695170861E+02  0.36264436709E+02  0.51100000000E-03 0.  1.
         12    1    3    3    0    0  0.22877510596E+01 -0.14902888385E+02 -0.81824142827E+01  0.17154643413E+02  0.00000000000E+00 0. -1.
</event>
<event>
 7    1  0.1302069E-013  0.7246158E+02  0.7816164E-02  0.1226708E+00
        -11   -1    0    0    0    0  0.00000000000E+00  0.00000000000E+00  0.45593999997E+02  0.45594000000E+02  0.51100000000E-03 0.  1.
         11   -1    0    0    0    0 -0.00000000000E+00 -0.00000000000E+00 -0.45593999997E+02  0.45594000000E+02  0.51100000000E-03 0. -1.
    9900012    2    1    2    0    0  0.31368349833E+01 -0.73249375836E+00  0.18447288760E+02  0.72461581671E+02  0.70000014820E+02 0.  0.
         12    1    1    2    0    0 -0.31368349833E+01  0.73249375836E+00 -0.18447288760E+02  0.18726418329E+02  0.00000000000E+00 0. -1.
         11    1    3    3    0    0  0.50844656285E+01 -0.22933348003E+02  0.59268713143E+01  0.24226391501E+02  0.51100000000E-03 0. -1.
        -11    1    3    3    0    0 -0.12053859900E+01  0.12343493573E+02  0.27569025593E+02  0.30230216033E+02  0.51100000000E-03 0.  1.
        -12    1    3    3    0    0 -0.74224465520E+00  0.98573606710E+01 -0.15048608147E+02  0.18004974137E+02  0.00000000000E+00 0.  1.
</event>
<event>
 7    1  0.1302069E-013  0.7246163E+02  0.7816164E-02  0.1226708E+00
        -11   -1    0    0    0    0  0.00000000000E+00  0.00000000000E+00  0.45593999997E+02  0.45594000000E+02  0.51100000000E-03 0. -1.
         11   -1    0    0    0    0 -0.00000000000E+00 -0.00000000000E+00 -0.45593999997E+02  0.45594000000E+02  0.51100000000E-03 0.  1.
    9900012    2    1    2    0    0 -0.13431114403E+02  0.96761763452E+01 -0.87552146605E+01  0.72461628047E+02  0.70000075233E+02 0.  0.
         12    1    1    2    0    0  0.13431114403E+02 -0.96761763452E+01  0.87552146605E+01  0.18726371953E+02  0.00000000000E+00 0. -1.
         11    1    3    3    0    0  0.23781488475E+02  0.16425060196E+02 -0.54436453697E+01  0.29410458543E+02  0.51100000000E-03 0. -1.
        -11    1    3    3    0    0 -0.94765159579E+01 -0.58388364787E+01 -0.94824317516E+01  0.14622341752E+02  0.51100000000E-03 0.  1.
         12    1    3    3    0    0 -0.27736086920E+02 -0.91004737196E+00  0.61708624609E+01  0.28428827752E+02  0.00000000000E+00 0. -1.
</event>
<event>
 7    1  0.1302069E-013  0.7246161E+02  0.7816164E-02  0.1226708E+00
        -11   -1    0    0    0    0  0.00000000000E+00  0.00000000000E+00  0.45593999997E+02  0.45594000000E+02  0.51100000000E-03 0. -1.
         11   -1    0    0    0    0 -0.00000000000E+00 -0.00000000000E+00 -0.45593999997E+02  0.45594000000E+02  0.51100000000E-03 0.  1.
    9900012    2    1    2    0    0 -0.18686961398E+02 -0.11028075430E+01 -0.50904228110E+00  0.72461605932E+02  0.70000046424E+02 0.  0.
         12    1    1    2    0    0  0.18686961398E+02  0.11028075430E+01  0.50904228110E+00  0.18726394068E+02  0.00000000000E+00 0. -1.
         11    1    3    3    0    0 -0.43172785977E+00  0.68401541654E+00  0.21323058107E+02  0.21338394347E+02  0.51100000000E-03 0. -1.
        -11    1    3    3    0    0 -0.23415518504E+02 -0.84845898688E+01 -0.30255951094E+02  0.39187974544E+02  0.51100000000E-03 0.  1.
        -12    1    3    3    0    0  0.51602849656E+01  0.66977669093E+01  0.84238507057E+01  0.11935237040E+02  0.00000000000E+00 0.  1.
</event>
<event>
 7    1  0.1302069E-013  0.7246155E+02  0.7816164E-02  0.1226708E+00
        -11   -1    0    0    0    0  0.00000000000E+00  0.00000000000E+00  0.45593999997E+02  0.45594000000E+02  0.51100000000E-03 0.  1.
         11   -1    0    0    0    0 -0.00000000000E+00 -0.00000000000E+00 -0.45593999997E+02  0.45594000000E+02  0.51100000000E-03 0. -1.
    9900012    2    1    2    0    0  0.24083523950E+01 -0.11454060530E+02  0.14617941533E+02  0.72461551364E+02  0.69999975339E+02 0.  0.
         12    1    1    2    0    0 -0.24083523950E+01  0.11454060530E+02 -0.14617941533E+02  0.18726448636E+02  0.00000000000E+00 0. -1.
         11    1    3    3    0    0  0.36825149462E+01 -0.70515398433E+01 -0.54268722009E+01  0.96299570423E+01  0.51100000000E-03 0. -1.
        -11    1    3    3    0    0  0.24280605317E+02  0.78821598548E+01  0.22951878584E+02  0.34328777568E+02  0.51100000000E-03 0.  1.
        -12    1    3    3    0    0 -0.25554767868E+02 -0.12284680541E+02 -0.29070648498E+01  0.28502816753E+02  0.00000000000E+00 0.  1.
</event>
<event>
 7    1  0.1302069E-013  0.7246159E+02  0.7816164E-02  0.1226708E+00
        -11   -1    0    0    0    0  0.00000000000E+00  0.00000000000E+00  0.45593999997E+02  0.45594000000E+02  0.51100000000E-03 0.  1.
         11   -1    0    0    0    0 -0.00000000000E+00 -0.00000000000E+00 -0.45593999997E+02  0.45594000000E+02  0.51100000000E-03 0. -1.
    9900012    2    1    2    0    0  0.90087540855E+01  0.15527969845E+02 -0.53294384485E+01  0.72461590524E+02  0.70000026353E+02 0.  0.
         12    1    1    2    0    0 -0.90087540855E+01 -0.15527969845E+02  0.53294384485E+01  0.18726409476E+02  0.00000000000E+00 0. -1.
         11    1    3    3    0    0  0.26839094648E+02  0.10691750228E+02  0.25579741811E+00  0.28891451280E+02  0.51100000000E-03 0.  1.
        -11    1    3    3    0    0 -0.24952516500E+02  0.79000226515E+01  0.84773205331E+01  0.27511877458E+02  0.51100000000E-03 0. -1.
         12    1    3    3    0    0  0.71221759370E+01 -0.30638030347E+01 -0.14062556400E+02  0.16058261787E+02  0.00000000000E+00 0. -1.
</event>
<event>
 7    1  0.1302069E-013  0.7246153E+02  0.7816164E-02  0.1226708E+00
        -11   -1    0    0    0    0  0.00000000000E+00  0.00000000000E+00  0.45593999997E+02  0.45594000000E+02  0.51100000000E-03 0. -1.
         11   -1    0    0    0    0 -0.00000000000E+00 -0.00000000000E+00 -0.45593999997E+02  0.45594000000E+02  0.51100000000E-03 0.  1.
    9900012    2    1    2    0    0 -0.61827631626E+00 -0.14135652431E+02  0.12267098365E+02  0.72461531097E+02  0.69999948938E+02 0.  0.
         12    1    1    2    0    0  0.61827631626E+00  0.14135652431E+02 -0.12267098365E+02  0.18726468903E+02  0.00000000000E+00 0. -1.
         11    1    3    3    0    0 -0.11660495294E+02 -0.12227076122E+02  0.13143842944E+02  0.21406287595E+02  0.51100000000E-03 0. -1.
        -11    1    3    3    0    0  0.80717645773E+01 -0.64282840785E+01 -0.24624653927E+02  0.26699247196E+02  0.51100000000E-03 0.  1.
        -12    1    3    3    0    0  0.29704544004E+01  0.45197077689E+01  0.23747909348E+02  0.24355996306E+02  0.00000000000E+00 0.  1.
</event>
<event>
 7    1  0.1302069E-013  0.7246157E+02  0.7816164E-02  0.1226708E+00
        -11   -1    0    0    0    0  0.00000000000E+00  0.00000000000E+00  0.45593999997E+02  0.45594000000E+02  0.51100000000E-03 0. -1.
         11   -1    0    0    0    0 -0.00000000000E+00 -0.00000000000E+00 -0.45593999997E+02  0.45594000000E+02  0.51100000000E-03 0.  1.
    9900012    2    1    2    0    0  0.15812749776E+02  0.10031413816E+02  0.83651017919E-01  0.72461566380E+02  0.69999994900E+02 0.  0.
         12    1    1    2    0    0 -0.15812749776E+02 -0.10031413816E+02 -0.83651017919E-01  0.18726433620E+02  0.00000000000E+00 0. -1.
         11    1    3    3    0    0  0.27612897671E+01  0.29945248650E+02  0.14566634092E+02  0.33414509826E+02  0.51100000000E-03 0. -1.
        -11    1    3    3    0    0  0.70827821528E+01 -0.80453862084E+01 -0.21499361004E+02  0.24023250532E+02  0.51100000000E-03 0.  1.
         12    1    3    3    0    0  0.59686778564E+01 -0.11868448625E+02  0.70163779299E+01  0.15023806022E+02  0.00000000000E+00 0. -1.
</event>
<event>
 7    1  0.1302069E-013  0.7246142E+02  0.7816164E-02  0.1226708E+00
        -11   -1    0    0    0    0  0.00000000000E+00  0.00000000000E+00  0.45593999997E+02  0.45594000000E+02  0.51100000000E-03 0.  1.
         11   -1    0    0    0    0 -0.00000000000E+00 -0.00000000000E+00 -0.45593999997E+02  0.45594000000E+02  0.51100000000E-03 0. -1.
    9900012    2    1    2    0    0  0.10401501904E+02  0.11535092297E+02  0.10461124727E+02  0.72461421917E+02  0.69999806710E+02 0.  0.
         12    1    1    2    0    0 -0.10401501904E+02 -0.11535092297E+02 -0.10461124727E+02  0.18726578083E+02  0.00000000000E+00 0. -1.
         11    1    3    3    0    0  0.43571733905E+01 -0.18068425124E+02 -0.41444439110E+00  0.18590984665E+02  0.51100000000E-03 0. -1.
        -11    1    3    3    0    0  0.15643671249E+01  0.15925890906E+02  0.27539616177E+02  0.31851400363E+02  0.51100000000E-03 0.  1.
        -12    1    3    3    0    0  0.44799613888E+01  0.13677626514E+02 -0.16664047059E+02  0.22019036889E+02  0.00000000000E+00 0.  1.
</event>
<event>
 7    1  0.1302069E-013  0.7246161E+02  0.7816164E-02  0.1226708E+00
        -11   -1    0    0    0    0  0.00000000000E+00  0.00000000000E+00  0.45593999997E+02  0.45594000000E+02  0.51100000000E-03 0. -1.
         11   -1    0    0    0    0 -0.00000000000E+00 -0.00000000000E+00 -0.45593999997E+02  0.45594000000E+02  0.51100000000E-03 0.  1.
    9900012    2    1    2    0    0 -0.88699784377E+01 -0.73438022392E+01 -0.14767185560E+02  0.72461609045E+02  0.70000050481E+02 0.  0.
         12    1    1    2    0    0  0.88699784377E+01  0.73438022392E+01  0.14767185560E+02  0.18726390955E+02  0.00000000000E+00 0. -1.
         11    1    3    3    0    0  0.17718422306E+01 -0.42277078520E+01  0.92150374741E+01  0.10292223010E+02  0.51100000000E-03 0. -1.
        -11    1    3    3    0    0  0.19384957281E+02  0.11891290861E+02 -0.15576795988E+02  0.27564759035E+02  0.51100000000E-03 0.  1.
        -12    1    3    3    0    0 -0.30026777950E+02 -0.15007385248E+02 -0.84054270460E+01  0.34604627001E+02  0.00000000000E+00 0.  1.
</event>
<event>
 7    1  0.1302069E-013  0.7246158E+02  0.7816164E-02  0.1226708E+00
        -11   -1    0    0    0    0  0.00000000000E+00  0.00000000000E+00  0.45593999997E+02  0.45594000000E+02  0.51100000000E-03 0.  1.
         11   -1    0    0    0    0 -0.00000000000E+00 -0.00000000000E+00 -0.45593999997E+02  0.45594000000E+02  0.51100000000E-03 0. -1.
    9900012    2    1    2    0    0 -0.25694699433E+01  0.80850063710E+01  0.16694584319E+02  0.72461584182E+02  0.70000018091E+02 0.  0.
         12    1    1    2    0    0  0.25694699433E+01 -0.80850063710E+01 -0.16694584319E+02  0.18726415818E+02  0.00000000000E+00 0. -1.
         11    1    3    3    0    0  0.10747957538E+01 -0.16863113956E+02  0.84490245082E+01  0.18891951027E+02  0.51100000000E-03 0. -1.
        -11    1    3    3    0    0 -0.25117292497E+02  0.11858665580E+02  0.47681517050E+01  0.28182292360E+02  0.51100000000E-03 0.  1.
         12    1    3    3    0    0  0.21473026800E+02  0.13089454746E+02  0.34774081056E+01  0.25387340795E+02  0.00000000000E+00 0. -1.
</event>
<event>
 8    1  0.1302069E-013  0.7246146E+02  0.7816164E-02  0.1226708E+00
        -11   -1    0    0    0    0  0.00000000000E+00  0.00000000000E+00  0.45593999997E+02  0.45594000000E+02  0.51100000000E-03 0.  1.
         11   -1    0    0    0    0 -0.00000000000E+00 -0.00000000000E+00 -0.45593999997E+02  0.45594000000E+02  0.51100000000E-03 0. -1.
    9900012    2    1    2    0    0 -0.53487683442E+01 -0.12396115066E+02  0.12977299808E+02  0.72461459961E+02  0.69999856270E+02 0.  0.
        -24    2    3    3    0    0 -0.85528946348E+01 -0.10757057945E+02 -0.73815801520E+01  0.51786912154E+02  0.49381476716E+02 0.  0.
         12    1    1    2    0    0  0.53487683442E+01  0.12396115066E+02 -0.12977299808E+02  0.18726540039E+02  0.00000000000E+00 0. -1.
         11    1    4    4    0    0  0.16535163504E+02 -0.74896853735E+01 -0.16855578616E+02  0.24771304969E+02  0.51100000000E-03 0. -1.
        -11    1    3    3    0    0  0.32041262906E+01 -0.16390571203E+01  0.20358879960E+02  0.20674547807E+02  0.51100000000E-03 0.  1.
        -12    1    4    4    0    0 -0.25088058139E+02 -0.32673725719E+01  0.94739984641E+01  0.27015607186E+02  0.00000000000E+00 0.  1.
</event>
<event>
 7    1  0.1302069E-013  0.7246150E+02  0.7816164E-02  0.1226708E+00
        -11   -1    0    0    0    0  0.00000000000E+00  0.00000000000E+00  0.45593999997E+02  0.45594000000E+02  0.51100000000E-03 0. -1.
         11   -1    0    0    0    0 -0.00000000000E+00 -0.00000000000E+00 -0.45593999997E+02  0.45594000000E+02  0.51100000000E-03 0.  1.
    9900012    2    1    2    0    0 -0.41452579764E+01 -0.17529746772E+02  0.51192238078E+01  0.72461504386E+02  0.69999914142E+02 0.  0.
         12    1    1    2    0    0  0.41452579764E+01  0.17529746772E+02 -0.51192238078E+01  0.18726495614E+02  0.00000000000E+00 0. -1.
         11    1    3    3    0    0 -0.22420661850E+02 -0.17815589348E+01 -0.65682641066E+01  0.23430794346E+02  0.51100000000E-03 0. -1.
        -11    1    3    3    0    0  0.10495605887E+02  0.75008624680E+01  0.19428537793E+02  0.23321422807E+02  0.51100000000E-03 0.  1.
        -12    1    3    3    0    0  0.77797979869E+01 -0.23249050305E+02 -0.77410498783E+01  0.25709287233E+02  0.00000000000E+00 0.  1.
</event>
<event>
 7    1  0.1302069E-013  0.7246157E+02  0.7816164E-02  0.1226708E+00
        -11   -1    0    0    0    0  0.00000000000E+00  0.00000000000E+00  0.45593999997E+02  0.45594000000E+02  0.51100000000E-03 0.  1.
         11   -1    0    0    0    0 -0.00000000000E+00 -0.00000000000E+00 -0.45593999997E+02  0.45594000000E+02  0.51100000000E-03 0. -1.
    9900012    2    1    2    0    0  0.14066700144E+02  0.64349892756E+01  0.10554524267E+02  0.72461571552E+02  0.70000001639E+02 0.  0.
         12    1    1    2    0    0 -0.14066700144E+02 -0.64349892756E+01 -0.10554524267E+02  0.18726428448E+02  0.00000000000E+00 0. -1.
         11    1    3    3    0    0  0.15957555837E+02 -0.18564049952E+02 -0.69067448316E+01  0.25435618006E+02  0.51100000000E-03 0. -1.
        -11    1    3    3    0    0  0.90295498086E+01  0.28352661927E+02  0.50917355832E+01  0.30188275532E+02  0.51100000000E-03 0.  1.
         12    1    3    3    0    0 -0.10920405502E+02 -0.33536226990E+01  0.12369533515E+02  0.16837678014E+02  0.00000000000E+00 0. -1.
</event>
<event>
 7    1  0.1302069E-013  0.7246156E+02  0.7816164E-02  0.1226708E+00
        -11   -1    0    0    0    0  0.00000000000E+00  0.00000000000E+00  0.45593999997E+02  0.45594000000E+02  0.51100000000E-03 0.  1.
         11   -1    0    0    0    0 -0.00000000000E+00 -0.00000000000E+00 -0.45593999997E+02  0.45594000000E+02  0.51100000000E-03 0. -1.
    9900012    2    1    2    0    0 -0.17789009564E+02 -0.42500184830E+01  0.40209311229E+01  0.72461563994E+02  0.69999991793E+02 0.  0.
         12    1    1    2    0    0  0.17789009564E+02  0.42500184830E+01 -0.40209311229E+01  0.18726436006E+02  0.00000000000E+00 0. -1.
         11    1    3    3    0    0  0.27985401838E+01  0.18030086397E+02 -0.18416018840E+02  0.25924227912E+02  0.51100000000E-03 0. -1.
        -11    1    3    3    0    0 -0.74683968344E+01 -0.86319449122E+01  0.24953075801E+02  0.27439814439E+02  0.51100000000E-03 0.  1.
         12    1    3    3    0    0 -0.13119152914E+02 -0.13648159968E+02 -0.25161258377E+01  0.19097521643E+02  0.00000000000E+00 0. -1.
</event>
<event>
 7    1  0.1302069E-013  0.7246159E+02  0.7816164E-02  0.1226708E+00
        -11   -1    0    0    0    0  0.00000000000E+00  0.00000000000E+00  0.45593999997E+02  0.45594000000E+02  0.51100000000E-03 0. -1.
         11   -1    0    0    0    0 -0.00000000000E+00 -0.00000000000E+00 -0.45593999997E+02  0.45594000000E+02  0.51100000000E-03 0.  1.
    9900012    2    1    2    0    0  0.19390150730E+01 -0.11891768605E+02 -0.14335430861E+02  0.72461587691E+02  0.70000022662E+02 0.  0.
         12    1    1    2    0    0 -0.19390150730E+01  0.11891768605E+02  0.14335430861E+02  0.18726412309E+02  0.00000000000E+00 0. -1.
         11    1    3    3    0    0  0.26406552663E+02  0.71756502334E+01 -0.18609906712E+02  0.33092666981E+02  0.51100000000E-03 0. -1.
        -11    1    3    3    0    0 -0.20838756141E+02 -0.27879464805E+01 -0.28789502705E+01  0.21220621056E+02  0.51100000000E-03 0.  1.
         12    1    3    3    0    0 -0.36287814487E+01 -0.16279472358E+02  0.71534261218E+01  0.18148299654E+02  0.00000000000E+00 0. -1.
</event>
<event>
 7    1  0.1302069E-013  0.7246159E+02  0.7816164E-02  0.1226708E+00
        -11   -1    0    0    0    0  0.00000000000E+00  0.00000000000E+00  0.45593999997E+02  0.45594000000E+02  0.51100000000E-03 0. -1.
         11   -1    0    0    0    0 -0.00000000000E+00 -0.00000000000E+00 -0.45593999997E+02  0.45594000000E+02  0.51100000000E-03 0.  1.
    9900012    2    1    2    0    0 -0.13953752921E+02 -0.63571725632E+01 -0.10749770519E+02  0.72461590045E+02  0.70000025729E+02 0.  0.
         12    1    1    2    0    0  0.13953752921E+02  0.63571725632E+01  0.10749770519E+02  0.18726409955E+02  0.00000000000E+00 0. -1.
         11    1    3    3    0    0  0.24059544311E+02 -0.42984111832E+01 -0.99619518024E+01  0.26392773540E+02  0.51100000000E-03 0. -1.
        -11    1    3    3    0    0 -0.23191444944E+02  0.95009535164E+01 -0.74182994329E+01  0.26136992999E+02  0.51100000000E-03 0.  1.
         12    1    3    3    0    0 -0.14821852288E+02 -0.11559714896E+02  0.66304807158E+01  0.19931823506E+02  0.00000000000E+00 0. -1.
</event>
<event>
 7    1  0.1302069E-013  0.7246154E+02  0.7816164E-02  0.1226708E+00
        -11   -1    0    0    0    0  0.00000000000E+00  0.00000000000E+00  0.45593999997E+02  0.45594000000E+02  0.51100000000E-03 0. -1.
         11   -1    0    0    0    0 -0.00000000000E+00 -0.00000000000E+00 -0.45593999997E+02  0.45594000000E+02  0.51100000000E-03 0.  1.
    9900012    2    1    2    0    0 -0.10889089854E+02  0.13243755778E+02 -0.75306751827E+01  0.72461537076E+02  0.69999956727E+02 0.  0.
         12    1    1    2    0    0  0.10889089854E+02 -0.13243755778E+02  0.75306751827E+01  0.18726462924E+02  0.00000000000E+00 0. -1.
         11    1    3    3    0    0 -0.25422194015E+01  0.19744404693E+02  0.21726933609E+02  0.29468017247E+02  0.51100000000E-03 0. -1.
        -11    1    3    3    0    0  0.85945065203E+01 -0.10401767486E+02 -0.86288550762E+01  0.16016224566E+02  0.51100000000E-03 0.  1.
         12    1    3    3    0    0 -0.16941376973E+02  0.39011185700E+01 -0.20628753716E+02  0.26977295263E+02  0.00000000000E+00 0. -1.
</event>
<event>
 7    1  0.1302069E-013  0.7246157E+02  0.7816164E-02  0.1226708E+00
        -11   -1    0    0    0    0  0.00000000000E+00  0.00000000000E+00  0.45593999997E+02  0.45594000000E+02  0.51100000000E-03 0.  1.
         11   -1    0    0    0    0 -0.00000000000E+00 -0.00000000000E+00 -0.45593999997E+02  0.45594000000E+02  0.51100000000E-03 0. -1.
    9900012    2    1    2    0    0  0.70183978646E+01 -0.45000251988E+01  0.16768151069E+02  0.72461574136E+02  0.70000005004E+02 0.  0.
         12    1    1    2    0    0 -0.70183978646E+01  0.45000251988E+01 -0.16768151069E+02  0.18726425864E+02  0.00000000000E+00 0. -1.
         11    1    3    3    0    0 -0.15403922293E+02 -0.17933549256E+02 -0.13458277959E+02  0.27203276582E+02  0.51100000000E-03 0. -1.
        -11    1    3    3    0    0  0.11588714436E+02  0.18416986613E+02  0.19635613432E+02  0.29309401449E+02  0.51100000000E-03 0.  1.
         12    1    3    3    0    0  0.10833605722E+02 -0.49834625554E+01  0.10590815596E+02  0.15948896105E+02  0.00000000000E+00 0. -1.
</event>
<event>
 7    1  0.1302069E-013  0.7246161E+02  0.7816164E-02  0.1226708E+00
        -11   -1    0    0    0    0  0.00000000000E+00  0.00000000000E+00  0.45593999997E+02  0.45594000000E+02  0.51100000000E-03 0.  1.
         11   -1    0    0    0    0 -0.00000000000E+00 -0.00000000000E+00 -0.45593999997E+02  0.45594000000E+02  0.51100000000E-03 0. -1.
    9900012    2    1    2    0    0  0.14987123720E+02 -0.11147818671E+02 -0.13379508001E+01  0.72461605503E+02  0.70000045865E+02 0.  0.
         12    1    1    2    0    0 -0.14987123720E+02  0.11147818671E+02  0.13379508001E+01  0.18726394497E+02  0.00000000000E+00 0. -1.
         11    1    3    3    0    0  0.15272711777E+02  0.13028095956E+02 -0.16794419657E+02  0.26173260040E+02  0.51100000000E-03 0. -1.
        -11    1    3    3    0    0  0.38174367272E+01 -0.33169318596E+02  0.93639671244E+01  0.34676510780E+02  0.51100000000E-03 0.  1.
         12    1    3    3    0    0 -0.41030247842E+01  0.89934039694E+01  0.60925017325E+01  0.11611834683E+02  0.00000000000E+00 0. -1.
</event>
<event>
 7    1  0.1302069E-013  0.7246165E+02  0.7816164E-02  0.1226708E+00
        -11   -1    0    0    0    0  0.00000000000E+00  0.00000000000E+00  0.45593999997E+02  0.45594000000E+02  0.51100000000E-03 0.  1.
         11   -1    0    0    0    0 -0.00000000000E+00 -0.00000000000E+00 -0.45593999997E+02  0.45594000000E+02  0.51100000000E-03 0. -1.
    9900012    2    1    2    0    0  0.11392673715E+02  0.11255689965E+02  0.97052932026E+01  0.72461647256E+02  0.70000100256E+02 0.  0.
         12    1    1    2    0    0 -0.11392673715E+02 -0.11255689965E+02 -0.97052932026E+01  0.18726352744E+02  0.00000000000E+00 0. -1.
         11    1    3    3    0    0  0.19695753392E+01 -0.21076021283E+02  0.25225318231E+02  0.32930146982E+02  0.51100000000E-03 0.  1.
        -11    1    3    3    0    0  0.10067999046E+02  0.23172123982E+02 -0.16682870222E+02  0.30275899553E+02  0.51100000000E-03 0. -1.
        -12    1    3    3    0    0 -0.64490066971E+00  0.91595872660E+01  0.11628451932E+01  0.92556007207E+01  0.00000000000E+00 0.  1.
</event>
<event>
 7    1  0.1302069E-013  0.7246154E+02  0.7816164E-02  0.1226708E+00
        -11   -1    0    0    0    0  0.00000000000E+00  0.00000000000E+00  0.45593999997E+02  0.45594000000E+02  0.51100000000E-03 0. -1.
         11   -1    0    0    0    0 -0.00000000000E+00 -0.00000000000E+00 -0.45593999997E+02  0.45594000000E+02  0.51100000000E-03 0.  1.
    9900012    2    1    2    0    0 -0.82422638589E+01  0.47558072949E+01 -0.16128470687E+02  0.72461543227E+02  0.69999964740E+02 0.  0.
         12    1    1    2    0    0  0.82422638589E+01 -0.47558072949E+01  0.16128470687E+02  0.18726456773E+02  0.00000000000E+00 0. -1.
         11    1    3    3    0    0  0.74762975114E+01  0.18385304249E+02 -0.25786953332E+02  0.32540457882E+02  0.51100000000E-03 0.  1.
        -11    1    3    3    0    0 -0.81295127339E+01 -0.24251093857E+02  0.77660553008E+01  0.26730434822E+02  0.51100000000E-03 0. -1.
        -12    1    3    3    0    0 -0.75890486365E+01  0.10621596903E+02  0.18924273432E+01  0.13190650523E+02  0.00000000000E+00 0.  1.
</event>
<event>
 7    1  0.2472008E-013  0.7246154E+02  0.7816164E-02  0.1226708E+00
        -11   -1    0    0    0    0  0.00000000000E+00  0.00000000000E+00  0.45593999997E+02  0.45594000000E+02  0.51100000000E-03 0. -1.
         11   -1    0    0    0    0 -0.00000000000E+00 -0.00000000000E+00 -0.45593999997E+02  0.45594000000E+02  0.51100000000E-03 0.  1.
    9900012    2    1    2    0    0 -0.11129452829E+02 -0.62917684069E+01 -0.13683178875E+02  0.72461535996E+02  0.69999955320E+02 0.  0.
         12    1    1    2    0    0  0.11129452829E+02  0.62917684069E+01  0.13683178875E+02  0.18726464004E+02  0.00000000000E+00 0. -1.
         11    1    3    3    0    0  0.80279787069E+01  0.13677443845E+02  0.14311732305E+02  0.21362270340E+02  0.51100000000E-03 0.  1.
        -11    1    3    3    0    0 -0.25619663369E+02 -0.95741163242E+01 -0.95638151044E+01  0.28974081766E+02  0.51100000000E-03 0. -1.
        -12    1    3    3    0    0  0.64622318330E+01 -0.10395095928E+02 -0.18431096076E+02  0.22125183890E+02  0.00000000000E+00 0.  1.
</event>
<event>
 7    1  0.1302069E-013  0.7246158E+02  0.7816164E-02  0.1226708E+00
        -11   -1    0    0    0    0  0.00000000000E+00  0.00000000000E+00  0.45593999997E+02  0.45594000000E+02  0.51100000000E-03 0. -1.
         11   -1    0    0    0    0 -0.00000000000E+00 -0.00000000000E+00 -0.45593999997E+02  0.45594000000E+02  0.51100000000E-03 0.  1.
    9900012    2    1    2    0    0 -0.18130652257E+02  0.15158268327E+01 -0.44340335611E+01  0.72461576532E+02  0.70000008126E+02 0.  0.
         12    1    1    2    0    0  0.18130652257E+02 -0.15158268327E+01  0.44340335611E+01  0.18726423468E+02  0.00000000000E+00 0. -1.
         11    1    3    3    0    0 -0.13574953379E+02  0.14131300962E+02 -0.99171369847E+01  0.21961844921E+02  0.51100000000E-03 0. -1.
        -11    1    3    3    0    0  0.61841928607E+01 -0.28269336147E+02 -0.41123366183E+01  0.29228597644E+02  0.51100000000E-03 0.  1.
        -12    1    3    3    0    0 -0.10739891739E+02  0.15653862018E+02  0.95954400418E+01  0.21271133967E+02  0.00000000000E+00 0.  1.
</event>
<event>
 7    1  0.1302069E-013  0.7246157E+02  0.7816164E-02  0.1226708E+00
        -11   -1    0    0    0    0  0.00000000000E+00  0.00000000000E+00  0.45593999997E+02  0.45594000000E+02  0.51100000000E-03 0. -1.
         11   -1    0    0    0    0 -0.00000000000E+00 -0.00000000000E+00 -0.45593999997E+02  0.45594000000E+02  0.51100000000E-03 0.  1.
    9900012    2    1    2    0    0 -0.79130481943E+01  0.11570476323E+02 -0.12417209497E+02  0.72461565589E+02  0.69999993870E+02 0.  0.
         12    1    1    2    0    0  0.79130481943E+01 -0.11570476323E+02  0.12417209497E+02  0.18726434411E+02  0.00000000000E+00 0. -1.
         11    1    3    3    0    0  0.64325573519E+01 -0.70090505674E+01  0.30986050355E+01  0.10005295466E+02  0.51100000000E-03 0. -1.
        -11    1    3    3    0    0  0.58515287975E+01  0.22556547755E+02 -0.29482795947E+02  0.37580227421E+02  0.51100000000E-03 0.  1.
        -12    1    3    3    0    0 -0.20197134344E+02 -0.39770208647E+01  0.13966981415E+02  0.24876042701E+02  0.00000000000E+00 0.  1.
</event>
<event>
 7    1  0.1302069E-013  0.7246150E+02  0.7816164E-02  0.1226708E+00
        -11   -1    0    0    0    0  0.00000000000E+00  0.00000000000E+00  0.45593999997E+02  0.45594000000E+02  0.51100000000E-03 0. -1.
         11   -1    0    0    0    0 -0.00000000000E+00 -0.00000000000E+00 -0.45593999997E+02  0.45594000000E+02  0.51100000000E-03 0.  1.
    9900012    2    1    2    0    0 -0.76028135578E+01 -0.15426080219E+02 -0.74104613955E+01  0.72461503718E+02  0.69999913272E+02 0.  0.
         12    1    1    2    0    0  0.76028135578E+01  0.15426080219E+02  0.74104613955E+01  0.18726496282E+02  0.00000000000E+00 0. -1.
         11    1    3    3    0    0 -0.31718632681E+01  0.28658186556E+01  0.25107881314E+02  0.25469184076E+02  0.51100000000E-03 0. -1.
        -11    1    3    3    0    0  0.37144753129E+01 -0.23798464907E+02 -0.23465683053E+02  0.33627407575E+02  0.51100000000E-03 0.  1.
         12    1    3    3    0    0 -0.81454256026E+01  0.55065660331E+01 -0.90526596562E+01  0.13364912068E+02  0.00000000000E+00 0. -1.
</event>
<event>
 7    1  0.1302069E-013  0.7246156E+02  0.7816164E-02  0.1226708E+00
        -11   -1    0    0    0    0  0.00000000000E+00  0.00000000000E+00  0.45593999997E+02  0.45594000000E+02  0.51100000000E-03 0.  1.
         11   -1    0    0    0    0 -0.00000000000E+00 -0.00000000000E+00 -0.45593999997E+02  0.45594000000E+02  0.51100000000E-03 0. -1.
    9900012    2    1    2    0    0 -0.11781131597E+02 -0.14358505530E+02 -0.23911610499E+01  0.72461564303E+02  0.69999992195E+02 0.  0.
         12    1    1    2    0    0  0.11781131597E+02  0.14358505530E+02  0.23911610499E+01  0.18726435697E+02  0.00000000000E+00 0. -1.
         11    1    3    3    0    0 -0.26878260243E+02  0.13036727697E+02 -0.19997968912E+02  0.35948795579E+02  0.51100000000E-03 0.  1.
        -11    1    3    3    0    0  0.10778525637E+02 -0.24335744960E+02  0.15612216331E+02  0.30856869522E+02  0.51100000000E-03 0. -1.
        -12    1    3    3    0    0  0.43186030092E+01 -0.30594882668E+01  0.19945915309E+01  0.56558992018E+01  0.00000000000E+00 0.  1.
</event>
<event>
 7    1  0.1302069E-013  0.7246160E+02  0.7816164E-02  0.1226708E+00
        -11   -1    0    0    0    0  0.00000000000E+00  0.00000000000E+00  0.45593999997E+02  0.45594000000E+02  0.51100000000E-03 0.  1.
         11   -1    0    0    0    0 -0.00000000000E+00 -0.00000000000E+00 -0.45593999997E+02  0.45594000000E+02  0.51100000000E-03 0. -1.
    9900012    2    1    2    0    0 -0.74614231984E+01  0.15064734747E+02 -0.82497940208E+01  0.72461596968E+02  0.70000034747E+02 0.  0.
         12    1    1    2    0    0  0.74614231984E+01 -0.15064734747E+02  0.82497940208E+01  0.18726403032E+02  0.00000000000E+00 0. -1.
         11    1    3    3    0    0  0.21433846543E+02 -0.53407039812E+01 -0.57628538209E+01  0.22828565025E+02  0.51100000000E-03 0. -1.
        -11    1    3    3    0    0 -0.26100280465E+02  0.21399756926E+02  0.11251716438E+02  0.35577736858E+02  0.51100000000E-03 0.  1.
        -12    1    3    3    0    0 -0.27949892766E+01 -0.99431819797E+00 -0.13738656638E+02  0.14055295086E+02  0.00000000000E+00 0.  1.
</event>
<event>
 7    1  0.1302069E-013  0.7246159E+02  0.7816164E-02  0.1226708E+00
        -11   -1    0    0    0    0  0.00000000000E+00  0.00000000000E+00  0.45593999997E+02  0.45594000000E+02  0.51100000000E-03 0.  1.
         11   -1    0    0    0    0 -0.00000000000E+00 -0.00000000000E+00 -0.45593999997E+02  0.45594000000E+02  0.51100000000E-03 0. -1.
    9900012    2    1    2    0    0  0.17571603834E+02 -0.48725463291E+01  0.42632748988E+01  0.72461588654E+02  0.70000023917E+02 0.  0.
         12    1    1    2    0    0 -0.17571603834E+02  0.48725463291E+01 -0.42632748988E+01  0.18726411346E+02  0.00000000000E+00 0. -1.
         11    1    3    3    0    0  0.37427265157E+01  0.14897255299E+02  0.24198815010E+02  0.28662150397E+02  0.51100000000E-03 0. -1.
        -11    1    3    3    0    0  0.10087999331E+02 -0.27410185242E+02 -0.10359391487E+02  0.30990369113E+02  0.51100000000E-03 0.  1.
         12    1    3    3    0    0  0.37408779870E+01  0.76403836140E+01 -0.95761486236E+01  0.12809069144E+02  0.00000000000E+00 0. -1.
</event>
<event>
 7    1  0.1302069E-013  0.7246152E+02  0.7816164E-02  0.1226708E+00
        -11   -1    0    0    0    0  0.00000000000E+00  0.00000000000E+00  0.45593999997E+02  0.45594000000E+02  0.51100000000E-03 0. -1.
         11   -1    0    0    0    0 -0.00000000000E+00 -0.00000000000E+00 -0.45593999997E+02  0.45594000000E+02  0.51100000000E-03 0.  1.
    9900012    2    1    2    0    0  0.49413945304E+01 -0.15159238445E+02  0.98214714935E+01  0.72461516282E+02  0.69999929639E+02 0.  0.
         12    1    1    2    0    0 -0.49413945304E+01  0.15159238445E+02 -0.98214714935E+01  0.18726483718E+02  0.00000000000E+00 0. -1.
         11    1    3    3    0    0 -0.76720771717E+00  0.40728983562E+01 -0.20951017035E+02  0.21357018138E+02  0.51100000000E-03 0. -1.
        -11    1    3    3    0    0  0.14790193013E+02  0.40261834869E+01  0.15686908958E+02  0.21932603032E+02  0.51100000000E-03 0.  1.
         12    1    3    3    0    0 -0.90815907658E+01 -0.23258320288E+02  0.15085579570E+02  0.29171895112E+02  0.00000000000E+00 0. -1.
</event>
<event>
 7    1  0.1302069E-013  0.7246156E+02  0.7816164E-02  0.1226708E+00
        -11   -1    0    0    0    0  0.00000000000E+00  0.00000000000E+00  0.45593999997E+02  0.45594000000E+02  0.51100000000E-03 0.  1.
         11   -1    0    0    0    0 -0.00000000000E+00 -0.00000000000E+00 -0.45593999997E+02  0.45594000000E+02  0.51100000000E-03 0. -1.
    9900012    2    1    2    0    0 -0.52750916043E+00  0.18451605377E+02 -0.31526909441E+01  0.72461562350E+02  0.69999989650E+02 0.  0.
         12    1    1    2    0    0  0.52750916043E+00 -0.18451605377E+02  0.31526909441E+01  0.18726437650E+02  0.00000000000E+00 0. -1.
         11    1    3    3    0    0 -0.14524345373E+02 -0.13522892867E+02 -0.66215656731E+01  0.20920572942E+02  0.51100000000E-03 0. -1.
        -11    1    3    3    0    0  0.54755617404E+01  0.39418230062E+02  0.32638340608E+00  0.39798054777E+02  0.51100000000E-03 0.  1.
        -12    1    3    3    0    0  0.85212744725E+01 -0.74437318188E+01  0.31424913229E+01  0.11742934631E+02  0.00000000000E+00 0.  1.
</event>
<event>
 7    1  0.1302069E-013  0.7246180E+02  0.7816164E-02  0.1226707E+00
        -11   -1    0    0    0    0  0.00000000000E+00  0.00000000000E+00  0.45593999997E+02  0.45594000000E+02  0.51100000000E-03 0.  1.
         11   -1    0    0    0    0 -0.00000000000E+00 -0.00000000000E+00 -0.45593999997E+02  0.45594000000E+02  0.51100000000E-03 0. -1.
    9900012    2    1    2    0    0 -0.14122184049E+02  0.12030706885E+02 -0.25488256541E+01  0.72461801703E+02  0.70000301452E+02 0.  0.
         12    1    1    2    0    0  0.14122184049E+02 -0.12030706885E+02  0.25488256541E+01  0.18726198297E+02  0.00000000000E+00 0. -1.
         11    1    3    3    0    0 -0.17161429206E+02 -0.15240347069E+02  0.22217249685E+02  0.31943528530E+02  0.51100000000E-03 0. -1.
        -11    1    3    3    0    0  0.43765318187E+01  0.53665455659E+01  0.63069550573E+00  0.69535328541E+01  0.51100000000E-03 0.  1.
         12    1    3    3    0    0 -0.13372866621E+01  0.21904508387E+02 -0.25396770845E+02  0.33564740318E+02  0.00000000000E+00 0. -1.
</event>
<event>
 7    1  0.1302069E-013  0.7246159E+02  0.7816164E-02  0.1226708E+00
        -11   -1    0    0    0    0  0.00000000000E+00  0.00000000000E+00  0.45593999997E+02  0.45594000000E+02  0.51100000000E-03 0.  1.
         11   -1    0    0    0    0 -0.00000000000E+00 -0.00000000000E+00 -0.45593999997E+02  0.45594000000E+02  0.51100000000E-03 0. -1.
    9900012    2    1    2    0    0  0.10987078709E+02  0.28211650538E+01 -0.14899785388E+02  0.72461588827E+02  0.70000024142E+02 0.  0.
         12    1    1    2    0    0 -0.10987078709E+02 -0.28211650538E+01  0.14899785388E+02  0.18726411173E+02  0.00000000000E+00 0. -1.
         11    1    3    3    0    0 -0.17105241847E+01  0.19289481643E+02 -0.18449242502E+02  0.26746673517E+02  0.51100000000E-03 0. -1.
        -11    1    3    3    0    0  0.11320130962E+02 -0.23655171975E+02 -0.11764642087E+02  0.28742291660E+02  0.51100000000E-03 0.  1.
        -12    1    3    3    0    0  0.13774719311E+01  0.71868553854E+01  0.15314099201E+02  0.16972623650E+02  0.00000000000E+00 0.  1.
</event>
<event>
 7    1  0.1302069E-013  0.7246159E+02  0.7816164E-02  0.1226708E+00
        -11   -1    0    0    0    0  0.00000000000E+00  0.00000000000E+00  0.45593999997E+02  0.45594000000E+02  0.51100000000E-03 0.  1.
         11   -1    0    0    0    0 -0.00000000000E+00 -0.00000000000E+00 -0.45593999997E+02  0.45594000000E+02  0.51100000000E-03 0. -1.
    9900012    2    1    2    0    0 -0.66176031227E+01 -0.17313879282E+02  0.26674710434E+01  0.72461588474E+02  0.70000023683E+02 0.  0.
         12    1    1    2    0    0  0.66176031227E+01  0.17313879282E+02 -0.26674710434E+01  0.18726411526E+02  0.00000000000E+00 0. -1.
         11    1    3    3    0    0 -0.22169106603E+02  0.37518346859E+01 -0.16067457340E+02  0.27635280652E+02  0.51100000000E-03 0. -1.
        -11    1    3    3    0    0  0.23797710485E+02 -0.11390121816E+02  0.18295331959E+02  0.32105841696E+02  0.51100000000E-03 0.  1.
        -12    1    3    3    0    0 -0.82462070041E+01 -0.96755921515E+01  0.43959642434E+00  0.12720466126E+02  0.00000000000E+00 0.  1.
</event>
<event>
 7    1  0.1302069E-013  0.7246157E+02  0.7816164E-02  0.1226708E+00
        -11   -1    0    0    0    0  0.00000000000E+00  0.00000000000E+00  0.45593999997E+02  0.45594000000E+02  0.51100000000E-03 0. -1.
         11   -1    0    0    0    0 -0.00000000000E+00 -0.00000000000E+00 -0.45593999997E+02  0.45594000000E+02  0.51100000000E-03 0.  1.
    9900012    2    1    2    0    0  0.92489797145E+01  0.12986807256E+02  0.98223354960E+01  0.72461573137E+02  0.70000003703E+02 0.  0.
         12    1    1    2    0    0 -0.92489797145E+01 -0.12986807256E+02 -0.98223354960E+01  0.18726426863E+02  0.00000000000E+00 0. -1.
         11    1    3    3    0    0  0.57978391741E+01  0.25719969906E+02  0.58408349827E+01  0.27004576364E+02  0.51100000000E-03 0. -1.
        -11    1    3    3    0    0 -0.19586197013E+02 -0.96234528826E+01  0.41309729466E+01  0.22210243055E+02  0.51100000000E-03 0.  1.
        -12    1    3    3    0    0  0.23037337554E+02 -0.31097097665E+01 -0.14947243333E+00  0.23246753718E+02  0.00000000000E+00 0.  1.
</event>
<event>
 7    1  0.1302069E-013  0.7246160E+02  0.7816164E-02  0.1226708E+00
        -11   -1    0    0    0    0  0.00000000000E+00  0.00000000000E+00  0.45593999997E+02  0.45594000000E+02  0.51100000000E-03 0.  1.
         11   -1    0    0    0    0 -0.00000000000E+00 -0.00000000000E+00 -0.45593999997E+02  0.45594000000E+02  0.51100000000E-03 0. -1.
    9900012    2    1    2    0    0 -0.14173633469E+02 -0.10709409508E+02  0.59240755731E+01  0.72461601277E+02  0.70000040361E+02 0.  0.
         12    1    1    2    0    0  0.14173633469E+02  0.10709409508E+02 -0.59240755731E+01  0.18726398723E+02  0.00000000000E+00 0. -1.
         11    1    3    3    0    0 -0.32129072729E+01  0.23580666050E+02 -0.82101038605E+01  0.25174915892E+02  0.51100000000E-03 0. -1.
        -11    1    3    3    0    0 -0.11091939123E+02 -0.29326622644E+02 -0.98854543861E+00  0.31369716791E+02  0.51100000000E-03 0.  1.
        -12    1    3    3    0    0  0.13121292644E+00 -0.49634529140E+01  0.15122724872E+02  0.15916968594E+02  0.00000000000E+00 0.  1.
</event>
<event>
 7    1  0.1302069E-013  0.7246155E+02  0.7816164E-02  0.1226708E+00
        -11   -1    0    0    0    0  0.00000000000E+00  0.00000000000E+00  0.45593999997E+02  0.45594000000E+02  0.51100000000E-03 0.  1.
         11   -1    0    0    0    0 -0.00000000000E+00 -0.00000000000E+00 -0.45593999997E+02  0.45594000000E+02  0.51100000000E-03 0. -1.
    9900012    2    1    2    0    0 -0.75476145268E+00 -0.18420155649E+02 -0.32875861393E+01  0.72461547544E+02  0.69999970363E+02 0.  0.
         12    1    1    2    0    0  0.75476145268E+00  0.18420155649E+02  0.32875861393E+01  0.18726452456E+02  0.00000000000E+00 0. -1.
         11    1    3    3    0    0 -0.74006780302E+00 -0.34499556048E+02 -0.21715426502E+02  0.40771642305E+02  0.51100000000E-03 0. -1.
        -11    1    3    3    0    0  0.18040770691E+01  0.15564733637E+02  0.27620770713E+01  0.15910521591E+02  0.51100000000E-03 0.  1.
         12    1    3    3    0    0 -0.18187707188E+01  0.51466676190E+00  0.15665763291E+02  0.15779383648E+02  0.00000000000E+00 0. -1.
</event>
<event>
 7    1  0.1302069E-013  0.7246158E+02  0.7816164E-02  0.1226708E+00
        -11   -1    0    0    0    0  0.00000000000E+00  0.00000000000E+00  0.45593999997E+02  0.45594000000E+02  0.51100000000E-03 0. -1.
         11   -1    0    0    0    0 -0.00000000000E+00 -0.00000000000E+00 -0.45593999997E+02  0.45594000000E+02  0.51100000000E-03 0.  1.
    9900012    2    1    2    0    0  0.21138505819E+01 -0.17829912727E+02 -0.53202195406E+01  0.72461577808E+02  0.70000009789E+02 0.  0.
         12    1    1    2    0    0 -0.21138505819E+01  0.17829912727E+02  0.53202195406E+01  0.18726422192E+02  0.00000000000E+00 0. -1.
         11    1    3    3    0    0  0.10112646117E+02  0.12538896043E+02 -0.67910606058E+01  0.17481648374E+02  0.51100000000E-03 0. -1.
        -11    1    3    3    0    0 -0.21403417313E+02 -0.34777367536E+02  0.56295640076E+00  0.40839790469E+02  0.51100000000E-03 0.  1.
        -12    1    3    3    0    0  0.13404621777E+02  0.44085587666E+01  0.90788466444E+00  0.14140138965E+02  0.00000000000E+00 0.  1.
</event>
<event>
 7    1  0.1302069E-013  0.7246158E+02  0.7816164E-02  0.1226708E+00
        -11   -1    0    0    0    0  0.00000000000E+00  0.00000000000E+00  0.45593999997E+02  0.45594000000E+02  0.51100000000E-03 0. -1.
         11   -1    0    0    0    0 -0.00000000000E+00 -0.00000000000E+00 -0.45593999997E+02  0.45594000000E+02  0.51100000000E-03 0.  1.
    9900012    2    1    2    0    0 -0.17854359552E+02  0.55789651231E+01 -0.88088323562E+00  0.72461575832E+02  0.70000007214E+02 0.  0.
         12    1    1    2    0    0  0.17854359552E+02 -0.55789651231E+01  0.88088323562E+00  0.18726424168E+02  0.00000000000E+00 0. -1.
         11    1    3    3    0    0  0.32843043758E+01 -0.19236539959E+02  0.15318184118E+02  0.24808826851E+02  0.51100000000E-03 0. -1.
        -11    1    3    3    0    0 -0.16886371915E+02  0.17015692873E+01 -0.17154715647E+02  0.24131497336E+02  0.51100000000E-03 0.  1.
         12    1    3    3    0    0 -0.42522920120E+01  0.23113935794E+02  0.95564829337E+00  0.23521251644E+02  0.00000000000E+00 0. -1.
</event>
<event>
 7    1  0.1302069E-013  0.7246157E+02  0.7816164E-02  0.1226708E+00
        -11   -1    0    0    0    0  0.00000000000E+00  0.00000000000E+00  0.45593999997E+02  0.45594000000E+02  0.51100000000E-03 0. -1.
         11   -1    0    0    0    0 -0.00000000000E+00 -0.00000000000E+00 -0.45593999997E+02  0.45594000000E+02  0.51100000000E-03 0.  1.
    9900012    2    1    2    0    0  0.10566863817E+02  0.13149272715E+02 -0.81312562797E+01  0.72461566475E+02  0.69999995025E+02 0.  0.
         12    1    1    2    0    0 -0.10566863817E+02 -0.13149272715E+02  0.81312562797E+01  0.18726433525E+02  0.00000000000E+00 0. -1.
         11    1    3    3    0    0 -0.11661242675E+02  0.19518614339E+02 -0.34658537323E+01  0.22999413662E+02  0.51100000000E-03 0. -1.
        -11    1    3    3    0    0  0.74868638052E+01 -0.11595046353E+02 -0.22090301372E+02  0.26047641823E+02  0.51100000000E-03 0.  1.
        -12    1    3    3    0    0  0.14741242687E+02  0.52257047286E+01  0.17424898825E+02  0.23414510990E+02  0.00000000000E+00 0.  1.
</event>
<event>
 7    1  0.1302069E-013  0.7246177E+02  0.7816164E-02  0.1226707E+00
        -11   -1    0    0    0    0  0.00000000000E+00  0.00000000000E+00  0.45593999997E+02  0.45594000000E+02  0.51100000000E-03 0. -1.
         11   -1    0    0    0    0 -0.00000000000E+00 -0.00000000000E+00 -0.45593999997E+02  0.45594000000E+02  0.51100000000E-03 0.  1.
    9900012    2    1    2    0    0 -0.11775147585E+02 -0.12494800793E+02 -0.74764616963E+01  0.72461771682E+02  0.70000262344E+02 0.  0.
         12    1    1    2    0    0  0.11775147585E+02  0.12494800793E+02  0.74764616963E+01  0.18726228318E+02  0.00000000000E+00 0. -1.
         11    1    3    3    0    0  0.20880342248E+02 -0.14653792167E+02  0.11997673182E+02  0.28189829359E+02  0.51100000000E-03 0. -1.
        -11    1    3    3    0    0 -0.20290736611E+02  0.65708616857E+01 -0.22284508132E+02  0.30846223731E+02  0.51100000000E-03 0.  1.
         12    1    3    3    0    0 -0.12364753222E+02 -0.44118703120E+01  0.28103732531E+01  0.13425718592E+02  0.00000000000E+00 0. -1.
</event>
<event>
 7    1  0.1302069E-013  0.7246156E+02  0.7816164E-02  0.1226708E+00
        -11   -1    0    0    0    0  0.00000000000E+00  0.00000000000E+00  0.45593999997E+02  0.45594000000E+02  0.51100000000E-03 0.  1.
         11   -1    0    0    0    0 -0.00000000000E+00 -0.00000000000E+00 -0.45593999997E+02  0.45594000000E+02  0.51100000000E-03 0. -1.
    9900012    2    1    2    0    0 -0.99017822061E+01 -0.15275867526E+02  0.43911291745E+01  0.72461563207E+02  0.69999990767E+02 0.  0.
         12    1    1    2    0    0  0.99017822061E+01  0.15275867526E+02 -0.43911291745E+01  0.18726436793E+02  0.00000000000E+00 0. -1.
         11    1    3    3    0    0 -0.12219715838E+02  0.17822629386E+02 -0.36345133438E+01  0.21912947335E+02  0.51100000000E-03 0. -1.
        -11    1    3    3    0    0  0.68447031917E+00 -0.22109494359E+02 -0.13790365801E+02  0.26066691957E+02  0.51100000000E-03 0.  1.
        -12    1    3    3    0    0  0.16334633132E+01 -0.10989002554E+02  0.21816008320E+02  0.24481923914E+02  0.00000000000E+00 0.  1.
</event>
<event>
 7    1  0.1302069E-013  0.7246165E+02  0.7816164E-02  0.1226708E+00
        -11   -1    0    0    0    0  0.00000000000E+00  0.00000000000E+00  0.45593999997E+02  0.45594000000E+02  0.51100000000E-03 0.  1.
         11   -1    0    0    0    0 -0.00000000000E+00 -0.00000000000E+00 -0.45593999997E+02  0.45594000000E+02  0.51100000000E-03 0. -1.
    9900012    2    1    2    0    0  0.82577283982E+01 -0.10920154124E+02  0.12776401742E+02  0.72461647289E+02  0.70000100299E+02 0.  0.
         12    1    1    2    0    0 -0.82577283982E+01  0.10920154124E+02 -0.12776401742E+02  0.18726352711E+02  0.00000000000E+00 0. -1.
         11    1    3    3    0    0  0.12466787946E+02 -0.68401439208E+00 -0.23134924897E+02  0.26289036263E+02  0.51100000000E-03 0. -1.
        -11    1    3    3    0    0 -0.97167814298E+01 -0.15705241491E+02  0.14758652533E+02  0.23640818017E+02  0.51100000000E-03 0.  1.
        -12    1    3    3    0    0  0.55077218821E+01  0.54691017585E+01  0.21152674106E+02  0.22531793009E+02  0.00000000000E+00 0.  1.
</event>
<event>
 7    1  0.1302069E-013  0.7246133E+02  0.7816164E-02  0.1226709E+00
        -11   -1    0    0    0    0  0.00000000000E+00  0.00000000000E+00  0.45593999997E+02  0.45594000000E+02  0.51100000000E-03 0. -1.
         11   -1    0    0    0    0 -0.00000000000E+00 -0.00000000000E+00 -0.45593999997E+02  0.45594000000E+02  0.51100000000E-03 0.  1.
    9900012    2    1    2    0    0 -0.10639552812E+02 -0.45954649524E+01 -0.14709517102E+02  0.72461327164E+02  0.69999683276E+02 0.  0.
         12    1    1    2    0    0  0.10639552812E+02  0.45954649524E+01  0.14709517102E+02  0.18726672836E+02  0.00000000000E+00 0. -1.
         11    1    3    3    0    0 -0.17633462753E+02 -0.15148709884E+02  0.32911361850E+01  0.23478798893E+02  0.51100000000E-03 0. -1.
        -11    1    3    3    0    0  0.15977949812E+02  0.29507656789E+01 -0.28762685186E+02  0.33034738649E+02  0.51100000000E-03 0.  1.
         12    1    3    3    0    0 -0.89840398709E+01  0.76024792532E+01  0.10762031899E+02  0.15947789621E+02  0.00000000000E+00 0. -1.
</event>
<event>
 7    1  0.1302069E-013  0.7246157E+02  0.7816164E-02  0.1226708E+00
        -11   -1    0    0    0    0  0.00000000000E+00  0.00000000000E+00  0.45593999997E+02  0.45594000000E+02  0.51100000000E-03 0.  1.
         11   -1    0    0    0    0 -0.00000000000E+00 -0.00000000000E+00 -0.45593999997E+02  0.45594000000E+02  0.51100000000E-03 0. -1.
    9900012    2    1    2    0    0  0.17725440913E+02  0.60321105982E+01 -0.31844959262E+00  0.72461574180E+02  0.70000005062E+02 0.  0.
         12    1    1    2    0    0 -0.17725440913E+02 -0.60321105982E+01  0.31844959262E+00  0.18726425820E+02  0.00000000000E+00 0. -1.
         11    1    3    3    0    0 -0.20346325182E+02 -0.81111919280E+01 -0.18721907917E+01  0.21983391038E+02  0.51100000000E-03 0. -1.
        -11    1    3    3    0    0  0.19033701142E+02  0.12555951868E+02  0.14842084800E+02  0.27207006229E+02  0.51100000000E-03 0.  1.
        -12    1    3    3    0    0  0.19038064953E+02  0.15873506580E+01 -0.13288343601E+02  0.23271176913E+02  0.00000000000E+00 0.  1.
</event>
<event>
 7    1  0.1302069E-013  0.7246159E+02  0.7816164E-02  0.1226708E+00
        -11   -1    0    0    0    0  0.00000000000E+00  0.00000000000E+00  0.45593999997E+02  0.45594000000E+02  0.51100000000E-03 0.  1.
         11   -1    0    0    0    0 -0.00000000000E+00 -0.00000000000E+00 -0.45593999997E+02  0.45594000000E+02  0.51100000000E-03 0. -1.
    9900012    2    1    2    0    0 -0.12228292828E+01 -0.11648841248E+02  0.14611217339E+02  0.72461588544E+02  0.70000023774E+02 0.  0.
         12    1    1    2    0    0  0.12228292828E+01  0.11648841248E+02 -0.14611217339E+02  0.18726411456E+02  0.00000000000E+00 0. -1.
         11    1    3    3    0    0 -0.26723187429E+02 -0.23391956815E+01 -0.64695206765E+00  0.26833172195E+02  0.51100000000E-03 0. -1.
        -11    1    3    3    0    0  0.13617728672E+02 -0.20462942199E+02  0.15975910448E+02  0.29315597428E+02  0.51100000000E-03 0.  1.
        -12    1    3    3    0    0  0.11882629474E+02  0.11153296632E+02 -0.71774104187E+00  0.16312818922E+02  0.00000000000E+00 0.  1.
</event>
<event>
 7    1  0.1302069E-013  0.7246160E+02  0.7816164E-02  0.1226708E+00
        -11   -1    0    0    0    0  0.00000000000E+00  0.00000000000E+00  0.45593999997E+02  0.45594000000E+02  0.51100000000E-03 0. -1.
         11   -1    0    0    0    0 -0.00000000000E+00 -0.00000000000E+00 -0.45593999997E+02  0.45594000000E+02  0.51100000000E-03 0.  1.
    9900012    2    1    2    0    0  0.86942362290E+01  0.10227882452E+02 -0.13056750185E+02  0.72461600227E+02  0.70000038993E+02 0.  0.
         12    1    1    2    0    0 -0.86942362290E+01 -0.10227882452E+02  0.13056750185E+02  0.18726399773E+02  0.00000000000E+00 0. -1.
         11    1    3    3    0    0  0.14651902567E+02 -0.14587207594E+02  0.79136114095E+01  0.22137979132E+02  0.51100000000E-03 0. -1.
        -11    1    3    3    0    0  0.55987048175E+01  0.28795820181E+02 -0.42940442474E+01  0.29647657104E+02  0.51100000000E-03 0.  1.
         12    1    3    3    0    0 -0.11556371155E+02 -0.39807301347E+01 -0.16676317347E+02  0.20675963991E+02  0.00000000000E+00 0. -1.
</event>
<event>
 7    1  0.1302069E-013  0.7246150E+02  0.7816164E-02  0.1226708E+00
        -11   -1    0    0    0    0  0.00000000000E+00  0.00000000000E+00  0.45593999997E+02  0.45594000000E+02  0.51100000000E-03 0.  1.
         11   -1    0    0    0    0 -0.00000000000E+00 -0.00000000000E+00 -0.45593999997E+02  0.45594000000E+02  0.51100000000E-03 0. -1.
    9900012    2    1    2    0    0 -0.32766329404E+01 -0.18206762201E+02  0.29084820255E+01  0.72461500568E+02  0.69999909169E+02 0.  0.
         12    1    1    2    0    0  0.32766329404E+01  0.18206762201E+02 -0.29084820255E+01  0.18726499432E+02  0.00000000000E+00 0. -1.
         11    1    3    3    0    0 -0.69578853717E+01 -0.32677383452E+02 -0.12298983009E+02  0.35601805312E+02  0.51100000000E-03 0. -1.
        -11    1    3    3    0    0  0.80495482796E+01  0.61950541260E+00  0.19998204139E+02  0.21566343768E+02  0.51100000000E-03 0.  1.
         12    1    3    3    0    0 -0.43682958483E+01  0.13851115838E+02 -0.47907391045E+01  0.15293351489E+02  0.00000000000E+00 0. -1.
</event>
<event>
 7    1  0.1302069E-013  0.7246160E+02  0.7816164E-02  0.1226708E+00
        -11   -1    0    0    0    0  0.00000000000E+00  0.00000000000E+00  0.45593999997E+02  0.45594000000E+02  0.51100000000E-03 0. -1.
         11   -1    0    0    0    0 -0.00000000000E+00 -0.00000000000E+00 -0.45593999997E+02  0.45594000000E+02  0.51100000000E-03 0.  1.
    9900012    2    1    2    0    0  0.66793312202E+01 -0.13527208028E+02 -0.11094111998E+02  0.72461597687E+02  0.70000035683E+02 0.  0.
         12    1    1    2    0    0 -0.66793312202E+01  0.13527208028E+02  0.11094111998E+02  0.18726402313E+02  0.00000000000E+00 0. -1.
         11    1    3    3    0    0  0.12025008962E+02  0.20205008824E+02  0.26314585371E+01  0.23659412427E+02  0.51100000000E-03 0. -1.
        -11    1    3    3    0    0  0.11659590085E+02 -0.25259607890E+02 -0.76021474457E+01  0.28840708690E+02  0.51100000000E-03 0.  1.
         12    1    3    3    0    0 -0.17005267827E+02 -0.84726089615E+01 -0.61234230897E+01  0.19961476569E+02  0.00000000000E+00 0. -1.
</event>
<event>
 7    1  0.1302069E-013  0.7246152E+02  0.7816164E-02  0.1226708E+00
        -11   -1    0    0    0    0  0.00000000000E+00  0.00000000000E+00  0.45593999997E+02  0.45594000000E+02  0.51100000000E-03 0.  1.
         11   -1    0    0    0    0 -0.00000000000E+00 -0.00000000000E+00 -0.45593999997E+02  0.45594000000E+02  0.51100000000E-03 0. -1.
    9900012    2    1    2    0    0 -0.65228346942E+00 -0.69113530887E+01  0.17392208034E+02  0.72461516733E+02  0.69999930226E+02 0.  0.
         12    1    1    2    0    0  0.65228346942E+00  0.69113530887E+01 -0.17392208034E+02  0.18726483267E+02  0.00000000000E+00 0. -1.
         11    1    3    3    0    0  0.99319270389E+01  0.15129080670E+02 -0.67343736973E+01  0.19310205747E+02  0.51100000000E-03 0. -1.
        -11    1    3    3    0    0  0.84571295591E+01 -0.13665935260E+02  0.27719827058E+02  0.32041685962E+02  0.51100000000E-03 0.  1.
        -12    1    3    3    0    0 -0.19041340067E+02 -0.83744984991E+01 -0.35932453264E+01  0.21109625024E+02  0.00000000000E+00 0.  1.
</event>
<event>
 7    1  0.1302069E-013  0.7246166E+02  0.7816164E-02  0.1226708E+00
        -11   -1    0    0    0    0  0.00000000000E+00  0.00000000000E+00  0.45593999997E+02  0.45594000000E+02  0.51100000000E-03 0.  1.
         11   -1    0    0    0    0 -0.00000000000E+00 -0.00000000000E+00 -0.45593999997E+02  0.45594000000E+02  0.51100000000E-03 0. -1.
    9900012    2    1    2    0    0  0.12321658129E+02 -0.13250458586E+02  0.48247042532E+01  0.72461663388E+02  0.70000121272E+02 0.  0.
         12    1    1    2    0    0 -0.12321658129E+02  0.13250458586E+02 -0.48247042532E+01  0.18726336612E+02  0.00000000000E+00 0. -1.
         11    1    3    3    0    0  0.26004398739E+02 -0.89978740527E+01  0.72529352424E+01  0.28456907090E+02  0.51100000000E-03 0. -1.
        -11    1    3    3    0    0 -0.10373897301E+02  0.15664676017E+02 -0.11329042093E+02  0.21939622033E+02  0.51100000000E-03 0.  1.
        -12    1    3    3    0    0 -0.33088433089E+01 -0.19917260550E+02  0.89008111034E+01  0.22065134266E+02  0.00000000000E+00 0.  1.
</event>
<event>
 7    1  0.1302069E-013  0.7246158E+02  0.7816164E-02  0.1226708E+00
        -11   -1    0    0    0    0  0.00000000000E+00  0.00000000000E+00  0.45593999997E+02  0.45594000000E+02  0.51100000000E-03 0. -1.
         11   -1    0    0    0    0 -0.00000000000E+00 -0.00000000000E+00 -0.45593999997E+02  0.45594000000E+02  0.51100000000E-03 0.  1.
    9900012    2    1    2    0    0 -0.18089836313E+02 -0.31651130492E+01 -0.36631523026E+01  0.72461580074E+02  0.70000012740E+02 0.  0.
         12    1    1    2    0    0  0.18089836313E+02  0.31651130492E+01  0.36631523026E+01  0.18726419926E+02  0.00000000000E+00 0. -1.
         11    1    3    3    0    0  0.18155683283E+02  0.18386110466E+02  0.60838912401E+01  0.26546028449E+02  0.51100000000E-03 0.  1.
        -11    1    3    3    0    0 -0.32180681696E+02 -0.15296431714E+02 -0.12792902724E+02  0.37858096333E+02  0.51100000000E-03 0. -1.
        -12    1    3    3    0    0 -0.40648379009E+01 -0.62547918007E+01  0.30458591816E+01  0.80574552922E+01  0.00000000000E+00 0.  1.
</event>
<event>
 7    1  0.1302069E-013  0.7246156E+02  0.7816164E-02  0.1226708E+00
        -11   -1    0    0    0    0  0.00000000000E+00  0.00000000000E+00  0.45593999997E+02  0.45594000000E+02  0.51100000000E-03 0. -1.
         11   -1    0    0    0    0 -0.00000000000E+00 -0.00000000000E+00 -0.45593999997E+02  0.45594000000E+02  0.51100000000E-03 0.  1.
    9900012    2    1    2    0    0 -0.16691532601E+02 -0.84565891450E+01 -0.74718584156E+00  0.72461562880E+02  0.69999990341E+02 0.  0.
         12    1    1    2    0    0  0.16691532601E+02  0.84565891450E+01  0.74718584156E+00  0.18726437120E+02  0.00000000000E+00 0. -1.
         11    1    3    3    0    0 -0.27368288002E+02  0.66218671629E+01  0.38511353634E+01  0.28420125910E+02  0.51100000000E-03 0. -1.
        -11    1    3    3    0    0  0.16269803466E+02 -0.70931346162E+00  0.12858645419E+02  0.20749804642E+02  0.51100000000E-03 0.  1.
         12    1    3    3    0    0 -0.55930480646E+01 -0.14369142846E+02 -0.17456966624E+02  0.23291632328E+02  0.00000000000E+00 0. -1.
</event>
<event>
 7    1  0.1302069E-013  0.7246115E+02  0.7816164E-02  0.1226709E+00
        -11   -1    0    0    0    0  0.00000000000E+00  0.00000000000E+00  0.45593999997E+02  0.45594000000E+02  0.51100000000E-03 0.  1.
         11   -1    0    0    0    0 -0.00000000000E+00 -0.00000000000E+00 -0.45593999997E+02  0.45594000000E+02  0.51100000000E-03 0. -1.
    9900012    2    1    2    0    0  0.10393619867E+02 -0.26943201249E+01  0.15343024319E+02  0.72461145216E+02  0.69999446254E+02 0.  0.
         12    1    1    2    0    0 -0.10393619867E+02  0.26943201249E+01 -0.15343024319E+02  0.18726854784E+02  0.00000000000E+00 0. -1.
         11    1    3    3    0    0 -0.52057193834E+01  0.98724942231E+01 -0.85712810969E+01  0.14072402652E+02  0.51100000000E-03 0. -1.
        -11    1    3    3    0    0  0.33302419909E+02 -0.55470358520E+01  0.11546790620E+02  0.35681215680E+02  0.51100000000E-03 0.  1.
        -12    1    3    3    0    0 -0.17703080659E+02 -0.70197784960E+01  0.12367514796E+02  0.22707526884E+02  0.00000000000E+00 0.  1.
</event>
<event>
 7    1  0.1302069E-013  0.7246157E+02  0.7816164E-02  0.1226708E+00
        -11   -1    0    0    0    0  0.00000000000E+00  0.00000000000E+00  0.45593999997E+02  0.45594000000E+02  0.51100000000E-03 0.  1.
         11   -1    0    0    0    0 -0.00000000000E+00 -0.00000000000E+00 -0.45593999997E+02  0.45594000000E+02  0.51100000000E-03 0. -1.
    9900012    2    1    2    0    0  0.81768279128E+00 -0.18631021424E+02  0.17017046640E+01  0.72461565123E+02  0.69999993263E+02 0.  0.
         12    1    1    2    0    0 -0.81768279128E+00  0.18631021424E+02 -0.17017046640E+01  0.18726434877E+02  0.00000000000E+00 0. -1.
         11    1    3    3    0    0  0.25471887161E+02 -0.76697059323E+01  0.14648974046E+02  0.30368303632E+02  0.51100000000E-03 0.  1.
        -11    1    3    3    0    0 -0.11797975718E+02 -0.20114774470E+02 -0.31847418838E+01  0.23535907974E+02  0.51100000000E-03 0. -1.
         12    1    3    3    0    0 -0.12856228652E+02  0.91534589787E+01 -0.97625274985E+01  0.18557353518E+02  0.00000000000E+00 0. -1.
</event>
<event>
 7    1  0.1529369E-013  0.7246156E+02  0.7816164E-02  0.1226708E+00
        -11   -1    0    0    0    0  0.00000000000E+00  0.00000000000E+00  0.45593999997E+02  0.45594000000E+02  0.51100000000E-03 0. -1.
         11   -1    0    0    0    0 -0.00000000000E+00 -0.00000000000E+00 -0.45593999997E+02  0.45594000000E+02  0.51100000000E-03 0.  1.
    9900012    2    1    2    0    0  0.11194982963E+02 -0.12199516394E+02 -0.87477869064E+01  0.72461558278E+02  0.69999984347E+02 0.  0.
         12    1    1    2    0    0 -0.11194982963E+02  0.12199516394E+02  0.87477869064E+01  0.18726441722E+02  0.00000000000E+00 0. -1.
         11    1    3    3    0    0  0.97615752099E+01  0.15448666574E+02  0.11050075043E+02  0.21355416367E+02  0.51100000000E-03 0.  1.
        -11    1    3    3    0    0 -0.55721843989E+01 -0.10885853408E+02 -0.28462382814E+02  0.30978351781E+02  0.51100000000E-03 0. -1.
        -12    1    3    3    0    0  0.70055921519E+01 -0.16762329561E+02  0.86645208643E+01  0.20127790130E+02  0.00000000000E+00 0.  1.
</event>
<event>
 7    1  0.1302069E-013  0.7246155E+02  0.7816164E-02  0.1226708E+00
        -11   -1    0    0    0    0  0.00000000000E+00  0.00000000000E+00  0.45593999997E+02  0.45594000000E+02  0.51100000000E-03 0.  1.
         11   -1    0    0    0    0 -0.00000000000E+00 -0.00000000000E+00 -0.45593999997E+02  0.45594000000E+02  0.51100000000E-03 0. -1.
    9900012    2    1    2    0    0  0.78923751556E+01  0.15476828385E+02  0.69898542905E+01  0.72461551712E+02  0.69999975793E+02 0.  0.
         12    1    1    2    0    0 -0.78923751556E+01 -0.15476828385E+02 -0.69898542905E+01  0.18726448288E+02  0.00000000000E+00 0. -1.
         11    1    3    3    0    0  0.16571163269E+02 -0.67740381829E+01 -0.17557789167E+02  0.25075226940E+02  0.51100000000E-03 0. -1.
        -11    1    3    3    0    0 -0.14635257651E+01  0.22987346531E+01  0.25978888692E+02  0.26121423135E+02  0.51100000000E-03 0.  1.
         12    1    3    3    0    0 -0.72152623481E+01  0.19952131915E+02 -0.14312452344E+01  0.21264901637E+02  0.00000000000E+00 0. -1.
</event>
<event>
 7    1  0.1302069E-013  0.7246159E+02  0.7816164E-02  0.1226708E+00
        -11   -1    0    0    0    0  0.00000000000E+00  0.00000000000E+00  0.45593999997E+02  0.45594000000E+02  0.51100000000E-03 0. -1.
         11   -1    0    0    0    0 -0.00000000000E+00 -0.00000000000E+00 -0.45593999997E+02  0.45594000000E+02  0.51100000000E-03 0.  1.
    9900012    2    1    2    0    0 -0.17927337309E+02 -0.19470907900E+01 -0.50495538676E+01  0.72461586040E+02  0.70000020512E+02 0.  0.
         12    1    1    2    0    0  0.17927337309E+02  0.19470907900E+01  0.50495538676E+01  0.18726413960E+02  0.00000000000E+00 0. -1.
         11    1    3    3    0    0  0.64958363552E+00  0.16959329484E+02 -0.24903190619E+02  0.30136518026E+02  0.51100000000E-03 0. -1.
        -11    1    3    3    0    0 -0.21077571525E+02 -0.58591076407E+01  0.50838441330E+01  0.22459711378E+02  0.51100000000E-03 0.  1.
         12    1    3    3    0    0  0.25006505806E+01 -0.13047312633E+02  0.14769792619E+02  0.19865356636E+02  0.00000000000E+00 0. -1.
</event>
<event>
 7    1  0.1302069E-013  0.7246155E+02  0.7816164E-02  0.1226708E+00
        -11   -1    0    0    0    0  0.00000000000E+00  0.00000000000E+00  0.45593999997E+02  0.45594000000E+02  0.51100000000E-03 0. -1.
         11   -1    0    0    0    0 -0.00000000000E+00 -0.00000000000E+00 -0.45593999997E+02  0.45594000000E+02  0.51100000000E-03 0.  1.
    9900012    2    1    2    0    0  0.16008438235E+02  0.94316901294E+01 -0.23351437249E+01  0.72461554271E+02  0.69999979127E+02 0.  0.
         12    1    1    2    0    0 -0.16008438235E+02 -0.94316901294E+01  0.23351437249E+01  0.18726445729E+02  0.00000000000E+00 0. -1.
         11    1    3    3    0    0  0.15809983096E+02  0.45138068447E+01 -0.62461360116E+01  0.17588184473E+02  0.51100000000E-03 0. -1.
        -11    1    3    3    0    0 -0.42187432143E+01 -0.99609602837E+01 -0.22087622575E+02  0.24594340719E+02  0.51100000000E-03 0.  1.
        -12    1    3    3    0    0  0.44171983534E+01  0.14878843568E+02  0.25998614862E+02  0.30279029079E+02  0.00000000000E+00 0.  1.
</event>
<event>
 7    1  0.1620928E-013  0.7246170E+02  0.7816164E-02  0.1226708E+00
        -11   -1    0    0    0    0  0.00000000000E+00  0.00000000000E+00  0.45593999997E+02  0.45594000000E+02  0.51100000000E-03 0. -1.
         11   -1    0    0    0    0 -0.00000000000E+00 -0.00000000000E+00 -0.45593999997E+02  0.45594000000E+02  0.51100000000E-03 0.  1.
    9900012    2    1    2    0    0  0.49078649988E+01 -0.44099633846E+01 -0.17525395804E+02  0.72461697268E+02  0.70000165407E+02 0.  0.
         12    1    1    2    0    0 -0.49078649988E+01  0.44099633846E+01  0.17525395804E+02  0.18726302732E+02  0.00000000000E+00 0. -1.
         11    1    3    3    0    0  0.62276929843E+01  0.60657311304E+01  0.17307280524E+02  0.19367994564E+02  0.51100000000E-03 0. -1.
        -11    1    3    3    0    0  0.52453575046E+01  0.12708686955E+02 -0.21597071999E+02  0.25601914355E+02  0.51100000000E-03 0.  1.
        -12    1    3    3    0    0 -0.65651854901E+01 -0.23184381470E+02 -0.13235604329E+02  0.27491788349E+02  0.00000000000E+00 0.  1.
</event>
<event>
 7    1  0.1302069E-013  0.7246183E+02  0.7816164E-02  0.1226707E+00
        -11   -1    0    0    0    0  0.00000000000E+00  0.00000000000E+00  0.45593999997E+02  0.45594000000E+02  0.51100000000E-03 0.  1.
         11   -1    0    0    0    0 -0.00000000000E+00 -0.00000000000E+00 -0.45593999997E+02  0.45594000000E+02  0.51100000000E-03 0. -1.
    9900012    2    1    2    0    0  0.15649003487E+02 -0.10280993781E+02 -0.28173550834E+00  0.72461827990E+02  0.70000335696E+02 0.  0.
         12    1    1    2    0    0 -0.15649003487E+02  0.10280993781E+02  0.28173550834E+00  0.18726172010E+02  0.00000000000E+00 0. -1.
         11    1    3    3    0    0 -0.17144913497E+02 -0.24167529060E+02 -0.31837207863E+01  0.29801905945E+02  0.51100000000E-03 0. -1.
        -11    1    3    3    0    0  0.17832223722E+02  0.10294667902E+02 -0.97096593110E+01  0.22765014261E+02  0.51100000000E-03 0.  1.
        -12    1    3    3    0    0  0.14961693262E+02  0.35918673772E+01  0.12611644589E+02  0.19894907784E+02  0.00000000000E+00 0.  1.
</event>
<event>
 7    1  0.1302069E-013  0.7246156E+02  0.7816164E-02  0.1226708E+00
        -11   -1    0    0    0    0  0.00000000000E+00  0.00000000000E+00  0.45593999997E+02  0.45594000000E+02  0.51100000000E-03 0.  1.
         11   -1    0    0    0    0 -0.00000000000E+00 -0.00000000000E+00 -0.45593999997E+02  0.45594000000E+02  0.51100000000E-03 0. -1.
    9900012    2    1    2    0    0 -0.15014029231E+02  0.19967166018E+00  0.11190108044E+02  0.72461562524E+02  0.69999989877E+02 0.  0.
         12    1    1    2    0    0  0.15014029231E+02 -0.19967166018E+00 -0.11190108044E+02  0.18726437476E+02  0.00000000000E+00 0. -1.
         11    1    3    3    0    0  0.19383152840E+02  0.50040666813E+01  0.23155608221E+02  0.30609303973E+02  0.51100000000E-03 0. -1.
        -11    1    3    3    0    0 -0.34086788567E+02 -0.32224116746E+01 -0.15788149606E+02  0.37703564288E+02  0.51100000000E-03 0.  1.
        -12    1    3    3    0    0 -0.31039350415E+00 -0.15819833465E+01  0.38226494278E+01  0.41486942625E+01  0.00000000000E+00 0.  1.
</event>
<event>
 7    1  0.1302069E-013  0.7246151E+02  0.7816164E-02  0.1226708E+00
        -11   -1    0    0    0    0  0.00000000000E+00  0.00000000000E+00  0.45593999997E+02  0.45594000000E+02  0.51100000000E-03 0. -1.
         11   -1    0    0    0    0 -0.00000000000E+00 -0.00000000000E+00 -0.45593999997E+02  0.45594000000E+02  0.51100000000E-03 0.  1.
    9900012    2    1    2    0    0  0.39614970260E+00 -0.64103775871E+01 -0.17590671942E+02  0.72461505005E+02  0.69999914949E+02 0.  0.
         12    1    1    2    0    0 -0.39614970260E+00  0.64103775871E+01  0.17590671942E+02  0.18726494995E+02  0.00000000000E+00 0. -1.
         11    1    3    3    0    0  0.73277481785E+01  0.21553135533E+02  0.72716731869E+00  0.22776354345E+02  0.51100000000E-03 0. -1.
        -11    1    3    3    0    0  0.14349207432E+01 -0.33397369065E+02 -0.62156634315E+01  0.34001143071E+02  0.51100000000E-03 0.  1.
        -12    1    3    3    0    0 -0.83665192190E+01  0.54338559447E+01 -0.12102175830E+02  0.15684007590E+02  0.00000000000E+00 0.  1.
</event>
<event>
 7    1  0.1302069E-013  0.7246156E+02  0.7816164E-02  0.1226708E+00
        -11   -1    0    0    0    0  0.00000000000E+00  0.00000000000E+00  0.45593999997E+02  0.45594000000E+02  0.51100000000E-03 0.  1.
         11   -1    0    0    0    0 -0.00000000000E+00 -0.00000000000E+00 -0.45593999997E+02  0.45594000000E+02  0.51100000000E-03 0. -1.
    9900012    2    1    2    0    0 -0.29174346305E+01  0.13252653769E+01  0.18450249149E+02  0.72461562891E+02  0.69999990356E+02 0.  0.
         12    1    1    2    0    0  0.29174346305E+01 -0.13252653769E+01 -0.18450249149E+02  0.18726437109E+02  0.00000000000E+00 0. -1.
         11    1    3    3    0    0 -0.12555297494E+02  0.15668973000E+02 -0.27987079247E+01  0.20272764398E+02  0.51100000000E-03 0. -1.
        -11    1    3    3    0    0  0.37832748147E+01  0.42658785003E+01  0.30193569983E+02  0.30727228256E+02  0.51100000000E-03 0.  1.
        -12    1    3    3    0    0  0.58545880486E+01 -0.18609586124E+02 -0.89446129097E+01  0.21461570237E+02  0.00000000000E+00 0.  1.
</event>
<event>
 7    1  0.1302069E-013  0.7246150E+02  0.7816164E-02  0.1226708E+00
        -11   -1    0    0    0    0  0.00000000000E+00  0.00000000000E+00  0.45593999997E+02  0.45594000000E+02  0.51100000000E-03 0.  1.
         11   -1    0    0    0    0 -0.00000000000E+00 -0.00000000000E+00 -0.45593999997E+02  0.45594000000E+02  0.51100000000E-03 0. -1.
    9900012    2    1    2    0    0  0.17223674636E+02 -0.44919465596E+01  0.58179980828E+01  0.72461503970E+02  0.69999913600E+02 0.  0.
         12    1    1    2    0    0 -0.17223674636E+02  0.44919465596E+01 -0.58179980828E+01  0.18726496030E+02  0.00000000000E+00 0. -1.
         11    1    3    3    0    0  0.21198459969E+02  0.19009782994E+02 -0.16438411827E+02  0.32878076863E+02  0.51100000000E-03 0. -1.
        -11    1    3    3    0    0 -0.42195072790E+01 -0.27088454126E+02  0.14452708549E+02  0.30991440323E+02  0.51100000000E-03 0.  1.
        -12    1    3    3    0    0  0.24472194671E+00  0.35867245718E+01  0.78037013603E+01  0.85919867846E+01  0.00000000000E+00 0.  1.
</event>
<event>
 7    1  0.1302069E-013  0.7246166E+02  0.7816164E-02  0.1226708E+00
        -11   -1    0    0    0    0  0.00000000000E+00  0.00000000000E+00  0.45593999997E+02  0.45594000000E+02  0.51100000000E-03 0.  1.
         11   -1    0    0    0    0 -0.00000000000E+00 -0.00000000000E+00 -0.45593999997E+02  0.45594000000E+02  0.51100000000E-03 0. -1.
    9900012    2    1    2    0    0  0.15157869471E+02  0.93785449575E+01  0.57408669498E+01  0.72461663846E+02  0.70000121868E+02 0.  0.
         12    1    1    2    0    0 -0.15157869471E+02 -0.93785449575E+01 -0.57408669498E+01  0.18726336154E+02  0.00000000000E+00 0. -1.
         11    1    3    3    0    0 -0.14060914428E+02 -0.13472072500E+02 -0.33940711241E+01  0.19766784540E+02  0.51100000000E-03 0. -1.
        -11    1    3    3    0    0  0.11435397950E+02  0.16042560060E+02  0.22139452667E+02  0.29635914431E+02  0.51100000000E-03 0.  1.
         12    1    3    3    0    0  0.17783385949E+02  0.68080573976E+01 -0.13004514593E+02  0.23058964875E+02  0.00000000000E+00 0. -1.
</event>
<event>
 7    1  0.1302069E-013  0.7246157E+02  0.7816164E-02  0.1226708E+00
        -11   -1    0    0    0    0  0.00000000000E+00  0.00000000000E+00  0.45593999997E+02  0.45594000000E+02  0.51100000000E-03 0.  1.
         11   -1    0    0    0    0 -0.00000000000E+00 -0.00000000000E+00 -0.45593999997E+02  0.45594000000E+02  0.51100000000E-03 0. -1.
    9900012    2    1    2    0    0 -0.11981552052E+02  0.90876009015E+01  0.11159612179E+02  0.72461574187E+02  0.70000005071E+02 0.  0.
         12    1    1    2    0    0  0.11981552052E+02 -0.90876009015E+01 -0.11159612179E+02  0.18726425813E+02  0.00000000000E+00 0. -1.
         11    1    3    3    0    0  0.20496339431E+02 -0.75260838856E+01  0.68347733193E+01  0.22879160721E+02  0.51100000000E-03 0. -1.
        -11    1    3    3    0    0 -0.22560049323E+02  0.26479483052E+02 -0.48291978158E+00  0.34790114400E+02  0.51100000000E-03 0.  1.
        -12    1    3    3    0    0 -0.99178421598E+01 -0.98657982649E+01  0.48077586417E+01  0.14792299066E+02  0.00000000000E+00 0.  1.
</event>
<event>
 7    1  0.1302069E-013  0.7246145E+02  0.7816164E-02  0.1226708E+00
        -11   -1    0    0    0    0  0.00000000000E+00  0.00000000000E+00  0.45593999997E+02  0.45594000000E+02  0.51100000000E-03 0.  1.
         11   -1    0    0    0    0 -0.00000000000E+00 -0.00000000000E+00 -0.45593999997E+02  0.45594000000E+02  0.51100000000E-03 0. -1.
    9900012    2    1    2    0    0  0.12627267570E+01 -0.13050012974E+02  0.13371101973E+02  0.72461449718E+02  0.69999842927E+02 0.  0.
         12    1    1    2    0    0 -0.12627267570E+01  0.13050012974E+02 -0.13371101973E+02  0.18726550282E+02  0.00000000000E+00 0. -1.
         11    1    3    3    0    0 -0.66255403524E+01 -0.17474290407E+02  0.26588592703E+02  0.32499259566E+02  0.51100000000E-03 0.  1.
        -11    1    3    3    0    0 -0.51865361998E+01  0.13033894102E+02 -0.18698476119E+02  0.23375533419E+02  0.51100000000E-03 0. -1.
         12    1    3    3    0    0  0.13074803309E+02 -0.86096166688E+01  0.54809853885E+01  0.16586656733E+02  0.00000000000E+00 0. -1.
</event>
<event>
 7    1  0.1302069E-013  0.7246162E+02  0.7816164E-02  0.1226708E+00
        -11   -1    0    0    0    0  0.00000000000E+00  0.00000000000E+00  0.45593999997E+02  0.45594000000E+02  0.51100000000E-03 0.  1.
         11   -1    0    0    0    0 -0.00000000000E+00 -0.00000000000E+00 -0.45593999997E+02  0.45594000000E+02  0.51100000000E-03 0. -1.
    9900012    2    1    2    0    0  0.27316765333E+01 -0.75014761512E+01  0.16939399842E+02  0.72461615722E+02  0.70000059178E+02 0.  0.
         12    1    1    2    0    0 -0.27316765333E+01  0.75014761512E+01 -0.16939399842E+02  0.18726384278E+02  0.00000000000E+00 0. -1.
         11    1    3    3    0    0  0.16101830929E+02 -0.10529120979E+02 -0.54735578635E+01  0.20002279465E+02  0.51100000000E-03 0.  1.
        -11    1    3    3    0    0 -0.45160212550E+01  0.24015913459E+02  0.14084264262E+02  0.28205053578E+02  0.51100000000E-03 0. -1.
         12    1    3    3    0    0 -0.88541331404E+01 -0.20988268632E+02  0.83286934434E+01  0.24254282680E+02  0.00000000000E+00 0. -1.
</event>
<event>
 7    1  0.1302069E-013  0.7246159E+02  0.7816164E-02  0.1226708E+00
        -11   -1    0    0    0    0  0.00000000000E+00  0.00000000000E+00  0.45593999997E+02  0.45594000000E+02  0.51100000000E-03 0.  1.
         11   -1    0    0    0    0 -0.00000000000E+00 -0.00000000000E+00 -0.45593999997E+02  0.45594000000E+02  0.51100000000E-03 0. -1.
    9900012    2    1    2    0    0  0.52284895509E+01  0.17177856126E+02  0.53162415204E+01  0.72461594366E+02  0.70000031358E+02 0.  0.
         12    1    1    2    0    0 -0.52284895509E+01 -0.17177856126E+02 -0.53162415204E+01  0.18726405634E+02  0.00000000000E+00 0. -1.
         11    1    3    3    0    0  0.14663480292E+02 -0.41151885391E+01 -0.23214746060E+02  0.27764669382E+02  0.51100000000E-03 0. -1.
        -11    1    3    3    0    0  0.59662365737E+01  0.87730287347E+01  0.20888171333E+02  0.23428139361E+02  0.51100000000E-03 0.  1.
        -12    1    3    3    0    0 -0.15401227315E+02  0.12520015930E+02  0.76428162475E+01  0.21268785623E+02  0.00000000000E+00 0.  1.
</event>
<event>
 7    1  0.1302069E-013  0.7246153E+02  0.7816164E-02  0.1226708E+00
        -11   -1    0    0    0    0  0.00000000000E+00  0.00000000000E+00  0.45593999997E+02  0.45594000000E+02  0.51100000000E-03 0. -1.
         11   -1    0    0    0    0 -0.00000000000E+00 -0.00000000000E+00 -0.45593999997E+02  0.45594000000E+02  0.51100000000E-03 0.  1.
    9900012    2    1    2    0    0  0.14544970113E+02 -0.11793783121E+02  0.17611915930E+00  0.72461534935E+02  0.69999953938E+02 0.  0.
         12    1    1    2    0    0 -0.14544970113E+02  0.11793783121E+02 -0.17611915930E+00  0.18726465065E+02  0.00000000000E+00 0. -1.
         11    1    3    3    0    0  0.68988264155E+01 -0.36928195251E+02  0.10213049377E+02  0.38930602207E+02  0.51100000000E-03 0. -1.
        -11    1    3    3    0    0 -0.47229135661E+01  0.93202248784E+01 -0.83649984577E+01  0.13384532259E+02  0.51100000000E-03 0.  1.
         12    1    3    3    0    0  0.12369057263E+02  0.15814187252E+02 -0.16719317598E+01  0.20146400468E+02  0.00000000000E+00 0. -1.
</event>
<event>
 7    1  0.1302069E-013  0.7246157E+02  0.7816164E-02  0.1226708E+00
        -11   -1    0    0    0    0  0.00000000000E+00  0.00000000000E+00  0.45593999997E+02  0.45594000000E+02  0.51100000000E-03 0.  1.
         11   -1    0    0    0    0 -0.00000000000E+00 -0.00000000000E+00 -0.45593999997E+02  0.45594000000E+02  0.51100000000E-03 0. -1.
    9900012    2    1    2    0    0 -0.64116442158E+00 -0.74698109482E+01  0.17160123273E+02  0.72461574870E+02  0.70000005960E+02 0.  0.
         12    1    1    2    0    0  0.64116442158E+00  0.74698109482E+01 -0.17160123273E+02  0.18726425130E+02  0.00000000000E+00 0. -1.
         11    1    3    3    0    0  0.13221810010E+02  0.24208797816E+02  0.51358899554E+01  0.28058145298E+02  0.51100000000E-03 0.  1.
        -11    1    3    3    0    0 -0.18166083005E+01 -0.24192544204E+02 -0.21451417242E+01  0.24355305255E+02  0.51100000000E-03 0. -1.
        -12    1    3    3    0    0 -0.12046366132E+02 -0.74860645603E+01  0.14169375042E+02  0.20048124317E+02  0.00000000000E+00 0.  1.
</event>
<event>
 7    1  0.1302069E-013  0.7246158E+02  0.7816164E-02  0.1226708E+00
        -11   -1    0    0    0    0  0.00000000000E+00  0.00000000000E+00  0.45593999997E+02  0.45594000000E+02  0.51100000000E-03 0. -1.
         11   -1    0    0    0    0 -0.00000000000E+00 -0.00000000000E+00 -0.45593999997E+02  0.45594000000E+02  0.51100000000E-03 0.  1.
    9900012    2    1    2    0    0 -0.84035370925E+01 -0.83056033577E+01  0.14528464108E+02  0.72461581438E+02  0.70000014517E+02 0.  0.
         12    1    1    2    0    0  0.84035370925E+01  0.83056033577E+01 -0.14528464108E+02  0.18726418562E+02  0.00000000000E+00 0. -1.
         11    1    3    3    0    0  0.66258009513E+01  0.34372902311E+01  0.21560135877E+02  0.22815688937E+02  0.51100000000E-03 0. -1.
        -11    1    3    3    0    0 -0.36566856067E+01 -0.27486817667E+02 -0.10985294097E+02  0.29825713432E+02  0.51100000000E-03 0.  1.
        -12    1    3    3    0    0 -0.11372652437E+02  0.15743924078E+02  0.39536223280E+01  0.19820179069E+02  0.00000000000E+00 0.  1.
</event>
<event>
 7    1  0.1302069E-013  0.7246179E+02  0.7816164E-02  0.1226707E+00
        -11   -1    0    0    0    0  0.00000000000E+00  0.00000000000E+00  0.45593999997E+02  0.45594000000E+02  0.51100000000E-03 0. -1.
         11   -1    0    0    0    0 -0.00000000000E+00 -0.00000000000E+00 -0.45593999997E+02  0.45594000000E+02  0.51100000000E-03 0.  1.
    9900012    2    1    2    0    0  0.15812443211E+01  0.12773185623E+02  0.13602076355E+02  0.72461786135E+02  0.70000281172E+02 0.  0.
         12    1    1    2    0    0 -0.15812443211E+01 -0.12773185623E+02 -0.13602076355E+02  0.18726213865E+02  0.00000000000E+00 0. -1.
         11    1    3    3    0    0 -0.25429359970E+02  0.48919849652E+01 -0.33768780300E+01  0.26114884087E+02  0.51100000000E-03 0. -1.
        -11    1    3    3    0    0  0.74247772906E+01  0.18778328464E+02  0.11636321722E+02  0.23305727219E+02  0.51100000000E-03 0.  1.
         12    1    3    3    0    0  0.19585827001E+02 -0.10897127806E+02  0.53426326628E+01  0.23041174829E+02  0.00000000000E+00 0. -1.
</event>
<event>
 7    1  0.1302069E-013  0.7246152E+02  0.7816164E-02  0.1226708E+00
        -11   -1    0    0    0    0  0.00000000000E+00  0.00000000000E+00  0.45593999997E+02  0.45594000000E+02  0.51100000000E-03 0. -1.
         11   -1    0    0    0    0 -0.00000000000E+00 -0.00000000000E+00 -0.45593999997E+02  0.45594000000E+02  0.51100000000E-03 0.  1.
    9900012    2    1    2    0    0 -0.97393386203E+01  0.15627413013E+02  0.34074031734E+01  0.72461517398E+02  0.69999931093E+02 0.  0.
         12    1    1    2    0    0  0.97393386203E+01 -0.15627413013E+02 -0.34074031734E+01  0.18726482602E+02  0.00000000000E+00 0. -1.
         11    1    3    3    0    0  0.78121145669E+01  0.22340918521E+02  0.11434466257E+02  0.26284839607E+02  0.51100000000E-03 0. -1.
        -11    1    3    3    0    0 -0.12778832168E+02 -0.18045629564E+02  0.10070332568E+02  0.24297219928E+02  0.51100000000E-03 0.  1.
         12    1    3    3    0    0 -0.47726210189E+01  0.11332124057E+02 -0.18097395651E+02  0.21879457863E+02  0.00000000000E+00 0. -1.
</event>
<event>
 7    1  0.1302069E-013  0.7246164E+02  0.7816164E-02  0.1226708E+00
        -11   -1    0    0    0    0  0.00000000000E+00  0.00000000000E+00  0.45593999997E+02  0.45594000000E+02  0.51100000000E-03 0.  1.
         11   -1    0    0    0    0 -0.00000000000E+00 -0.00000000000E+00 -0.45593999997E+02  0.45594000000E+02  0.51100000000E-03 0. -1.
    9900012    2    1    2    0    0 -0.11469040248E+02 -0.13196534446E+02 -0.67073957482E+01  0.72461639881E+02  0.70000090649E+02 0.  0.
         12    1    1    2    0    0  0.11469040248E+02  0.13196534446E+02  0.67073957482E+01  0.18726360119E+02  0.00000000000E+00 0. -1.
         11    1    3    3    0    0 -0.90178626988E+01  0.17949903149E+01 -0.19550478799E+02  0.21604746224E+02  0.51100000000E-03 0. -1.
        -11    1    3    3    0    0  0.19929173571E+02 -0.53453317131E+01  0.16230265345E+02  0.26251972188E+02  0.51100000000E-03 0.  1.
        -12    1    3    3    0    0 -0.22380351120E+02 -0.96461930480E+01 -0.33871822943E+01  0.24604921468E+02  0.00000000000E+00 0.  1.
</event>
<event>
 7    1  0.1302069E-013  0.7246154E+02  0.7816164E-02  0.1226708E+00
        -11   -1    0    0    0    0  0.00000000000E+00  0.00000000000E+00  0.45593999997E+02  0.45594000000E+02  0.51100000000E-03 0.  1.
         11   -1    0    0    0    0 -0.00000000000E+00 -0.00000000000E+00 -0.45593999997E+02  0.45594000000E+02  0.51100000000E-03 0. -1.
    9900012    2    1    2    0    0 -0.43696819214E+01 -0.18187258576E+02  0.89987678611E+00  0.72461540835E+02  0.69999961624E+02 0.  0.
         12    1    1    2    0    0  0.43696819214E+01  0.18187258576E+02 -0.89987678611E+00  0.18726459165E+02  0.00000000000E+00 0. -1.
         11    1    3    3    0    0 -0.19023141528E+02 -0.14044673184E+01 -0.15009612167E+02  0.24272224861E+02  0.51100000000E-03 0. -1.
        -11    1    3    3    0    0  0.17009872952E+02 -0.19521132858E+02 -0.55060104986E+01  0.26471240200E+02  0.51100000000E-03 0.  1.
        -12    1    3    3    0    0 -0.23564133449E+01  0.27383415995E+01  0.21415499451E+02  0.21718075774E+02  0.00000000000E+00 0.  1.
</event>
<event>
 7    1  0.1302069E-013  0.7246169E+02  0.7816164E-02  0.1226708E+00
        -11   -1    0    0    0    0  0.00000000000E+00  0.00000000000E+00  0.45593999997E+02  0.45594000000E+02  0.51100000000E-03 0.  1.
         11   -1    0    0    0    0 -0.00000000000E+00 -0.00000000000E+00 -0.45593999997E+02  0.45594000000E+02  0.51100000000E-03 0. -1.
    9900012    2    1    2    0    0  0.53221697608E+01  0.14371507304E+02  0.10761449982E+02  0.72461694468E+02  0.70000161759E+02 0.  0.
         12    1    1    2    0    0 -0.53221697608E+01 -0.14371507304E+02 -0.10761449982E+02  0.18726305532E+02  0.00000000000E+00 0. -1.
         11    1    3    3    0    0  0.34021527377E+01 -0.10022047857E+02 -0.21335220091E+02  0.23816122755E+02  0.51100000000E-03 0. -1.
        -11    1    3    3    0    0 -0.62051533606E+01  0.20225864262E+02  0.75629199848E+01  0.22467471428E+02  0.51100000000E-03 0.  1.
        -12    1    3    3    0    0  0.81251703837E+01  0.41676908991E+01  0.24533750088E+02  0.26178100286E+02  0.00000000000E+00 0.  1.
</event>
<event>
 7    1  0.1302069E-013  0.7246151E+02  0.7816164E-02  0.1226708E+00
        -11   -1    0    0    0    0  0.00000000000E+00  0.00000000000E+00  0.45593999997E+02  0.45594000000E+02  0.51100000000E-03 0.  1.
         11   -1    0    0    0    0 -0.00000000000E+00 -0.00000000000E+00 -0.45593999997E+02  0.45594000000E+02  0.51100000000E-03 0. -1.
    9900012    2    1    2    0    0 -0.17555082022E+02  0.19247721503E+01 -0.62286108207E+01  0.72461514868E+02  0.69999927797E+02 0.  0.
         12    1    1    2    0    0  0.17555082022E+02 -0.19247721503E+01  0.62286108207E+01  0.18726485132E+02  0.00000000000E+00 0. -1.
         11    1    3    3    0    0  0.88328850661E+01 -0.17898967407E+02  0.26746219734E-01  0.19959799810E+02  0.51100000000E-03 0. -1.
        -11    1    3    3    0    0 -0.25658586387E+02  0.16997050609E+02 -0.21136778913E+02  0.37336660374E+02  0.51100000000E-03 0.  1.
         12    1    3    3    0    0 -0.72938070144E+00  0.28266889486E+01  0.14881421873E+02  0.15165054684E+02  0.00000000000E+00 0. -1.
</event>
<event>
 7    1  0.1302069E-013  0.7246151E+02  0.7816164E-02  0.1226708E+00
        -11   -1    0    0    0    0  0.00000000000E+00  0.00000000000E+00  0.45593999997E+02  0.45594000000E+02  0.51100000000E-03 0.  1.
         11   -1    0    0    0    0 -0.00000000000E+00 -0.00000000000E+00 -0.45593999997E+02  0.45594000000E+02  0.51100000000E-03 0. -1.
    9900012    2    1    2    0    0 -0.17248545635E+02  0.18956442629E+01 -0.70409994422E+01  0.72461508955E+02  0.69999920094E+02 0.  0.
         12    1    1    2    0    0  0.17248545635E+02 -0.18956442629E+01  0.70409994422E+01  0.18726491045E+02  0.00000000000E+00 0. -1.
         11    1    3    3    0    0 -0.12434522141E+02  0.30604784206E+02  0.52613921460E+01  0.33450745952E+02  0.51100000000E-03 0. -1.
        -11    1    3    3    0    0 -0.29952629896E+01 -0.16241313826E+02 -0.18642523756E+02  0.24905733626E+02  0.51100000000E-03 0.  1.
        -12    1    3    3    0    0 -0.18187605045E+01 -0.12467826116E+02  0.63401321677E+01  0.14105029378E+02  0.00000000000E+00 0.  1.
</event>
<event>
 8    1  0.1302069E-013  0.7246160E+02  0.7816164E-02  0.1226708E+00
        -11   -1    0    0    0    0  0.00000000000E+00  0.00000000000E+00  0.45593999997E+02  0.45594000000E+02  0.51100000000E-03 0.  1.
         11   -1    0    0    0    0 -0.00000000000E+00 -0.00000000000E+00 -0.45593999997E+02  0.45594000000E+02  0.51100000000E-03 0. -1.
    9900012    2    1    2    0    0 -0.44706079977E+01 -0.65871876286E+01  0.16949940851E+02  0.72461604949E+02  0.70000045145E+02 0.  0.
        -24    2    3    3    0    0  0.75142869012E+00 -0.62953347297E+01 -0.43057461509E+01  0.50571902451E+02  0.49987818347E+02 0.  0.
         12    1    1    2    0    0  0.44706079977E+01  0.65871876286E+01 -0.16949940851E+02  0.18726395051E+02  0.00000000000E+00 0. -1.
         11    1    4    4    0    0 -0.10876251389E+02  0.32108076658E+01 -0.23563276879E+02  0.26150146227E+02  0.51100000000E-03 0. -1.
        -11    1    3    3    0    0 -0.52220366878E+01 -0.29185289892E+00  0.21255687002E+02  0.21889702499E+02  0.51100000000E-03 0.  1.
        -12    1    4    4    0    0  0.11627680079E+02 -0.95061423955E+01  0.19257530729E+02  0.24421756223E+02  0.00000000000E+00 0.  1.
</event>
<event>
 7    1  0.1302069E-013  0.7246154E+02  0.7816164E-02  0.1226708E+00
        -11   -1    0    0    0    0  0.00000000000E+00  0.00000000000E+00  0.45593999997E+02  0.45594000000E+02  0.51100000000E-03 0. -1.
         11   -1    0    0    0    0 -0.00000000000E+00 -0.00000000000E+00 -0.45593999997E+02  0.45594000000E+02  0.51100000000E-03 0.  1.
    9900012    2    1    2    0    0 -0.12559239471E+02 -0.83320368612E+01 -0.11114082519E+02  0.72461543725E+02  0.69999965389E+02 0.  0.
         12    1    1    2    0    0  0.12559239471E+02  0.83320368612E+01  0.11114082519E+02  0.18726456275E+02  0.00000000000E+00 0. -1.
         11    1    3    3    0    0 -0.36629384522E+01  0.18414240999E+02  0.17667463645E+02  0.25780625702E+02  0.51100000000E-03 0. -1.
        -11    1    3    3    0    0  0.65385462737E+01 -0.66658001730E+01 -0.15468059514E+02  0.18067826231E+02  0.51100000000E-03 0.  1.
         12    1    3    3    0    0 -0.15434847293E+02 -0.20080477688E+02 -0.13313486651E+02  0.28613091792E+02  0.00000000000E+00 0. -1.
</event>
<event>
 7    1  0.1302069E-013  0.7246147E+02  0.7816164E-02  0.1226708E+00
        -11   -1    0    0    0    0  0.00000000000E+00  0.00000000000E+00  0.45593999997E+02  0.45594000000E+02  0.51100000000E-03 0. -1.
         11   -1    0    0    0    0 -0.00000000000E+00 -0.00000000000E+00 -0.45593999997E+02  0.45594000000E+02  0.51100000000E-03 0.  1.
    9900012    2    1    2    0    0 -0.14112548535E+02 -0.12283137609E+02  0.80212165163E+00  0.72461470829E+02  0.69999870427E+02 0.  0.
         12    1    1    2    0    0  0.14112548535E+02  0.12283137609E+02 -0.80212165163E+00  0.18726529171E+02  0.00000000000E+00 0. -1.
         11    1    3    3    0    0  0.22131870622E+02  0.72292076651E+01  0.47526590981E+01  0.23762763085E+02  0.51100000000E-03 0. -1.
        -11    1    3    3    0    0 -0.11928259420E+02 -0.11090339188E+02  0.10311838790E+02  0.19277266808E+02  0.51100000000E-03 0.  1.
         12    1    3    3    0    0 -0.24316159736E+02 -0.84220060866E+01 -0.14262376236E+02  0.29421440936E+02  0.00000000000E+00 0. -1.
</event>
<event>
 7    1  0.1302069E-013  0.7246156E+02  0.7816164E-02  0.1226708E+00
        -11   -1    0    0    0    0  0.00000000000E+00  0.00000000000E+00  0.45593999997E+02  0.45594000000E+02  0.51100000000E-03 0.  1.
         11   -1    0    0    0    0 -0.00000000000E+00 -0.00000000000E+00 -0.45593999997E+02  0.45594000000E+02  0.51100000000E-03 0. -1.
    9900012    2    1    2    0    0  0.64689817932E+01 -0.15217114821E+02  0.87904061603E+01  0.72461560152E+02  0.69999986788E+02 0.  0.
         12    1    1    2    0    0 -0.64689817932E+01  0.15217114821E+02 -0.87904061603E+01  0.18726439848E+02  0.00000000000E+00 0. -1.
         11    1    3    3    0    0  0.35178698371E+02 -0.11578857130E+02 -0.35078058489E+01  0.37201014148E+02  0.51100000000E-03 0. -1.
        -11    1    3    3    0    0 -0.12152352542E+02 -0.76218208991E+01  0.11192949628E+02  0.18194887957E+02  0.51100000000E-03 0.  1.
         12    1    3    3    0    0 -0.16557364036E+02  0.39835632081E+01  0.11052623811E+01  0.17065658047E+02  0.00000000000E+00 0. -1.
</event>
<event>
 7    1  0.1302069E-013  0.7246155E+02  0.7816164E-02  0.1226708E+00
        -11   -1    0    0    0    0  0.00000000000E+00  0.00000000000E+00  0.45593999997E+02  0.45594000000E+02  0.51100000000E-03 0. -1.
         11   -1    0    0    0    0 -0.00000000000E+00 -0.00000000000E+00 -0.45593999997E+02  0.45594000000E+02  0.51100000000E-03 0.  1.
    9900012    2    1    2    0    0 -0.88609645193E+01 -0.16471871047E+02 -0.91691249141E+00  0.72461549281E+02  0.69999972627E+02 0.  0.
         12    1    1    2    0    0  0.88609645193E+01  0.16471871047E+02  0.91691249141E+00  0.18726450719E+02  0.00000000000E+00 0. -1.
         11    1    3    3    0    0 -0.15775355038E+02 -0.20821680681E+02  0.19894826009E+02  0.32836082519E+02  0.51100000000E-03 0. -1.
        -11    1    3    3    0    0  0.16660467609E+02  0.48591128004E+01 -0.81434124325E+00  0.17373695925E+02  0.51100000000E-03 0.  1.
         12    1    3    3    0    0 -0.97460770899E+01 -0.50930316619E+00 -0.19997397257E+02  0.22251770838E+02  0.00000000000E+00 0. -1.
</event>
<event>
 7    1  0.1305306E-013  0.7246158E+02  0.7816164E-02  0.1226708E+00
        -11   -1    0    0    0    0  0.00000000000E+00  0.00000000000E+00  0.45593999997E+02  0.45594000000E+02  0.51100000000E-03 0.  1.
         11   -1    0    0    0    0 -0.00000000000E+00 -0.00000000000E+00 -0.45593999997E+02  0.45594000000E+02  0.51100000000E-03 0. -1.
    9900012    2    1    2    0    0  0.12995326460E+02  0.13421096056E+02 -0.12940194126E+01  0.72461579750E+02  0.70000012318E+02 0.  0.
         12    1    1    2    0    0 -0.12995326460E+02 -0.13421096056E+02  0.12940194126E+01  0.18726420250E+02  0.00000000000E+00 0. -1.
         11    1    3    3    0    0 -0.14538820864E+02  0.58220816127E+00 -0.15609861763E+02  0.21339729684E+02  0.51100000000E-03 0. -1.
        -11    1    3    3    0    0  0.17175338357E+02  0.24719442631E+02  0.41173551413E+00  0.30103365560E+02  0.51100000000E-03 0.  1.
        -12    1    3    3    0    0  0.10358808967E+02 -0.11880554736E+02  0.13904106836E+02  0.21018484507E+02  0.00000000000E+00 0.  1.
</event>
<event>
 7    1  0.1302069E-013  0.7246157E+02  0.7816164E-02  0.1226708E+00
        -11   -1    0    0    0    0  0.00000000000E+00  0.00000000000E+00  0.45593999997E+02  0.45594000000E+02  0.51100000000E-03 0.  1.
         11   -1    0    0    0    0 -0.00000000000E+00 -0.00000000000E+00 -0.45593999997E+02  0.45594000000E+02  0.51100000000E-03 0. -1.
    9900012    2    1    2    0    0 -0.10064425383E+02 -0.15742028399E+02  0.12549958873E+01  0.72461571321E+02  0.70000001337E+02 0.  0.
         12    1    1    2    0    0  0.10064425383E+02  0.15742028399E+02 -0.12549958873E+01  0.18726428679E+02  0.00000000000E+00 0. -1.
         11    1    3    3    0    0  0.18729829888E+02 -0.31238675237E+02  0.35422130387E+01  0.36595199572E+02  0.51100000000E-03 0.  1.
        -11    1    3    3    0    0 -0.23806995330E+02  0.14914821450E+02  0.33789133086E+01  0.28295617699E+02  0.51100000000E-03 0. -1.
        -12    1    3    3    0    0 -0.49872599410E+01  0.58182538818E+00 -0.56661304601E+01  0.75707540504E+01  0.00000000000E+00 0.  1.
</event>
<event>
 7    1  0.1302069E-013  0.7246152E+02  0.7816164E-02  0.1226708E+00
        -11   -1    0    0    0    0  0.00000000000E+00  0.00000000000E+00  0.45593999997E+02  0.45594000000E+02  0.51100000000E-03 0.  1.
         11   -1    0    0    0    0 -0.00000000000E+00 -0.00000000000E+00 -0.45593999997E+02  0.45594000000E+02  0.51100000000E-03 0. -1.
    9900012    2    1    2    0    0 -0.27522744444E+01 -0.14404693900E+02  0.11645205389E+02  0.72461520632E+02  0.69999935306E+02 0.  0.
         12    1    1    2    0    0  0.27522744444E+01  0.14404693900E+02 -0.11645205389E+02  0.18726479368E+02  0.00000000000E+00 0. -1.
         11    1    3    3    0    0 -0.10226421207E+02  0.34608007237E+01  0.28907058279E+02  0.30857330587E+02  0.51100000000E-03 0.  1.
        -11    1    3    3    0    0  0.19501006006E+02 -0.50882277033E+01 -0.11087287754E+02  0.23002331326E+02  0.51100000000E-03 0. -1.
         12    1    3    3    0    0 -0.12026859244E+02 -0.12777266920E+02 -0.61745651350E+01  0.18601858720E+02  0.00000000000E+00 0. -1.
</event>
<event>
 7    1  0.1302069E-013  0.7246146E+02  0.7816164E-02  0.1226708E+00
        -11   -1    0    0    0    0  0.00000000000E+00  0.00000000000E+00  0.45593999997E+02  0.45594000000E+02  0.51100000000E-03 0.  1.
         11   -1    0    0    0    0 -0.00000000000E+00 -0.00000000000E+00 -0.45593999997E+02  0.45594000000E+02  0.51100000000E-03 0. -1.
    9900012    2    1    2    0    0  0.72931662877E+01 -0.15136394684E+02  0.82693688877E+01  0.72461463205E+02  0.69999860496E+02 0.  0.
         12    1    1    2    0    0 -0.72931662877E+01  0.15136394684E+02 -0.82693688877E+01  0.18726536795E+02  0.00000000000E+00 0. -1.
         11    1    3    3    0    0  0.74071717934E+00  0.17743455085E+02  0.16964160812E+02  0.24559348783E+02  0.51100000000E-03 0. -1.
        -11    1    3    3    0    0 -0.25576287204E+01 -0.35720358851E+02 -0.13100159255E+01  0.35835759279E+02  0.51100000000E-03 0.  1.
        -12    1    3    3    0    0  0.91100778288E+01  0.28405090816E+01 -0.73847759993E+01  0.12066355143E+02  0.00000000000E+00 0.  1.
</event>
<event>
 7    1  0.1302069E-013  0.7246153E+02  0.7816164E-02  0.1226708E+00
        -11   -1    0    0    0    0  0.00000000000E+00  0.00000000000E+00  0.45593999997E+02  0.45594000000E+02  0.51100000000E-03 0. -1.
         11   -1    0    0    0    0 -0.00000000000E+00 -0.00000000000E+00 -0.45593999997E+02  0.45594000000E+02  0.51100000000E-03 0.  1.
    9900012    2    1    2    0    0 -0.11667900341E+02  0.99512090952E+01 -0.10747754482E+02  0.72461529771E+02  0.69999947211E+02 0.  0.
         12    1    1    2    0    0  0.11667900341E+02 -0.99512090952E+01  0.10747754482E+02  0.18726470229E+02  0.00000000000E+00 0. -1.
         11    1    3    3    0    0 -0.95067592716E+01 -0.23675932590E+01  0.14586939549E+02  0.17571646916E+02  0.51100000000E-03 0. -1.
        -11    1    3    3    0    0  0.22281755879E+02  0.46394303418E+01 -0.15029097460E+02  0.27274066981E+02  0.51100000000E-03 0.  1.
        -12    1    3    3    0    0 -0.24442896948E+02  0.76793720124E+01 -0.10305596571E+02  0.27615815874E+02  0.00000000000E+00 0.  1.
</event>
<event>
 7    1  0.1302069E-013  0.7246163E+02  0.7816164E-02  0.1226708E+00
        -11   -1    0    0    0    0  0.00000000000E+00  0.00000000000E+00  0.45593999997E+02  0.45594000000E+02  0.51100000000E-03 0.  1.
         11   -1    0    0    0    0 -0.00000000000E+00 -0.00000000000E+00 -0.45593999997E+02  0.45594000000E+02  0.51100000000E-03 0. -1.
    9900012    2    1    2    0    0 -0.92275860483E+01 -0.10922524472E+02  0.12092444809E+02  0.72461625375E+02  0.70000071753E+02 0.  0.
         12    1    1    2    0    0  0.92275860483E+01  0.10922524472E+02 -0.12092444809E+02  0.18726374625E+02  0.00000000000E+00 0. -1.
         11    1    3    3    0    0 -0.35950521069E+02 -0.11128694476E+02  0.98234403146E+01  0.38894572703E+02  0.51100000000E-03 0. -1.
        -11    1    3    3    0    0 -0.16328644452E+01  0.36842268863E+01  0.29441448430E+01  0.49907677930E+01  0.51100000000E-03 0.  1.
         12    1    3    3    0    0  0.28355799466E+02 -0.34780568824E+01 -0.67514034849E+00  0.28576284880E+02  0.00000000000E+00 0. -1.
</event>
<event>
 7    1  0.1302069E-013  0.7246153E+02  0.7816164E-02  0.1226708E+00
        -11   -1    0    0    0    0  0.00000000000E+00  0.00000000000E+00  0.45593999997E+02  0.45594000000E+02  0.51100000000E-03 0. -1.
         11   -1    0    0    0    0 -0.00000000000E+00 -0.00000000000E+00 -0.45593999997E+02  0.45594000000E+02  0.51100000000E-03 0.  1.
    9900012    2    1    2    0    0 -0.15255639688E+02 -0.87651365813E+01 -0.64123682162E+01  0.72461531360E+02  0.69999949281E+02 0.  0.
         12    1    1    2    0    0  0.15255639688E+02  0.87651365813E+01  0.64123682162E+01  0.18726468640E+02  0.00000000000E+00 0. -1.
         11    1    3    3    0    0  0.16913450482E+02  0.98222659768E+01  0.43176067115E+01  0.20029564251E+02  0.51100000000E-03 0. -1.
        -11    1    3    3    0    0 -0.23066632806E+02 -0.27766229761E+02 -0.14599760083E+02  0.38938233896E+02  0.51100000000E-03 0.  1.
        -12    1    3    3    0    0 -0.91024573635E+01  0.91788272033E+01  0.38697851552E+01  0.13493733213E+02  0.00000000000E+00 0.  1.
</event>
<event>
 7    1  0.1302069E-013  0.7246157E+02  0.7816164E-02  0.1226708E+00
        -11   -1    0    0    0    0  0.00000000000E+00  0.00000000000E+00  0.45593999997E+02  0.45594000000E+02  0.51100000000E-03 0.  1.
         11   -1    0    0    0    0 -0.00000000000E+00 -0.00000000000E+00 -0.45593999997E+02  0.45594000000E+02  0.51100000000E-03 0. -1.
    9900012    2    1    2    0    0 -0.44737912208E+01  0.18161688381E+02 -0.90409301433E+00  0.72461571699E+02  0.70000001830E+02 0.  0.
         12    1    1    2    0    0  0.44737912208E+01 -0.18161688381E+02  0.90409301433E+00  0.18726428301E+02  0.00000000000E+00 0. -1.
         11    1    3    3    0    0 -0.19794478664E+01 -0.19365795533E+02  0.15063617731E+02  0.24614321642E+02  0.51100000000E-03 0. -1.
        -11    1    3    3    0    0 -0.81852197628E+01  0.12757477365E+02  0.38265496744E+01  0.15633090992E+02  0.51100000000E-03 0.  1.
         12    1    3    3    0    0  0.56908764083E+01  0.24770006549E+02 -0.19794260420E+02  0.32214159065E+02  0.00000000000E+00 0. -1.
</event>
<event>
 7    1  0.1302069E-013  0.7246161E+02  0.7816164E-02  0.1226708E+00
        -11   -1    0    0    0    0  0.00000000000E+00  0.00000000000E+00  0.45593999997E+02  0.45594000000E+02  0.51100000000E-03 0.  1.
         11   -1    0    0    0    0 -0.00000000000E+00 -0.00000000000E+00 -0.45593999997E+02  0.45594000000E+02  0.51100000000E-03 0. -1.
    9900012    2    1    2    0    0  0.20009543661E+01 -0.11509359278E+02  0.14635865621E+02  0.72461608681E+02  0.70000050006E+02 0.  0.
         12    1    1    2    0    0 -0.20009543661E+01  0.11509359278E+02 -0.14635865621E+02  0.18726391319E+02  0.00000000000E+00 0. -1.
         11    1    3    3    0    0 -0.19209877597E+02 -0.45649578361E+01 -0.38265073346E+00  0.19748535621E+02  0.51100000000E-03 0. -1.
        -11    1    3    3    0    0  0.34956059370E+02 -0.31636188186E+00  0.77297679105E+01  0.35801892181E+02  0.51100000000E-03 0.  1.
         12    1    3    3    0    0 -0.13745227407E+02 -0.66280395600E+01  0.72887484435E+01  0.16911180880E+02  0.00000000000E+00 0. -1.
</event>
<event>
 7    1  0.1302069E-013  0.7246159E+02  0.7816164E-02  0.1226708E+00
        -11   -1    0    0    0    0  0.00000000000E+00  0.00000000000E+00  0.45593999997E+02  0.45594000000E+02  0.51100000000E-03 0.  1.
         11   -1    0    0    0    0 -0.00000000000E+00 -0.00000000000E+00 -0.45593999997E+02  0.45594000000E+02  0.51100000000E-03 0. -1.
    9900012    2    1    2    0    0 -0.13328479849E+02 -0.41033582941E+01  0.12497703009E+02  0.72461588040E+02  0.70000023117E+02 0.  0.
         12    1    1    2    0    0  0.13328479849E+02  0.41033582941E+01 -0.12497703009E+02  0.18726411960E+02  0.00000000000E+00 0. -1.
         11    1    3    3    0    0 -0.28957191977E+02 -0.25268074080E+02  0.25548377743E-01  0.38431695095E+02  0.51100000000E-03 0. -1.
        -11    1    3    3    0    0  0.30446788554E+01  0.97995900944E+01  0.13598629883E+02  0.17035984571E+02  0.51100000000E-03 0.  1.
         12    1    3    3    0    0  0.12584033272E+02  0.11365125691E+02 -0.11264752512E+01  0.16993908375E+02  0.00000000000E+00 0. -1.
</event>
<event>
 7    1  0.1302069E-013  0.7246157E+02  0.7816164E-02  0.1226708E+00
        -11   -1    0    0    0    0  0.00000000000E+00  0.00000000000E+00  0.45593999997E+02  0.45594000000E+02  0.51100000000E-03 0. -1.
         11   -1    0    0    0    0 -0.00000000000E+00 -0.00000000000E+00 -0.45593999997E+02  0.45594000000E+02  0.51100000000E-03 0.  1.
    9900012    2    1    2    0    0 -0.16287716878E+02 -0.81048656655E+01  0.44385371151E+01  0.72461570008E+02  0.69999999626E+02 0.  0.
         12    1    1    2    0    0  0.16287716878E+02  0.81048656655E+01 -0.44385371151E+01  0.18726429992E+02  0.00000000000E+00 0. -1.
         11    1    3    3    0    0  0.55835378558E+01  0.19786266997E+02  0.11510152354E+02  0.23561745779E+02  0.51100000000E-03 0. -1.
        -11    1    3    3    0    0 -0.15149025179E+02 -0.17972044503E+02 -0.20295509883E+02  0.31054710902E+02  0.51100000000E-03 0.  1.
         12    1    3    3    0    0 -0.67222295543E+01 -0.99190881593E+01  0.13223894644E+02  0.17845113327E+02  0.00000000000E+00 0. -1.
</event>
<event>
 7    1  0.1302069E-013  0.7246157E+02  0.7816164E-02  0.1226708E+00
        -11   -1    0    0    0    0  0.00000000000E+00  0.00000000000E+00  0.45593999997E+02  0.45594000000E+02  0.51100000000E-03 0.  1.
         11   -1    0    0    0    0 -0.00000000000E+00 -0.00000000000E+00 -0.45593999997E+02  0.45594000000E+02  0.51100000000E-03 0. -1.
    9900012    2    1    2    0    0 -0.11672947694E+02  0.13005786354E+02  0.67283746261E+01  0.72461569169E+02  0.69999998534E+02 0.  0.
         12    1    1    2    0    0  0.11672947694E+02 -0.13005786354E+02 -0.67283746261E+01  0.18726430831E+02  0.00000000000E+00 0. -1.
         11    1    3    3    0    0 -0.60051448380E+00  0.27013364759E+02  0.23328487722E+02  0.35697350503E+02  0.51100000000E-03 0.  1.
        -11    1    3    3    0    0 -0.16302861836E+02 -0.14233981118E+02 -0.20826745222E+02  0.30035692756E+02  0.51100000000E-03 0. -1.
         12    1    3    3    0    0  0.52304286259E+01  0.22640271330E+00  0.42266321262E+01  0.67285259105E+01  0.00000000000E+00 0. -1.
</event>
<event>
 7    1  0.1302069E-013  0.7246151E+02  0.7816164E-02  0.1226708E+00
        -11   -1    0    0    0    0  0.00000000000E+00  0.00000000000E+00  0.45593999997E+02  0.45594000000E+02  0.51100000000E-03 0.  1.
         11   -1    0    0    0    0 -0.00000000000E+00 -0.00000000000E+00 -0.45593999997E+02  0.45594000000E+02  0.51100000000E-03 0. -1.
    9900012    2    1    2    0    0  0.20290572484E+01  0.35009991093E+01  0.18284071566E+02  0.72461512312E+02  0.69999924467E+02 0.  0.
         12    1    1    2    0    0 -0.20290572484E+01 -0.35009991093E+01 -0.18284071566E+02  0.18726487688E+02  0.00000000000E+00 0. -1.
         11    1    3    3    0    0  0.30846176439E+02 -0.14253816694E+01  0.55925191210E+01  0.31381436937E+02  0.51100000000E-03 0. -1.
        -11    1    3    3    0    0 -0.20339543535E+02 -0.88581240708E+01  0.11135630998E+02  0.24822684610E+02  0.51100000000E-03 0.  1.
         12    1    3    3    0    0 -0.84775756559E+01  0.13784504850E+02  0.15559214471E+01  0.16257390765E+02  0.00000000000E+00 0. -1.
</event>
<event>
 7    1  0.1302069E-013  0.7246160E+02  0.7816164E-02  0.1226708E+00
        -11   -1    0    0    0    0  0.00000000000E+00  0.00000000000E+00  0.45593999997E+02  0.45594000000E+02  0.51100000000E-03 0. -1.
         11   -1    0    0    0    0 -0.00000000000E+00 -0.00000000000E+00 -0.45593999997E+02  0.45594000000E+02  0.51100000000E-03 0.  1.
    9900012    2    1    2    0    0 -0.11463049599E+02  0.19622714102E+01 -0.14677394254E+02  0.72461603730E+02  0.70000043556E+02 0.  0.
         12    1    1    2    0    0  0.11463049599E+02 -0.19622714102E+01  0.14677394254E+02  0.18726396270E+02  0.00000000000E+00 0. -1.
         11    1    3    3    0    0  0.16905606249E+01  0.61581994152E+01 -0.67080195376E+00  0.64211674006E+01  0.51100000000E-03 0. -1.
        -11    1    3    3    0    0 -0.34602412455E+02 -0.93465664669E+01 -0.22593757395E+02  0.42369365418E+02  0.51100000000E-03 0.  1.
        -12    1    3    3    0    0  0.21448802231E+02  0.51506384618E+01  0.85871650948E+01  0.23671070911E+02  0.00000000000E+00 0.  1.
</event>
<event>
 7    1  0.1302069E-013  0.7246168E+02  0.7816164E-02  0.1226708E+00
        -11   -1    0    0    0    0  0.00000000000E+00  0.00000000000E+00  0.45593999997E+02  0.45594000000E+02  0.51100000000E-03 0. -1.
         11   -1    0    0    0    0 -0.00000000000E+00 -0.00000000000E+00 -0.45593999997E+02  0.45594000000E+02  0.51100000000E-03 0.  1.
    9900012    2    1    2    0    0 -0.11463010161E+02  0.14022435889E+02 -0.47587599928E+01  0.72461678768E+02  0.70000141307E+02 0.  0.
         12    1    1    2    0    0  0.11463010161E+02 -0.14022435889E+02  0.47587599928E+01  0.18726321232E+02  0.00000000000E+00 0. -1.
         11    1    3    3    0    0  0.14469374632E+01  0.10877010318E+02  0.56098197673E+01  0.12323678816E+02  0.51100000000E-03 0. -1.
        -11    1    3    3    0    0 -0.29548222433E+02  0.19649093291E+02 -0.92764973802E+01  0.36677482466E+02  0.51100000000E-03 0.  1.
        -12    1    3    3    0    0  0.16638274809E+02 -0.16503667720E+02 -0.10920823799E+01  0.23460517487E+02  0.00000000000E+00 0.  1.
</event>
<event>
 7    1  0.1302069E-013  0.7246157E+02  0.7816164E-02  0.1226708E+00
        -11   -1    0    0    0    0  0.00000000000E+00  0.00000000000E+00  0.45593999997E+02  0.45594000000E+02  0.51100000000E-03 0.  1.
         11   -1    0    0    0    0 -0.00000000000E+00 -0.00000000000E+00 -0.45593999997E+02  0.45594000000E+02  0.51100000000E-03 0. -1.
    9900012    2    1    2    0    0 -0.14781968893E+02  0.10698504211E+02 -0.42088628425E+01  0.72461571533E+02  0.70000001614E+02 0.  0.
         12    1    1    2    0    0  0.14781968893E+02 -0.10698504211E+02  0.42088628425E+01  0.18726428467E+02  0.00000000000E+00 0. -1.
         11    1    3    3    0    0 -0.12840254970E+02 -0.68729638894E+01 -0.26745249344E+02  0.30453540731E+02  0.51100000000E-03 0. -1.
        -11    1    3    3    0    0  0.14270086138E+02  0.98830062116E+01  0.91510010540E+01  0.19622690711E+02  0.51100000000E-03 0.  1.
        -12    1    3    3    0    0 -0.16211800061E+02  0.76884618890E+01  0.13385385447E+02  0.22385340091E+02  0.00000000000E+00 0.  1.
</event>
<event>
 7    1  0.1302069E-013  0.7246157E+02  0.7816164E-02  0.1226708E+00
        -11   -1    0    0    0    0  0.00000000000E+00  0.00000000000E+00  0.45593999997E+02  0.45594000000E+02  0.51100000000E-03 0. -1.
         11   -1    0    0    0    0 -0.00000000000E+00 -0.00000000000E+00 -0.45593999997E+02  0.45594000000E+02  0.51100000000E-03 0.  1.
    9900012    2    1    2    0    0 -0.64674630436E+01 -0.76728979671E+01 -0.15810684959E+02  0.72461569472E+02  0.69999998929E+02 0.  0.
         12    1    1    2    0    0  0.64674630436E+01  0.76728979671E+01  0.15810684959E+02  0.18726430528E+02  0.00000000000E+00 0. -1.
         11    1    3    3    0    0  0.18758003145E+02 -0.12369419297E+02 -0.11661980486E+02  0.25315351170E+02  0.51100000000E-03 0. -1.
        -11    1    3    3    0    0 -0.35545350538E+02  0.27718385367E+00 -0.49590315511E+01  0.35890678036E+02  0.51100000000E-03 0.  1.
         12    1    3    3    0    0  0.10319884349E+02  0.44193374762E+01  0.81032707791E+00  0.11255540266E+02  0.00000000000E+00 0. -1.
</event>
<event>
 7    1  0.1302069E-013  0.7246157E+02  0.7816164E-02  0.1226708E+00
        -11   -1    0    0    0    0  0.00000000000E+00  0.00000000000E+00  0.45593999997E+02  0.45594000000E+02  0.51100000000E-03 0.  1.
         11   -1    0    0    0    0 -0.00000000000E+00 -0.00000000000E+00 -0.45593999997E+02  0.45594000000E+02  0.51100000000E-03 0. -1.
    9900012    2    1    2    0    0  0.34602626841E+00  0.15051723395E+02 -0.11135748397E+02  0.72461574722E+02  0.70000005768E+02 0.  0.
         12    1    1    2    0    0 -0.34602626841E+00 -0.15051723395E+02  0.11135748397E+02  0.18726425278E+02  0.00000000000E+00 0. -1.
         11    1    3    3    0    0 -0.22206847205E+02  0.96017311343E+01 -0.17352743592E+01  0.24255895797E+02  0.51100000000E-03 0. -1.
        -11    1    3    3    0    0  0.28055018247E+02  0.17473973731E+02 -0.21414266381E+01  0.33121133964E+02  0.51100000000E-03 0.  1.
         12    1    3    3    0    0 -0.55021447736E+01 -0.12023981471E+02 -0.72590473996E+01  0.15084544960E+02  0.00000000000E+00 0. -1.
</event>
<event>
 7    1  0.1302069E-013  0.7246190E+02  0.7816164E-02  0.1226707E+00
        -11   -1    0    0    0    0  0.00000000000E+00  0.00000000000E+00  0.45593999997E+02  0.45594000000E+02  0.51100000000E-03 0. -1.
         11   -1    0    0    0    0 -0.00000000000E+00 -0.00000000000E+00 -0.45593999997E+02  0.45594000000E+02  0.51100000000E-03 0.  1.
    9900012    2    1    2    0    0 -0.35629683497E+01 -0.18004763654E+02  0.37149342788E+01  0.72461895376E+02  0.70000423478E+02 0.  0.
         12    1    1    2    0    0  0.35629683497E+01  0.18004763654E+02 -0.37149342788E+01  0.18726104624E+02  0.00000000000E+00 0. -1.
         11    1    3    3    0    0 -0.17232377334E+02  0.13708883307E+02 -0.11205182023E+02  0.24707173342E+02  0.51100000000E-03 0. -1.
        -11    1    3    3    0    0  0.18962345826E+02 -0.20639154889E+02 -0.51725006616E+00  0.28032353124E+02  0.51100000000E-03 0.  1.
         12    1    3    3    0    0 -0.52929368420E+01 -0.11074492072E+02  0.15437366368E+02  0.19722368911E+02  0.00000000000E+00 0. -1.
</event>
<event>
 7    1  0.1302069E-013  0.7246154E+02  0.7816164E-02  0.1226708E+00
        -11   -1    0    0    0    0  0.00000000000E+00  0.00000000000E+00  0.45593999997E+02  0.45594000000E+02  0.51100000000E-03 0.  1.
         11   -1    0    0    0    0 -0.00000000000E+00 -0.00000000000E+00 -0.45593999997E+02  0.45594000000E+02  0.51100000000E-03 0. -1.
    9900012    2    1    2    0    0 -0.51753473074E+01  0.17938233346E+02  0.14546431636E+01  0.72461536851E+02  0.69999956434E+02 0.  0.
         12    1    1    2    0    0  0.51753473074E+01 -0.17938233346E+02 -0.14546431636E+01  0.18726463149E+02  0.00000000000E+00 0. -1.
         11    1    3    3    0    0  0.16642973181E+02 -0.11893257335E+02  0.46180477459E+01  0.20970562500E+02  0.51100000000E-03 0. -1.
        -11    1    3    3    0    0 -0.68898827469E+01  0.18342255495E+02 -0.18690790810E+02  0.27078672092E+02  0.51100000000E-03 0.  1.
         12    1    3    3    0    0 -0.14928437741E+02  0.11489235186E+02  0.15527386227E+02  0.24412302259E+02  0.00000000000E+00 0. -1.
</event>
<event>
 7    1  0.1302069E-013  0.7246151E+02  0.7816164E-02  0.1226708E+00
        -11   -1    0    0    0    0  0.00000000000E+00  0.00000000000E+00  0.45593999997E+02  0.45594000000E+02  0.51100000000E-03 0.  1.
         11   -1    0    0    0    0 -0.00000000000E+00 -0.00000000000E+00 -0.45593999997E+02  0.45594000000E+02  0.51100000000E-03 0. -1.
    9900012    2    1    2    0    0  0.10312564657E+02  0.56954015188E+01  0.14556603986E+02  0.72461513200E+02  0.69999925624E+02 0.  0.
         12    1    1    2    0    0 -0.10312564657E+02 -0.56954015188E+01 -0.14556603986E+02  0.18726486800E+02  0.00000000000E+00 0. -1.
         11    1    3    3    0    0  0.16797041129E+02 -0.26647138023E+02 -0.17094693309E+01  0.31545726195E+02  0.51100000000E-03 0. -1.
        -11    1    3    3    0    0 -0.72635475067E+01  0.98350393484E+01  0.13519233554E+02  0.18227912593E+02  0.51100000000E-03 0.  1.
         12    1    3    3    0    0  0.77907103541E+00  0.22507500193E+02  0.27468397634E+01  0.22687874412E+02  0.00000000000E+00 0. -1.
</event>
<event>
 7    1  0.1302069E-013  0.7246153E+02  0.7816164E-02  0.1226708E+00
        -11   -1    0    0    0    0  0.00000000000E+00  0.00000000000E+00  0.45593999997E+02  0.45594000000E+02  0.51100000000E-03 0. -1.
         11   -1    0    0    0    0 -0.00000000000E+00 -0.00000000000E+00 -0.45593999997E+02  0.45594000000E+02  0.51100000000E-03 0.  1.
    9900012    2    1    2    0    0 -0.17270336552E+02 -0.72334393591E+01 -0.30590398264E+00  0.72461528180E+02  0.69999945139E+02 0.  0.
         12    1    1    2    0    0  0.17270336552E+02  0.72334393591E+01  0.30590398264E+00  0.18726471820E+02  0.00000000000E+00 0. -1.
         11    1    3    3    0    0 -0.35200432613E+02 -0.14223480440E+02 -0.68464024976E+00  0.37971655014E+02  0.51100000000E-03 0. -1.
        -11    1    3    3    0    0  0.16965078235E+02 -0.84939717318E+01  0.34468789229E+00  0.18975780493E+02  0.51100000000E-03 0.  1.
         12    1    3    3    0    0  0.96501782569E+00  0.15484012813E+02  0.34048374833E-01  0.15514092673E+02  0.00000000000E+00 0. -1.
</event>
<event>
 7    1  0.1302069E-013  0.7246167E+02  0.7816164E-02  0.1226708E+00
        -11   -1    0    0    0    0  0.00000000000E+00  0.00000000000E+00  0.45593999997E+02  0.45594000000E+02  0.51100000000E-03 0.  1.
         11   -1    0    0    0    0 -0.00000000000E+00 -0.00000000000E+00 -0.45593999997E+02  0.45594000000E+02  0.51100000000E-03 0. -1.
    9900012    2    1    2    0    0  0.14754258712E+02 -0.83109150409E+00  0.11502027276E+02  0.72461668414E+02  0.70000127819E+02 0.  0.
         12    1    1    2    0    0 -0.14754258712E+02  0.83109150409E+00 -0.11502027276E+02  0.18726331586E+02  0.00000000000E+00 0. -1.
         11    1    3    3    0    0  0.61215141446E+01 -0.24039579497E+02  0.27119698860E+02  0.36753943793E+02  0.51100000000E-03 0.  1.
        -11    1    3    3    0    0  0.24618943161E+01  0.17297399182E+02 -0.19619929543E+02  0.26271706789E+02  0.51100000000E-03 0. -1.
         12    1    3    3    0    0  0.61708502511E+01  0.59110888113E+01  0.40022579592E+01  0.94360178321E+01  0.00000000000E+00 0. -1.
</event>
<event>
 7    1  0.1302069E-013  0.7246158E+02  0.7816164E-02  0.1226708E+00
        -11   -1    0    0    0    0  0.00000000000E+00  0.00000000000E+00  0.45593999997E+02  0.45594000000E+02  0.51100000000E-03 0. -1.
         11   -1    0    0    0    0 -0.00000000000E+00 -0.00000000000E+00 -0.45593999997E+02  0.45594000000E+02  0.51100000000E-03 0.  1.
    9900012    2    1    2    0    0  0.62811380813E+01  0.27114157098E+01 -0.17431992382E+02  0.72461579382E+02  0.70000011838E+02 0.  0.
         12    1    1    2    0    0 -0.62811380813E+01 -0.27114157098E+01  0.17431992382E+02  0.18726420618E+02  0.00000000000E+00 0. -1.
         11    1    3    3    0    0 -0.88354993511E+00  0.28603515114E+02  0.33428183191E+01  0.28811736704E+02  0.51100000000E-03 0. -1.
        -11    1    3    3    0    0 -0.84033859364E+01 -0.16476624199E+02 -0.40441179598E+01  0.18932800388E+02  0.51100000000E-03 0.  1.
         12    1    3    3    0    0  0.15568073953E+02 -0.94154752048E+01 -0.16730692742E+02  0.24717042290E+02  0.00000000000E+00 0. -1.
</event>
<event>
 7    1  0.1302069E-013  0.7246155E+02  0.7816164E-02  0.1226708E+00
        -11   -1    0    0    0    0  0.00000000000E+00  0.00000000000E+00  0.45593999997E+02  0.45594000000E+02  0.51100000000E-03 0. -1.
         11   -1    0    0    0    0 -0.00000000000E+00 -0.00000000000E+00 -0.45593999997E+02  0.45594000000E+02  0.51100000000E-03 0.  1.
    9900012    2    1    2    0    0  0.92953466341E+01  0.15896644560E+02  0.34019587270E+01  0.72461545437E+02  0.69999967619E+02 0.  0.
         12    1    1    2    0    0 -0.92953466341E+01 -0.15896644560E+02 -0.34019587270E+01  0.18726454563E+02  0.00000000000E+00 0. -1.
         11    1    3    3    0    0  0.14368991809E+01  0.34923145296E+02 -0.56804889775E+01  0.35411279444E+02  0.51100000000E-03 0. -1.
        -11    1    3    3    0    0  0.18603293330E+02 -0.14116546889E+02  0.23954649525E+01  0.23475469567E+02  0.51100000000E-03 0.  1.
        -12    1    3    3    0    0 -0.10744845876E+02 -0.49099538464E+01  0.66869827521E+01  0.13574796426E+02  0.00000000000E+00 0.  1.
</event>
<event>
 7    1  0.1302069E-013  0.7246173E+02  0.7816164E-02  0.1226708E+00
        -11   -1    0    0    0    0  0.00000000000E+00  0.00000000000E+00  0.45593999997E+02  0.45594000000E+02  0.51100000000E-03 0. -1.
         11   -1    0    0    0    0 -0.00000000000E+00 -0.00000000000E+00 -0.45593999997E+02  0.45594000000E+02  0.51100000000E-03 0.  1.
    9900012    2    1    2    0    0 -0.12489828872E+02 -0.12854405829E+02 -0.54260159474E+01  0.72461729054E+02  0.70000206814E+02 0.  0.
         12    1    1    2    0    0  0.12489828872E+02  0.12854405829E+02  0.54260159474E+01  0.18726270946E+02  0.00000000000E+00 0. -1.
         11    1    3    3    0    0  0.16926505630E+02  0.26287986150E+01 -0.12374591718E+02  0.21131675169E+02  0.51100000000E-03 0. -1.
        -11    1    3    3    0    0 -0.16459490651E+02  0.11970069419E+02  0.87132844861E+00  0.20370483743E+02  0.51100000000E-03 0.  1.
        -12    1    3    3    0    0 -0.12956843851E+02 -0.27453273863E+02  0.60772473222E+01  0.30959570142E+02  0.00000000000E+00 0.  1.
</event>
<event>
 7    1  0.1302069E-013  0.7246156E+02  0.7816164E-02  0.1226708E+00
        -11   -1    0    0    0    0  0.00000000000E+00  0.00000000000E+00  0.45593999997E+02  0.45594000000E+02  0.51100000000E-03 0. -1.
         11   -1    0    0    0    0 -0.00000000000E+00 -0.00000000000E+00 -0.45593999997E+02  0.45594000000E+02  0.51100000000E-03 0.  1.
    9900012    2    1    2    0    0  0.71611243387E+01 -0.11473286487E+02 -0.12952276519E+02  0.72461562228E+02  0.69999989492E+02 0.  0.
         12    1    1    2    0    0 -0.71611243387E+01  0.11473286487E+02  0.12952276519E+02  0.18726437772E+02  0.00000000000E+00 0. -1.
         11    1    3    3    0    0  0.29114226907E+01 -0.29674686270E+02 -0.18954443618E+02  0.35331774941E+02  0.51100000000E-03 0. -1.
        -11    1    3    3    0    0 -0.89474546739E+01  0.21107745317E+02  0.56501047294E+01  0.23611809359E+02  0.51100000000E-03 0.  1.
         12    1    3    3    0    0  0.13197156322E+02 -0.29063455336E+01  0.35206236934E+00  0.13517977928E+02  0.00000000000E+00 0. -1.
</event>
<event>
 7    1  0.1302069E-013  0.7246142E+02  0.7816164E-02  0.1226708E+00
        -11   -1    0    0    0    0  0.00000000000E+00  0.00000000000E+00  0.45593999997E+02  0.45594000000E+02  0.51100000000E-03 0.  1.
         11   -1    0    0    0    0 -0.00000000000E+00 -0.00000000000E+00 -0.45593999997E+02  0.45594000000E+02  0.51100000000E-03 0. -1.
    9900012    2    1    2    0    0  0.10540499776E+02 -0.11046801883E+02  0.10842093891E+02  0.72461415492E+02  0.69999798342E+02 0.  0.
         12    1    1    2    0    0 -0.10540499776E+02  0.11046801883E+02 -0.10842093891E+02  0.18726584508E+02  0.00000000000E+00 0. -1.
         11    1    3    3    0    0  0.22001495087E+02 -0.83895505542E+01 -0.21722099949E+02  0.32035916891E+02  0.51100000000E-03 0. -1.
        -11    1    3    3    0    0 -0.13591000311E+02  0.50074603573E+01  0.13633601842E+02  0.19891330979E+02  0.51100000000E-03 0.  1.
        -12    1    3    3    0    0  0.21300050006E+01 -0.76647116863E+01  0.18930591999E+02  0.20534167623E+02  0.00000000000E+00 0.  1.
</event>
<event>
 7    1  0.1302069E-013  0.7246148E+02  0.7816164E-02  0.1226708E+00
        -11   -1    0    0    0    0  0.00000000000E+00  0.00000000000E+00  0.45593999997E+02  0.45594000000E+02  0.51100000000E-03 0. -1.
         11   -1    0    0    0    0 -0.00000000000E+00 -0.00000000000E+00 -0.45593999997E+02  0.45594000000E+02  0.51100000000E-03 0.  1.
    9900012    2    1    2    0    0 -0.91516902919E+01  0.12565149229E+02 -0.10442522545E+02  0.72461476365E+02  0.69999877640E+02 0.  0.
         12    1    1    2    0    0  0.91516902919E+01 -0.12565149229E+02  0.10442522545E+02  0.18726523635E+02  0.00000000000E+00 0. -1.
         11    1    3    3    0    0 -0.30677766058E+02  0.18691448778E+02  0.88623609845E+01  0.37000500405E+02  0.51100000000E-03 0. -1.
        -11    1    3    3    0    0 -0.24010706100E+01 -0.23801951655E+01 -0.80973587926E+01  0.87748326923E+01  0.51100000000E-03 0.  1.
         12    1    3    3    0    0  0.23927146376E+02 -0.37461043832E+01 -0.11207524737E+02  0.26686143268E+02  0.00000000000E+00 0. -1.
</event>
<event>
 7    1  0.1302069E-013  0.7246161E+02  0.7816164E-02  0.1226708E+00
        -11   -1    0    0    0    0  0.00000000000E+00  0.00000000000E+00  0.45593999997E+02  0.45594000000E+02  0.51100000000E-03 0. -1.
         11   -1    0    0    0    0 -0.00000000000E+00 -0.00000000000E+00 -0.45593999997E+02  0.45594000000E+02  0.51100000000E-03 0.  1.
    9900012    2    1    2    0    0  0.30371254266E+01 -0.18298699194E+02 -0.25712347782E+01  0.72461607626E+02  0.70000048632E+02 0.  0.
         12    1    1    2    0    0 -0.30371254266E+01  0.18298699194E+02  0.25712347782E+01  0.18726392374E+02  0.00000000000E+00 0. -1.
         11    1    3    3    0    0 -0.18948576116E+02  0.37115564274E+01  0.15430837737E+02  0.24717098161E+02  0.51100000000E-03 0. -1.
        -11    1    3    3    0    0  0.12483796446E+02  0.35389700790E+01 -0.15729742029E+02  0.20391033997E+02  0.51100000000E-03 0.  1.
        -12    1    3    3    0    0  0.95019050969E+01 -0.25549225700E+02 -0.22723304868E+01  0.27353475468E+02  0.00000000000E+00 0.  1.
</event>
<event>
 7    1  0.1302069E-013  0.7246165E+02  0.7816164E-02  0.1226708E+00
        -11   -1    0    0    0    0  0.00000000000E+00  0.00000000000E+00  0.45593999997E+02  0.45594000000E+02  0.51100000000E-03 0.  1.
         11   -1    0    0    0    0 -0.00000000000E+00 -0.00000000000E+00 -0.45593999997E+02  0.45594000000E+02  0.51100000000E-03 0. -1.
    9900012    2    1    2    0    0  0.11714327717E+02  0.33082642814E+01  0.14230468059E+02  0.72461646709E+02  0.70000099544E+02 0.  0.
         12    1    1    2    0    0 -0.11714327717E+02 -0.33082642814E+01 -0.14230468059E+02  0.18726353291E+02  0.00000000000E+00 0. -1.
         11    1    3    3    0    0  0.33516306856E+02 -0.72262658215E+01  0.74799086446E+01  0.35092887835E+02  0.51100000000E-03 0. -1.
        -11    1    3    3    0    0 -0.88691180998E+01 -0.27647311009E+01  0.14535556489E+02  0.17250721626E+02  0.51100000000E-03 0.  1.
         12    1    3    3    0    0 -0.12932861039E+02  0.13299261204E+02 -0.77849970747E+01  0.20118037247E+02  0.00000000000E+00 0. -1.
</event>
<event>
 7    1  0.1302069E-013  0.7246156E+02  0.7816164E-02  0.1226708E+00
        -11   -1    0    0    0    0  0.00000000000E+00  0.00000000000E+00  0.45593999997E+02  0.45594000000E+02  0.51100000000E-03 0.  1.
         11   -1    0    0    0    0 -0.00000000000E+00 -0.00000000000E+00 -0.45593999997E+02  0.45594000000E+02  0.51100000000E-03 0. -1.
    9900012    2    1    2    0    0  0.28890369285E+00 -0.86156165348E+01  0.16624297187E+02  0.72461559586E+02  0.69999986050E+02 0.  0.
         12    1    1    2    0    0 -0.28890369285E+00  0.86156165348E+01 -0.16624297187E+02  0.18726440414E+02  0.00000000000E+00 0. -1.
         11    1    3    3    0    0 -0.94184725252E+01 -0.27229970747E+02  0.43183765455E+01  0.29134641028E+02  0.51100000000E-03 0. -1.
        -11    1    3    3    0    0  0.17791711625E+02  0.11731558943E+01  0.15757979842E+02  0.23795697642E+02  0.51100000000E-03 0.  1.
         12    1    3    3    0    0 -0.80843354067E+01  0.17441198318E+02 -0.34520592004E+01  0.19531220916E+02  0.00000000000E+00 0. -1.
</event>
<event>
 7    1  0.1302069E-013  0.7246158E+02  0.7816164E-02  0.1226708E+00
        -11   -1    0    0    0    0  0.00000000000E+00  0.00000000000E+00  0.45593999997E+02  0.45594000000E+02  0.51100000000E-03 0. -1.
         11   -1    0    0    0    0 -0.00000000000E+00 -0.00000000000E+00 -0.45593999997E+02  0.45594000000E+02  0.51100000000E-03 0.  1.
    9900012    2    1    2    0    0 -0.10979191090E+02 -0.55606351578E+01 -0.14114371698E+02  0.72461580460E+02  0.70000013243E+02 0.  0.
         12    1    1    2    0    0  0.10979191090E+02  0.55606351578E+01  0.14114371698E+02  0.18726419540E+02  0.00000000000E+00 0. -1.
         11    1    3    3    0    0  0.47624287214E+01 -0.14262037605E+02  0.83056099545E+01  0.17177590080E+02  0.51100000000E-03 0. -1.
        -11    1    3    3    0    0 -0.22718104909E+02  0.12158488518E+02  0.54583104135E+01  0.26338836089E+02  0.51100000000E-03 0.  1.
        -12    1    3    3    0    0  0.69764850976E+01 -0.34570860706E+01 -0.27878292066E+02  0.28945154291E+02  0.00000000000E+00 0.  1.
</event>
<event>
 7    1  0.1302069E-013  0.7246159E+02  0.7816164E-02  0.1226708E+00
        -11   -1    0    0    0    0  0.00000000000E+00  0.00000000000E+00  0.45593999997E+02  0.45594000000E+02  0.51100000000E-03 0.  1.
         11   -1    0    0    0    0 -0.00000000000E+00 -0.00000000000E+00 -0.45593999997E+02  0.45594000000E+02  0.51100000000E-03 0. -1.
    9900012    2    1    2    0    0  0.11951556721E+02  0.17890450676E+01  0.14305173678E+02  0.72461591261E+02  0.70000027313E+02 0.  0.
         12    1    1    2    0    0 -0.11951556721E+02 -0.17890450676E+01 -0.14305173678E+02  0.18726408739E+02  0.00000000000E+00 0. -1.
         11    1    3    3    0    0 -0.99926150482E+01 -0.14131946870E+02 -0.57640745868E+01  0.18242500759E+02  0.51100000000E-03 0. -1.
        -11    1    3    3    0    0  0.11973753283E+02 -0.39132719874E+00  0.30266659328E+02  0.32551414283E+02  0.51100000000E-03 0.  1.
        -12    1    3    3    0    0  0.99704184859E+01  0.16312319136E+02 -0.10197411063E+02  0.21667676220E+02  0.00000000000E+00 0.  1.
</event>
<event>
 7    1  0.1302069E-013  0.7246140E+02  0.7816164E-02  0.1226708E+00
        -11   -1    0    0    0    0  0.00000000000E+00  0.00000000000E+00  0.45593999997E+02  0.45594000000E+02  0.51100000000E-03 0.  1.
         11   -1    0    0    0    0 -0.00000000000E+00 -0.00000000000E+00 -0.45593999997E+02  0.45594000000E+02  0.51100000000E-03 0. -1.
    9900012    2    1    2    0    0 -0.10505965785E+02 -0.31553061842E+01  0.15177421370E+02  0.72461404110E+02  0.69999783513E+02 0.  0.
         12    1    1    2    0    0  0.10505965785E+02  0.31553061842E+01 -0.15177421370E+02  0.18726595890E+02  0.00000000000E+00 0. -1.
         11    1    3    3    0    0  0.94781344397E+01  0.20095127185E+02 -0.89149118018E+01  0.23940025516E+02  0.51100000000E-03 0. -1.
        -11    1    3    3    0    0 -0.23063044854E+02 -0.16577338859E+02  0.60502551984E+01  0.29039934397E+02  0.51100000000E-03 0.  1.
        -12    1    3    3    0    0  0.30789446293E+01 -0.66730945101E+01  0.18042077973E+02  0.19481444196E+02  0.00000000000E+00 0.  1.
</event>
<event>
 7    1  0.1302069E-013  0.7246157E+02  0.7816164E-02  0.1226708E+00
        -11   -1    0    0    0    0  0.00000000000E+00  0.00000000000E+00  0.45593999997E+02  0.45594000000E+02  0.51100000000E-03 0. -1.
         11   -1    0    0    0    0 -0.00000000000E+00 -0.00000000000E+00 -0.45593999997E+02  0.45594000000E+02  0.51100000000E-03 0.  1.
    9900012    2    1    2    0    0 -0.84199007085E+01  0.91110090328E+01 -0.14027610588E+02  0.72461572889E+02  0.70000003380E+02 0.  0.
         12    1    1    2    0    0  0.84199007085E+01 -0.91110090328E+01  0.14027610588E+02  0.18726427111E+02  0.00000000000E+00 0. -1.
         11    1    3    3    0    0  0.31669217721E+00 -0.11725728208E+02 -0.10929037278E+02  0.16032368884E+02  0.51100000000E-03 0. -1.
        -11    1    3    3    0    0 -0.29842935889E+02  0.18238815140E+02 -0.26857257127E+00  0.34976096576E+02  0.51100000000E-03 0.  1.
        -12    1    3    3    0    0  0.21106343003E+02  0.25979221008E+01 -0.28300007392E+01  0.21453107429E+02  0.00000000000E+00 0.  1.
</event>
<event>
 7    1  0.1302069E-013  0.7246158E+02  0.7816164E-02  0.1226708E+00
        -11   -1    0    0    0    0  0.00000000000E+00  0.00000000000E+00  0.45593999997E+02  0.45594000000E+02  0.51100000000E-03 0.  1.
         11   -1    0    0    0    0 -0.00000000000E+00 -0.00000000000E+00 -0.45593999997E+02  0.45594000000E+02  0.51100000000E-03 0. -1.
    9900012    2    1    2    0    0 -0.14359995634E+02  0.15705314829E+01  0.11916490097E+02  0.72461580695E+02  0.70000013549E+02 0.  0.
         12    1    1    2    0    0  0.14359995634E+02 -0.15705314829E+01 -0.11916490097E+02  0.18726419305E+02  0.00000000000E+00 0. -1.
         11    1    3    3    0    0 -0.14103834444E+02 -0.16569744672E+02 -0.15460843038E+02  0.26692925135E+02  0.51100000000E-03 0. -1.
        -11    1    3    3    0    0  0.12696328289E+02  0.18294316262E+01  0.19826099729E+02  0.23613932388E+02  0.51100000000E-03 0.  1.
         12    1    3    3    0    0 -0.12952489478E+02  0.16310844529E+02  0.75512334066E+01  0.22154723173E+02  0.00000000000E+00 0. -1.
</event>
<event>
 7    1  0.1302069E-013  0.7246148E+02  0.7816164E-02  0.1226708E+00
        -11   -1    0    0    0    0  0.00000000000E+00  0.00000000000E+00  0.45593999997E+02  0.45594000000E+02  0.51100000000E-03 0. -1.
         11   -1    0    0    0    0 -0.00000000000E+00 -0.00000000000E+00 -0.45593999997E+02  0.45594000000E+02  0.51100000000E-03 0.  1.
    9900012    2    1    2    0    0  0.15940125098E+02 -0.49385120025E+01 -0.84974050827E+01  0.72461484518E+02  0.69999888261E+02 0.  0.
         12    1    1    2    0    0 -0.15940125098E+02  0.49385120025E+01  0.84974050827E+01  0.18726515482E+02  0.00000000000E+00 0. -1.
         11    1    3    3    0    0  0.16249385033E+02  0.26082951263E+01  0.14518322709E+01  0.16521305476E+02  0.51100000000E-03 0. -1.
        -11    1    3    3    0    0 -0.18928784380E+02 -0.35024894056E+01  0.15101437156E+02  0.24466706247E+02  0.51100000000E-03 0.  1.
        -12    1    3    3    0    0  0.18619524445E+02 -0.40443177231E+01 -0.25050674510E+02  0.31473472795E+02  0.00000000000E+00 0.  1.
</event>
<event>
 7    1  0.1302069E-013  0.7246152E+02  0.7816164E-02  0.1226708E+00
        -11   -1    0    0    0    0  0.00000000000E+00  0.00000000000E+00  0.45593999997E+02  0.45594000000E+02  0.51100000000E-03 0.  1.
         11   -1    0    0    0    0 -0.00000000000E+00 -0.00000000000E+00 -0.45593999997E+02  0.45594000000E+02  0.51100000000E-03 0. -1.
    9900012    2    1    2    0    0 -0.34709952505E+01 -0.10533511437E+02  0.15089014685E+02  0.72461520476E+02  0.69999935102E+02 0.  0.
         12    1    1    2    0    0  0.34709952505E+01  0.10533511437E+02 -0.15089014685E+02  0.18726479524E+02  0.00000000000E+00 0. -1.
         11    1    3    3    0    0  0.27177679072E+02 -0.71348489962E+01 -0.11405565798E+02  0.30325224507E+02  0.51100000000E-03 0. -1.
        -11    1    3    3    0    0 -0.15043246926E+02 -0.66515173227E+01  0.16629684802E+02  0.23389920428E+02  0.51100000000E-03 0.  1.
         12    1    3    3    0    0 -0.15605427397E+02  0.32528548820E+01  0.98648956810E+01  0.18746375541E+02  0.00000000000E+00 0. -1.
</event>
<event>
 7    1  0.1302069E-013  0.7246172E+02  0.7816164E-02  0.1226708E+00
        -11   -1    0    0    0    0  0.00000000000E+00  0.00000000000E+00  0.45593999997E+02  0.45594000000E+02  0.51100000000E-03 0.  1.
         11   -1    0    0    0    0 -0.00000000000E+00 -0.00000000000E+00 -0.45593999997E+02  0.45594000000E+02  0.51100000000E-03 0. -1.
    9900012    2    1    2    0    0  0.26257955585E+01 -0.18181355109E+02 -0.36355352526E+01  0.72461719203E+02  0.70000193981E+02 0.  0.
         12    1    1    2    0    0 -0.26257955585E+01  0.18181355109E+02  0.36355352526E+01  0.18726280797E+02  0.00000000000E+00 0. -1.
         11    1    3    3    0    0 -0.18387206736E+02  0.40107542607E+00  0.24634166485E+01  0.18555825363E+02  0.51100000000E-03 0. -1.
        -11    1    3    3    0    0  0.18860128566E+02 -0.31820701951E+02  0.38738615642E+01  0.37192315414E+02  0.51100000000E-03 0.  1.
        -12    1    3    3    0    0  0.21528737291E+01  0.13238271416E+02 -0.99728134653E+01  0.16713578426E+02  0.00000000000E+00 0.  1.
</event>
<event>
 7    1  0.1302069E-013  0.7246157E+02  0.7816164E-02  0.1226708E+00
        -11   -1    0    0    0    0  0.00000000000E+00  0.00000000000E+00  0.45593999997E+02  0.45594000000E+02  0.51100000000E-03 0. -1.
         11   -1    0    0    0    0 -0.00000000000E+00 -0.00000000000E+00 -0.45593999997E+02  0.45594000000E+02  0.51100000000E-03 0.  1.
    9900012    2    1    2    0    0 -0.12281774198E+02  0.13981467298E+02 -0.20870914560E+01  0.72461565315E+02  0.69999993513E+02 0.  0.
         12    1    1    2    0    0  0.12281774198E+02 -0.13981467298E+02  0.20870914560E+01  0.18726434685E+02  0.00000000000E+00 0. -1.
         11    1    3    3    0    0 -0.13000053617E+01 -0.13204764370E+02 -0.14505111775E+02  0.19658435438E+02  0.51100000000E-03 0. -1.
        -11    1    3    3    0    0  0.12066253308E+02  0.25359481557E+02  0.50265435282E+01  0.28530052818E+02  0.51100000000E-03 0.  1.
        -12    1    3    3    0    0 -0.23048022144E+02  0.18267501114E+01  0.73914767906E+01  0.24273077058E+02  0.00000000000E+00 0.  1.
</event>
<event>
 8    1  0.1302069E-013  0.7246152E+02  0.7816164E-02  0.1226708E+00
        -11   -1    0    0    0    0  0.00000000000E+00  0.00000000000E+00  0.45593999997E+02  0.45594000000E+02  0.51100000000E-03 0.  1.
         11   -1    0    0    0    0 -0.00000000000E+00 -0.00000000000E+00 -0.45593999997E+02  0.45594000000E+02  0.51100000000E-03 0. -1.
    9900012    2    1    2    0    0  0.20053898152E+01 -0.17943487428E+00  0.18617925208E+02  0.72461523443E+02  0.69999938967E+02 0.  0.
         24    2    3    3    0    0  0.60279075916E+01  0.15161337763E+02  0.17888241515E+02  0.56585365441E+02  0.51144037433E+02 0.  0.
         12    1    1    2    0    0 -0.20053898152E+01  0.17943487428E+00 -0.18617925208E+02  0.18726476557E+02  0.00000000000E+00 0. -1.
         11    1    3    3    0    0 -0.40225177764E+01 -0.15340772637E+02  0.72968369353E+00  0.15876158002E+02  0.51100000000E-03 0. -1.
        -11    1    4    4    0    0  0.17182585051E+02  0.61482958072E+01  0.31762216166E+02  0.36631695926E+02  0.51100000000E-03 0.  1.
         12    1    4    4    0    0 -0.11154677459E+02  0.90130419553E+01 -0.13873974651E+02  0.19953669515E+02  0.00000000000E+00 0. -1.
</event>
<event>
 7    1  0.1302069E-013  0.7246154E+02  0.7816164E-02  0.1226708E+00
        -11   -1    0    0    0    0  0.00000000000E+00  0.00000000000E+00  0.45593999997E+02  0.45594000000E+02  0.51100000000E-03 0. -1.
         11   -1    0    0    0    0 -0.00000000000E+00 -0.00000000000E+00 -0.45593999997E+02  0.45594000000E+02  0.51100000000E-03 0.  1.
    9900012    2    1    2    0    0 -0.10965693422E+01 -0.18694116154E+02  0.88590104713E-01  0.72461540342E+02  0.69999960982E+02 0.  0.
         12    1    1    2    0    0  0.10965693422E+01  0.18694116154E+02 -0.88590104713E-01  0.18726459658E+02  0.00000000000E+00 0. -1.
         11    1    3    3    0    0 -0.23504298446E+02 -0.45745358338E+01 -0.11019115388E+02  0.26359046412E+02  0.51100000000E-03 0. -1.
        -11    1    3    3    0    0  0.22680282680E+02  0.40808897829E+00 -0.61885183836E+01  0.23512964916E+02  0.51100000000E-03 0.  1.
         12    1    3    3    0    0 -0.27255357621E+00 -0.14527669299E+02  0.17296223876E+02  0.22589529014E+02  0.00000000000E+00 0. -1.
</event>
<event>
 7    1  0.1302069E-013  0.7246155E+02  0.7816164E-02  0.1226708E+00
        -11   -1    0    0    0    0  0.00000000000E+00  0.00000000000E+00  0.45593999997E+02  0.45594000000E+02  0.51100000000E-03 0.  1.
         11   -1    0    0    0    0 -0.00000000000E+00 -0.00000000000E+00 -0.45593999997E+02  0.45594000000E+02  0.51100000000E-03 0. -1.
    9900012    2    1    2    0    0 -0.78128148264E+01  0.14923675560E+02  0.81806983388E+01  0.72461548306E+02  0.69999971356E+02 0.  0.
         12    1    1    2    0    0  0.78128148264E+01 -0.14923675560E+02 -0.81806983388E+01  0.18726451694E+02  0.00000000000E+00 0. -1.
         11    1    3    3    0    0 -0.64918500294E+01  0.70759112101E+00  0.19699445477E+02  0.20753625089E+02  0.51100000000E-03 0. -1.
        -11    1    3    3    0    0 -0.71850896299E+01  0.31300959734E+02 -0.97283189549E+01  0.33556158648E+02  0.51100000000E-03 0.  1.
        -12    1    3    3    0    0  0.58641248329E+01 -0.17084875295E+02 -0.17904281828E+01  0.18151764569E+02  0.00000000000E+00 0.  1.
</event>
<event>
 7    1  0.1302069E-013  0.7246159E+02  0.7816164E-02  0.1226708E+00
        -11   -1    0    0    0    0  0.00000000000E+00  0.00000000000E+00  0.45593999997E+02  0.45594000000E+02  0.51100000000E-03 0.  1.
         11   -1    0    0    0    0 -0.00000000000E+00 -0.00000000000E+00 -0.45593999997E+02  0.45594000000E+02  0.51100000000E-03 0. -1.
    9900012    2    1    2    0    0 -0.12809232176E+02 -0.33831771554E+01  0.13234652868E+02  0.72461592092E+02  0.70000028396E+02 0.  0.
         12    1    1    2    0    0  0.12809232176E+02  0.33831771554E+01 -0.13234652868E+02  0.18726407908E+02  0.00000000000E+00 0. -1.
         11    1    3    3    0    0 -0.10092528049E+02 -0.36569976992E+01  0.35572964345E+02  0.37157348494E+02  0.51100000000E-03 0.  1.
        -11    1    3    3    0    0  0.55586951413E+01 -0.10899479703E+02 -0.15678287908E+02  0.19887344254E+02  0.51100000000E-03 0. -1.
         12    1    3    3    0    0 -0.82753992687E+01  0.11173300247E+02 -0.66600235688E+01  0.15416899344E+02  0.00000000000E+00 0. -1.
</event>
<event>
 7    1  0.1302069E-013  0.7246160E+02  0.7816164E-02  0.1226708E+00
        -11   -1    0    0    0    0  0.00000000000E+00  0.00000000000E+00  0.45593999997E+02  0.45594000000E+02  0.51100000000E-03 0.  1.
         11   -1    0    0    0    0 -0.00000000000E+00 -0.00000000000E+00 -0.45593999997E+02  0.45594000000E+02  0.51100000000E-03 0. -1.
    9900012    2    1    2    0    0 -0.11470767486E+02 -0.10001284641E+02 -0.10912093214E+02  0.72461602069E+02  0.70000041392E+02 0.  0.
         12    1    1    2    0    0  0.11470767486E+02  0.10001284641E+02  0.10912093214E+02  0.18726397931E+02  0.00000000000E+00 0. -1.
         11    1    3    3    0    0 -0.78738284957E+01  0.22120512831E+02 -0.17697553327E+02  0.29402681121E+02  0.51100000000E-03 0. -1.
        -11    1    3    3    0    0  0.70017424398E+01 -0.16255768571E+02  0.14095128213E+02  0.22626246897E+02  0.51100000000E-03 0.  1.
        -12    1    3    3    0    0 -0.10598681430E+02 -0.15866028901E+02 -0.73096681003E+01  0.20432674051E+02  0.00000000000E+00 0.  1.
</event>
<event>
 7    1  0.1302069E-013  0.7246152E+02  0.7816164E-02  0.1226708E+00
        -11   -1    0    0    0    0  0.00000000000E+00  0.00000000000E+00  0.45593999997E+02  0.45594000000E+02  0.51100000000E-03 0. -1.
         11   -1    0    0    0    0 -0.00000000000E+00 -0.00000000000E+00 -0.45593999997E+02  0.45594000000E+02  0.51100000000E-03 0.  1.
    9900012    2    1    2    0    0 -0.14408993413E+02  0.10855506007E+02 -0.50219369560E+01  0.72461522685E+02  0.69999937980E+02 0.  0.
         12    1    1    2    0    0  0.14408993413E+02 -0.10855506007E+02  0.50219369560E+01  0.18726477315E+02  0.00000000000E+00 0. -1.
         11    1    3    3    0    0 -0.12267706800E+02  0.98889739904E+01 -0.30143405181E+02  0.34013428420E+02  0.51100000000E-03 0.  1.
        -11    1    3    3    0    0 -0.24585950376E+01  0.14925400247E+02  0.13721732906E+02  0.20422982551E+02  0.51100000000E-03 0. -1.
         12    1    3    3    0    0  0.31730842427E+00 -0.13958868231E+02  0.11399735320E+02  0.18025111713E+02  0.00000000000E+00 0. -1.
</event>
<event>
 7    1  0.1302069E-013  0.7246172E+02  0.7816164E-02  0.1226708E+00
        -11   -1    0    0    0    0  0.00000000000E+00  0.00000000000E+00  0.45593999997E+02  0.45594000000E+02  0.51100000000E-03 0.  1.
         11   -1    0    0    0    0 -0.00000000000E+00 -0.00000000000E+00 -0.45593999997E+02  0.45594000000E+02  0.51100000000E-03 0. -1.
    9900012    2    1    2    0    0 -0.73306847294E+01  0.81344027071E+01 -0.15190991844E+02  0.72461716887E+02  0.70000190964E+02 0.  0.
         12    1    1    2    0    0  0.73306847294E+01 -0.81344027071E+01  0.15190991844E+02  0.18726283113E+02  0.00000000000E+00 0. -1.
         11    1    3    3    0    0  0.11535692957E+02 -0.21093667480E+02  0.88060117746E+01  0.25603922813E+02  0.51100000000E-03 0. -1.
        -11    1    3    3    0    0 -0.42120467072E+01  0.22400773513E+02 -0.81143328056E+01  0.24194594201E+02  0.51100000000E-03 0.  1.
         12    1    3    3    0    0 -0.14654330979E+02  0.68272966750E+01 -0.15882670813E+02  0.22663199873E+02  0.00000000000E+00 0. -1.
</event>
<event>
 7    1  0.1302069E-013  0.7246157E+02  0.7816164E-02  0.1226708E+00
        -11   -1    0    0    0    0  0.00000000000E+00  0.00000000000E+00  0.45593999997E+02  0.45594000000E+02  0.51100000000E-03 0.  1.
         11   -1    0    0    0    0 -0.00000000000E+00 -0.00000000000E+00 -0.45593999997E+02  0.45594000000E+02  0.51100000000E-03 0. -1.
    9900012    2    1    2    0    0 -0.11268823534E+02 -0.86520384096E+01  0.12199794353E+02  0.72461571223E+02  0.70000001210E+02 0.  0.
         12    1    1    2    0    0  0.11268823534E+02  0.86520384096E+01 -0.12199794353E+02  0.18726428777E+02  0.00000000000E+00 0. -1.
         11    1    3    3    0    0 -0.31180830097E+01  0.36124835927E+01 -0.14818278971E+02  0.15567718885E+02  0.51100000000E-03 0. -1.
        -11    1    3    3    0    0 -0.12746525539E+02  0.92076083250E+01  0.30828647851E+02  0.34607217353E+02  0.51100000000E-03 0.  1.
        -12    1    3    3    0    0  0.45957850146E+01 -0.21472130327E+02 -0.38105745262E+01  0.22286634984E+02  0.00000000000E+00 0.  1.
</event>
<event>
 7    1  0.1302069E-013  0.7246139E+02  0.7816164E-02  0.1226709E+00
        -11   -1    0    0    0    0  0.00000000000E+00  0.00000000000E+00  0.45593999997E+02  0.45594000000E+02  0.51100000000E-03 0.  1.
         11   -1    0    0    0    0 -0.00000000000E+00 -0.00000000000E+00 -0.45593999997E+02  0.45594000000E+02  0.51100000000E-03 0. -1.
    9900012    2    1    2    0    0  0.13978213489E+02  0.55127275976E+01  0.11176111226E+02  0.72461385783E+02  0.69999759639E+02 0.  0.
         12    1    1    2    0    0 -0.13978213489E+02 -0.55127275976E+01 -0.11176111226E+02  0.18726614217E+02  0.00000000000E+00 0. -1.
         11    1    3    3    0    0  0.27726034694E+02 -0.67985659317E+01 -0.10262831356E+02  0.30336104006E+02  0.51100000000E-03 0. -1.
        -11    1    3    3    0    0 -0.97354534726E+01  0.87871218919E+01  0.29598320953E+02  0.32373649300E+02  0.51100000000E-03 0.  1.
         12    1    3    3    0    0 -0.40123677322E+01  0.35241716374E+01 -0.81593783718E+01  0.97516324768E+01  0.00000000000E+00 0. -1.
</event>
<event>
 7    1  0.1302069E-013  0.7246159E+02  0.7816164E-02  0.1226708E+00
        -11   -1    0    0    0    0  0.00000000000E+00  0.00000000000E+00  0.45593999997E+02  0.45594000000E+02  0.51100000000E-03 0. -1.
         11   -1    0    0    0    0 -0.00000000000E+00 -0.00000000000E+00 -0.45593999997E+02  0.45594000000E+02  0.51100000000E-03 0.  1.
    9900012    2    1    2    0    0  0.10498033150E+02 -0.12059855454E+02 -0.97483041884E+01  0.72461594895E+02  0.70000032047E+02 0.  0.
         12    1    1    2    0    0 -0.10498033150E+02  0.12059855454E+02  0.97483041884E+01  0.18726405105E+02  0.00000000000E+00 0. -1.
         11    1    3    3    0    0 -0.12011977548E+02 -0.15416462581E+02  0.19656100083E+01  0.19642264281E+02  0.51100000000E-03 0. -1.
        -11    1    3    3    0    0  0.20748941994E+02 -0.51663451359E+01 -0.27475024019E+02  0.34815034986E+02  0.51100000000E-03 0.  1.
         12    1    3    3    0    0  0.17610687031E+01  0.85229522631E+01  0.15761109822E+02  0.18004295629E+02  0.00000000000E+00 0. -1.
</event>
<event>
 7    1  0.1302069E-013  0.7246156E+02  0.7816164E-02  0.1226708E+00
        -11   -1    0    0    0    0  0.00000000000E+00  0.00000000000E+00  0.45593999997E+02  0.45594000000E+02  0.51100000000E-03 0.  1.
         11   -1    0    0    0    0 -0.00000000000E+00 -0.00000000000E+00 -0.45593999997E+02  0.45594000000E+02  0.51100000000E-03 0. -1.
    9900012    2    1    2    0    0  0.82278771183E+01 -0.80619772254E+01  0.14764356395E+02  0.72461557241E+02  0.69999982996E+02 0.  0.
         12    1    1    2    0    0 -0.82278771183E+01  0.80619772254E+01 -0.14764356395E+02  0.18726442759E+02  0.00000000000E+00 0. -1.
         11    1    3    3    0    0 -0.11441544953E+01  0.18829899385E+01 -0.17868548363E+02  0.18003881845E+02  0.51100000000E-03 0. -1.
        -11    1    3    3    0    0  0.22420605885E+02 -0.10212986620E+01  0.31406896203E+02  0.38602069227E+02  0.51100000000E-03 0.  1.
        -12    1    3    3    0    0 -0.13048574271E+02 -0.89236685019E+01  0.12260085541E+01  0.15855606170E+02  0.00000000000E+00 0.  1.
</event>
<event>
 7    1  0.1302069E-013  0.7246154E+02  0.7816164E-02  0.1226708E+00
        -11   -1    0    0    0    0  0.00000000000E+00  0.00000000000E+00  0.45593999997E+02  0.45594000000E+02  0.51100000000E-03 0.  1.
         11   -1    0    0    0    0 -0.00000000000E+00 -0.00000000000E+00 -0.45593999997E+02  0.45594000000E+02  0.51100000000E-03 0. -1.
    9900012    2    1    2    0    0 -0.78162826633E+01  0.16208464838E+02 -0.51837980670E+01  0.72461538255E+02  0.69999958263E+02 0.  0.
         12    1    1    2    0    0  0.78162826633E+01 -0.16208464838E+02  0.51837980670E+01  0.18726461745E+02  0.00000000000E+00 0. -1.
         11    1    3    3    0    0  0.18787286429E+01 -0.18797325571E+02  0.19405223602E+02  0.27081945522E+02  0.51100000000E-03 0. -1.
        -11    1    3    3    0    0 -0.31590566400E+01  0.10112894919E+02 -0.13077402299E+01  0.10675226802E+02  0.51100000000E-03 0.  1.
         12    1    3    3    0    0 -0.65359546661E+01  0.24892895490E+02 -0.23281281440E+02  0.34704365932E+02  0.00000000000E+00 0. -1.
</event>
<event>
 7    1  0.1302069E-013  0.7246158E+02  0.7816164E-02  0.1226708E+00
        -11   -1    0    0    0    0  0.00000000000E+00  0.00000000000E+00  0.45593999997E+02  0.45594000000E+02  0.51100000000E-03 0. -1.
         11   -1    0    0    0    0 -0.00000000000E+00 -0.00000000000E+00 -0.45593999997E+02  0.45594000000E+02  0.51100000000E-03 0.  1.
    9900012    2    1    2    0    0  0.14140902367E+02  0.16352388857E+01 -0.12167160980E+02  0.72461576629E+02  0.70000008252E+02 0.  0.
         12    1    1    2    0    0 -0.14140902367E+02 -0.16352388857E+01  0.12167160980E+02  0.18726423371E+02  0.00000000000E+00 0. -1.
         11    1    3    3    0    0  0.50757908221E+01 -0.22134294729E+02 -0.16059416946E+02  0.27813585323E+02  0.51100000000E-03 0. -1.
        -11    1    3    3    0    0  0.74452389575E+01  0.33155420117E+02  0.68702884467E+01  0.34668636112E+02  0.51100000000E-03 0.  1.
        -12    1    3    3    0    0  0.16198725870E+01 -0.93858865022E+01 -0.29780324802E+01  0.99793551938E+01  0.00000000000E+00 0.  1.
</event>
<event>
 7    1  0.1302069E-013  0.7246154E+02  0.7816164E-02  0.1226708E+00
        -11   -1    0    0    0    0  0.00000000000E+00  0.00000000000E+00  0.45593999997E+02  0.45594000000E+02  0.51100000000E-03 0.  1.
         11   -1    0    0    0    0 -0.00000000000E+00 -0.00000000000E+00 -0.45593999997E+02  0.45594000000E+02  0.51100000000E-03 0. -1.
    9900012    2    1    2    0    0 -0.78950584024E+01  0.17091609721E+01  0.16894593045E+02  0.72461536037E+02  0.69999955374E+02 0.  0.
         12    1    1    2    0    0  0.78950584024E+01 -0.17091609721E+01 -0.16894593045E+02  0.18726463963E+02  0.00000000000E+00 0. -1.
         11    1    3    3    0    0 -0.62771329244E+01 -0.31890679351E+02 -0.10915095527E+01  0.32520904363E+02  0.51100000000E-03 0. -1.
        -11    1    3    3    0    0  0.22638556646E+01  0.31274963422E+01 -0.78633439755E+00  0.39401266333E+01  0.51100000000E-03 0.  1.
         12    1    3    3    0    0 -0.38817811426E+01  0.30472343980E+02  0.18772436995E+02  0.36000505041E+02  0.00000000000E+00 0. -1.
</event>
<event>
 7    1  0.1302069E-013  0.7246158E+02  0.7816164E-02  0.1226708E+00
        -11   -1    0    0    0    0  0.00000000000E+00  0.00000000000E+00  0.45593999997E+02  0.45594000000E+02  0.51100000000E-03 0.  1.
         11   -1    0    0    0    0 -0.00000000000E+00 -0.00000000000E+00 -0.45593999997E+02  0.45594000000E+02  0.51100000000E-03 0. -1.
    9900012    2    1    2    0    0  0.10526292081E+02  0.15454243777E+02  0.10209053866E+01  0.72461582203E+02  0.70000015513E+02 0.  0.
         12    1    1    2    0    0 -0.10526292081E+02 -0.15454243777E+02 -0.10209053866E+01  0.18726417797E+02  0.00000000000E+00 0. -1.
         11    1    3    3    0    0  0.34952892866E+01  0.45087539799E+01 -0.21111855042E+02  0.21869072528E+02  0.51100000000E-03 0. -1.
        -11    1    3    3    0    0 -0.13061577835E+01  0.46292192498E+01  0.34249538388E+02  0.34585641516E+02  0.51100000000E-03 0.  1.
        -12    1    3    3    0    0  0.83371605783E+01  0.63162705471E+01 -0.12116777959E+02  0.16006868159E+02  0.00000000000E+00 0.  1.
</event>
<event>
 7    1  0.1302069E-013  0.7246165E+02  0.7816164E-02  0.1226708E+00
        -11   -1    0    0    0    0  0.00000000000E+00  0.00000000000E+00  0.45593999997E+02  0.45594000000E+02  0.51100000000E-03 0. -1.
         11   -1    0    0    0    0 -0.00000000000E+00 -0.00000000000E+00 -0.45593999997E+02  0.45594000000E+02  0.51100000000E-03 0.  1.
    9900012    2    1    2    0    0 -0.16194926073E+02  0.79104903126E+01  0.50817973110E+01  0.72461650879E+02  0.70000104976E+02 0.  0.
         12    1    1    2    0    0  0.16194926073E+02 -0.79104903126E+01 -0.50817973110E+01  0.18726349121E+02  0.00000000000E+00 0. -1.
         11    1    3    3    0    0 -0.12111456584E+02 -0.61529404478E+01  0.27791723816E+02  0.30934220043E+02  0.51100000000E-03 0. -1.
        -11    1    3    3    0    0  0.17815698187E+01  0.79628657373E+01 -0.29543884476E+02  0.30649997259E+02  0.51100000000E-03 0.  1.
         12    1    3    3    0    0 -0.58650393077E+01  0.61005650230E+01  0.68339579706E+01  0.10877433577E+02  0.00000000000E+00 0. -1.
</event>
<event>
 7    1  0.1302069E-013  0.7246157E+02  0.7816164E-02  0.1226708E+00
        -11   -1    0    0    0    0  0.00000000000E+00  0.00000000000E+00  0.45593999997E+02  0.45594000000E+02  0.51100000000E-03 0.  1.
         11   -1    0    0    0    0 -0.00000000000E+00 -0.00000000000E+00 -0.45593999997E+02  0.45594000000E+02  0.51100000000E-03 0. -1.
    9900012    2    1    2    0    0  0.55542897493E+00  0.16319811661E+02 -0.91670294746E+01  0.72461569924E+02  0.69999999517E+02 0.  0.
         12    1    1    2    0    0 -0.55542897493E+00 -0.16319811661E+02  0.91670294746E+01  0.18726430076E+02  0.00000000000E+00 0. -1.
         11    1    3    3    0    0 -0.19566918707E+02 -0.53741453776E+01 -0.12095935229E+02  0.23623238465E+02  0.51100000000E-03 0. -1.
        -11    1    3    3    0    0  0.66450743651E+01  0.27133907992E+02  0.13342933762E+02  0.30958679847E+02  0.51100000000E-03 0.  1.
         12    1    3    3    0    0  0.13477273317E+02 -0.54399509531E+01 -0.10414028008E+02  0.17879651612E+02  0.00000000000E+00 0. -1.
</event>
<event>
 7    1  0.1302069E-013  0.7246153E+02  0.7816164E-02  0.1226708E+00
        -11   -1    0    0    0    0  0.00000000000E+00  0.00000000000E+00  0.45593999997E+02  0.45594000000E+02  0.51100000000E-03 0. -1.
         11   -1    0    0    0    0 -0.00000000000E+00 -0.00000000000E+00 -0.45593999997E+02  0.45594000000E+02  0.51100000000E-03 0.  1.
    9900012    2    1    2    0    0 -0.12867345753E+02  0.31865588504E+01  0.13227164400E+02  0.72461531511E+02  0.69999949477E+02 0.  0.
         12    1    1    2    0    0  0.12867345753E+02 -0.31865588504E+01 -0.13227164400E+02  0.18726468489E+02  0.00000000000E+00 0. -1.
         11    1    3    3    0    0  0.14063663326E+02  0.11087654804E+02  0.15011270582E+02  0.23367947277E+02  0.51100000000E-03 0. -1.
        -11    1    3    3    0    0 -0.26344692151E+02 -0.20607037972E+02  0.62826303025E+01  0.34031812504E+02  0.51100000000E-03 0.  1.
         12    1    3    3    0    0 -0.58631692834E+00  0.12705942018E+02 -0.80667364852E+01  0.15061771730E+02  0.00000000000E+00 0. -1.
</event>
<event>
 7    1  0.1302069E-013  0.7246157E+02  0.7816164E-02  0.1226708E+00
        -11   -1    0    0    0    0  0.00000000000E+00  0.00000000000E+00  0.45593999997E+02  0.45594000000E+02  0.51100000000E-03 0.  1.
         11   -1    0    0    0    0 -0.00000000000E+00 -0.00000000000E+00 -0.45593999997E+02  0.45594000000E+02  0.51100000000E-03 0. -1.
    9900012    2    1    2    0    0  0.58436622049E+01  0.66153188596E+01  0.16515698572E+02  0.72461571325E+02  0.70000001343E+02 0.  0.
         12    1    1    2    0    0 -0.58436622049E+01 -0.66153188596E+01 -0.16515698572E+02  0.18726428675E+02  0.00000000000E+00 0. -1.
         11    1    3    3    0    0 -0.12651713204E+02 -0.19881565803E+02  0.10146951364E+02  0.25657418577E+02  0.51100000000E-03 0. -1.
        -11    1    3    3    0    0  0.23215839009E+02  0.16657411672E+02 -0.71261814969E+01  0.29448718265E+02  0.51100000000E-03 0.  1.
         12    1    3    3    0    0 -0.47204635995E+01  0.98394729910E+01  0.13494928705E+02  0.17355434483E+02  0.00000000000E+00 0. -1.
</event>
<event>
 7    1  0.1302069E-013  0.7246155E+02  0.7816164E-02  0.1226708E+00
        -11   -1    0    0    0    0  0.00000000000E+00  0.00000000000E+00  0.45593999997E+02  0.45594000000E+02  0.51100000000E-03 0.  1.
         11   -1    0    0    0    0 -0.00000000000E+00 -0.00000000000E+00 -0.45593999997E+02  0.45594000000E+02  0.51100000000E-03 0. -1.
    9900012    2    1    2    0    0 -0.12507240466E+02 -0.65314052275E+01  0.12312171077E+02  0.72461551459E+02  0.69999975464E+02 0.  0.
         12    1    1    2    0    0  0.12507240466E+02  0.65314052275E+01 -0.12312171077E+02  0.18726448541E+02  0.00000000000E+00 0. -1.
         11    1    3    3    0    0  0.11980830707E+02 -0.25544477239E+02  0.17320035706E+02  0.33106559153E+02  0.51100000000E-03 0. -1.
        -11    1    3    3    0    0 -0.66103250886E+01  0.17185681899E+02 -0.96578297111E+01  0.20792251804E+02  0.51100000000E-03 0.  1.
         12    1    3    3    0    0 -0.17877746085E+02  0.18273901125E+01  0.46499650815E+01  0.18562740502E+02  0.00000000000E+00 0. -1.
</event>
<event>
 7    1  0.1302069E-013  0.7246156E+02  0.7816164E-02  0.1226708E+00
        -11   -1    0    0    0    0  0.00000000000E+00  0.00000000000E+00  0.45593999997E+02  0.45594000000E+02  0.51100000000E-03 0. -1.
         11   -1    0    0    0    0 -0.00000000000E+00 -0.00000000000E+00 -0.45593999997E+02  0.45594000000E+02  0.51100000000E-03 0.  1.
    9900012    2    1    2    0    0 -0.74885930680E+01 -0.16731044216E+02 -0.38304785283E+01  0.72461563274E+02  0.69999990855E+02 0.  0.
         12    1    1    2    0    0  0.74885930680E+01  0.16731044216E+02  0.38304785283E+01  0.18726436726E+02  0.00000000000E+00 0. -1.
         11    1    3    3    0    0 -0.24717203801E+02 -0.28719586220E+02  0.14683732106E+02  0.40637012504E+02  0.51100000000E-03 0. -1.
        -11    1    3    3    0    0  0.14840772447E+02  0.47860666824E+01 -0.50880903576E+01  0.16402549340E+02  0.51100000000E-03 0.  1.
         12    1    3    3    0    0  0.23878382869E+01  0.72024753220E+01 -0.13426120276E+02  0.15422001431E+02  0.00000000000E+00 0. -1.
</event>
<event>
 7    1  0.1302069E-013  0.7246189E+02  0.7816164E-02  0.1226707E+00
        -11   -1    0    0    0    0  0.00000000000E+00  0.00000000000E+00  0.45593999997E+02  0.45594000000E+02  0.51100000000E-03 0. -1.
         11   -1    0    0    0    0 -0.00000000000E+00 -0.00000000000E+00 -0.45593999997E+02  0.45594000000E+02  0.51100000000E-03 0.  1.
    9900012    2    1    2    0    0 -0.18590002265E+02 -0.99017312468E+00 -0.20244787992E+01  0.72461891450E+02  0.70000418364E+02 0.  0.
         12    1    1    2    0    0  0.18590002265E+02  0.99017312468E+00  0.20244787992E+01  0.18726108550E+02  0.00000000000E+00 0. -1.
         11    1    3    3    0    0  0.77537178604E+01  0.11811880216E+02  0.15010577325E+01  0.14208934846E+02  0.51100000000E-03 0. -1.
        -11    1    3    3    0    0 -0.15802513074E+02 -0.21991706887E+02 -0.22134144635E+02  0.34975347750E+02  0.51100000000E-03 0.  1.
        -12    1    3    3    0    0 -0.10541207052E+02  0.91896535464E+01  0.18608608103E+02  0.23277608854E+02  0.00000000000E+00 0.  1.
</event>
<event>
 7    1  0.1302069E-013  0.7246132E+02  0.7816164E-02  0.1226709E+00
        -11   -1    0    0    0    0  0.00000000000E+00  0.00000000000E+00  0.45593999997E+02  0.45594000000E+02  0.51100000000E-03 0. -1.
         11   -1    0    0    0    0 -0.00000000000E+00 -0.00000000000E+00 -0.45593999997E+02  0.45594000000E+02  0.51100000000E-03 0.  1.
    9900012    2    1    2    0    0  0.16476220413E+02  0.75589744710E+01  0.46994273088E+01  0.72461319803E+02  0.69999673688E+02 0.  0.
         12    1    1    2    0    0 -0.16476220413E+02 -0.75589744710E+01 -0.46994273088E+01  0.18726680197E+02  0.00000000000E+00 0. -1.
         11    1    3    3    0    0 -0.12929110521E+02  0.13632942666E+01  0.17959420073E+02  0.22171180387E+02  0.51100000000E-03 0. -1.
        -11    1    3    3    0    0  0.42147362795E+01 -0.94307122905E+01 -0.17523418898E+02  0.20341399813E+02  0.51100000000E-03 0.  1.
         12    1    3    3    0    0  0.25190594654E+02  0.15626392495E+02  0.42634261341E+01  0.29948739604E+02  0.00000000000E+00 0. -1.
</event>
<event>
 7    1  0.1302069E-013  0.7246154E+02  0.7816164E-02  0.1226708E+00
        -11   -1    0    0    0    0  0.00000000000E+00  0.00000000000E+00  0.45593999997E+02  0.45594000000E+02  0.51100000000E-03 0. -1.
         11   -1    0    0    0    0 -0.00000000000E+00 -0.00000000000E+00 -0.45593999997E+02  0.45594000000E+02  0.51100000000E-03 0.  1.
    9900012    2    1    2    0    0  0.16453451769E+02 -0.89130167286E+01 -0.72273093927E+00  0.72461540582E+02  0.69999961294E+02 0.  0.
         12    1    1    2    0    0 -0.16453451769E+02  0.89130167286E+01  0.72273093927E+00  0.18726459418E+02  0.00000000000E+00 0. -1.
         11    1    3    3    0    0  0.41322576496E+01  0.45883424533E+01 -0.67066598611E+01  0.91163439220E+01  0.51100000000E-03 0.  1.
        -11    1    3    3    0    0  0.32325433468E+02 -0.16742354755E+02  0.17112718603E+02  0.40225430139E+02  0.51100000000E-03 0. -1.
        -12    1    3    3    0    0 -0.20004239348E+02  0.32409955734E+01 -0.11128789681E+02  0.23119766521E+02  0.00000000000E+00 0.  1.
</event>
<event>
 7    1  0.1302069E-013  0.7246156E+02  0.7816164E-02  0.1226708E+00
        -11   -1    0    0    0    0  0.00000000000E+00  0.00000000000E+00  0.45593999997E+02  0.45594000000E+02  0.51100000000E-03 0.  1.
         11   -1    0    0    0    0 -0.00000000000E+00 -0.00000000000E+00 -0.45593999997E+02  0.45594000000E+02  0.51100000000E-03 0. -1.
    9900012    2    1    2    0    0  0.80044791068E+01  0.84571869812E+00  0.16908356495E+02  0.72461562932E+02  0.69999990409E+02 0.  0.
         12    1    1    2    0    0 -0.80044791068E+01 -0.84571869812E+00 -0.16908356495E+02  0.18726437068E+02  0.00000000000E+00 0. -1.
         11    1    3    3    0    0 -0.40461596681E+01  0.17143235314E+02  0.99220204798E+00  0.17642176460E+02  0.51100000000E-03 0.  1.
        -11    1    3    3    0    0  0.20697646379E+02 -0.36168443698E+01 -0.11088571840E+02  0.23757747253E+02  0.51100000000E-03 0. -1.
        -12    1    3    3    0    0 -0.86470076039E+01 -0.12680672246E+02  0.27004726287E+02  0.31061639219E+02  0.00000000000E+00 0.  1.
</event>
<event>
 7    1  0.1302069E-013  0.7246158E+02  0.7816164E-02  0.1226708E+00
        -11   -1    0    0    0    0  0.00000000000E+00  0.00000000000E+00  0.45593999997E+02  0.45594000000E+02  0.51100000000E-03 0. -1.
         11   -1    0    0    0    0 -0.00000000000E+00 -0.00000000000E+00 -0.45593999997E+02  0.45594000000E+02  0.51100000000E-03 0.  1.
    9900012    2    1    2    0    0  0.54108068111E+01 -0.15070850449E+02 -0.97093393333E+01  0.72461584596E+02  0.70000018631E+02 0.  0.
         12    1    1    2    0    0 -0.54108068111E+01  0.15070850449E+02  0.97093393333E+01  0.18726415404E+02  0.00000000000E+00 0. -1.
         11    1    3    3    0    0  0.30900541930E+02 -0.24834188897E+02  0.48674280495E+01  0.39940859854E+02  0.51100000000E-03 0. -1.
        -11    1    3    3    0    0 -0.52381421274E+01 -0.10597398011E+01 -0.41112594038E-01  0.53444243749E+01  0.51100000000E-03 0.  1.
         12    1    3    3    0    0 -0.20251592992E+02  0.10823078250E+02 -0.14535654789E+02  0.27176300367E+02  0.00000000000E+00 0. -1.
</event>
<event>
 7    1  0.1302069E-013  0.7246158E+02  0.7816164E-02  0.1226708E+00
        -11   -1    0    0    0    0  0.00000000000E+00  0.00000000000E+00  0.45593999997E+02  0.45594000000E+02  0.51100000000E-03 0. -1.
         11   -1    0    0    0    0 -0.00000000000E+00 -0.00000000000E+00 -0.45593999997E+02  0.45594000000E+02  0.51100000000E-03 0.  1.
    9900012    2    1    2    0    0  0.28539376884E+01  0.18480625714E+02 -0.10001102442E+01  0.72461582628E+02  0.70000016067E+02 0.  0.
         12    1    1    2    0    0 -0.28539376884E+01 -0.18480625714E+02  0.10001102442E+01  0.18726417372E+02  0.00000000000E+00 0. -1.
         11    1    3    3    0    0  0.77060449092E+01 -0.49534610340E+01  0.36543505732E+01  0.98627674986E+01  0.51100000000E-03 0. -1.
        -11    1    3    3    0    0 -0.25467705034E+02  0.26746608308E+02  0.85301836766E+01  0.37904473212E+02  0.51100000000E-03 0.  1.
        -12    1    3    3    0    0  0.20615597813E+02 -0.33125215599E+01 -0.13184644494E+02  0.24694341917E+02  0.00000000000E+00 0.  1.
</event>
<event>
 7    1  0.1302069E-013  0.7246157E+02  0.7816164E-02  0.1226708E+00
        -11   -1    0    0    0    0  0.00000000000E+00  0.00000000000E+00  0.45593999997E+02  0.45594000000E+02  0.51100000000E-03 0.  1.
         11   -1    0    0    0    0 -0.00000000000E+00 -0.00000000000E+00 -0.45593999997E+02  0.45594000000E+02  0.51100000000E-03 0. -1.
    9900012    2    1    2    0    0  0.32843770033E+01 -0.90351295364E+01  0.16070422643E+02  0.72461569962E+02  0.69999999567E+02 0.  0.
         12    1    1    2    0    0 -0.32843770033E+01  0.90351295364E+01 -0.16070422643E+02  0.18726430038E+02  0.00000000000E+00 0. -1.
         11    1    3    3    0    0  0.92744559645E+00 -0.11192376628E+01 -0.46322908989E+01  0.48549940796E+01  0.51100000000E-03 0. -1.
        -11    1    3    3    0    0  0.84759474273E+00 -0.15603606817E+02  0.42053916941E+02  0.44863380311E+02  0.51100000000E-03 0.  1.
        -12    1    3    3    0    0  0.15093366641E+01  0.76877149437E+01 -0.21351203399E+02  0.22743195572E+02  0.00000000000E+00 0.  1.
</event>
<event>
 7    1  0.1302069E-013  0.7246154E+02  0.7816164E-02  0.1226708E+00
        -11   -1    0    0    0    0  0.00000000000E+00  0.00000000000E+00  0.45593999997E+02  0.45594000000E+02  0.51100000000E-03 0. -1.
         11   -1    0    0    0    0 -0.00000000000E+00 -0.00000000000E+00 -0.45593999997E+02  0.45594000000E+02  0.51100000000E-03 0.  1.
    9900012    2    1    2    0    0  0.92003813733E+01  0.15456733015E+02 -0.52079494519E+01  0.72461538765E+02  0.69999958927E+02 0.  0.
         12    1    1    2    0    0 -0.92003813733E+01 -0.15456733015E+02  0.52079494519E+01  0.18726461235E+02  0.00000000000E+00 0. -1.
         11    1    3    3    0    0  0.90803888955E+01 -0.66899617122E+01  0.27623352429E+02  0.29837202448E+02  0.51100000000E-03 0. -1.
        -11    1    3    3    0    0 -0.43297116572E+01  0.28737285685E+01 -0.15422646842E+02  0.16274604597E+02  0.51100000000E-03 0.  1.
         12    1    3    3    0    0  0.44497041350E+01  0.19272966158E+02 -0.17408655039E+02  0.26349731720E+02  0.00000000000E+00 0. -1.
</event>
<event>
 7    1  0.1302069E-013  0.7246161E+02  0.7816164E-02  0.1226708E+00
        -11   -1    0    0    0    0  0.00000000000E+00  0.00000000000E+00  0.45593999997E+02  0.45594000000E+02  0.51100000000E-03 0.  1.
         11   -1    0    0    0    0 -0.00000000000E+00 -0.00000000000E+00 -0.45593999997E+02  0.45594000000E+02  0.51100000000E-03 0. -1.
    9900012    2    1    2    0    0  0.14841707940E+02 -0.95119309707E+01  0.63185961780E+01  0.72461607314E+02  0.70000048225E+02 0.  0.
         12    1    1    2    0    0 -0.14841707940E+02  0.95119309707E+01 -0.63185961780E+01  0.18726392686E+02  0.00000000000E+00 0. -1.
         11    1    3    3    0    0 -0.42592914619E+01  0.15927551548E+02 -0.13800126866E+02  0.21500510781E+02  0.51100000000E-03 0. -1.
        -11    1    3    3    0    0  0.18454223192E+02 -0.13484492076E+01  0.19459523231E+02  0.26852368863E+02  0.51100000000E-03 0.  1.
         12    1    3    3    0    0  0.64677620915E+00 -0.24091033311E+02  0.65919981253E+00  0.24108727670E+02  0.00000000000E+00 0. -1.
</event>
<event>
 7    1  0.1302069E-013  0.7246160E+02  0.7816164E-02  0.1226708E+00
        -11   -1    0    0    0    0  0.00000000000E+00  0.00000000000E+00  0.45593999997E+02  0.45594000000E+02  0.51100000000E-03 0.  1.
         11   -1    0    0    0    0 -0.00000000000E+00 -0.00000000000E+00 -0.45593999997E+02  0.45594000000E+02  0.51100000000E-03 0. -1.
    9900012    2    1    2    0    0 -0.12526339916E+02  0.12389518284E+02  0.63457620658E+01  0.72461600154E+02  0.70000038897E+02 0.  0.
         12    1    1    2    0    0  0.12526339916E+02 -0.12389518284E+02 -0.63457620658E+01  0.18726399846E+02  0.00000000000E+00 0. -1.
         11    1    3    3    0    0 -0.23757508132E+02  0.28161953579E+02  0.12365828903E+02  0.38864232229E+02  0.51100000000E-03 0.  1.
        -11    1    3    3    0    0  0.10572860448E+02 -0.11690840014E+02 -0.16204141974E+02  0.22606090677E+02  0.51100000000E-03 0. -1.
        -12    1    3    3    0    0  0.65830776784E+00 -0.40815952809E+01  0.10184075137E+02  0.10991277248E+02  0.00000000000E+00 0.  1.
</event>
<event>
 7    1  0.1302069E-013  0.7246159E+02  0.7816164E-02  0.1226708E+00
        -11   -1    0    0    0    0  0.00000000000E+00  0.00000000000E+00  0.45593999997E+02  0.45594000000E+02  0.51100000000E-03 0. -1.
         11   -1    0    0    0    0 -0.00000000000E+00 -0.00000000000E+00 -0.45593999997E+02  0.45594000000E+02  0.51100000000E-03 0.  1.
    9900012    2    1    2    0    0 -0.16123139301E+02  0.85355968119E+01  0.42268783367E+01  0.72461587254E+02  0.70000022093E+02 0.  0.
         12    1    1    2    0    0  0.16123139301E+02 -0.85355968119E+01 -0.42268783367E+01  0.18726412746E+02  0.00000000000E+00 0. -1.
         11    1    3    3    0    0 -0.23024384044E+01  0.96583343920E+01  0.18581012687E+02  0.21067479170E+02  0.51100000000E-03 0. -1.
        -11    1    3    3    0    0 -0.87533446716E+01  0.17774906495E+02 -0.22693443338E+02  0.30125748366E+02  0.51100000000E-03 0.  1.
        -12    1    3    3    0    0 -0.50673562251E+01 -0.18897644075E+02  0.83393089876E+01  0.21268359718E+02  0.00000000000E+00 0.  1.
</event>
<event>
 7    1  0.1302069E-013  0.7246152E+02  0.7816164E-02  0.1226708E+00
        -11   -1    0    0    0    0  0.00000000000E+00  0.00000000000E+00  0.45593999997E+02  0.45594000000E+02  0.51100000000E-03 0.  1.
         11   -1    0    0    0    0 -0.00000000000E+00 -0.00000000000E+00 -0.45593999997E+02  0.45594000000E+02  0.51100000000E-03 0. -1.
    9900012    2    1    2    0    0  0.27852411005E+01  0.15950793186E+02 -0.94072107914E+01  0.72461521791E+02  0.69999936815E+02 0.  0.
         12    1    1    2    0    0 -0.27852411005E+01 -0.15950793186E+02  0.94072107914E+01  0.18726478209E+02  0.00000000000E+00 0. -1.
         11    1    3    3    0    0 -0.71526174913E+01 -0.11330917687E+02 -0.12620479788E+02  0.18407230724E+02  0.51100000000E-03 0. -1.
        -11    1    3    3    0    0 -0.69070420092E+00  0.35481868009E+02 -0.82119863158E+01  0.36426319457E+02  0.51100000000E-03 0.  1.
        -12    1    3    3    0    0  0.10628562793E+02 -0.82001571360E+01  0.11425255312E+02  0.17627971609E+02  0.00000000000E+00 0.  1.
</event>
<event>
 7    1  0.1302069E-013  0.7246156E+02  0.7816164E-02  0.1226708E+00
        -11   -1    0    0    0    0  0.00000000000E+00  0.00000000000E+00  0.45593999997E+02  0.45594000000E+02  0.51100000000E-03 0. -1.
         11   -1    0    0    0    0 -0.00000000000E+00 -0.00000000000E+00 -0.45593999997E+02  0.45594000000E+02  0.51100000000E-03 0.  1.
    9900012    2    1    2    0    0  0.15841913086E+02 -0.99032530319E+01 -0.12801596577E+01  0.72461563083E+02  0.69999990606E+02 0.  0.
         12    1    1    2    0    0 -0.15841913086E+02  0.99032530319E+01  0.12801596577E+01  0.18726436917E+02  0.00000000000E+00 0. -1.
         11    1    3    3    0    0 -0.11170162258E+02  0.33219671538E+01  0.54713432752E+01  0.12874144171E+02  0.51100000000E-03 0. -1.
        -11    1    3    3    0    0  0.18915021052E+02 -0.23978484365E+02 -0.23185217549E+02  0.38344491741E+02  0.51100000000E-03 0.  1.
        -12    1    3    3    0    0  0.80970542921E+01  0.10753264179E+02  0.16433714616E+02  0.21242927171E+02  0.00000000000E+00 0.  1.
</event>
<event>
 7    1  0.1302069E-013  0.7246161E+02  0.7816164E-02  0.1226708E+00
        -11   -1    0    0    0    0  0.00000000000E+00  0.00000000000E+00  0.45593999997E+02  0.45594000000E+02  0.51100000000E-03 0. -1.
         11   -1    0    0    0    0 -0.00000000000E+00 -0.00000000000E+00 -0.45593999997E+02  0.45594000000E+02  0.51100000000E-03 0.  1.
    9900012    2    1    2    0    0  0.34279974738E+01 -0.10199414510E+02 -0.15326403010E+02  0.72461605466E+02  0.70000045817E+02 0.  0.
         12    1    1    2    0    0 -0.34279974738E+01  0.10199414510E+02  0.15326403010E+02  0.18726394534E+02  0.00000000000E+00 0. -1.
         11    1    3    3    0    0 -0.12209555938E+02 -0.86604150859E+01  0.17688414199E+02  0.23172311986E+02  0.51100000000E-03 0. -1.
        -11    1    3    3    0    0  0.13656210229E+02 -0.11632295262E+02 -0.34511232291E+02  0.38895083563E+02  0.51100000000E-03 0.  1.
         12    1    3    3    0    0  0.19813431827E+01  0.10093295838E+02  0.14964150823E+01  0.10394209916E+02  0.00000000000E+00 0. -1.
</event>
<event>
 7    1  0.1302069E-013  0.7246124E+02  0.7816164E-02  0.1226709E+00
        -11   -1    0    0    0    0  0.00000000000E+00  0.00000000000E+00  0.45593999997E+02  0.45594000000E+02  0.51100000000E-03 0.  1.
         11   -1    0    0    0    0 -0.00000000000E+00 -0.00000000000E+00 -0.45593999997E+02  0.45594000000E+02  0.51100000000E-03 0. -1.
    9900012    2    1    2    0    0 -0.24853992221E+01  0.13825468637E+02  0.12384294735E+02  0.72461239778E+02  0.69999569439E+02 0.  0.
         12    1    1    2    0    0  0.24853992221E+01 -0.13825468637E+02 -0.12384294735E+02  0.18726760222E+02  0.00000000000E+00 0. -1.
         11    1    3    3    0    0 -0.40310294668E+01 -0.71689443278E+01 -0.22795816068E+02  0.24234112152E+02  0.51100000000E-03 0. -1.
        -11    1    3    3    0    0  0.18208772693E+01  0.22604755788E+02  0.13308555301E+02  0.26294642472E+02  0.51100000000E-03 0.  1.
         12    1    3    3    0    0 -0.27524702461E+00 -0.16103428231E+01  0.21871555502E+02  0.21932485154E+02  0.00000000000E+00 0. -1.
</event>
<event>
 7    1  0.1302069E-013  0.7246145E+02  0.7816164E-02  0.1226708E+00
        -11   -1    0    0    0    0  0.00000000000E+00  0.00000000000E+00  0.45593999997E+02  0.45594000000E+02  0.51100000000E-03 0.  1.
         11   -1    0    0    0    0 -0.00000000000E+00 -0.00000000000E+00 -0.45593999997E+02  0.45594000000E+02  0.51100000000E-03 0. -1.
    9900012    2    1    2    0    0  0.97502841722E+01  0.69452129876E+01  0.14400683151E+02  0.72461449328E+02  0.69999842418E+02 0.  0.
         12    1    1    2    0    0 -0.97502841722E+01 -0.69452129876E+01 -0.14400683151E+02  0.18726550672E+02  0.00000000000E+00 0. -1.
         11    1    3    3    0    0  0.76560252019E+01  0.23002699716E+02 -0.13428391908E+02  0.27713906719E+02  0.51100000000E-03 0. -1.
        -11    1    3    3    0    0  0.14383930027E+02 -0.11553156703E+02  0.25466318986E+02  0.31446880223E+02  0.51100000000E-03 0.  1.
         12    1    3    3    0    0 -0.12289671056E+02 -0.45043300254E+01  0.23627560732E+01  0.13300662386E+02  0.00000000000E+00 0. -1.
</event>
<event>
 7    1  0.1302069E-013  0.7246156E+02  0.7816164E-02  0.1226708E+00
        -11   -1    0    0    0    0  0.00000000000E+00  0.00000000000E+00  0.45593999997E+02  0.45594000000E+02  0.51100000000E-03 0. -1.
         11   -1    0    0    0    0 -0.00000000000E+00 -0.00000000000E+00 -0.45593999997E+02  0.45594000000E+02  0.51100000000E-03 0.  1.
    9900012    2    1    2    0    0 -0.17206976253E+01 -0.33201158319E+01 -0.18349267818E+02  0.72461558830E+02  0.69999985065E+02 0.  0.
         12    1    1    2    0    0  0.17206976253E+01  0.33201158319E+01  0.18349267818E+02  0.18726441170E+02  0.00000000000E+00 0. -1.
         11    1    3    3    0    0  0.20758117612E+02 -0.13585054384E+02  0.27328170695E+01  0.24958394155E+02  0.51100000000E-03 0. -1.
        -11    1    3    3    0    0 -0.10882051334E+02  0.22939176688E+02 -0.12639603362E+02  0.28361672055E+02  0.51100000000E-03 0.  1.
        -12    1    3    3    0    0 -0.11596763904E+02 -0.12674238136E+02 -0.84424815257E+01  0.19141492619E+02  0.00000000000E+00 0.  1.
</event>
<event>
 7    1  0.1302069E-013  0.7246155E+02  0.7816164E-02  0.1226708E+00
        -11   -1    0    0    0    0  0.00000000000E+00  0.00000000000E+00  0.45593999997E+02  0.45594000000E+02  0.51100000000E-03 0.  1.
         11   -1    0    0    0    0 -0.00000000000E+00 -0.00000000000E+00 -0.45593999997E+02  0.45594000000E+02  0.51100000000E-03 0. -1.
    9900012    2    1    2    0    0 -0.95366494447E+01 -0.15978206057E+02 -0.21045399175E+01  0.72461552401E+02  0.69999976690E+02 0.  0.
         12    1    1    2    0    0  0.95366494447E+01  0.15978206057E+02  0.21045399175E+01  0.18726447599E+02  0.00000000000E+00 0. -1.
         11    1    3    3    0    0 -0.71631572000E+01 -0.34165730597E+02  0.15297753740E+02  0.38113373480E+02  0.51100000000E-03 0.  1.
        -11    1    3    3    0    0 -0.78179658229E+01  0.10517274255E+02 -0.20598579551E+02  0.24413830653E+02  0.51100000000E-03 0. -1.
        -12    1    3    3    0    0  0.54444735782E+01  0.76702502847E+01  0.31962858938E+01  0.99343482670E+01  0.00000000000E+00 0.  1.
</event>
<event>
 7    1  0.1302069E-013  0.7246153E+02  0.7816164E-02  0.1226708E+00
        -11   -1    0    0    0    0  0.00000000000E+00  0.00000000000E+00  0.45593999997E+02  0.45594000000E+02  0.51100000000E-03 0.  1.
         11   -1    0    0    0    0 -0.00000000000E+00 -0.00000000000E+00 -0.45593999997E+02  0.45594000000E+02  0.51100000000E-03 0. -1.
    9900012    2    1    2    0    0 -0.14612826780E+02 -0.92669117164E+00  0.11674205766E+02  0.72461533614E+02  0.69999952217E+02 0.  0.
         12    1    1    2    0    0  0.14612826780E+02  0.92669117164E+00 -0.11674205766E+02  0.18726466386E+02  0.00000000000E+00 0. -1.
         11    1    3    3    0    0 -0.13695113871E+01  0.30053512260E+01 -0.21751718363E+01  0.39546264310E+01  0.51100000000E-03 0. -1.
        -11    1    3    3    0    0  0.14330015288E+02 -0.98321426566E+01  0.30974287055E+02  0.35516571149E+02  0.51100000000E-03 0.  1.
        -12    1    3    3    0    0 -0.27573330681E+02  0.59001002590E+01 -0.17124909452E+02  0.32990336034E+02  0.00000000000E+00 0.  1.
</event>
<event>
 7    1  0.1302069E-013  0.7246157E+02  0.7816164E-02  0.1226708E+00
        -11   -1    0    0    0    0  0.00000000000E+00  0.00000000000E+00  0.45593999997E+02  0.45594000000E+02  0.51100000000E-03 0. -1.
         11   -1    0    0    0    0 -0.00000000000E+00 -0.00000000000E+00 -0.45593999997E+02  0.45594000000E+02  0.51100000000E-03 0.  1.
    9900012    2    1    2    0    0 -0.17908068215E+02 -0.13826493208E+01  0.52979716959E+01  0.72461571338E+02  0.70000001360E+02 0.  0.
         12    1    1    2    0    0  0.17908068215E+02  0.13826493208E+01 -0.52979716959E+01  0.18726428662E+02  0.00000000000E+00 0. -1.
         11    1    3    3    0    0 -0.87813779478E+00  0.27383491358E+02  0.35519639460E+01  0.27626856011E+02  0.51100000000E-03 0. -1.
        -11    1    3    3    0    0 -0.23918461337E+02 -0.28507154941E+02  0.43505435649E+01  0.37465689705E+02  0.51100000000E-03 0.  1.
        -12    1    3    3    0    0  0.68885309164E+01 -0.25898573833E+00 -0.26045358150E+01  0.73690256215E+01  0.00000000000E+00 0.  1.
</event>
<event>
 7    1  0.1302069E-013  0.7246159E+02  0.7816164E-02  0.1226708E+00
        -11   -1    0    0    0    0  0.00000000000E+00  0.00000000000E+00  0.45593999997E+02  0.45594000000E+02  0.51100000000E-03 0. -1.
         11   -1    0    0    0    0 -0.00000000000E+00 -0.00000000000E+00 -0.45593999997E+02  0.45594000000E+02  0.51100000000E-03 0.  1.
    9900012    2    1    2    0    0  0.16364263246E+02  0.28338280039E+01  0.86520890894E+01  0.72461592487E+02  0.70000028910E+02 0.  0.
         12    1    1    2    0    0 -0.16364263246E+02 -0.28338280039E+01 -0.86520890894E+01  0.18726407513E+02  0.00000000000E+00 0. -1.
         11    1    3    3    0    0 -0.25284562237E+01 -0.18291975897E+02 -0.11772832083E+02  0.21899521653E+02  0.51100000000E-03 0.  1.
        -11    1    3    3    0    0  0.23486144958E+02  0.25093292221E+02  0.25381455873E+02  0.42725760636E+02  0.51100000000E-03 0. -1.
         12    1    3    3    0    0 -0.45934254883E+01 -0.39674883196E+01 -0.49565347006E+01  0.78363101981E+01  0.00000000000E+00 0. -1.
</event>
<event>
 7    1  0.1302069E-013  0.7246159E+02  0.7816164E-02  0.1226708E+00
        -11   -1    0    0    0    0  0.00000000000E+00  0.00000000000E+00  0.45593999997E+02  0.45594000000E+02  0.51100000000E-03 0. -1.
         11   -1    0    0    0    0 -0.00000000000E+00 -0.00000000000E+00 -0.45593999997E+02  0.45594000000E+02  0.51100000000E-03 0.  1.
    9900012    2    1    2    0    0 -0.17701021116E+02 -0.61096626351E+01 -0.15556587488E+00  0.72461592795E+02  0.70000029312E+02 0.  0.
         12    1    1    2    0    0  0.17701021116E+02  0.61096626351E+01  0.15556587488E+00  0.18726407205E+02  0.00000000000E+00 0. -1.
         11    1    3    3    0    0 -0.29779540429E+02  0.74971646042E+01  0.13465400271E+02  0.33531261682E+02  0.51100000000E-03 0. -1.
        -11    1    3    3    0    0  0.15693188763E+02 -0.65381594249E+01  0.57891095219E+01  0.17959328817E+02  0.51100000000E-03 0.  1.
        -12    1    3    3    0    0 -0.36146694501E+01 -0.70686678144E+01 -0.19410075668E+02  0.20971002297E+02  0.00000000000E+00 0.  1.
</event>
<event>
 7    1  0.1302069E-013  0.7246157E+02  0.7816164E-02  0.1226708E+00
        -11   -1    0    0    0    0  0.00000000000E+00  0.00000000000E+00  0.45593999997E+02  0.45594000000E+02  0.51100000000E-03 0.  1.
         11   -1    0    0    0    0 -0.00000000000E+00 -0.00000000000E+00 -0.45593999997E+02  0.45594000000E+02  0.51100000000E-03 0. -1.
    9900012    2    1    2    0    0  0.34906845088E+01 -0.22937919928E+01  0.18254670711E+02  0.72461565133E+02  0.69999993276E+02 0.  0.
         12    1    1    2    0    0 -0.34906845088E+01  0.22937919928E+01 -0.18254670711E+02  0.18726434867E+02  0.00000000000E+00 0. -1.
         11    1    3    3    0    0  0.17742697451E+02  0.44103125217E+01 -0.20652984559E+02  0.27582602140E+02  0.51100000000E-03 0. -1.
        -11    1    3    3    0    0 -0.29794987230E+01 -0.19045320554E+01  0.28742732135E+02  0.28959442430E+02  0.51100000000E-03 0.  1.
         12    1    3    3    0    0 -0.11272514219E+02 -0.47995724591E+01  0.10164923135E+02  0.15919520563E+02  0.00000000000E+00 0. -1.
</event>
<event>
 7    1  0.1302069E-013  0.7246159E+02  0.7816164E-02  0.1226708E+00
        -11   -1    0    0    0    0  0.00000000000E+00  0.00000000000E+00  0.45593999997E+02  0.45594000000E+02  0.51100000000E-03 0.  1.
         11   -1    0    0    0    0 -0.00000000000E+00 -0.00000000000E+00 -0.45593999997E+02  0.45594000000E+02  0.51100000000E-03 0. -1.
    9900012    2    1    2    0    0 -0.11976316920E+02  0.14062324551E+02 -0.30817402117E+01  0.72461594539E+02  0.70000031584E+02 0.  0.
         12    1    1    2    0    0  0.11976316920E+02 -0.14062324551E+02  0.30817402117E+01  0.18726405461E+02  0.00000000000E+00 0. -1.
         11    1    3    3    0    0  0.19566806896E+02  0.24319430428E+02 -0.97627758469E+01  0.32704837883E+02  0.51100000000E-03 0. -1.
        -11    1    3    3    0    0 -0.18924788853E+02  0.40617302627E+01 -0.50769215795E+00  0.19362413007E+02  0.51100000000E-03 0.  1.
         12    1    3    3    0    0 -0.12618334963E+02 -0.14318836139E+02  0.71887277931E+01  0.20394343650E+02  0.00000000000E+00 0. -1.
</event>
<event>
 7    1  0.1302069E-013  0.7246157E+02  0.7816164E-02  0.1226708E+00
        -11   -1    0    0    0    0  0.00000000000E+00  0.00000000000E+00  0.45593999997E+02  0.45594000000E+02  0.51100000000E-03 0. -1.
         11   -1    0    0    0    0 -0.00000000000E+00 -0.00000000000E+00 -0.45593999997E+02  0.45594000000E+02  0.51100000000E-03 0.  1.
    9900012    2    1    2    0    0  0.12407841938E+01  0.83295688246E+01 -0.16725970823E+02  0.72461565150E+02  0.69999993298E+02 0.  0.
         12    1    1    2    0    0 -0.12407841938E+01 -0.83295688246E+01  0.16725970823E+02  0.18726434850E+02  0.00000000000E+00 0. -1.
         11    1    3    3    0    0  0.23558855789E+01  0.28761531735E+02  0.15702700492E+02  0.32853473296E+02  0.51100000000E-03 0. -1.
        -11    1    3    3    0    0 -0.31398694530E+01 -0.33011141203E+01 -0.28712247552E+01  0.53851709790E+01  0.51100000000E-03 0.  1.
         12    1    3    3    0    0  0.20247680679E+01 -0.17130848790E+02 -0.29557446560E+02  0.34222920874E+02  0.00000000000E+00 0. -1.
</event>
<event>
 7    1  0.1302069E-013  0.7246184E+02  0.7816164E-02  0.1226707E+00
        -11   -1    0    0    0    0  0.00000000000E+00  0.00000000000E+00  0.45593999997E+02  0.45594000000E+02  0.51100000000E-03 0.  1.
         11   -1    0    0    0    0 -0.00000000000E+00 -0.00000000000E+00 -0.45593999997E+02  0.45594000000E+02  0.51100000000E-03 0. -1.
    9900012    2    1    2    0    0 -0.12795260792E+01  0.12605290719E+02  0.13789072825E+02  0.72461839944E+02  0.70000351268E+02 0.  0.
         12    1    1    2    0    0  0.12795260792E+01 -0.12605290719E+02 -0.13789072825E+02  0.18726160056E+02  0.00000000000E+00 0. -1.
         11    1    3    3    0    0  0.64012439035E+01  0.14859573663E+02 -0.24958527007E+02  0.29744090565E+02  0.51100000000E-03 0. -1.
        -11    1    3    3    0    0  0.31156010449E+01  0.32910409413E+01  0.19045038465E+02  0.19576807982E+02  0.51100000000E-03 0.  1.
         12    1    3    3    0    0 -0.10796371028E+02 -0.55453238856E+01  0.19702561366E+02  0.23140941397E+02  0.00000000000E+00 0. -1.
</event>
<event>
 7    1  0.1302069E-013  0.7246155E+02  0.7816164E-02  0.1226708E+00
        -11   -1    0    0    0    0  0.00000000000E+00  0.00000000000E+00  0.45593999997E+02  0.45594000000E+02  0.51100000000E-03 0.  1.
         11   -1    0    0    0    0 -0.00000000000E+00 -0.00000000000E+00 -0.45593999997E+02  0.45594000000E+02  0.51100000000E-03 0. -1.
    9900012    2    1    2    0    0 -0.36745380622E+01 -0.17138231641E+02  0.65923194463E+01  0.72461551072E+02  0.69999974960E+02 0.  0.
         12    1    1    2    0    0  0.36745380622E+01  0.17138231641E+02 -0.65923194463E+01  0.18726448928E+02  0.00000000000E+00 0. -1.
         11    1    3    3    0    0  0.18462735950E+02 -0.73804182158E+01 -0.14987699801E+02  0.24899283873E+02  0.51100000000E-03 0. -1.
        -11    1    3    3    0    0 -0.17368120031E+02 -0.19115074902E+02  0.25554581923E+02  0.36332827298E+02  0.51100000000E-03 0.  1.
        -12    1    3    3    0    0 -0.47691539820E+01  0.93572614761E+01 -0.39745626766E+01  0.11229439902E+02  0.00000000000E+00 0.  1.
</event>
<event>
 7    1  0.1302069E-013  0.7246162E+02  0.7816164E-02  0.1226708E+00
        -11   -1    0    0    0    0  0.00000000000E+00  0.00000000000E+00  0.45593999997E+02  0.45594000000E+02  0.51100000000E-03 0. -1.
         11   -1    0    0    0    0 -0.00000000000E+00 -0.00000000000E+00 -0.45593999997E+02  0.45594000000E+02  0.51100000000E-03 0.  1.
    9900012    2    1    2    0    0 -0.62114886784E+01  0.16163413906E+00 -0.17665467308E+02  0.72461616141E+02  0.70000059724E+02 0.  0.
         12    1    1    2    0    0  0.62114886784E+01 -0.16163413906E+00  0.17665467308E+02  0.18726383859E+02  0.00000000000E+00 0. -1.
         11    1    3    3    0    0 -0.28755826297E+02 -0.73499455465E+01  0.95666400410E+01  0.31183967796E+02  0.51100000000E-03 0. -1.
        -11    1    3    3    0    0  0.21619049687E+02  0.23726491275E+01 -0.11294956467E+02  0.24506913618E+02  0.51100000000E-03 0.  1.
         12    1    3    3    0    0  0.92528793219E+00  0.51389305581E+01 -0.15937150882E+02  0.16770734727E+02  0.00000000000E+00 0. -1.
</event>
<event>
 7    1  0.1302069E-013  0.7246158E+02  0.7816164E-02  0.1226708E+00
        -11   -1    0    0    0    0  0.00000000000E+00  0.00000000000E+00  0.45593999997E+02  0.45594000000E+02  0.51100000000E-03 0.  1.
         11   -1    0    0    0    0 -0.00000000000E+00 -0.00000000000E+00 -0.45593999997E+02  0.45594000000E+02  0.51100000000E-03 0. -1.
    9900012    2    1    2    0    0 -0.33022873894E+01  0.18178806267E+02  0.30503492783E+01  0.72461582030E+02  0.70000015288E+02 0.  0.
         12    1    1    2    0    0  0.33022873894E+01 -0.18178806267E+02 -0.30503492783E+01  0.18726417970E+02  0.00000000000E+00 0. -1.
         11    1    3    3    0    0  0.13392021815E+02  0.10529301563E+02  0.21820587665E+02  0.27683036069E+02  0.51100000000E-03 0.  1.
        -11    1    3    3    0    0 -0.86970996373E+01 -0.14397011816E+02 -0.48459226967E+01  0.17504184025E+02  0.51100000000E-03 0. -1.
         12    1    3    3    0    0 -0.79972095675E+01  0.22046516520E+02 -0.13924315690E+02  0.27274361935E+02  0.00000000000E+00 0. -1.
</event>
<event>
 7    1  0.1302069E-013  0.7246156E+02  0.7816164E-02  0.1226708E+00
        -11   -1    0    0    0    0  0.00000000000E+00  0.00000000000E+00  0.45593999997E+02  0.45594000000E+02  0.51100000000E-03 0.  1.
         11   -1    0    0    0    0 -0.00000000000E+00 -0.00000000000E+00 -0.45593999997E+02  0.45594000000E+02  0.51100000000E-03 0. -1.
    9900012    2    1    2    0    0 -0.48223803844E+01  0.12174726134E+02  0.13386574775E+02  0.72461556312E+02  0.69999981785E+02 0.  0.
         12    1    1    2    0    0  0.48223803844E+01 -0.12174726134E+02 -0.13386574775E+02  0.18726443688E+02  0.00000000000E+00 0. -1.
         11    1    3    3    0    0 -0.24836656469E+02  0.87107347356E+01  0.42896338458E+01  0.26667158885E+02  0.51100000000E-03 0. -1.
        -11    1    3    3    0    0  0.21969799049E+02 -0.14784930330E+02  0.43417990223E+01  0.26835004269E+02  0.51100000000E-03 0.  1.
         12    1    3    3    0    0 -0.19555229641E+01  0.18248921729E+02  0.47551419067E+01  0.18959393157E+02  0.00000000000E+00 0. -1.
</event>
<event>
 7    1  0.1302069E-013  0.7246166E+02  0.7816164E-02  0.1226708E+00
        -11   -1    0    0    0    0  0.00000000000E+00  0.00000000000E+00  0.45593999997E+02  0.45594000000E+02  0.51100000000E-03 0. -1.
         11   -1    0    0    0    0 -0.00000000000E+00 -0.00000000000E+00 -0.45593999997E+02  0.45594000000E+02  0.51100000000E-03 0.  1.
    9900012    2    1    2    0    0 -0.94169857549E+01 -0.16067160951E+02 -0.19602624639E+01  0.72461657307E+02  0.70000113350E+02 0.  0.
         12    1    1    2    0    0  0.94169857549E+01  0.16067160951E+02  0.19602624639E+01  0.18726342693E+02  0.00000000000E+00 0. -1.
         11    1    3    3    0    0 -0.47629228100E+00 -0.37285777454E+02 -0.62664020539E+01  0.37811689326E+02  0.51100000000E-03 0. -1.
        -11    1    3    3    0    0 -0.89972625687E+01  0.19987494881E+02 -0.72050430622E+01  0.23073000047E+02  0.51100000000E-03 0.  1.
         12    1    3    3    0    0  0.56569094769E-01  0.12311216223E+01  0.11511182652E+02  0.11576967935E+02  0.00000000000E+00 0. -1.
</event>
<event>
 7    1  0.1302069E-013  0.7246151E+02  0.7816164E-02  0.1226708E+00
        -11   -1    0    0    0    0  0.00000000000E+00  0.00000000000E+00  0.45593999997E+02  0.45594000000E+02  0.51100000000E-03 0. -1.
         11   -1    0    0    0    0 -0.00000000000E+00 -0.00000000000E+00 -0.45593999997E+02  0.45594000000E+02  0.51100000000E-03 0.  1.
    9900012    2    1    2    0    0 -0.48175554798E+01 -0.78227473622E+01 -0.16318002383E+02  0.72461510237E+02  0.69999921764E+02 0.  0.
         12    1    1    2    0    0  0.48175554798E+01  0.78227473622E+01  0.16318002383E+02  0.18726489763E+02  0.00000000000E+00 0. -1.
         11    1    3    3    0    0  0.15362841976E+02  0.49229675643E+01  0.11856805197E+02  0.20020897906E+02  0.51100000000E-03 0. -1.
        -11    1    3    3    0    0 -0.13056702407E+01  0.23259464224E+01 -0.28160677200E+02  0.28286720244E+02  0.51100000000E-03 0.  1.
         12    1    3    3    0    0 -0.18874727215E+02 -0.15071661349E+02 -0.14130379268E-01  0.24153892086E+02  0.00000000000E+00 0. -1.
</event>
<event>
 7    1  0.1302069E-013  0.7246155E+02  0.7816164E-02  0.1226708E+00
        -11   -1    0    0    0    0  0.00000000000E+00  0.00000000000E+00  0.45593999997E+02  0.45594000000E+02  0.51100000000E-03 0.  1.
         11   -1    0    0    0    0 -0.00000000000E+00 -0.00000000000E+00 -0.45593999997E+02  0.45594000000E+02  0.51100000000E-03 0. -1.
    9900012    2    1    2    0    0 -0.73233697740E+01 -0.11425202814E+02  0.12903988094E+02  0.72461550446E+02  0.69999974144E+02 0.  0.
         12    1    1    2    0    0  0.73233697740E+01  0.11425202814E+02 -0.12903988094E+02  0.18726449554E+02  0.00000000000E+00 0. -1.
         11    1    3    3    0    0 -0.29726674674E+02 -0.17719745262E+02 -0.14662407760E+00  0.34607601162E+02  0.51100000000E-03 0. -1.
        -11    1    3    3    0    0  0.38856670497E+01  0.93023694313E+01  0.15952008527E+02  0.18870587213E+02  0.51100000000E-03 0.  1.
        -12    1    3    3    0    0  0.18517637850E+02 -0.30078269829E+01 -0.29013963554E+01  0.18983362071E+02  0.00000000000E+00 0.  1.
</event>
<event>
 7    1  0.1302069E-013  0.7246152E+02  0.7816164E-02  0.1226708E+00
        -11   -1    0    0    0    0  0.00000000000E+00  0.00000000000E+00  0.45593999997E+02  0.45594000000E+02  0.51100000000E-03 0.  1.
         11   -1    0    0    0    0 -0.00000000000E+00 -0.00000000000E+00 -0.45593999997E+02  0.45594000000E+02  0.51100000000E-03 0. -1.
    9900012    2    1    2    0    0 -0.10248634032E+02  0.13096282538E+02  0.86101140533E+01  0.72461516618E+02  0.69999930077E+02 0.  0.
         12    1    1    2    0    0  0.10248634032E+02 -0.13096282538E+02 -0.86101140533E+01  0.18726483382E+02  0.00000000000E+00 0. -1.
         11    1    3    3    0    0 -0.26854862019E+01  0.25390302313E+02 -0.29885818341E+01  0.25706242614E+02  0.51100000000E-03 0. -1.
        -11    1    3    3    0    0  0.70350544522E+01 -0.21158193583E+02 -0.50963350375E+01  0.22872117915E+02  0.51100000000E-03 0.  1.
        -12    1    3    3    0    0 -0.14598202283E+02  0.88641738084E+01  0.16695030925E+02  0.23883156089E+02  0.00000000000E+00 0.  1.
</event>
<event>
 7    1  0.1302069E-013  0.7246162E+02  0.7816164E-02  0.1226708E+00
        -11   -1    0    0    0    0  0.00000000000E+00  0.00000000000E+00  0.45593999997E+02  0.45594000000E+02  0.51100000000E-03 0. -1.
         11   -1    0    0    0    0 -0.00000000000E+00 -0.00000000000E+00 -0.45593999997E+02  0.45594000000E+02  0.51100000000E-03 0.  1.
    9900012    2    1    2    0    0  0.13015721076E+02 -0.13069760041E+02 -0.32326254027E+01  0.72461615147E+02  0.70000058429E+02 0.  0.
         12    1    1    2    0    0 -0.13015721076E+02  0.13069760041E+02  0.32326254027E+01  0.18726384853E+02  0.00000000000E+00 0. -1.
         11    1    3    3    0    0 -0.16996766319E+01  0.77190010678E+01 -0.32693015843E+00  0.79106739110E+01  0.51100000000E-03 0. -1.
        -11    1    3    3    0    0  0.11345279675E+02 -0.29629565177E+02 -0.25079697250E+02  0.40442770898E+02  0.51100000000E-03 0.  1.
        -12    1    3    3    0    0  0.33701180331E+01  0.88408040681E+01  0.22174002006E+02  0.24108170339E+02  0.00000000000E+00 0.  1.
</event>
<event>
 7    1  0.1302069E-013  0.7246156E+02  0.7816164E-02  0.1226708E+00
        -11   -1    0    0    0    0  0.00000000000E+00  0.00000000000E+00  0.45593999997E+02  0.45594000000E+02  0.51100000000E-03 0. -1.
         11   -1    0    0    0    0 -0.00000000000E+00 -0.00000000000E+00 -0.45593999997E+02  0.45594000000E+02  0.51100000000E-03 0.  1.
    9900012    2    1    2    0    0 -0.65577763670E+01  0.91532877256E+01 -0.14963037040E+02  0.72461559213E+02  0.69999985565E+02 0.  0.
         12    1    1    2    0    0  0.65577763670E+01 -0.91532877256E+01  0.14963037040E+02  0.18726440787E+02  0.00000000000E+00 0. -1.
         11    1    3    3    0    0 -0.22779936954E+02  0.58583530667E+01 -0.10508233712E+01  0.23544639694E+02  0.51100000000E-03 0.  1.
        -11    1    3    3    0    0  0.29235514192E+02  0.93745837637E+01 -0.15629554289E+02  0.34451140450E+02  0.51100000000E-03 0. -1.
         12    1    3    3    0    0 -0.13013353604E+02 -0.60796491047E+01  0.17173406199E+01  0.14465779069E+02  0.00000000000E+00 0. -1.
</event>
<event>
 7    1  0.1302069E-013  0.7246156E+02  0.7816164E-02  0.1226708E+00
        -11   -1    0    0    0    0  0.00000000000E+00  0.00000000000E+00  0.45593999997E+02  0.45594000000E+02  0.51100000000E-03 0.  1.
         11   -1    0    0    0    0 -0.00000000000E+00 -0.00000000000E+00 -0.45593999997E+02  0.45594000000E+02  0.51100000000E-03 0. -1.
    9900012    2    1    2    0    0  0.35209252123E+01 -0.14254847973E+02 -0.11622469468E+02  0.72461564097E+02  0.69999991927E+02 0.  0.
         12    1    1    2    0    0 -0.35209252123E+01  0.14254847973E+02  0.11622469468E+02  0.18726435903E+02  0.00000000000E+00 0. -1.
         11    1    3    3    0    0 -0.17242037208E+02  0.71829773987E+01 -0.64097807847E+01  0.19747615081E+02  0.51100000000E-03 0. -1.
        -11    1    3    3    0    0  0.63727900350E+01 -0.25867434566E+02  0.12532826195E+02  0.29441609272E+02  0.51100000000E-03 0.  1.
        -12    1    3    3    0    0  0.14390172386E+02  0.44296091942E+01 -0.17745514878E+02  0.23272339745E+02  0.00000000000E+00 0.  1.
</event>
<event>
 7    1  0.1302069E-013  0.7246148E+02  0.7816164E-02  0.1226708E+00
        -11   -1    0    0    0    0  0.00000000000E+00  0.00000000000E+00  0.45593999997E+02  0.45594000000E+02  0.51100000000E-03 0.  1.
         11   -1    0    0    0    0 -0.00000000000E+00 -0.00000000000E+00 -0.45593999997E+02  0.45594000000E+02  0.51100000000E-03 0. -1.
    9900012    2    1    2    0    0 -0.17428237762E+02 -0.17838364183E+01  0.66149031551E+01  0.72461481701E+02  0.69999884590E+02 0.  0.
         12    1    1    2    0    0  0.17428237762E+02  0.17838364183E+01 -0.66149031551E+01  0.18726518299E+02  0.00000000000E+00 0. -1.
         11    1    3    3    0    0 -0.28991400707E+02  0.13420323987E+02  0.49822351912E+01  0.32333095717E+02  0.51100000000E-03 0. -1.
        -11    1    3    3    0    0  0.13093368392E+02  0.44171679621E+01 -0.10190148496E+02  0.17169356286E+02  0.51100000000E-03 0.  1.
         12    1    3    3    0    0 -0.15302054479E+01 -0.19621328368E+02  0.11822816460E+02  0.22959029698E+02  0.00000000000E+00 0. -1.
</event>
<event>
 7    1  0.1302069E-013  0.7246156E+02  0.7816164E-02  0.1226708E+00
        -11   -1    0    0    0    0  0.00000000000E+00  0.00000000000E+00  0.45593999997E+02  0.45594000000E+02  0.51100000000E-03 0. -1.
         11   -1    0    0    0    0 -0.00000000000E+00 -0.00000000000E+00 -0.45593999997E+02  0.45594000000E+02  0.51100000000E-03 0.  1.
    9900012    2    1    2    0    0 -0.10606234761E+02 -0.54638152969E+00 -0.15423646671E+02  0.72461558127E+02  0.69999984150E+02 0.  0.
         12    1    1    2    0    0  0.10606234761E+02  0.54638152969E+00  0.15423646671E+02  0.18726441873E+02  0.00000000000E+00 0. -1.
         11    1    3    3    0    0 -0.71324117648E+01  0.68509349495E+01  0.13734967216E+02  0.16925009068E+02  0.51100000000E-03 0. -1.
        -11    1    3    3    0    0 -0.51105914538E+01 -0.26479431336E+02 -0.22925145948E+02  0.35395490474E+02  0.51100000000E-03 0.  1.
         12    1    3    3    0    0  0.16367684574E+01  0.19082114857E+02 -0.62334679383E+01  0.20141058586E+02  0.00000000000E+00 0. -1.
</event>
<event>
 7    1  0.1302069E-013  0.7246146E+02  0.7816164E-02  0.1226708E+00
        -11   -1    0    0    0    0  0.00000000000E+00  0.00000000000E+00  0.45593999997E+02  0.45594000000E+02  0.51100000000E-03 0.  1.
         11   -1    0    0    0    0 -0.00000000000E+00 -0.00000000000E+00 -0.45593999997E+02  0.45594000000E+02  0.51100000000E-03 0. -1.
    9900012    2    1    2    0    0  0.13743185600E+02 -0.96806816992E+01  0.82518274346E+01  0.72461457217E+02  0.69999852695E+02 0.  0.
         12    1    1    2    0    0 -0.13743185600E+02  0.96806816992E+01 -0.82518274346E+01  0.18726542783E+02  0.00000000000E+00 0. -1.
         11    1    3    3    0    0  0.33027611613E+02 -0.95368773554E+01  0.93006538625E+01  0.35612881392E+02  0.51100000000E-03 0.  1.
        -11    1    3    3    0    0 -0.19482959022E+02 -0.11103099033E+02  0.67242170738E+01  0.23411099844E+02  0.51100000000E-03 0. -1.
        -12    1    3    3    0    0  0.19853300943E+00  0.10959294689E+02 -0.77730435017E+01  0.13437475980E+02  0.00000000000E+00 0.  1.
</event>
<event>
 7    1  0.1302069E-013  0.7246158E+02  0.7816164E-02  0.1226708E+00
        -11   -1    0    0    0    0  0.00000000000E+00  0.00000000000E+00  0.45593999997E+02  0.45594000000E+02  0.51100000000E-03 0.  1.
         11   -1    0    0    0    0 -0.00000000000E+00 -0.00000000000E+00 -0.45593999997E+02  0.45594000000E+02  0.51100000000E-03 0. -1.
    9900012    2    1    2    0    0 -0.10408909616E+02  0.15494956874E+02  0.14966013454E+01  0.72461577397E+02  0.70000009253E+02 0.  0.
         12    1    1    2    0    0  0.10408909616E+02 -0.15494956874E+02 -0.14966013454E+01  0.18726422603E+02  0.00000000000E+00 0. -1.
         11    1    3    3    0    0  0.10643116997E+02  0.70662751930E+01  0.29814563541E+02  0.32436343566E+02  0.51100000000E-03 0.  1.
        -11    1    3    3    0    0 -0.69785383694E+01  0.87412920469E+01 -0.21822253869E+02  0.24521846354E+02  0.51100000000E-03 0. -1.
        -12    1    3    3    0    0 -0.14073488244E+02 -0.31261036620E+00 -0.64957083261E+01  0.15503387477E+02  0.00000000000E+00 0.  1.
</event>
<event>
 7    1  0.1302069E-013  0.7246158E+02  0.7816164E-02  0.1226708E+00
        -11   -1    0    0    0    0  0.00000000000E+00  0.00000000000E+00  0.45593999997E+02  0.45594000000E+02  0.51100000000E-03 0. -1.
         11   -1    0    0    0    0 -0.00000000000E+00 -0.00000000000E+00 -0.45593999997E+02  0.45594000000E+02  0.51100000000E-03 0.  1.
    9900012    2    1    2    0    0 -0.20662046570E+01 -0.70084282335E+00 -0.18598879792E+02  0.72461582514E+02  0.70000015918E+02 0.  0.
         12    1    1    2    0    0  0.20662046570E+01  0.70084282335E+00  0.18598879792E+02  0.18726417486E+02  0.00000000000E+00 0. -1.
         11    1    3    3    0    0 -0.18861491614E+02  0.23717505300E+02  0.19864944710E+01  0.30368109656E+02  0.51100000000E-03 0. -1.
        -11    1    3    3    0    0  0.68503041948E+01 -0.19693867942E+02 -0.22763523199E+02  0.30869938302E+02  0.51100000000E-03 0.  1.
        -12    1    3    3    0    0  0.99449827620E+01 -0.47244801812E+01  0.21781489363E+01  0.11223534555E+02  0.00000000000E+00 0.  1.
</event>
<event>
 7    1  0.1302069E-013  0.7246151E+02  0.7816164E-02  0.1226708E+00
        -11   -1    0    0    0    0  0.00000000000E+00  0.00000000000E+00  0.45593999997E+02  0.45594000000E+02  0.51100000000E-03 0.  1.
         11   -1    0    0    0    0 -0.00000000000E+00 -0.00000000000E+00 -0.45593999997E+02  0.45594000000E+02  0.51100000000E-03 0. -1.
    9900012    2    1    2    0    0 -0.30101800946E+01  0.17406880671E+02  0.62145461329E+01  0.72461514411E+02  0.69999927201E+02 0.  0.
         12    1    1    2    0    0  0.30101800946E+01 -0.17406880671E+02 -0.62145461329E+01  0.18726485589E+02  0.00000000000E+00 0. -1.
         11    1    3    3    0    0 -0.67556996197E+01  0.24038996696E+02 -0.18023258339E+02  0.30795302903E+02  0.51100000000E-03 0. -1.
        -11    1    3    3    0    0  0.14261453793E+02  0.76264061546E+01  0.11368369957E+02  0.19768433698E+02  0.51100000000E-03 0.  1.
         12    1    3    3    0    0 -0.10515934268E+02 -0.14258522180E+02  0.12869434515E+02  0.21897777810E+02  0.00000000000E+00 0. -1.
</event>
<event>
 7    1  0.1302069E-013  0.7246158E+02  0.7816164E-02  0.1226708E+00
        -11   -1    0    0    0    0  0.00000000000E+00  0.00000000000E+00  0.45593999997E+02  0.45594000000E+02  0.51100000000E-03 0.  1.
         11   -1    0    0    0    0 -0.00000000000E+00 -0.00000000000E+00 -0.45593999997E+02  0.45594000000E+02  0.51100000000E-03 0. -1.
    9900012    2    1    2    0    0 -0.16440160494E+01  0.17254780347E+02 -0.70886296499E+01  0.72461577386E+02  0.70000009238E+02 0.  0.
         12    1    1    2    0    0  0.16440160494E+01 -0.17254780347E+02  0.70886296499E+01  0.18726422614E+02  0.00000000000E+00 0. -1.
         11    1    3    3    0    0 -0.68376964182E+01  0.19973115690E+02 -0.84306220532E+01  0.22732242106E+02  0.51100000000E-03 0. -1.
        -11    1    3    3    0    0  0.49307577071E+01 -0.25558548154E+02 -0.38280916503E+01  0.26309808841E+02  0.51100000000E-03 0.  1.
        -12    1    3    3    0    0  0.26292266177E+00  0.22840212810E+02  0.51700840536E+01  0.23419526440E+02  0.00000000000E+00 0.  1.
</event>
<event>
 7    1  0.1302069E-013  0.7246166E+02  0.7816164E-02  0.1226708E+00
        -11   -1    0    0    0    0  0.00000000000E+00  0.00000000000E+00  0.45593999997E+02  0.45594000000E+02  0.51100000000E-03 0.  1.
         11   -1    0    0    0    0 -0.00000000000E+00 -0.00000000000E+00 -0.45593999997E+02  0.45594000000E+02  0.51100000000E-03 0. -1.
    9900012    2    1    2    0    0  0.86477556203E+01  0.46538201109E+00  0.16603477948E+02  0.72461661926E+02  0.70000119367E+02 0.  0.
         12    1    1    2    0    0 -0.86477556203E+01 -0.46538201109E+00 -0.16603477948E+02  0.18726338074E+02  0.00000000000E+00 0. -1.
         11    1    3    3    0    0  0.14767981089E+01  0.11487296093E+02 -0.16893524231E+02  0.20482433092E+02  0.51100000000E-03 0. -1.
        -11    1    3    3    0    0 -0.21686079578E+01 -0.23705986898E+02  0.17640257851E+02  0.29628624210E+02  0.51100000000E-03 0.  1.
         12    1    3    3    0    0  0.93395654691E+01  0.12684072816E+02  0.15856744328E+02  0.22350604624E+02  0.00000000000E+00 0. -1.
</event>
<event>
 7    1  0.1302069E-013  0.7246156E+02  0.7816164E-02  0.1226708E+00
        -11   -1    0    0    0    0  0.00000000000E+00  0.00000000000E+00  0.45593999997E+02  0.45594000000E+02  0.51100000000E-03 0.  1.
         11   -1    0    0    0    0 -0.00000000000E+00 -0.00000000000E+00 -0.45593999997E+02  0.45594000000E+02  0.51100000000E-03 0. -1.
    9900012    2    1    2    0    0  0.30220192737E+00 -0.85237274929E+01  0.16671360597E+02  0.72461560922E+02  0.69999987790E+02 0.  0.
         12    1    1    2    0    0 -0.30220192737E+00  0.85237274929E+01 -0.16671360597E+02  0.18726439078E+02  0.00000000000E+00 0. -1.
         11    1    3    3    0    0 -0.35537816559E+00  0.22905688577E+02  0.12567501605E+02  0.26129273998E+02  0.51100000000E-03 0. -1.
        -11    1    3    3    0    0 -0.84902622620E+01 -0.10313276613E+02 -0.12230731324E+02  0.18111847414E+02  0.51100000000E-03 0.  1.
         12    1    3    3    0    0  0.91478423549E+01 -0.21116139457E+02  0.16334590317E+02  0.28220439510E+02  0.00000000000E+00 0. -1.
</event>
<event>
 7    1  0.1302069E-013  0.7246151E+02  0.7816164E-02  0.1226708E+00
        -11   -1    0    0    0    0  0.00000000000E+00  0.00000000000E+00  0.45593999997E+02  0.45594000000E+02  0.51100000000E-03 0.  1.
         11   -1    0    0    0    0 -0.00000000000E+00 -0.00000000000E+00 -0.45593999997E+02  0.45594000000E+02  0.51100000000E-03 0. -1.
    9900012    2    1    2    0    0  0.10566670452E+02  0.52599323228E+01  0.14538220538E+02  0.72461514241E+02  0.69999926980E+02 0.  0.
         12    1    1    2    0    0 -0.10566670452E+02 -0.52599323228E+01 -0.14538220538E+02  0.18726485759E+02  0.00000000000E+00 0. -1.
         11    1    3    3    0    0  0.52657216909E+01 -0.15298877852E+02  0.35375973835E+02  0.38900424336E+02  0.51100000000E-03 0.  1.
        -11    1    3    3    0    0 -0.39123529889E+01  0.11059231498E+02 -0.15140463357E+02  0.19153243542E+02  0.51100000000E-03 0. -1.
        -12    1    3    3    0    0  0.92133017501E+01  0.94995786762E+01 -0.56972899405E+01  0.14407846363E+02  0.00000000000E+00 0.  1.
</event>
<event>
 7    1  0.1302069E-013  0.7246164E+02  0.7816164E-02  0.1226708E+00
        -11   -1    0    0    0    0  0.00000000000E+00  0.00000000000E+00  0.45593999997E+02  0.45594000000E+02  0.51100000000E-03 0. -1.
         11   -1    0    0    0    0 -0.00000000000E+00 -0.00000000000E+00 -0.45593999997E+02  0.45594000000E+02  0.51100000000E-03 0.  1.
    9900012    2    1    2    0    0 -0.51023693875E+01  0.42181410436E+01 -0.17517129051E+02  0.72461636300E+02  0.70000085985E+02 0.  0.
         12    1    1    2    0    0  0.51023693875E+01 -0.42181410436E+01  0.17517129051E+02  0.18726363700E+02  0.00000000000E+00 0. -1.
         11    1    3    3    0    0 -0.41319691320E+01  0.17825803485E+02 -0.10470428055E+02  0.21082274609E+02  0.51100000000E-03 0. -1.
        -11    1    3    3    0    0 -0.11390524745E+01 -0.31932676307E+02 -0.61889268077E+00  0.31958978160E+02  0.51100000000E-03 0.  1.
        -12    1    3    3    0    0  0.16865221900E+00  0.18325013866E+02 -0.64278083155E+01  0.19420383531E+02  0.00000000000E+00 0.  1.
</event>
<event>
 7    1  0.1302069E-013  0.7246156E+02  0.7816164E-02  0.1226708E+00
        -11   -1    0    0    0    0  0.00000000000E+00  0.00000000000E+00  0.45593999997E+02  0.45594000000E+02  0.51100000000E-03 0.  1.
         11   -1    0    0    0    0 -0.00000000000E+00 -0.00000000000E+00 -0.45593999997E+02  0.45594000000E+02  0.51100000000E-03 0. -1.
    9900012    2    1    2    0    0  0.23672994638E+00  0.17966843671E+02 -0.52740885489E+01  0.72461560867E+02  0.69999987719E+02 0.  0.
         12    1    1    2    0    0 -0.23672994638E+00 -0.17966843671E+02  0.52740885489E+01  0.18726439133E+02  0.00000000000E+00 0. -1.
         11    1    3    3    0    0 -0.28975175781E+02  0.10410617110E+02 -0.13556854571E+02  0.33641195970E+02  0.51100000000E-03 0. -1.
        -11    1    3    3    0    0  0.10854572611E+02  0.10960064665E+02  0.12292553378E+02  0.19724391824E+02  0.51100000000E-03 0.  1.
         12    1    3    3    0    0  0.18357333116E+02 -0.34038381044E+01 -0.40097873559E+01  0.19095973073E+02  0.00000000000E+00 0. -1.
</event>
<event>
 7    1  0.1302069E-013  0.7246159E+02  0.7816164E-02  0.1226708E+00
        -11   -1    0    0    0    0  0.00000000000E+00  0.00000000000E+00  0.45593999997E+02  0.45594000000E+02  0.51100000000E-03 0.  1.
         11   -1    0    0    0    0 -0.00000000000E+00 -0.00000000000E+00 -0.45593999997E+02  0.45594000000E+02  0.51100000000E-03 0. -1.
    9900012    2    1    2    0    0 -0.14042855241E+02 -0.11536265628E+02  0.45156583698E+01  0.72461591415E+02  0.70000027514E+02 0.  0.
         12    1    1    2    0    0  0.14042855241E+02  0.11536265628E+02 -0.45156583698E+01  0.18726408585E+02  0.00000000000E+00 0. -1.
         11    1    3    3    0    0 -0.25814749481E+02 -0.18257157262E+02 -0.18887076860E+02  0.36829970875E+02  0.51100000000E-03 0. -1.
        -11    1    3    3    0    0  0.52931731186E+01 -0.32827033493E+01  0.22868323208E+02  0.23701350796E+02  0.51100000000E-03 0.  1.
         12    1    3    3    0    0  0.64787211211E+01  0.10003594984E+02  0.53441202195E+00  0.11930269744E+02  0.00000000000E+00 0. -1.
</event>
<event>
 7    1  0.1302069E-013  0.7246165E+02  0.7816164E-02  0.1226708E+00
        -11   -1    0    0    0    0  0.00000000000E+00  0.00000000000E+00  0.45593999997E+02  0.45594000000E+02  0.51100000000E-03 0.  1.
         11   -1    0    0    0    0 -0.00000000000E+00 -0.00000000000E+00 -0.45593999997E+02  0.45594000000E+02  0.51100000000E-03 0. -1.
    9900012    2    1    2    0    0 -0.47248325802E+01  0.59983994206E+01  0.17098868353E+02  0.72461651251E+02  0.70000105461E+02 0.  0.
         12    1    1    2    0    0  0.47248325802E+01 -0.59983994206E+01 -0.17098868353E+02  0.18726348749E+02  0.00000000000E+00 0. -1.
         11    1    3    3    0    0  0.35505277824E+01  0.25872208609E+01 -0.13794482867E+02  0.14477144648E+02  0.51100000000E-03 0. -1.
        -11    1    3    3    0    0  0.21823607356E+01  0.22299851909E+02  0.28512749694E+02  0.36263245703E+02  0.51100000000E-03 0.  1.
        -12    1    3    3    0    0 -0.10457721098E+02 -0.18888673349E+02  0.23806015259E+01  0.21721260900E+02  0.00000000000E+00 0.  1.
</event>
<event>
 8    1  0.1302069E-013  0.7246155E+02  0.7816164E-02  0.1226708E+00
        -11   -1    0    0    0    0  0.00000000000E+00  0.00000000000E+00  0.45593999997E+02  0.45594000000E+02  0.51100000000E-03 0. -1.
         11   -1    0    0    0    0 -0.00000000000E+00 -0.00000000000E+00 -0.45593999997E+02  0.45594000000E+02  0.51100000000E-03 0.  1.
    9900012    2    1    2    0    0  0.14730617687E+02 -0.74149007719E+01 -0.88717529370E+01  0.72461552097E+02  0.69999976294E+02 0.  0.
         24    2    3    3    0    0  0.15345212270E+02  0.56726616605E+01 -0.15661505693E+02  0.57704765195E+02  0.53074499863E+02 0.  0.
         12    1    1    2    0    0 -0.14730617687E+02  0.74149007719E+01  0.88717529370E+01  0.18726447903E+02  0.00000000000E+00 0. -1.
         11    1    3    3    0    0 -0.61459458251E+00 -0.13087562432E+02  0.67897527558E+01  0.14756786902E+02  0.51100000000E-03 0. -1.
        -11    1    4    4    0    0  0.21647452232E+01  0.26036362316E+02 -0.20202852698E+02  0.33026255342E+02  0.51100000000E-03 0.  1.
         12    1    4    4    0    0  0.13180467046E+02 -0.20363700655E+02  0.45413470047E+01  0.24678509853E+02  0.00000000000E+00 0. -1.
</event>
<event>
 7    1  0.1302069E-013  0.7246145E+02  0.7816164E-02  0.1226708E+00
        -11   -1    0    0    0    0  0.00000000000E+00  0.00000000000E+00  0.45593999997E+02  0.45594000000E+02  0.51100000000E-03 0.  1.
         11   -1    0    0    0    0 -0.00000000000E+00 -0.00000000000E+00 -0.45593999997E+02  0.45594000000E+02  0.51100000000E-03 0. -1.
    9900012    2    1    2    0    0 -0.54738393769E+01  0.12643569254E+02  0.12683096299E+02  0.72461449524E+02  0.69999842674E+02 0.  0.
         12    1    1    2    0    0  0.54738393769E+01 -0.12643569254E+02 -0.12683096299E+02  0.18726550476E+02  0.00000000000E+00 0. -1.
         11    1    3    3    0    0 -0.18671560202E+02  0.17281026760E+02 -0.14076765399E+02  0.29076044618E+02  0.51100000000E-03 0. -1.
        -11    1    3    3    0    0 -0.82051312431E+01 -0.23956053093E+01  0.18418739917E+02  0.20305493934E+02  0.51100000000E-03 0.  1.
         12    1    3    3    0    0  0.21402852068E+02 -0.22418521968E+01  0.83411217810E+01  0.23079910972E+02  0.00000000000E+00 0. -1.
</event>
<event>
 7    1  0.1302069E-013  0.7246157E+02  0.7816164E-02  0.1226708E+00
        -11   -1    0    0    0    0  0.00000000000E+00  0.00000000000E+00  0.45593999997E+02  0.45594000000E+02  0.51100000000E-03 0.  1.
         11   -1    0    0    0    0 -0.00000000000E+00 -0.00000000000E+00 -0.45593999997E+02  0.45594000000E+02  0.51100000000E-03 0. -1.
    9900012    2    1    2    0    0 -0.15964959503E+02 -0.92595255357E+01 -0.31718333020E+01  0.72461567569E+02  0.69999996450E+02 0.  0.
         12    1    1    2    0    0  0.15964959503E+02  0.92595255357E+01  0.31718333020E+01  0.18726432431E+02  0.00000000000E+00 0. -1.
         11    1    3    3    0    0  0.25148216906E+01  0.46269444908E+01 -0.61457878204E+01  0.80934326248E+01  0.51100000000E-03 0. -1.
        -11    1    3    3    0    0 -0.31501311608E+02 -0.22719965901E+02 -0.13941061726E+02  0.41265999150E+02  0.51100000000E-03 0.  1.
        -12    1    3    3    0    0  0.13021530414E+02  0.88334958750E+01  0.16915016245E+02  0.23102135794E+02  0.00000000000E+00 0.  1.
</event>
<event>
 7    1  0.1302069E-013  0.7246159E+02  0.7816164E-02  0.1226708E+00
        -11   -1    0    0    0    0  0.00000000000E+00  0.00000000000E+00  0.45593999997E+02  0.45594000000E+02  0.51100000000E-03 0. -1.
         11   -1    0    0    0    0 -0.00000000000E+00 -0.00000000000E+00 -0.45593999997E+02  0.45594000000E+02  0.51100000000E-03 0.  1.
    9900012    2    1    2    0    0  0.14949496347E+02 -0.25699185556E+01 -0.10981182876E+02  0.72461593517E+02  0.70000030252E+02 0.  0.
         12    1    1    2    0    0 -0.14949496347E+02  0.25699185556E+01  0.10981182876E+02  0.18726406483E+02  0.00000000000E+00 0. -1.
         11    1    3    3    0    0  0.38802267333E+02 -0.32085652005E+01  0.14196010709E+01  0.38960571201E+02  0.51100000000E-03 0. -1.
        -11    1    3    3    0    0 -0.68668117412E+01 -0.52099855506E+01 -0.12917074659E+02  0.15528936568E+02  0.51100000000E-03 0.  1.
         12    1    3    3    0    0 -0.16985959245E+02  0.58486321955E+01  0.51629071213E+00  0.17972085748E+02  0.00000000000E+00 0. -1.
</event>
<event>
 7    1  0.1302069E-013  0.7246155E+02  0.7816164E-02  0.1226708E+00
        -11   -1    0    0    0    0  0.00000000000E+00  0.00000000000E+00  0.45593999997E+02  0.45594000000E+02  0.51100000000E-03 0.  1.
         11   -1    0    0    0    0 -0.00000000000E+00 -0.00000000000E+00 -0.45593999997E+02  0.45594000000E+02  0.51100000000E-03 0. -1.
    9900012    2    1    2    0    0  0.15703428967E+02  0.32766839468E+01  0.96615530393E+01  0.72461549558E+02  0.69999972987E+02 0.  0.
         12    1    1    2    0    0 -0.15703428967E+02 -0.32766839468E+01 -0.96615530393E+01  0.18726450442E+02  0.00000000000E+00 0. -1.
         11    1    3    3    0    0  0.54162680282E+01  0.14127920451E+02  0.31954805193E+02  0.35355956652E+02  0.51100000000E-03 0.  1.
        -11    1    3    3    0    0  0.18516646085E+02 -0.44001519040E+01 -0.16266566917E+02  0.25036547656E+02  0.51100000000E-03 0. -1.
         12    1    3    3    0    0 -0.82294851462E+01 -0.64510846004E+01 -0.60266852369E+01  0.12069045250E+02  0.00000000000E+00 0. -1.
</event>
<event>
 7    1  0.1302069E-013  0.7246155E+02  0.7816164E-02  0.1226708E+00
        -11   -1    0    0    0    0  0.00000000000E+00  0.00000000000E+00  0.45593999997E+02  0.45594000000E+02  0.51100000000E-03 0.  1.
         11   -1    0    0    0    0 -0.00000000000E+00 -0.00000000000E+00 -0.45593999997E+02  0.45594000000E+02  0.51100000000E-03 0. -1.
    9900012    2    1    2    0    0  0.11164267916E+02  0.13920457019E+02  0.56797933664E+01  0.72461546668E+02  0.69999969222E+02 0.  0.
         12    1    1    2    0    0 -0.11164267916E+02 -0.13920457019E+02 -0.56797933664E+01  0.18726453332E+02  0.00000000000E+00 0. -1.
         11    1    3    3    0    0 -0.13610366239E+02 -0.99296058405E+01 -0.27890070478E+01  0.17076817674E+02  0.51100000000E-03 0. -1.
        -11    1    3    3    0    0  0.36439112517E+02  0.19832093903E+02  0.21959535673E+01  0.41544471136E+02  0.51100000000E-03 0.  1.
        -12    1    3    3    0    0 -0.11664478362E+02  0.40179689562E+01  0.62728468468E+01  0.13840257858E+02  0.00000000000E+00 0.  1.
</event>
<event>
 7    1  0.1302069E-013  0.7246170E+02  0.7816164E-02  0.1226708E+00
        -11   -1    0    0    0    0  0.00000000000E+00  0.00000000000E+00  0.45593999997E+02  0.45594000000E+02  0.51100000000E-03 0.  1.
         11   -1    0    0    0    0 -0.00000000000E+00 -0.00000000000E+00 -0.45593999997E+02  0.45594000000E+02  0.51100000000E-03 0. -1.
    9900012    2    1    2    0    0 -0.96004524403E+01 -0.74465171124E+01  0.14249740424E+02  0.72461697473E+02  0.70000165674E+02 0.  0.
         12    1    1    2    0    0  0.96004524403E+01  0.74465171124E+01 -0.14249740424E+02  0.18726302527E+02  0.00000000000E+00 0. -1.
         11    1    3    3    0    0 -0.98634269706E+01  0.16754864653E+02  0.26320990496E+02  0.32723190891E+02  0.51100000000E-03 0. -1.
        -11    1    3    3    0    0  0.29859853155E+01 -0.30173633391E+02 -0.62352699683E+01  0.30955497931E+02  0.51100000000E-03 0.  1.
         12    1    3    3    0    0 -0.27230107852E+01  0.59722516249E+01 -0.58359801031E+01  0.87830086515E+01  0.00000000000E+00 0. -1.
</event>
<event>
 7    1  0.1302069E-013  0.7246153E+02  0.7816164E-02  0.1226708E+00
        -11   -1    0    0    0    0  0.00000000000E+00  0.00000000000E+00  0.45593999997E+02  0.45594000000E+02  0.51100000000E-03 0. -1.
         11   -1    0    0    0    0 -0.00000000000E+00 -0.00000000000E+00 -0.45593999997E+02  0.45594000000E+02  0.51100000000E-03 0.  1.
    9900012    2    1    2    0    0 -0.49670374293E+01 -0.53467661077E+01 -0.17245903362E+02  0.72461533398E+02  0.69999951936E+02 0.  0.
         12    1    1    2    0    0  0.49670374293E+01  0.53467661077E+01  0.17245903362E+02  0.18726466602E+02  0.00000000000E+00 0. -1.
         11    1    3    3    0    0 -0.40050789919E+01 -0.14209461794E+02 -0.10797293331E+02  0.18290188784E+02  0.51100000000E-03 0. -1.
        -11    1    3    3    0    0 -0.20685275014E+02  0.15141128578E+02  0.10218802214E+02  0.27596345700E+02  0.51100000000E-03 0.  1.
        -12    1    3    3    0    0  0.19723316577E+02 -0.62784328917E+01 -0.16667412244E+02  0.26574998914E+02  0.00000000000E+00 0.  1.
</event>
<event>
 7    1  0.1302069E-013  0.7246153E+02  0.7816164E-02  0.1226708E+00
        -11   -1    0    0    0    0  0.00000000000E+00  0.00000000000E+00  0.45593999997E+02  0.45594000000E+02  0.51100000000E-03 0.  1.
         11   -1    0    0    0    0 -0.00000000000E+00 -0.00000000000E+00 -0.45593999997E+02  0.45594000000E+02  0.51100000000E-03 0. -1.
    9900012    2    1    2    0    0 -0.70023855146E+01 -0.17348520598E+02 -0.82233676219E+00  0.72461526558E+02  0.69999943025E+02 0.  0.
         12    1    1    2    0    0  0.70023855146E+01  0.17348520598E+02  0.82233676219E+00  0.18726473442E+02  0.00000000000E+00 0. -1.
         11    1    3    3    0    0 -0.21315170561E+02  0.35285744222E+01 -0.23563977076E+02  0.31969490915E+02  0.51100000000E-03 0. -1.
        -11    1    3    3    0    0  0.10564179572E+02 -0.46280089289E+01  0.20693927989E+02  0.23690905693E+02  0.51100000000E-03 0.  1.
         12    1    3    3    0    0  0.37486054749E+01 -0.16249086091E+02  0.20477123247E+01  0.16801129949E+02  0.00000000000E+00 0. -1.
</event>
<event>
 8    1  0.1302069E-013  0.7246166E+02  0.7816164E-02  0.1226708E+00
        -11   -1    0    0    0    0  0.00000000000E+00  0.00000000000E+00  0.45593999997E+02  0.45594000000E+02  0.51100000000E-03 0. -1.
         11   -1    0    0    0    0 -0.00000000000E+00 -0.00000000000E+00 -0.45593999997E+02  0.45594000000E+02  0.51100000000E-03 0.  1.
    9900012    2    1    2    0    0  0.64123471281E+01  0.14490086943E+02 -0.99797355877E+01  0.72461656585E+02  0.70000112409E+02 0.  0.
         24    2    3    3    0    0 -0.87665925018E+01  0.20834859685E+01  0.73477682057E+00  0.50120556961E+02  0.49298440900E+02 0.  0.
         12    1    1    2    0    0 -0.64123471281E+01 -0.14490086943E+02  0.99797355877E+01  0.18726343415E+02  0.00000000000E+00 0. -1.
         11    1    3    3    0    0  0.15178939630E+02  0.12406600974E+02 -0.10714512408E+02  0.22341099624E+02  0.51100000000E-03 0. -1.
        -11    1    4    4    0    0 -0.94412355473E+01 -0.16942091778E+02 -0.15713430481E+02  0.24961636569E+02  0.51100000000E-03 0.  1.
         12    1    4    4    0    0  0.67464304551E+00  0.19025577747E+02  0.16448207301E+02  0.25158920391E+02  0.00000000000E+00 0. -1.
</event>
<event>
 7    1  0.1302069E-013  0.7246155E+02  0.7816164E-02  0.1226708E+00
        -11   -1    0    0    0    0  0.00000000000E+00  0.00000000000E+00  0.45593999997E+02  0.45594000000E+02  0.51100000000E-03 0.  1.
         11   -1    0    0    0    0 -0.00000000000E+00 -0.00000000000E+00 -0.45593999997E+02  0.45594000000E+02  0.51100000000E-03 0. -1.
    9900012    2    1    2    0    0 -0.18633567301E+02  0.15369179940E+01 -0.10526481618E+01  0.72461547708E+02  0.69999970577E+02 0.  0.
         12    1    1    2    0    0  0.18633567301E+02 -0.15369179940E+01  0.10526481618E+01  0.18726452292E+02  0.00000000000E+00 0. -1.
         11    1    3    3    0    0 -0.73816900987E+01  0.13974635105E+02 -0.17109376897E+02  0.23291855939E+02  0.51100000000E-03 0. -1.
        -11    1    3    3    0    0  0.11724217505E+02  0.70511737535E+01  0.13023845975E+02  0.18889068047E+02  0.51100000000E-03 0.  1.
        -12    1    3    3    0    0 -0.22976094708E+02 -0.19488890865E+02  0.30328827593E+01  0.30280623722E+02  0.00000000000E+00 0.  1.
</event>
<event>
 7    1  0.1302069E-013  0.7246157E+02  0.7816164E-02  0.1226708E+00
        -11   -1    0    0    0    0  0.00000000000E+00  0.00000000000E+00  0.45593999997E+02  0.45594000000E+02  0.51100000000E-03 0. -1.
         11   -1    0    0    0    0 -0.00000000000E+00 -0.00000000000E+00 -0.45593999997E+02  0.45594000000E+02  0.51100000000E-03 0.  1.
    9900012    2    1    2    0    0 -0.44241399149E+01  0.16257054556E+02  0.81740006418E+01  0.72461571528E+02  0.70000001607E+02 0.  0.
         12    1    1    2    0    0  0.44241399149E+01 -0.16257054556E+02 -0.81740006418E+01  0.18726428472E+02  0.00000000000E+00 0. -1.
         11    1    3    3    0    0  0.25899351376E+02  0.50965982576E+01  0.13412118257E+02  0.29608050120E+02  0.51100000000E-03 0. -1.
        -11    1    3    3    0    0 -0.31018556297E+02  0.50369155804E+01 -0.12060507152E+02  0.33659726474E+02  0.51100000000E-03 0.  1.
        -12    1    3    3    0    0  0.69506500586E+00  0.61235407180E+01  0.68223895367E+01  0.91937949334E+01  0.00000000000E+00 0.  1.
</event>
<event>
 7    1  0.1302069E-013  0.7246143E+02  0.7816164E-02  0.1226708E+00
        -11   -1    0    0    0    0  0.00000000000E+00  0.00000000000E+00  0.45593999997E+02  0.45594000000E+02  0.51100000000E-03 0. -1.
         11   -1    0    0    0    0 -0.00000000000E+00 -0.00000000000E+00 -0.45593999997E+02  0.45594000000E+02  0.51100000000E-03 0.  1.
    9900012    2    1    2    0    0 -0.15740121607E+02  0.10115754620E+02 -0.77757816501E+00  0.72461426701E+02  0.69999812942E+02 0.  0.
         12    1    1    2    0    0  0.15740121607E+02 -0.10115754620E+02  0.77757816501E+00  0.18726573299E+02  0.00000000000E+00 0. -1.
         11    1    3    3    0    0  0.14003659134E+02  0.19830701799E+01  0.16933906917E+02  0.22063368742E+02  0.51100000000E-03 0. -1.
        -11    1    3    3    0    0 -0.19104575605E+02  0.47797488329E+01 -0.28655979848E+02  0.34770619628E+02  0.51100000000E-03 0.  1.
        -12    1    3    3    0    0 -0.10639205136E+02  0.33529356074E+01  0.10944494766E+02  0.15627438331E+02  0.00000000000E+00 0.  1.
</event>
<event>
 7    1  0.1302069E-013  0.7246160E+02  0.7816164E-02  0.1226708E+00
        -11   -1    0    0    0    0  0.00000000000E+00  0.00000000000E+00  0.45593999997E+02  0.45594000000E+02  0.51100000000E-03 0.  1.
         11   -1    0    0    0    0 -0.00000000000E+00 -0.00000000000E+00 -0.45593999997E+02  0.45594000000E+02  0.51100000000E-03 0. -1.
    9900012    2    1    2    0    0 -0.78378171294E+01 -0.14161418806E+02  0.94181123712E+01  0.72461601505E+02  0.70000040658E+02 0.  0.
         12    1    1    2    0    0  0.78378171294E+01  0.14161418806E+02 -0.94181123712E+01  0.18726398495E+02  0.00000000000E+00 0. -1.
         11    1    3    3    0    0  0.17139884360E+02 -0.14641720166E+02 -0.11761138879E+02  0.25425970843E+02  0.51100000000E-03 0. -1.
        -11    1    3    3    0    0 -0.19397518235E+02 -0.93541023277E+01  0.26822960392E+02  0.34398170715E+02  0.51100000000E-03 0.  1.
         12    1    3    3    0    0 -0.55801832543E+01  0.98344036882E+01 -0.56437091416E+01  0.12637459948E+02  0.00000000000E+00 0. -1.
</event>
<event>
 7    1  0.1302069E-013  0.7246158E+02  0.7816164E-02  0.1226708E+00
        -11   -1    0    0    0    0  0.00000000000E+00  0.00000000000E+00  0.45593999997E+02  0.45594000000E+02  0.51100000000E-03 0.  1.
         11   -1    0    0    0    0 -0.00000000000E+00 -0.00000000000E+00 -0.45593999997E+02  0.45594000000E+02  0.51100000000E-03 0. -1.
    9900012    2    1    2    0    0  0.97548949310E+01  0.65857384466E+00  0.15971442485E+02  0.72461583640E+02  0.70000017385E+02 0.  0.
         12    1    1    2    0    0 -0.97548949310E+01 -0.65857384466E+00 -0.15971442485E+02  0.18726416360E+02  0.00000000000E+00 0. -1.
         11    1    3    3    0    0  0.49006148282E+01 -0.20657020261E+02  0.10598133331E+02  0.23728652345E+02  0.51100000000E-03 0. -1.
        -11    1    3    3    0    0  0.13069941078E+01  0.31594611087E+02  0.14261300360E+02  0.34688793169E+02  0.51100000000E-03 0.  1.
         12    1    3    3    0    0  0.35472859950E+01 -0.10279016981E+02 -0.88879912054E+01  0.14044138126E+02  0.00000000000E+00 0. -1.
</event>
<event>
 7    1  0.1302069E-013  0.7246157E+02  0.7816164E-02  0.1226708E+00
        -11   -1    0    0    0    0  0.00000000000E+00  0.00000000000E+00  0.45593999997E+02  0.45594000000E+02  0.51100000000E-03 0.  1.
         11   -1    0    0    0    0 -0.00000000000E+00 -0.00000000000E+00 -0.45593999997E+02  0.45594000000E+02  0.51100000000E-03 0. -1.
    9900012    2    1    2    0    0  0.80817588673E+01 -0.12032304763E+02  0.11856984268E+02  0.72461567872E+02  0.69999996845E+02 0.  0.
         12    1    1    2    0    0 -0.80817588673E+01  0.12032304763E+02 -0.11856984268E+02  0.18726432128E+02  0.00000000000E+00 0. -1.
         11    1    3    3    0    0 -0.13753389926E+02 -0.11248405119E+02 -0.38625454431E+01  0.18182453347E+02  0.51100000000E-03 0. -1.
        -11    1    3    3    0    0  0.33999238269E+02 -0.99026269719E+01  0.16477159229E+02  0.39057739314E+02  0.51100000000E-03 0.  1.
        -12    1    3    3    0    0 -0.12164089476E+02  0.91187273273E+01 -0.75762951798E+00  0.15221375211E+02  0.00000000000E+00 0.  1.
</event>
<event>
 7    1  0.1302069E-013  0.7246156E+02  0.7816164E-02  0.1226708E+00
        -11   -1    0    0    0    0  0.00000000000E+00  0.00000000000E+00  0.45593999997E+02  0.45594000000E+02  0.51100000000E-03 0.  1.
         11   -1    0    0    0    0 -0.00000000000E+00 -0.00000000000E+00 -0.45593999997E+02  0.45594000000E+02  0.51100000000E-03 0. -1.
    9900012    2    1    2    0    0 -0.39177707959E+00  0.18040680300E+02 -0.50059865743E+01  0.72461560495E+02  0.69999987234E+02 0.  0.
         12    1    1    2    0    0  0.39177707959E+00 -0.18040680300E+02  0.50059865743E+01  0.18726439505E+02  0.00000000000E+00 0. -1.
         11    1    3    3    0    0 -0.51686823714E+01 -0.44912228859E+01 -0.21337474969E+02  0.22409243601E+02  0.51100000000E-03 0. -1.
        -11    1    3    3    0    0  0.21776510090E+02  0.16341823225E+02  0.16731335477E+02  0.31956363453E+02  0.51100000000E-03 0.  1.
        -12    1    3    3    0    0 -0.16999604799E+02  0.61900799606E+01 -0.39984708261E+00  0.18095953440E+02  0.00000000000E+00 0.  1.
</event>
<event>
 7    1  0.1302069E-013  0.7246155E+02  0.7816164E-02  0.1226708E+00
        -11   -1    0    0    0    0  0.00000000000E+00  0.00000000000E+00  0.45593999997E+02  0.45594000000E+02  0.51100000000E-03 0.  1.
         11   -1    0    0    0    0 -0.00000000000E+00 -0.00000000000E+00 -0.45593999997E+02  0.45594000000E+02  0.51100000000E-03 0. -1.
    9900012    2    1    2    0    0  0.11978730509E+02  0.12177581494E+02  0.76743971318E+01  0.72461552206E+02  0.69999976437E+02 0.  0.
         12    1    1    2    0    0 -0.11978730509E+02 -0.12177581494E+02 -0.76743971318E+01  0.18726447794E+02  0.00000000000E+00 0. -1.
         11    1    3    3    0    0 -0.73994948278E+01 -0.84633341448E+01  0.78397969129E+01  0.13705581507E+02  0.51100000000E-03 0. -1.
        -11    1    3    3    0    0  0.89097105597E+01  0.31944603557E+02 -0.15861779672E+02  0.36761891862E+02  0.51100000000E-03 0.  1.
        -12    1    3    3    0    0  0.10468514777E+02 -0.11303687919E+02  0.15696379891E+02  0.21994078837E+02  0.00000000000E+00 0.  1.
</event>
<event>
 7    1  0.1302069E-013  0.7246150E+02  0.7816164E-02  0.1226708E+00
        -11   -1    0    0    0    0  0.00000000000E+00  0.00000000000E+00  0.45593999997E+02  0.45594000000E+02  0.51100000000E-03 0. -1.
         11   -1    0    0    0    0 -0.00000000000E+00 -0.00000000000E+00 -0.45593999997E+02  0.45594000000E+02  0.51100000000E-03 0.  1.
    9900012    2    1    2    0    0 -0.17472271842E+02  0.51600752177E+01 -0.43330305746E+01  0.72461499699E+02  0.69999908036E+02 0.  0.
         12    1    1    2    0    0  0.17472271842E+02 -0.51600752177E+01  0.43330305746E+01  0.18726500301E+02  0.00000000000E+00 0. -1.
         11    1    3    3    0    0 -0.34208535136E+02  0.70732203860E+01 -0.83442966494E+01  0.35914921824E+02  0.51100000000E-03 0. -1.
        -11    1    3    3    0    0  0.21574344775E+02 -0.61533232391E+00 -0.84019249048E+01  0.23160814508E+02  0.51100000000E-03 0.  1.
        -12    1    3    3    0    0 -0.48380814803E+01 -0.12978128444E+01  0.12413190980E+02  0.13385763366E+02  0.00000000000E+00 0.  1.
</event>
<event>
 7    1  0.1302069E-013  0.7246159E+02  0.7816164E-02  0.1226708E+00
        -11   -1    0    0    0    0  0.00000000000E+00  0.00000000000E+00  0.45593999997E+02  0.45594000000E+02  0.51100000000E-03 0.  1.
         11   -1    0    0    0    0 -0.00000000000E+00 -0.00000000000E+00 -0.45593999997E+02  0.45594000000E+02  0.51100000000E-03 0. -1.
    9900012    2    1    2    0    0 -0.12550017503E+02 -0.12839546940E+02  0.53217990123E+01  0.72461589514E+02  0.70000025038E+02 0.  0.
         12    1    1    2    0    0  0.12550017503E+02  0.12839546940E+02 -0.53217990123E+01  0.18726410486E+02  0.00000000000E+00 0. -1.
         11    1    3    3    0    0 -0.11906609371E+02  0.15205348138E+02 -0.20160674560E+02  0.27918143880E+02  0.51100000000E-03 0. -1.
        -11    1    3    3    0    0 -0.10770203766E+02 -0.22568049035E+02  0.18041456372E+02  0.30835179174E+02  0.51100000000E-03 0.  1.
         12    1    3    3    0    0  0.10126795633E+02 -0.54768460440E+01  0.74410172001E+01  0.13708266461E+02  0.00000000000E+00 0. -1.
</event>
<event>
 7    1  0.1302069E-013  0.7246161E+02  0.7816164E-02  0.1226708E+00
        -11   -1    0    0    0    0  0.00000000000E+00  0.00000000000E+00  0.45593999997E+02  0.45594000000E+02  0.51100000000E-03 0. -1.
         11   -1    0    0    0    0 -0.00000000000E+00 -0.00000000000E+00 -0.45593999997E+02  0.45594000000E+02  0.51100000000E-03 0.  1.
    9900012    2    1    2    0    0  0.12858914517E+01  0.41848063210E+01 -0.18207463716E+02  0.72461605373E+02  0.70000045696E+02 0.  0.
         12    1    1    2    0    0 -0.12858914517E+01 -0.41848063210E+01  0.18207463716E+02  0.18726394627E+02  0.00000000000E+00 0. -1.
         11    1    3    3    0    0  0.18903772355E+01 -0.27801873693E+02  0.28441470004E+01  0.28010835035E+02  0.51100000000E-03 0. -1.
        -11    1    3    3    0    0 -0.47071890875E+01  0.79963711033E+01 -0.17562903149E+02  0.19863412275E+02  0.51100000000E-03 0.  1.
         12    1    3    3    0    0  0.41027033037E+01  0.23990308910E+02 -0.34887075670E+01  0.24587358063E+02  0.00000000000E+00 0. -1.
</event>
<event>
 7    1  0.1302069E-013  0.7246158E+02  0.7816164E-02  0.1226708E+00
        -11   -1    0    0    0    0  0.00000000000E+00  0.00000000000E+00  0.45593999997E+02  0.45594000000E+02  0.51100000000E-03 0.  1.
         11   -1    0    0    0    0 -0.00000000000E+00 -0.00000000000E+00 -0.45593999997E+02  0.45594000000E+02  0.51100000000E-03 0. -1.
    9900012    2    1    2    0    0 -0.57285151301E+01 -0.96258329203E+01  0.15006869993E+02  0.72461583045E+02  0.70000016610E+02 0.  0.
         12    1    1    2    0    0  0.57285151301E+01  0.96258329203E+01 -0.15006869993E+02  0.18726416955E+02  0.00000000000E+00 0. -1.
         11    1    3    3    0    0 -0.30469552647E+02 -0.13119907614E+02 -0.18261521054E+01  0.33224395346E+02  0.51100000000E-03 0.  1.
        -11    1    3    3    0    0  0.29649556307E+02  0.43415218930E+00  0.13814661995E+02  0.32712834846E+02  0.51100000000E-03 0. -1.
         12    1    3    3    0    0 -0.49085187904E+01  0.30599225043E+01  0.30183601029E+01  0.65243528537E+01  0.00000000000E+00 0. -1.
</event>
<event>
 7    1  0.1302069E-013  0.7246156E+02  0.7816164E-02  0.1226708E+00
        -11   -1    0    0    0    0  0.00000000000E+00  0.00000000000E+00  0.45593999997E+02  0.45594000000E+02  0.51100000000E-03 0. -1.
         11   -1    0    0    0    0 -0.00000000000E+00 -0.00000000000E+00 -0.45593999997E+02  0.45594000000E+02  0.51100000000E-03 0.  1.
    9900012    2    1    2    0    0  0.68240710130E+01 -0.17426050902E+02  0.66661641416E+00  0.72461559530E+02  0.69999985977E+02 0.  0.
         12    1    1    2    0    0 -0.68240710130E+01  0.17426050902E+02 -0.66661641416E+00  0.18726440470E+02  0.00000000000E+00 0. -1.
         11    1    3    3    0    0 -0.16351565156E+02  0.51467239952E+01 -0.97461905562E+01  0.19719297187E+02  0.51100000000E-03 0.  1.
        -11    1    3    3    0    0  0.34411230442E+02 -0.20225411756E+02  0.56403714378E+01  0.40311460547E+02  0.51100000000E-03 0. -1.
        -12    1    3    3    0    0 -0.11235594272E+02 -0.23473631416E+01  0.47724355325E+01  0.12430801796E+02  0.00000000000E+00 0.  1.
</event>
<event>
 7    1  0.1302069E-013  0.7246165E+02  0.7816164E-02  0.1226708E+00
        -11   -1    0    0    0    0  0.00000000000E+00  0.00000000000E+00  0.45593999997E+02  0.45594000000E+02  0.51100000000E-03 0. -1.
         11   -1    0    0    0    0 -0.00000000000E+00 -0.00000000000E+00 -0.45593999997E+02  0.45594000000E+02  0.51100000000E-03 0.  1.
    9900012    2    1    2    0    0 -0.66873622254E+01  0.14847371009E+02  0.92472097279E+01  0.72461651526E+02  0.70000105819E+02 0.  0.
         12    1    1    2    0    0  0.66873622254E+01 -0.14847371009E+02 -0.92472097279E+01  0.18726348474E+02  0.00000000000E+00 0. -1.
         11    1    3    3    0    0 -0.89249954025E+01  0.36763135716E+02  0.16767885300E+02  0.41380498648E+02  0.51100000000E-03 0. -1.
        -11    1    3    3    0    0 -0.63907577611E+01 -0.19876584836E+02 -0.28873826509E+01  0.21077414176E+02  0.51100000000E-03 0.  1.
         12    1    3    3    0    0  0.86283909382E+01 -0.20391798710E+01 -0.46332929216E+01  0.10003738702E+02  0.00000000000E+00 0. -1.
</event>
<event>
 7    1  0.1302069E-013  0.7246157E+02  0.7816164E-02  0.1226708E+00
        -11   -1    0    0    0    0  0.00000000000E+00  0.00000000000E+00  0.45593999997E+02  0.45594000000E+02  0.51100000000E-03 0.  1.
         11   -1    0    0    0    0 -0.00000000000E+00 -0.00000000000E+00 -0.45593999997E+02  0.45594000000E+02  0.51100000000E-03 0. -1.
    9900012    2    1    2    0    0 -0.14830791235E+02 -0.93509988315E+00  0.11395282218E+02  0.72461568486E+02  0.69999997644E+02 0.  0.
         12    1    1    2    0    0  0.14830791235E+02  0.93509988315E+00 -0.11395282218E+02  0.18726431514E+02  0.00000000000E+00 0. -1.
         11    1    3    3    0    0 -0.17487534550E+02 -0.52781875907E+01 -0.26887826888E+02  0.32505820462E+02  0.51100000000E-03 0. -1.
        -11    1    3    3    0    0  0.16525516367E+01 -0.28628553798E+01  0.20118400721E+02  0.20388156260E+02  0.51100000000E-03 0.  1.
        -12    1    3    3    0    0  0.10041916790E+01  0.72059430874E+01  0.18164708385E+02  0.19567591763E+02  0.00000000000E+00 0.  1.
</event>
<event>
 7    1  0.1302069E-013  0.7246153E+02  0.7816164E-02  0.1226708E+00
        -11   -1    0    0    0    0  0.00000000000E+00  0.00000000000E+00  0.45593999997E+02  0.45594000000E+02  0.51100000000E-03 0.  1.
         11   -1    0    0    0    0 -0.00000000000E+00 -0.00000000000E+00 -0.45593999997E+02  0.45594000000E+02  0.51100000000E-03 0. -1.
    9900012    2    1    2    0    0  0.86810604540E+01 -0.15670935618E+02  0.54535885827E+01  0.72461530440E+02  0.69999948082E+02 0.  0.
         12    1    1    2    0    0 -0.86810604540E+01  0.15670935618E+02 -0.54535885827E+01  0.18726469560E+02  0.00000000000E+00 0. -1.
         11    1    3    3    0    0  0.35522471164E+00 -0.22611587415E+02  0.53305528984E+01  0.23234131455E+02  0.51100000000E-03 0. -1.
        -11    1    3    3    0    0  0.22676628745E+02  0.11022360086E+02 -0.13866230005E+02  0.28774889190E+02  0.51100000000E-03 0.  1.
        -12    1    3    3    0    0 -0.14350793002E+02 -0.40817082898E+01  0.13989265689E+02  0.20452509794E+02  0.00000000000E+00 0.  1.
</event>
<event>
 7    1  0.1302069E-013  0.7246154E+02  0.7816164E-02  0.1226708E+00
        -11   -1    0    0    0    0  0.00000000000E+00  0.00000000000E+00  0.45593999997E+02  0.45594000000E+02  0.51100000000E-03 0. -1.
         11   -1    0    0    0    0 -0.00000000000E+00 -0.00000000000E+00 -0.45593999997E+02  0.45594000000E+02  0.51100000000E-03 0.  1.
    9900012    2    1    2    0    0 -0.91379865204E+01 -0.74952709929E+00 -0.16328372585E+02  0.72461539048E+02  0.69999959296E+02 0.  0.
         12    1    1    2    0    0  0.91379865204E+01  0.74952709929E+00  0.16328372585E+02  0.18726460952E+02  0.00000000000E+00 0. -1.
         11    1    3    3    0    0 -0.37444868173E+00  0.19568839372E+02  0.13525871572E+02  0.23791361631E+02  0.51100000000E-03 0. -1.
        -11    1    3    3    0    0 -0.93914736682E-01 -0.46056317470E+01 -0.30369574548E+02  0.30716961475E+02  0.51100000000E-03 0.  1.
         12    1    3    3    0    0 -0.86696231019E+01 -0.15712734725E+02  0.51533039178E+00  0.17953215942E+02  0.00000000000E+00 0. -1.
</event>
<event>
 7    1  0.1302069E-013  0.7246158E+02  0.7816164E-02  0.1226708E+00
        -11   -1    0    0    0    0  0.00000000000E+00  0.00000000000E+00  0.45593999997E+02  0.45594000000E+02  0.51100000000E-03 0. -1.
         11   -1    0    0    0    0 -0.00000000000E+00 -0.00000000000E+00 -0.45593999997E+02  0.45594000000E+02  0.51100000000E-03 0.  1.
    9900012    2    1    2    0    0  0.15922560244E+02  0.48866909925E+01 -0.85598495479E+01  0.72461582888E+02  0.70000016406E+02 0.  0.
         12    1    1    2    0    0 -0.15922560244E+02 -0.48866909925E+01  0.85598495479E+01  0.18726417112E+02  0.00000000000E+00 0. -1.
         11    1    3    3    0    0  0.13093395997E+02 -0.64949041817E+01  0.20593702205E+02  0.25253145741E+02  0.51100000000E-03 0. -1.
        -11    1    3    3    0    0  0.18992555918E+02  0.80419064851E+01 -0.16008606763E+02  0.26108713698E+02  0.51100000000E-03 0.  1.
         12    1    3    3    0    0 -0.16163391671E+02  0.33396886891E+01 -0.13144944990E+02  0.21099723449E+02  0.00000000000E+00 0. -1.
</event>
<event>
 7    1  0.1302069E-013  0.7246162E+02  0.7816164E-02  0.1226708E+00
        -11   -1    0    0    0    0  0.00000000000E+00  0.00000000000E+00  0.45593999997E+02  0.45594000000E+02  0.51100000000E-03 0.  1.
         11   -1    0    0    0    0 -0.00000000000E+00 -0.00000000000E+00 -0.45593999997E+02  0.45594000000E+02  0.51100000000E-03 0. -1.
    9900012    2    1    2    0    0 -0.65439726878E+01  0.29210627380E+01  0.17300903530E+02  0.72461616233E+02  0.70000059843E+02 0.  0.
         12    1    1    2    0    0  0.65439726878E+01 -0.29210627380E+01 -0.17300903530E+02  0.18726383767E+02  0.00000000000E+00 0. -1.
         11    1    3    3    0    0 -0.34075818993E+02 -0.13450584030E+02  0.26248833133E+01  0.36728322361E+02  0.51100000000E-03 0. -1.
        -11    1    3    3    0    0  0.65178645047E+01  0.47916332421E+01  0.10965178499E+01  0.81636179776E+01  0.51100000000E-03 0.  1.
         12    1    3    3    0    0  0.21013981801E+02  0.11580013526E+02  0.13579502367E+02  0.27569675894E+02  0.00000000000E+00 0. -1.
</event>
<event>
 7    1  0.1302069E-013  0.7246157E+02  0.7816164E-02  0.1226708E+00
        -11   -1    0    0    0    0  0.00000000000E+00  0.00000000000E+00  0.45593999997E+02  0.45594000000E+02  0.51100000000E-03 0. -1.
         11   -1    0    0    0    0 -0.00000000000E+00 -0.00000000000E+00 -0.45593999997E+02  0.45594000000E+02  0.51100000000E-03 0.  1.
    9900012    2    1    2    0    0 -0.22392459940E+00 -0.40902480611E+01 -0.18272897417E+02  0.72461573447E+02  0.70000004107E+02 0.  0.
         12    1    1    2    0    0  0.22392459940E+00  0.40902480611E+01  0.18272897417E+02  0.18726426553E+02  0.00000000000E+00 0. -1.
         11    1    3    3    0    0 -0.18589253636E+02  0.17905551059E+02 -0.29377141119E+02  0.39104801880E+02  0.51100000000E-03 0.  1.
        -11    1    3    3    0    0  0.16963879348E+02 -0.13368316116E+02  0.37236592320E+01  0.21916904814E+02  0.51100000000E-03 0. -1.
        -12    1    3    3    0    0  0.14014496892E+01 -0.86274830039E+01  0.73805844701E+01  0.11439866753E+02  0.00000000000E+00 0.  1.
</event>
<event>
 7    1  0.1302069E-013  0.7246153E+02  0.7816164E-02  0.1226708E+00
        -11   -1    0    0    0    0  0.00000000000E+00  0.00000000000E+00  0.45593999997E+02  0.45594000000E+02  0.51100000000E-03 0.  1.
         11   -1    0    0    0    0 -0.00000000000E+00 -0.00000000000E+00 -0.45593999997E+02  0.45594000000E+02  0.51100000000E-03 0. -1.
    9900012    2    1    2    0    0  0.10070044349E+01 -0.15416623394E+02  0.10582730326E+02  0.72461534344E+02  0.69999953168E+02 0.  0.
         12    1    1    2    0    0 -0.10070044349E+01  0.15416623394E+02 -0.10582730326E+02  0.18726465656E+02  0.00000000000E+00 0. -1.
         11    1    3    3    0    0  0.97529683676E+01  0.22157010033E+02 -0.63048098349E+01  0.25016077089E+02  0.51100000000E-03 0. -1.
        -11    1    3    3    0    0  0.42120345088E+01 -0.12387578690E+01  0.58631335586E+01  0.73247587775E+01  0.51100000000E-03 0.  1.
         12    1    3    3    0    0 -0.12957998441E+02 -0.36334875558E+02  0.11024406603E+02  0.40120698478E+02  0.00000000000E+00 0. -1.
</event>
<event>
 7    1  0.1302069E-013  0.7246158E+02  0.7816164E-02  0.1226708E+00
        -11   -1    0    0    0    0  0.00000000000E+00  0.00000000000E+00  0.45593999997E+02  0.45594000000E+02  0.51100000000E-03 0. -1.
         11   -1    0    0    0    0 -0.00000000000E+00 -0.00000000000E+00 -0.45593999997E+02  0.45594000000E+02  0.51100000000E-03 0.  1.
    9900012    2    1    2    0    0 -0.71433182807E+01  0.12716418116E+02 -0.11744973032E+02  0.72461583437E+02  0.70000017120E+02 0.  0.
         12    1    1    2    0    0  0.71433182807E+01 -0.12716418116E+02  0.11744973032E+02  0.18726416563E+02  0.00000000000E+00 0. -1.
         11    1    3    3    0    0 -0.58583663472E+01 -0.18744220491E+02  0.13617146304E+02  0.23897550749E+02  0.51100000000E-03 0. -1.
        -11    1    3    3    0    0 -0.11286395998E+02  0.14177458396E+02 -0.21684964413E+02  0.28259878681E+02  0.51100000000E-03 0.  1.
         12    1    3    3    0    0  0.10001444065E+02  0.17283180212E+02 -0.36771549235E+01  0.20304154007E+02  0.00000000000E+00 0. -1.
</event>
<event>
 7    1  0.1302069E-013  0.7246159E+02  0.7816164E-02  0.1226708E+00
        -11   -1    0    0    0    0  0.00000000000E+00  0.00000000000E+00  0.45593999997E+02  0.45594000000E+02  0.51100000000E-03 0.  1.
         11   -1    0    0    0    0 -0.00000000000E+00 -0.00000000000E+00 -0.45593999997E+02  0.45594000000E+02  0.51100000000E-03 0. -1.
    9900012    2    1    2    0    0  0.95819411691E+01 -0.13872645902E+02  0.81495117106E+01  0.72461589719E+02  0.70000025304E+02 0.  0.
         12    1    1    2    0    0 -0.95819411691E+01  0.13872645902E+02 -0.81495117106E+01  0.18726410281E+02  0.00000000000E+00 0. -1.
         11    1    3    3    0    0  0.31106892765E+02 -0.28204215984E+02  0.70072009304E+00  0.41995328141E+02  0.51100000000E-03 0. -1.
        -11    1    3    3    0    0 -0.74624010352E+01  0.29357845923E-01  0.72547739159E+01  0.10407691191E+02  0.51100000000E-03 0.  1.
         12    1    3    3    0    0 -0.14062550561E+02  0.14302212236E+02  0.19401770165E+00  0.20058570387E+02  0.00000000000E+00 0. -1.
</event>
<event>
 7    1  0.1302069E-013  0.7246171E+02  0.7816164E-02  0.1226708E+00
        -11   -1    0    0    0    0  0.00000000000E+00  0.00000000000E+00  0.45593999997E+02  0.45594000000E+02  0.51100000000E-03 0.  1.
         11   -1    0    0    0    0 -0.00000000000E+00 -0.00000000000E+00 -0.45593999997E+02  0.45594000000E+02  0.51100000000E-03 0. -1.
    9900012    2    1    2    0    0 -0.16594970208E+02  0.36552196679E+01  0.78689410168E+01  0.72461710999E+02  0.70000183293E+02 0.  0.
         12    1    1    2    0    0  0.16594970208E+02 -0.36552196679E+01 -0.78689410168E+01  0.18726289001E+02  0.00000000000E+00 0. -1.
         11    1    3    3    0    0  0.18445975126E+02  0.14701693153E+02 -0.63186429314E+01  0.24419644319E+02  0.51100000000E-03 0. -1.
        -11    1    3    3    0    0 -0.98821764896E+01 -0.43493323941E+01  0.18724940706E+02  0.21614752119E+02  0.51100000000E-03 0.  1.
         12    1    3    3    0    0 -0.25158768844E+02 -0.66971410911E+01 -0.45373567580E+01  0.26427314561E+02  0.00000000000E+00 0. -1.
</event>
<event>
 7    1  0.1302069E-013  0.7246154E+02  0.7816164E-02  0.1226708E+00
        -11   -1    0    0    0    0  0.00000000000E+00  0.00000000000E+00  0.45593999997E+02  0.45594000000E+02  0.51100000000E-03 0.  1.
         11   -1    0    0    0    0 -0.00000000000E+00 -0.00000000000E+00 -0.45593999997E+02  0.45594000000E+02  0.51100000000E-03 0. -1.
    9900012    2    1    2    0    0  0.64587039340E+01 -0.15741779196E+01  0.17506779357E+02  0.72461542351E+02  0.69999963599E+02 0.  0.
         12    1    1    2    0    0 -0.64587039340E+01  0.15741779196E+01 -0.17506779357E+02  0.18726457649E+02  0.00000000000E+00 0. -1.
         11    1    3    3    0    0  0.18211917886E+02  0.17217449893E+02 -0.51766264459E+01  0.25591248417E+02  0.51100000000E-03 0. -1.
        -11    1    3    3    0    0  0.41002199026E+01 -0.23217980624E+02  0.18274558362E+02  0.29830285132E+02  0.51100000000E-03 0.  1.
         12    1    3    3    0    0 -0.15853433855E+02  0.44263528116E+01  0.44088474407E+01  0.17040008802E+02  0.00000000000E+00 0. -1.
</event>
<event>
 7    1  0.1302069E-013  0.7246157E+02  0.7816164E-02  0.1226708E+00
        -11   -1    0    0    0    0  0.00000000000E+00  0.00000000000E+00  0.45593999997E+02  0.45594000000E+02  0.51100000000E-03 0. -1.
         11   -1    0    0    0    0 -0.00000000000E+00 -0.00000000000E+00 -0.45593999997E+02  0.45594000000E+02  0.51100000000E-03 0.  1.
    9900012    2    1    2    0    0  0.90161749092E+01  0.15491005203E+02 -0.54237128465E+01  0.72461566457E+02  0.69999995002E+02 0.  0.
         12    1    1    2    0    0 -0.90161749092E+01 -0.15491005203E+02  0.54237128465E+01  0.18726433543E+02  0.00000000000E+00 0. -1.
         11    1    3    3    0    0  0.11771489956E+02 -0.78980079422E+01  0.39549496809E+00  0.14181076185E+02  0.51100000000E-03 0. -1.
        -11    1    3    3    0    0 -0.26148428155E+02  0.66954948803E+01  0.52243356858E+01  0.27492974199E+02  0.51100000000E-03 0.  1.
        -12    1    3    3    0    0  0.23393113108E+02  0.16693518265E+02 -0.11043543500E+02  0.30787516073E+02  0.00000000000E+00 0.  1.
</event>
<event>
 7    1  0.1302069E-013  0.7246154E+02  0.7816164E-02  0.1226708E+00
        -11   -1    0    0    0    0  0.00000000000E+00  0.00000000000E+00  0.45593999997E+02  0.45594000000E+02  0.51100000000E-03 0.  1.
         11   -1    0    0    0    0 -0.00000000000E+00 -0.00000000000E+00 -0.45593999997E+02  0.45594000000E+02  0.51100000000E-03 0. -1.
    9900012    2    1    2    0    0  0.12856141913E+01 -0.12892339462E+01  0.18637737347E+02  0.72461543276E+02  0.69999964804E+02 0.  0.
         12    1    1    2    0    0 -0.12856141913E+01  0.12892339462E+01 -0.18637737347E+02  0.18726456724E+02  0.00000000000E+00 0. -1.
         11    1    3    3    0    0  0.80114943238E+01  0.17761673602E+02 -0.11279940668E+02  0.22514398775E+02  0.51100000000E-03 0. -1.
        -11    1    3    3    0    0 -0.19688693765E+02 -0.15788486806E+02  0.13008613505E+02  0.28392692781E+02  0.51100000000E-03 0.  1.
         12    1    3    3    0    0  0.12962813632E+02 -0.32624207425E+01  0.16909064510E+02  0.21554451721E+02  0.00000000000E+00 0. -1.
</event>
<event>
 7    1  0.1302069E-013  0.7246164E+02  0.7816164E-02  0.1226708E+00
        -11   -1    0    0    0    0  0.00000000000E+00  0.00000000000E+00  0.45593999997E+02  0.45594000000E+02  0.51100000000E-03 0. -1.
         11   -1    0    0    0    0 -0.00000000000E+00 -0.00000000000E+00 -0.45593999997E+02  0.45594000000E+02  0.51100000000E-03 0.  1.
    9900012    2    1    2    0    0 -0.70860826221E+01 -0.96849382576E+00 -0.17306816278E+02  0.72461643256E+02  0.70000095046E+02 0.  0.
         12    1    1    2    0    0  0.70860826221E+01  0.96849382576E+00  0.17306816278E+02  0.18726356744E+02  0.00000000000E+00 0. -1.
         11    1    3    3    0    0  0.18644899676E+01 -0.71777561233E+01 -0.15326244581E+02  0.17026164542E+02  0.51100000000E-03 0. -1.
        -11    1    3    3    0    0 -0.19055750682E+02  0.25352434817E+02 -0.84885339024E+01  0.32831734545E+02  0.51100000000E-03 0.  1.
        -12    1    3    3    0    0  0.10105178092E+02 -0.19143172519E+02  0.65079622057E+01  0.22603744169E+02  0.00000000000E+00 0.  1.
</event>
<event>
 7    1  0.1302069E-013  0.7246159E+02  0.7816164E-02  0.1226708E+00
        -11   -1    0    0    0    0  0.00000000000E+00  0.00000000000E+00  0.45593999997E+02  0.45594000000E+02  0.51100000000E-03 0.  1.
         11   -1    0    0    0    0 -0.00000000000E+00 -0.00000000000E+00 -0.45593999997E+02  0.45594000000E+02  0.51100000000E-03 0. -1.
    9900012    2    1    2    0    0 -0.10875068120E+02  0.13534620536E+02  0.70160758685E+01  0.72461591367E+02  0.70000027451E+02 0.  0.
         12    1    1    2    0    0  0.10875068120E+02 -0.13534620536E+02 -0.70160758685E+01  0.18726408633E+02  0.00000000000E+00 0. -1.
         11    1    3    3    0    0  0.13340618436E+01 -0.89075882717E+01  0.18879416336E+02  0.20917868229E+02  0.51100000000E-03 0. -1.
        -11    1    3    3    0    0 -0.24065972015E+02  0.16380606740E+02  0.55358695480E+01  0.29633446275E+02  0.51100000000E-03 0.  1.
         12    1    3    3    0    0  0.11856842051E+02  0.60616020676E+01 -0.17399210015E+02  0.21910276863E+02  0.00000000000E+00 0. -1.
</event>
<event>
 7    1  0.1302069E-013  0.7246156E+02  0.7816164E-02  0.1226708E+00
        -11   -1    0    0    0    0  0.00000000000E+00  0.00000000000E+00  0.45593999997E+02  0.45594000000E+02  0.51100000000E-03 0. -1.
         11   -1    0    0    0    0 -0.00000000000E+00 -0.00000000000E+00 -0.45593999997E+02  0.45594000000E+02  0.51100000000E-03 0.  1.
    9900012    2    1    2    0    0 -0.24198051446E+01 -0.17314879374E+02 -0.67096104461E+01  0.72461564754E+02  0.69999992783E+02 0.  0.
         12    1    1    2    0    0  0.24198051446E+01  0.17314879374E+02  0.67096104461E+01  0.18726435246E+02  0.00000000000E+00 0. -1.
         11    1    3    3    0    0 -0.30668808991E+02 -0.11739143125E+02  0.48856112589E+01  0.33200188612E+02  0.51100000000E-03 0. -1.
        -11    1    3    3    0    0  0.13977359303E+02 -0.82797653820E+01  0.51986718588E+01  0.17057176707E+02  0.51100000000E-03 0.  1.
         12    1    3    3    0    0  0.14271644543E+02  0.27040291331E+01 -0.16793893564E+02  0.22204199435E+02  0.00000000000E+00 0. -1.
</event>
<event>
 7    1  0.1302069E-013  0.7246153E+02  0.7816164E-02  0.1226708E+00
        -11   -1    0    0    0    0  0.00000000000E+00  0.00000000000E+00  0.45593999997E+02  0.45594000000E+02  0.51100000000E-03 0.  1.
         11   -1    0    0    0    0 -0.00000000000E+00 -0.00000000000E+00 -0.45593999997E+02  0.45594000000E+02  0.51100000000E-03 0. -1.
    9900012    2    1    2    0    0  0.13360976893E+02 -0.11714459132E+02 -0.59107017450E+01  0.72461530728E+02  0.69999948458E+02 0.  0.
         12    1    1    2    0    0 -0.13360976893E+02  0.11714459132E+02  0.59107017450E+01  0.18726469272E+02  0.00000000000E+00 0. -1.
         11    1    3    3    0    0  0.17035388335E+02  0.19025705382E+02  0.13323227337E+01  0.25572583075E+02  0.51100000000E-03 0. -1.
        -11    1    3    3    0    0 -0.16928850321E+02 -0.67128015832E+01  0.99484282868E+00  0.18238349454E+02  0.51100000000E-03 0.  1.
         12    1    3    3    0    0  0.13254438878E+02 -0.24027362931E+02 -0.82378673074E+01  0.28650598199E+02  0.00000000000E+00 0. -1.
</event>
<event>
 7    1  0.1302069E-013  0.7246157E+02  0.7816164E-02  0.1226708E+00
        -11   -1    0    0    0    0  0.00000000000E+00  0.00000000000E+00  0.45593999997E+02  0.45594000000E+02  0.51100000000E-03 0.  1.
         11   -1    0    0    0    0 -0.00000000000E+00 -0.00000000000E+00 -0.45593999997E+02  0.45594000000E+02  0.51100000000E-03 0. -1.
    9900012    2    1    2    0    0 -0.16570360626E+02 -0.50856611522E+01  0.70879141140E+01  0.72461566086E+02  0.69999994518E+02 0.  0.
         12    1    1    2    0    0  0.16570360626E+02  0.50856611522E+01 -0.70879141140E+01  0.18726433914E+02  0.00000000000E+00 0. -1.
         11    1    3    3    0    0 -0.28130634820E+02  0.69312801119E+01 -0.19588107166E+02  0.34972406293E+02  0.51100000000E-03 0. -1.
        -11    1    3    3    0    0  0.15921282842E+02 -0.38747841861E+01  0.12675829480E+02  0.20716608146E+02  0.51100000000E-03 0.  1.
         12    1    3    3    0    0 -0.43610086484E+01 -0.81421570780E+01  0.14000191800E+02  0.16772551647E+02  0.00000000000E+00 0. -1.
</event>
<event>
 7    1  0.1302069E-013  0.7246161E+02  0.7816164E-02  0.1226708E+00
        -11   -1    0    0    0    0  0.00000000000E+00  0.00000000000E+00  0.45593999997E+02  0.45594000000E+02  0.51100000000E-03 0.  1.
         11   -1    0    0    0    0 -0.00000000000E+00 -0.00000000000E+00 -0.45593999997E+02  0.45594000000E+02  0.51100000000E-03 0. -1.
    9900012    2    1    2    0    0  0.88255651959E+01  0.14289000697E+02  0.82832068807E+01  0.72461610648E+02  0.70000052568E+02 0.  0.
         12    1    1    2    0    0 -0.88255651959E+01 -0.14289000697E+02 -0.82832068807E+01  0.18726389352E+02  0.00000000000E+00 0. -1.
         11    1    3    3    0    0 -0.45890080885E+01 -0.22799231241E+01  0.26068188363E+02  0.26567037649E+02  0.51100000000E-03 0. -1.
        -11    1    3    3    0    0  0.63851655905E+01  0.26682702002E+02 -0.19214371525E+02  0.33495208599E+02  0.51100000000E-03 0.  1.
         12    1    3    3    0    0  0.70294076939E+01 -0.10113778181E+02  0.14293900428E+01  0.12399364400E+02  0.00000000000E+00 0. -1.
</event>
<event>
 7    1  0.1302069E-013  0.7246161E+02  0.7816164E-02  0.1226708E+00
        -11   -1    0    0    0    0  0.00000000000E+00  0.00000000000E+00  0.45593999997E+02  0.45594000000E+02  0.51100000000E-03 0. -1.
         11   -1    0    0    0    0 -0.00000000000E+00 -0.00000000000E+00 -0.45593999997E+02  0.45594000000E+02  0.51100000000E-03 0.  1.
    9900012    2    1    2    0    0 -0.60563813136E+01 -0.16975260023E+01 -0.17638492273E+02  0.72461607961E+02  0.70000049068E+02 0.  0.
         12    1    1    2    0    0  0.60563813136E+01  0.16975260023E+01  0.17638492273E+02  0.18726392039E+02  0.00000000000E+00 0. -1.
         11    1    3    3    0    0  0.20937402293E+02  0.18671785258E+02 -0.22552689155E+02  0.35994918640E+02  0.51100000000E-03 0.  1.
        -11    1    3    3    0    0 -0.19874042303E+02 -0.89458599260E+01  0.68992595107E+01  0.22860571938E+02  0.51100000000E-03 0. -1.
        -12    1    3    3    0    0 -0.71197413038E+01 -0.11423451334E+02 -0.19850626284E+01  0.13606117383E+02  0.00000000000E+00 0.  1.
</event>
<event>
 7    1  0.1302069E-013  0.7246155E+02  0.7816164E-02  0.1226708E+00
        -11   -1    0    0    0    0  0.00000000000E+00  0.00000000000E+00  0.45593999997E+02  0.45594000000E+02  0.51100000000E-03 0. -1.
         11   -1    0    0    0    0 -0.00000000000E+00 -0.00000000000E+00 -0.45593999997E+02  0.45594000000E+02  0.51100000000E-03 0.  1.
    9900012    2    1    2    0    0 -0.52064794124E+01 -0.16594785167E+02 -0.69415824535E+01  0.72461551069E+02  0.69999974956E+02 0.  0.
         12    1    1    2    0    0  0.52064794124E+01  0.16594785167E+02  0.69415824535E+01  0.18726448931E+02  0.00000000000E+00 0. -1.
         11    1    3    3    0    0  0.97474572945E+01 -0.22310110126E+02 -0.73455626311E+00  0.24357617098E+02  0.51100000000E-03 0. -1.
        -11    1    3    3    0    0  0.26706884722E+01  0.22043941677E+02  0.29331517276E+01  0.22398020468E+02  0.51100000000E-03 0.  1.
        -12    1    3    3    0    0 -0.17624625179E+02 -0.16328616718E+02 -0.91401779180E+01  0.25705913503E+02  0.00000000000E+00 0.  1.
</event>
<event>
 7    1  0.1302069E-013  0.7246161E+02  0.7816164E-02  0.1226708E+00
        -11   -1    0    0    0    0  0.00000000000E+00  0.00000000000E+00  0.45593999997E+02  0.45594000000E+02  0.51100000000E-03 0. -1.
         11   -1    0    0    0    0 -0.00000000000E+00 -0.00000000000E+00 -0.45593999997E+02  0.45594000000E+02  0.51100000000E-03 0.  1.
    9900012    2    1    2    0    0 -0.11155697256E+02  0.21279927075E+01 -0.14889587934E+02  0.72461607847E+02  0.70000048919E+02 0.  0.
         12    1    1    2    0    0  0.11155697256E+02 -0.21279927075E+01  0.14889587934E+02  0.18726392153E+02  0.00000000000E+00 0. -1.
         11    1    3    3    0    0  0.21951602177E+02  0.19823137165E+02 -0.16743966788E+02  0.33988086578E+02  0.51100000000E-03 0. -1.
        -11    1    3    3    0    0 -0.72489017793E+01 -0.10972375232E+01 -0.17454672456E+01  0.75363892784E+01  0.51100000000E-03 0.  1.
         12    1    3    3    0    0 -0.25858397654E+02 -0.16597906934E+02  0.35998460989E+01  0.30937131990E+02  0.00000000000E+00 0. -1.
</event>
<event>
 7    1  0.1302069E-013  0.7246157E+02  0.7816164E-02  0.1226708E+00
        -11   -1    0    0    0    0  0.00000000000E+00  0.00000000000E+00  0.45593999997E+02  0.45594000000E+02  0.51100000000E-03 0. -1.
         11   -1    0    0    0    0 -0.00000000000E+00 -0.00000000000E+00 -0.45593999997E+02  0.45594000000E+02  0.51100000000E-03 0.  1.
    9900012    2    1    2    0    0 -0.46732081082E+01 -0.15557681111E+02 -0.93165839739E+01  0.72461573419E+02  0.70000004070E+02 0.  0.
         12    1    1    2    0    0  0.46732081082E+01  0.15557681111E+02  0.93165839739E+01  0.18726426581E+02  0.00000000000E+00 0. -1.
         11    1    3    3    0    0 -0.10675555726E+02  0.62832775391E+01  0.26576298439E+02  0.29321437647E+02  0.51100000000E-03 0. -1.
        -11    1    3    3    0    0 -0.72590438668E+00 -0.65249915847E+01 -0.15010211649E+02  0.16383189750E+02  0.51100000000E-03 0.  1.
         12    1    3    3    0    0  0.67282520049E+01 -0.15315967065E+02 -0.20882670764E+02  0.26756946022E+02  0.00000000000E+00 0. -1.
</event>
<event>
 7    1  0.1302069E-013  0.7246152E+02  0.7816164E-02  0.1226708E+00
        -11   -1    0    0    0    0  0.00000000000E+00  0.00000000000E+00  0.45593999997E+02  0.45594000000E+02  0.51100000000E-03 0. -1.
         11   -1    0    0    0    0 -0.00000000000E+00 -0.00000000000E+00 -0.45593999997E+02  0.45594000000E+02  0.51100000000E-03 0.  1.
    9900012    2    1    2    0    0  0.89133344502E+01 -0.30480632908E+01 -0.16184651187E+02  0.72461517285E+02  0.69999930945E+02 0.  0.
         12    1    1    2    0    0 -0.89133344502E+01  0.30480632908E+01  0.16184651187E+02  0.18726482715E+02  0.00000000000E+00 0. -1.
         11    1    3    3    0    0 -0.86589304932E+01  0.15270872030E+02  0.20583806186E+02  0.27053090160E+02  0.51100000000E-03 0.  1.
        -11    1    3    3    0    0  0.14501828097E+02 -0.18141545238E+02 -0.29723659721E+02  0.37721540653E+02  0.51100000000E-03 0. -1.
        -12    1    3    3    0    0  0.30704368461E+01 -0.17739008266E+00 -0.70447976522E+01  0.76868864716E+01  0.00000000000E+00 0.  1.
</event>
<event>
 7    1  0.1302069E-013  0.7246156E+02  0.7816164E-02  0.1226708E+00
        -11   -1    0    0    0    0  0.00000000000E+00  0.00000000000E+00  0.45593999997E+02  0.45594000000E+02  0.51100000000E-03 0. -1.
         11   -1    0    0    0    0 -0.00000000000E+00 -0.00000000000E+00 -0.45593999997E+02  0.45594000000E+02  0.51100000000E-03 0.  1.
    9900012    2    1    2    0    0 -0.12667350605E+02 -0.58764836689E+01 -0.12477367696E+02  0.72461560501E+02  0.69999987243E+02 0.  0.
         12    1    1    2    0    0  0.12667350605E+02  0.58764836689E+01  0.12477367696E+02  0.18726439499E+02  0.00000000000E+00 0. -1.
         11    1    3    3    0    0 -0.71711895975E+01  0.12519395940E+02 -0.27980642407E+02  0.31481384733E+02  0.51100000000E-03 0.  1.
        -11    1    3    3    0    0  0.19055322904E+01  0.42949649339E+01  0.16435977295E+02  0.17094418007E+02  0.51100000000E-03 0. -1.
         12    1    3    3    0    0 -0.74016932981E+01 -0.22690844542E+02 -0.93270258423E+00  0.23885757761E+02  0.00000000000E+00 0. -1.
</event>
<event>
 7    1  0.1302069E-013  0.7246158E+02  0.7816164E-02  0.1226708E+00
        -11   -1    0    0    0    0  0.00000000000E+00  0.00000000000E+00  0.45593999997E+02  0.45594000000E+02  0.51100000000E-03 0.  1.
         11   -1    0    0    0    0 -0.00000000000E+00 -0.00000000000E+00 -0.45593999997E+02  0.45594000000E+02  0.51100000000E-03 0. -1.
    9900012    2    1    2    0    0  0.94404791845E+01 -0.42662851908E+01  0.15599833729E+02  0.72461584194E+02  0.70000018107E+02 0.  0.
         12    1    1    2    0    0 -0.94404791845E+01  0.42662851908E+01 -0.15599833729E+02  0.18726415806E+02  0.00000000000E+00 0. -1.
         11    1    3    3    0    0 -0.17168073702E+02  0.18740378763E+02  0.10013705343E+02  0.27317006530E+02  0.51100000000E-03 0.  1.
        -11    1    3    3    0    0  0.21892632315E+02 -0.22620788054E+02 -0.65187213835E+01  0.32147801334E+02  0.51100000000E-03 0. -1.
         12    1    3    3    0    0  0.47159205711E+01 -0.38587590020E+00  0.12104849769E+02  0.12996776330E+02  0.00000000000E+00 0. -1.
</event>
<event>
 7    1  0.1302069E-013  0.7246162E+02  0.7816164E-02  0.1226708E+00
        -11   -1    0    0    0    0  0.00000000000E+00  0.00000000000E+00  0.45593999997E+02  0.45594000000E+02  0.51100000000E-03 0.  1.
         11   -1    0    0    0    0 -0.00000000000E+00 -0.00000000000E+00 -0.45593999997E+02  0.45594000000E+02  0.51100000000E-03 0. -1.
    9900012    2    1    2    0    0 -0.16407484166E+02 -0.11115127343E+01  0.89574820418E+01  0.72461615358E+02  0.70000058704E+02 0.  0.
         12    1    1    2    0    0  0.16407484166E+02  0.11115127343E+01 -0.89574820418E+01  0.18726384642E+02  0.00000000000E+00 0. -1.
         11    1    3    3    0    0 -0.10106508960E+02  0.15645459402E+01 -0.99749966585E+00  0.10275423748E+02  0.51100000000E-03 0. -1.
        -11    1    3    3    0    0  0.89141164741E+01 -0.18207522102E+02 -0.17766138801E+02  0.26955723358E+02  0.51100000000E-03 0.  1.
        -12    1    3    3    0    0 -0.15215091680E+02  0.15531463428E+02  0.27721120508E+02  0.35230468252E+02  0.00000000000E+00 0.  1.
</event>
<event>
 7    1  0.1302069E-013  0.7246153E+02  0.7816164E-02  0.1226708E+00
        -11   -1    0    0    0    0  0.00000000000E+00  0.00000000000E+00  0.45593999997E+02  0.45594000000E+02  0.51100000000E-03 0.  1.
         11   -1    0    0    0    0 -0.00000000000E+00 -0.00000000000E+00 -0.45593999997E+02  0.45594000000E+02  0.51100000000E-03 0. -1.
    9900012    2    1    2    0    0  0.16169549188E+02 -0.19712957463E+01  0.92379818958E+01  0.72461531102E+02  0.69999948945E+02 0.  0.
         12    1    1    2    0    0 -0.16169549188E+02  0.19712957463E+01 -0.92379818958E+01  0.18726468898E+02  0.00000000000E+00 0. -1.
         11    1    3    3    0    0  0.15184416720E+02 -0.92089859693E+01  0.27604147728E+02  0.32823176351E+02  0.51100000000E-03 0.  1.
        -11    1    3    3    0    0 -0.13145430500E+02  0.46122030300E+01  0.26468562599E+01  0.14180289424E+02  0.51100000000E-03 0. -1.
         12    1    3    3    0    0  0.14130562968E+02  0.26254871930E+01 -0.21013022092E+02  0.25458065328E+02  0.00000000000E+00 0. -1.
</event>
<event>
 7    1  0.1302069E-013  0.7246160E+02  0.7816164E-02  0.1226708E+00
        -11   -1    0    0    0    0  0.00000000000E+00  0.00000000000E+00  0.45593999997E+02  0.45594000000E+02  0.51100000000E-03 0.  1.
         11   -1    0    0    0    0 -0.00000000000E+00 -0.00000000000E+00 -0.45593999997E+02  0.45594000000E+02  0.51100000000E-03 0. -1.
    9900012    2    1    2    0    0 -0.10008475832E+02 -0.12477314061E+02  0.97378096066E+01  0.72461604442E+02  0.70000044484E+02 0.  0.
         12    1    1    2    0    0  0.10008475832E+02  0.12477314061E+02 -0.97378096066E+01  0.18726395558E+02  0.00000000000E+00 0. -1.
         11    1    3    3    0    0  0.21214922727E+01 -0.70619153226E+01 -0.26084630907E+02  0.27106813669E+02  0.51100000000E-03 0. -1.
        -11    1    3    3    0    0 -0.17056539604E+01 -0.41887832511E+01  0.34477339550E+02  0.34772720677E+02  0.51100000000E-03 0.  1.
         12    1    3    3    0    0 -0.10424314144E+02 -0.12266154877E+01  0.13451009631E+01  0.10582070096E+02  0.00000000000E+00 0. -1.
</event>
<event>
 7    1  0.1302069E-013  0.7246162E+02  0.7816164E-02  0.1226708E+00
        -11   -1    0    0    0    0  0.00000000000E+00  0.00000000000E+00  0.45593999997E+02  0.45594000000E+02  0.51100000000E-03 0. -1.
         11   -1    0    0    0    0 -0.00000000000E+00 -0.00000000000E+00 -0.45593999997E+02  0.45594000000E+02  0.51100000000E-03 0.  1.
    9900012    2    1    2    0    0  0.56040493039E+01  0.39970972384E+01 -0.17415367940E+02  0.72461623004E+02  0.70000068664E+02 0.  0.
         12    1    1    2    0    0 -0.56040493039E+01 -0.39970972384E+01  0.17415367940E+02  0.18726376996E+02  0.00000000000E+00 0. -1.
         11    1    3    3    0    0 -0.12028709246E+02 -0.15660026605E+02 -0.28446178861E+02  0.34628187528E+02  0.51100000000E-03 0. -1.
        -11    1    3    3    0    0  0.65119701144E+01  0.22953895187E+02  0.37876780940E+01  0.24158509155E+02  0.51100000000E-03 0.  1.
         12    1    3    3    0    0  0.11120788436E+02 -0.32967713431E+01  0.72431328273E+01  0.13674926321E+02  0.00000000000E+00 0. -1.
</event>
<event>
 7    1  0.1302069E-013  0.7246151E+02  0.7816164E-02  0.1226708E+00
        -11   -1    0    0    0    0  0.00000000000E+00  0.00000000000E+00  0.45593999997E+02  0.45594000000E+02  0.51100000000E-03 0.  1.
         11   -1    0    0    0    0 -0.00000000000E+00 -0.00000000000E+00 -0.45593999997E+02  0.45594000000E+02  0.51100000000E-03 0. -1.
    9900012    2    1    2    0    0  0.29496033309E+01 -0.12215792989E+02  0.13883643714E+02  0.72461512851E+02  0.69999925169E+02 0.  0.
         12    1    1    2    0    0 -0.29496033309E+01  0.12215792989E+02 -0.13883643714E+02  0.18726487149E+02  0.00000000000E+00 0. -1.
         11    1    3    3    0    0  0.95260518931E+01 -0.27244827446E+02 -0.14275979238E+01  0.28897479533E+02  0.51100000000E-03 0. -1.
        -11    1    3    3    0    0 -0.74985418379E+01  0.20680881754E+02 -0.49167141442E+01  0.22541097534E+02  0.51100000000E-03 0.  1.
         12    1    3    3    0    0  0.92209327576E+00 -0.56518472961E+01  0.20227955782E+02  0.21022935784E+02  0.00000000000E+00 0. -1.
</event>
<event>
 7    1  0.1302069E-013  0.7246159E+02  0.7816164E-02  0.1226708E+00
        -11   -1    0    0    0    0  0.00000000000E+00  0.00000000000E+00  0.45593999997E+02  0.45594000000E+02  0.51100000000E-03 0.  1.
         11   -1    0    0    0    0 -0.00000000000E+00 -0.00000000000E+00 -0.45593999997E+02  0.45594000000E+02  0.51100000000E-03 0. -1.
    9900012    2    1    2    0    0 -0.13465853299E+02 -0.18651726396E+01  0.12879067557E+02  0.72461589367E+02  0.70000024846E+02 0.  0.
         12    1    1    2    0    0  0.13465853299E+02  0.18651726396E+01 -0.12879067557E+02  0.18726410633E+02  0.00000000000E+00 0. -1.
         11    1    3    3    0    0  0.75957394352E+01  0.33208889964E+01  0.25888649849E+02  0.27183556658E+02  0.51100000000E-03 0.  1.
        -11    1    3    3    0    0  0.58407747719E+01  0.98428942126E+01 -0.82223631520E+01  0.14092709906E+02  0.51100000000E-03 0. -1.
         12    1    3    3    0    0 -0.26902367506E+02 -0.15028955849E+02 -0.47872191398E+01  0.31185322804E+02  0.00000000000E+00 0. -1.
</event>
<event>
 8    1  0.1302069E-013  0.7246161E+02  0.7816164E-02  0.1226708E+00
        -11   -1    0    0    0    0  0.00000000000E+00  0.00000000000E+00  0.45593999997E+02  0.45594000000E+02  0.51100000000E-03 0. -1.
         11   -1    0    0    0    0 -0.00000000000E+00 -0.00000000000E+00 -0.45593999997E+02  0.45594000000E+02  0.51100000000E-03 0.  1.
    9900012    2    1    2    0    0 -0.55489892932E+00  0.17812860530E+02 -0.57507961178E+01  0.72461613026E+02  0.70000055666E+02 0.  0.
         24    2    3    3    0    0 -0.87351481568E+00 -0.32631587788E+01 -0.15879201860E+01  0.50976044794E+02  0.50839201596E+02 0.  0.
         12    1    1    2    0    0  0.55489892932E+00 -0.17812860530E+02  0.57507961178E+01  0.18726386974E+02  0.00000000000E+00 0. -1.
         11    1    3    3    0    0  0.31861588636E+00  0.21076019309E+02 -0.41628759318E+01  0.21485568233E+02  0.51100000000E-03 0. -1.
        -11    1    4    4    0    0 -0.18243008876E+02 -0.18730180582E+02  0.53857327372E+01  0.26695189733E+02  0.51100000000E-03 0.  1.
         12    1    4    4    0    0  0.17369494061E+02  0.15467021803E+02 -0.69736529233E+01  0.24280855061E+02  0.00000000000E+00 0. -1.
</event>
<event>
 7    1  0.1302069E-013  0.7246174E+02  0.7816164E-02  0.1226708E+00
        -11   -1    0    0    0    0  0.00000000000E+00  0.00000000000E+00  0.45593999997E+02  0.45594000000E+02  0.51100000000E-03 0.  1.
         11   -1    0    0    0    0 -0.00000000000E+00 -0.00000000000E+00 -0.45593999997E+02  0.45594000000E+02  0.51100000000E-03 0. -1.
    9900012    2    1    2    0    0  0.14809699728E+02 -0.59745800294E+01  0.97800912975E+01  0.72461735067E+02  0.70000214646E+02 0.  0.
         12    1    1    2    0    0 -0.14809699728E+02  0.59745800294E+01 -0.97800912975E+01  0.18726264933E+02  0.00000000000E+00 0. -1.
         11    1    3    3    0    0  0.76119306244E+01  0.17310168435E+02 -0.39289206542E+01  0.19313721465E+02  0.51100000000E-03 0. -1.
        -11    1    3    3    0    0  0.93411131684E+01 -0.21864086763E+01  0.26636494200E+02  0.28311474735E+02  0.51100000000E-03 0.  1.
        -12    1    3    3    0    0 -0.21433440646E+01 -0.21098339788E+02 -0.12927482248E+02  0.24836538866E+02  0.00000000000E+00 0.  1.
</event>
<event>
 7    1  0.1302069E-013  0.7246133E+02  0.7816164E-02  0.1226709E+00
        -11   -1    0    0    0    0  0.00000000000E+00  0.00000000000E+00  0.45593999997E+02  0.45594000000E+02  0.51100000000E-03 0. -1.
         11   -1    0    0    0    0 -0.00000000000E+00 -0.00000000000E+00 -0.45593999997E+02  0.45594000000E+02  0.51100000000E-03 0.  1.
    9900012    2    1    2    0    0 -0.77285526403E+01  0.15422531683E+02 -0.72872007905E+01  0.72461326382E+02  0.69999682258E+02 0.  0.
         12    1    1    2    0    0  0.77285526403E+01 -0.15422531683E+02  0.72872007905E+01  0.18726673618E+02  0.00000000000E+00 0. -1.
         11    1    3    3    0    0  0.21233515220E+02  0.16315259931E+02 -0.26911713741E+01  0.26912678775E+02  0.51100000000E-03 0. -1.
        -11    1    3    3    0    0 -0.27337646739E+02  0.10432552193E+02  0.60962703601E+01  0.29888954265E+02  0.51100000000E-03 0.  1.
         12    1    3    3    0    0 -0.16244211215E+01 -0.11325280441E+02 -0.10692299777E+02  0.15659693342E+02  0.00000000000E+00 0. -1.
</event>
<event>
 7    1  0.1302069E-013  0.7246177E+02  0.7816164E-02  0.1226707E+00
        -11   -1    0    0    0    0  0.00000000000E+00  0.00000000000E+00  0.45593999997E+02  0.45594000000E+02  0.51100000000E-03 0. -1.
         11   -1    0    0    0    0 -0.00000000000E+00 -0.00000000000E+00 -0.45593999997E+02  0.45594000000E+02  0.51100000000E-03 0.  1.
    9900012    2    1    2    0    0 -0.18021668117E+02 -0.18424537475E+01 -0.47430327606E+01  0.72461774612E+02  0.70000266161E+02 0.  0.
         12    1    1    2    0    0  0.18021668117E+02  0.18424537475E+01  0.47430327606E+01  0.18726225388E+02  0.00000000000E+00 0. -1.
         11    1    3    3    0    0  0.17317636034E+02  0.49583360768E+01 -0.14391351889E+02  0.23056379245E+02  0.51100000000E-03 0.  1.
        -11    1    3    3    0    0 -0.30291984739E+02 -0.68744299485E+01 -0.71419765218E+01  0.31872714906E+02  0.51100000000E-03 0. -1.
         12    1    3    3    0    0 -0.50473194119E+01  0.73640124194E-01  0.16790295650E+02  0.17532680460E+02  0.00000000000E+00 0. -1.
</event>
<event>
 7    1  0.1302069E-013  0.7246173E+02  0.7816164E-02  0.1226708E+00
        -11   -1    0    0    0    0  0.00000000000E+00  0.00000000000E+00  0.45593999997E+02  0.45594000000E+02  0.51100000000E-03 0. -1.
         11   -1    0    0    0    0 -0.00000000000E+00 -0.00000000000E+00 -0.45593999997E+02  0.45594000000E+02  0.51100000000E-03 0.  1.
    9900012    2    1    2    0    0  0.11175699135E+02  0.14762272135E+02 -0.28021789140E+01  0.72461731381E+02  0.70000209845E+02 0.  0.
         12    1    1    2    0    0 -0.11175699135E+02 -0.14762272135E+02  0.28021789140E+01  0.18726268619E+02  0.00000000000E+00 0. -1.
         11    1    3    3    0    0 -0.72949466267E+01  0.23097272618E+02  0.64581169817E+01  0.25068057840E+02  0.51100000000E-03 0. -1.
        -11    1    3    3    0    0  0.72100602082E+01 -0.21816957653E+02 -0.16609709572E+02  0.28352196772E+02  0.51100000000E-03 0.  1.
        -12    1    3    3    0    0  0.11260585553E+02  0.13481957170E+02  0.73494136768E+01  0.19041476769E+02  0.00000000000E+00 0.  1.
</event>
<event>
 7    1  0.1302069E-013  0.7246160E+02  0.7816164E-02  0.1226708E+00
        -11   -1    0    0    0    0  0.00000000000E+00  0.00000000000E+00  0.45593999997E+02  0.45594000000E+02  0.51100000000E-03 0. -1.
         11   -1    0    0    0    0 -0.00000000000E+00 -0.00000000000E+00 -0.45593999997E+02  0.45594000000E+02  0.51100000000E-03 0.  1.
    9900012    2    1    2    0    0  0.10286009659E+01  0.43420365305E+01 -0.18186997396E+02  0.72461596836E+02  0.70000034575E+02 0.  0.
         12    1    1    2    0    0 -0.10286009659E+01 -0.43420365305E+01  0.18186997396E+02  0.18726403164E+02  0.00000000000E+00 0. -1.
         11    1    3    3    0    0 -0.16909551465E+02 -0.80117156393E+01  0.14307214947E+02  0.23554551960E+02  0.51100000000E-03 0. -1.
        -11    1    3    3    0    0  0.13728835353E+02  0.12110383760E+02 -0.37877236795E+02  0.42069316401E+02  0.51100000000E-03 0.  1.
        -12    1    3    3    0    0  0.42093170782E+01  0.24336840995E+00  0.53830244521E+01  0.68377284752E+01  0.00000000000E+00 0.  1.
</event>
<event>
 7    1  0.1302069E-013  0.7246154E+02  0.7816164E-02  0.1226708E+00
        -11   -1    0    0    0    0  0.00000000000E+00  0.00000000000E+00  0.45593999997E+02  0.45594000000E+02  0.51100000000E-03 0.  1.
         11   -1    0    0    0    0 -0.00000000000E+00 -0.00000000000E+00 -0.45593999997E+02  0.45594000000E+02  0.51100000000E-03 0. -1.
    9900012    2    1    2    0    0  0.47401271981E+01 -0.87226656856E+01  0.15878499570E+02  0.72461536075E+02  0.69999955424E+02 0.  0.
         12    1    1    2    0    0 -0.47401271981E+01  0.87226656856E+01 -0.15878499570E+02  0.18726463925E+02  0.00000000000E+00 0. -1.
         11    1    3    3    0    0 -0.14708991265E+02  0.19205939902E+01  0.96368264898E+00  0.14865119906E+02  0.51100000000E-03 0. -1.
        -11    1    3    3    0    0  0.36418604069E+01 -0.29096220995E+02  0.15747906473E+02  0.33284377446E+02  0.51100000000E-03 0.  1.
        -12    1    3    3    0    0  0.15807258056E+02  0.18452961319E+02 -0.83308955138E+00  0.24312038724E+02  0.00000000000E+00 0.  1.
</event>
<event>
 7    1  0.1302069E-013  0.7246153E+02  0.7816164E-02  0.1226708E+00
        -11   -1    0    0    0    0  0.00000000000E+00  0.00000000000E+00  0.45593999997E+02  0.45594000000E+02  0.51100000000E-03 0.  1.
         11   -1    0    0    0    0 -0.00000000000E+00 -0.00000000000E+00 -0.45593999997E+02  0.45594000000E+02  0.51100000000E-03 0. -1.
    9900012    2    1    2    0    0 -0.17418224095E+02 -0.25097250561E+01  0.64021498262E+01  0.72461527484E+02  0.69999944231E+02 0.  0.
         12    1    1    2    0    0  0.17418224095E+02  0.25097250561E+01 -0.64021498262E+01  0.18726472516E+02  0.00000000000E+00 0. -1.
         11    1    3    3    0    0 -0.22543263908E+02 -0.55105601277E+01  0.28482980421E+02  0.36740239445E+02  0.51100000000E-03 0. -1.
        -11    1    3    3    0    0  0.67829493654E+01  0.11970007645E+02 -0.23139448689E+01  0.13951481149E+02  0.51100000000E-03 0.  1.
         12    1    3    3    0    0 -0.16579095531E+01 -0.89691725738E+01 -0.19766885726E+02  0.21769806890E+02  0.00000000000E+00 0. -1.
</event>
<event>
 7    1  0.1302069E-013  0.7246166E+02  0.7816164E-02  0.1226708E+00
        -11   -1    0    0    0    0  0.00000000000E+00  0.00000000000E+00  0.45593999997E+02  0.45594000000E+02  0.51100000000E-03 0.  1.
         11   -1    0    0    0    0 -0.00000000000E+00 -0.00000000000E+00 -0.45593999997E+02  0.45594000000E+02  0.51100000000E-03 0. -1.
    9900012    2    1    2    0    0 -0.13025197805E+02 -0.10575638554E+01  0.13412739263E+02  0.72461660430E+02  0.70000117418E+02 0.  0.
         12    1    1    2    0    0  0.13025197805E+02  0.10575638554E+01 -0.13412739263E+02  0.18726339570E+02  0.00000000000E+00 0. -1.
         11    1    3    3    0    0  0.46149245683E+01 -0.16037071562E+02 -0.17583953303E+02  0.24242124640E+02  0.51100000000E-03 0. -1.
        -11    1    3    3    0    0 -0.17492713785E+02  0.20497065304E+02  0.32766068286E+02  0.42423342075E+02  0.51100000000E-03 0.  1.
        -12    1    3    3    0    0 -0.14740858884E+00 -0.55175575978E+01 -0.17693757199E+01  0.57961937144E+01  0.00000000000E+00 0.  1.
</event>
<event>
 7    1  0.1302069E-013  0.7246156E+02  0.7816164E-02  0.1226708E+00
        -11   -1    0    0    0    0  0.00000000000E+00  0.00000000000E+00  0.45593999997E+02  0.45594000000E+02  0.51100000000E-03 0. -1.
         11   -1    0    0    0    0 -0.00000000000E+00 -0.00000000000E+00 -0.45593999997E+02  0.45594000000E+02  0.51100000000E-03 0.  1.
    9900012    2    1    2    0    0  0.10187206134E+02  0.79233564785E+01  0.13569111882E+02  0.72461560297E+02  0.69999986976E+02 0.  0.
         12    1    1    2    0    0 -0.10187206134E+02 -0.79233564785E+01 -0.13569111882E+02  0.18726439703E+02  0.00000000000E+00 0. -1.
         11    1    3    3    0    0  0.11227129307E+02 -0.28035549939E+02  0.39339976065E+00  0.30202570362E+02  0.51100000000E-03 0. -1.
        -11    1    3    3    0    0 -0.57861469577E+01  0.12175013058E+02 -0.20323321637E+01  0.13632344401E+02  0.51100000000E-03 0.  1.
         12    1    3    3    0    0  0.47462237846E+01  0.23783893359E+02  0.15208044285E+02  0.28626645534E+02  0.00000000000E+00 0. -1.
</event>
<event>
 7    1  0.1302069E-013  0.7246158E+02  0.7816164E-02  0.1226708E+00
        -11   -1    0    0    0    0  0.00000000000E+00  0.00000000000E+00  0.45593999997E+02  0.45594000000E+02  0.51100000000E-03 0.  1.
         11   -1    0    0    0    0 -0.00000000000E+00 -0.00000000000E+00 -0.45593999997E+02  0.45594000000E+02  0.51100000000E-03 0. -1.
    9900012    2    1    2    0    0 -0.15703684699E+02  0.30085312869E+01  0.97479238603E+01  0.72461575002E+02  0.70000006132E+02 0.  0.
         12    1    1    2    0    0  0.15703684699E+02 -0.30085312869E+01 -0.97479238603E+01  0.18726424998E+02  0.00000000000E+00 0. -1.
         11    1    3    3    0    0 -0.40203453302E+02  0.32392273595E+01  0.72471625165E+01  0.40979648804E+02  0.51100000000E-03 0. -1.
        -11    1    3    3    0    0  0.53368401156E+01  0.13521014145E+01  0.95326720015E+01  0.11008264005E+02  0.51100000000E-03 0.  1.
         12    1    3    3    0    0  0.19162928487E+02 -0.15827974871E+01 -0.70319106576E+01  0.20473662193E+02  0.00000000000E+00 0. -1.
</event>
<event>
 7    1  0.1302069E-013  0.7246157E+02  0.7816164E-02  0.1226708E+00
        -11   -1    0    0    0    0  0.00000000000E+00  0.00000000000E+00  0.45593999997E+02  0.45594000000E+02  0.51100000000E-03 0.  1.
         11   -1    0    0    0    0 -0.00000000000E+00 -0.00000000000E+00 -0.45593999997E+02  0.45594000000E+02  0.51100000000E-03 0. -1.
    9900012    2    1    2    0    0  0.98596867564E+01  0.68937444351E+01  0.14350674666E+02  0.72461574857E+02  0.70000005943E+02 0.  0.
         12    1    1    2    0    0 -0.98596867564E+01 -0.68937444351E+01 -0.14350674666E+02  0.18726425143E+02  0.00000000000E+00 0. -1.
         11    1    3    3    0    0 -0.61755791980E+01  0.41191077814E+01 -0.17323737886E+02  0.18847194007E+02  0.51100000000E-03 0. -1.
        -11    1    3    3    0    0  0.23611974892E+02  0.15860498175E+01  0.37250573013E+02  0.44132143641E+02  0.51100000000E-03 0.  1.
        -12    1    3    3    0    0 -0.75767089377E+01  0.11885868362E+01 -0.55761604611E+01  0.94822372086E+01  0.00000000000E+00 0.  1.
</event>
<event>
 7    1  0.1302069E-013  0.7246158E+02  0.7816164E-02  0.1226708E+00
        -11   -1    0    0    0    0  0.00000000000E+00  0.00000000000E+00  0.45593999997E+02  0.45594000000E+02  0.51100000000E-03 0.  1.
         11   -1    0    0    0    0 -0.00000000000E+00 -0.00000000000E+00 -0.45593999997E+02  0.45594000000E+02  0.51100000000E-03 0. -1.
    9900012    2    1    2    0    0 -0.44331934892E+01 -0.17289326753E+02 -0.56660945782E+01  0.72461584117E+02  0.70000018006E+02 0.  0.
         12    1    1    2    0    0  0.44331934892E+01  0.17289326753E+02  0.56660945782E+01  0.18726415883E+02  0.00000000000E+00 0. -1.
         11    1    3    3    0    0 -0.84734221837E+01  0.16727452377E+02 -0.82458510409E+01  0.20484155003E+02  0.51100000000E-03 0. -1.
        -11    1    3    3    0    0 -0.14440758294E+02 -0.17359356880E+02 -0.92826830316E+01  0.24414155237E+02  0.51100000000E-03 0.  1.
         12    1    3    3    0    0  0.18480986989E+02 -0.16657422250E+02  0.11862439494E+02  0.27563273877E+02  0.00000000000E+00 0. -1.
</event>
<event>
 7    1  0.1302069E-013  0.7246159E+02  0.7816164E-02  0.1226708E+00
        -11   -1    0    0    0    0  0.00000000000E+00  0.00000000000E+00  0.45593999997E+02  0.45594000000E+02  0.51100000000E-03 0. -1.
         11   -1    0    0    0    0 -0.00000000000E+00 -0.00000000000E+00 -0.45593999997E+02  0.45594000000E+02  0.51100000000E-03 0.  1.
    9900012    2    1    2    0    0 -0.10253153164E+02  0.15356705796E+02 -0.31181582386E+01  0.72461588878E+02  0.70000024209E+02 0.  0.
         12    1    1    2    0    0  0.10253153164E+02 -0.15356705796E+02  0.31181582386E+01  0.18726411122E+02  0.00000000000E+00 0. -1.
         11    1    3    3    0    0  0.15580669959E+02  0.21516994801E+02 -0.15560128148E+02  0.30787268958E+02  0.51100000000E-03 0. -1.
        -11    1    3    3    0    0 -0.30864667072E+02  0.21138941474E+00  0.63184298076E+01  0.31505474356E+02  0.51100000000E-03 0.  1.
         12    1    3    3    0    0  0.50308439490E+01 -0.63716784194E+01  0.61235401020E+01  0.10168845564E+02  0.00000000000E+00 0. -1.
</event>
<event>
 7    1  0.1302069E-013  0.7246180E+02  0.7816164E-02  0.1226707E+00
        -11   -1    0    0    0    0  0.00000000000E+00  0.00000000000E+00  0.45593999997E+02  0.45594000000E+02  0.51100000000E-03 0.  1.
         11   -1    0    0    0    0 -0.00000000000E+00 -0.00000000000E+00 -0.45593999997E+02  0.45594000000E+02  0.51100000000E-03 0. -1.
    9900012    2    1    2    0    0 -0.12792322443E+02  0.97209729925E+01 -0.96192305703E+01  0.72461803745E+02  0.70000304113E+02 0.  0.
         12    1    1    2    0    0  0.12792322443E+02 -0.97209729925E+01  0.96192305703E+01  0.18726196255E+02  0.00000000000E+00 0. -1.
         11    1    3    3    0    0 -0.22056177229E+02  0.22237557781E+02 -0.22454438988E+02  0.38538107900E+02  0.51100000000E-03 0. -1.
        -11    1    3    3    0    0  0.14688624697E+02 -0.14565577764E+02  0.96000768011E+00  0.20708292206E+02  0.51100000000E-03 0.  1.
        -12    1    3    3    0    0 -0.54247699108E+01  0.20489929754E+01  0.11875200737E+02  0.13215403639E+02  0.00000000000E+00 0.  1.
</event>
<event>
 7    1  0.1302069E-013  0.7246158E+02  0.7816164E-02  0.1226708E+00
        -11   -1    0    0    0    0  0.00000000000E+00  0.00000000000E+00  0.45593999997E+02  0.45594000000E+02  0.51100000000E-03 0. -1.
         11   -1    0    0    0    0 -0.00000000000E+00 -0.00000000000E+00 -0.45593999997E+02  0.45594000000E+02  0.51100000000E-03 0.  1.
    9900012    2    1    2    0    0  0.74963854143E+01 -0.14260215172E+02  0.95461701626E+01  0.72461577602E+02  0.70000009520E+02 0.  0.
         12    1    1    2    0    0 -0.74963854143E+01  0.14260215172E+02 -0.95461701626E+01  0.18726422398E+02  0.00000000000E+00 0. -1.
         11    1    3    3    0    0  0.14992601271E+02 -0.88383877063E+01  0.31075939603E+02  0.35617540799E+02  0.51100000000E-03 0. -1.
        -11    1    3    3    0    0 -0.13092878093E+02  0.52911653547E+01 -0.25613780792E+01  0.14352022349E+02  0.51100000000E-03 0.  1.
         12    1    3    3    0    0  0.55966622361E+01 -0.10712992821E+02 -0.18968391361E+02  0.22492014454E+02  0.00000000000E+00 0. -1.
</event>
<event>
 7    1  0.1302069E-013  0.7246151E+02  0.7816164E-02  0.1226708E+00
        -11   -1    0    0    0    0  0.00000000000E+00  0.00000000000E+00  0.45593999997E+02  0.45594000000E+02  0.51100000000E-03 0.  1.
         11   -1    0    0    0    0 -0.00000000000E+00 -0.00000000000E+00 -0.45593999997E+02  0.45594000000E+02  0.51100000000E-03 0. -1.
    9900012    2    1    2    0    0  0.65095411341E+01 -0.17016797306E+02  0.43284857455E+01  0.72461513272E+02  0.69999925718E+02 0.  0.
         12    1    1    2    0    0 -0.65095411341E+01  0.17016797306E+02 -0.43284857455E+01  0.18726486728E+02  0.00000000000E+00 0. -1.
         11    1    3    3    0    0 -0.59790951068E+01 -0.26489349352E+02  0.23750775960E+02  0.36076787084E+02  0.51100000000E-03 0. -1.
        -11    1    3    3    0    0  0.14599923074E+02 -0.54818006545E+01 -0.11087815810E+02  0.19134982411E+02  0.51100000000E-03 0.  1.
         12    1    3    3    0    0 -0.21112868328E+01  0.14954352700E+02 -0.83344744042E+01  0.17249743777E+02  0.00000000000E+00 0. -1.
</event>
<event>
 7    1  0.1302069E-013  0.7246191E+02  0.7816164E-02  0.1226707E+00
        -11   -1    0    0    0    0  0.00000000000E+00  0.00000000000E+00  0.45593999997E+02  0.45594000000E+02  0.51100000000E-03 0. -1.
         11   -1    0    0    0    0 -0.00000000000E+00 -0.00000000000E+00 -0.45593999997E+02  0.45594000000E+02  0.51100000000E-03 0.  1.
    9900012    2    1    2    0    0 -0.10387369792E+02 -0.63613279315E+01 -0.14223314726E+02  0.72461905211E+02  0.70000436290E+02 0.  0.
         12    1    1    2    0    0  0.10387369792E+02  0.63613279315E+01  0.14223314726E+02  0.18726094789E+02  0.00000000000E+00 0. -1.
         11    1    3    3    0    0  0.21145403196E+01 -0.45492513208E+01  0.56032776341E+01  0.75208835152E+01  0.51100000000E-03 0. -1.
        -11    1    3    3    0    0 -0.12485718013E+02 -0.27909758140E+02 -0.23530908992E+02  0.38581749986E+02  0.51100000000E-03 0.  1.
        -12    1    3    3    0    0 -0.16192099177E-01  0.26097681529E+02  0.37043166319E+01  0.26359271710E+02  0.00000000000E+00 0.  1.
</event>
<event>
 7    1  0.1302069E-013  0.7246157E+02  0.7816164E-02  0.1226708E+00
        -11   -1    0    0    0    0  0.00000000000E+00  0.00000000000E+00  0.45593999997E+02  0.45594000000E+02  0.51100000000E-03 0.  1.
         11   -1    0    0    0    0 -0.00000000000E+00 -0.00000000000E+00 -0.45593999997E+02  0.45594000000E+02  0.51100000000E-03 0. -1.
    9900012    2    1    2    0    0 -0.55748577550E+01  0.61713472919E+01  0.16778401816E+02  0.72461565905E+02  0.69999994283E+02 0.  0.
         12    1    1    2    0    0  0.55748577550E+01 -0.61713472919E+01 -0.16778401816E+02  0.18726434095E+02  0.00000000000E+00 0. -1.
         11    1    3    3    0    0 -0.30387257628E+02  0.10155733816E+02  0.28125770564E+02  0.42633124746E+02  0.51100000000E-03 0.  1.
        -11    1    3    3    0    0  0.25586052545E+02 -0.23513094192E+01 -0.99869535679E+01  0.27566537371E+02  0.51100000000E-03 0. -1.
         12    1    3    3    0    0 -0.77365267197E+00 -0.16330771050E+01 -0.13604151799E+01  0.22619037887E+01  0.00000000000E+00 0. -1.
</event>
<event>
 7    1  0.1302069E-013  0.7246157E+02  0.7816164E-02  0.1226708E+00
        -11   -1    0    0    0    0  0.00000000000E+00  0.00000000000E+00  0.45593999997E+02  0.45594000000E+02  0.51100000000E-03 0.  1.
         11   -1    0    0    0    0 -0.00000000000E+00 -0.00000000000E+00 -0.45593999997E+02  0.45594000000E+02  0.51100000000E-03 0. -1.
    9900012    2    1    2    0    0 -0.89464843882E+01 -0.15820681314E+02  0.45106083982E+01  0.72461571395E+02  0.70000001434E+02 0.  0.
         12    1    1    2    0    0  0.89464843882E+01  0.15820681314E+02 -0.45106083982E+01  0.18726428605E+02  0.00000000000E+00 0. -1.
         11    1    3    3    0    0  0.10695749576E+02  0.94692343244E+01 -0.16427727418E+02  0.21770063989E+02  0.51100000000E-03 0. -1.
        -11    1    3    3    0    0 -0.93115040459E+01 -0.16814951159E+02  0.29217002367E+02  0.34972559495E+02  0.51100000000E-03 0.  1.
        -12    1    3    3    0    0 -0.10330729918E+02 -0.84749644803E+01 -0.82786665504E+01  0.15718947911E+02  0.00000000000E+00 0.  1.
</event>
<event>
 7    1  0.1302069E-013  0.7246154E+02  0.7816164E-02  0.1226708E+00
        -11   -1    0    0    0    0  0.00000000000E+00  0.00000000000E+00  0.45593999997E+02  0.45594000000E+02  0.51100000000E-03 0. -1.
         11   -1    0    0    0    0 -0.00000000000E+00 -0.00000000000E+00 -0.45593999997E+02  0.45594000000E+02  0.51100000000E-03 0.  1.
    9900012    2    1    2    0    0  0.34058802761E+01  0.90301030208E+01 -0.16047978363E+02  0.72461537693E+02  0.69999957530E+02 0.  0.
         12    1    1    2    0    0 -0.34058802761E+01 -0.90301030208E+01  0.16047978363E+02  0.18726462307E+02  0.00000000000E+00 0. -1.
         11    1    3    3    0    0  0.27270118298E+02  0.66051716878E+01  0.95915356314E+01  0.29652743567E+02  0.51100000000E-03 0. -1.
        -11    1    3    3    0    0 -0.57304953982E+00 -0.33033653728E+01 -0.16980583832E+02  0.17308403627E+02  0.51100000000E-03 0.  1.
         12    1    3    3    0    0 -0.23291188482E+02  0.57282967057E+01 -0.86589301621E+01  0.25500390499E+02  0.00000000000E+00 0. -1.
</event>
<event>
 7    1  0.1302069E-013  0.7246158E+02  0.7816164E-02  0.1226708E+00
        -11   -1    0    0    0    0  0.00000000000E+00  0.00000000000E+00  0.45593999997E+02  0.45594000000E+02  0.51100000000E-03 0. -1.
         11   -1    0    0    0    0 -0.00000000000E+00 -0.00000000000E+00 -0.45593999997E+02  0.45594000000E+02  0.51100000000E-03 0.  1.
    9900012    2    1    2    0    0  0.15255191572E+02  0.93708210147E+01 -0.54904958256E+01  0.72461582809E+02  0.70000016303E+02 0.  0.
         12    1    1    2    0    0 -0.15255191572E+02 -0.93708210147E+01  0.54904958256E+01  0.18726417191E+02  0.00000000000E+00 0. -1.
         11    1    3    3    0    0  0.16682929552E+02 -0.20941798827E+02  0.14424513243E+01  0.26813424672E+02  0.51100000000E-03 0.  1.
        -11    1    3    3    0    0  0.60443525399E+01  0.32592444283E+02  0.26855916719E+01  0.33256789154E+02  0.51100000000E-03 0. -1.
        -12    1    3    3    0    0 -0.74720905196E+01 -0.22798244413E+01 -0.96185388218E+01  0.12391368983E+02  0.00000000000E+00 0.  1.
</event>
<event>
 7    1  0.1302069E-013  0.7246155E+02  0.7816164E-02  0.1226708E+00
        -11   -1    0    0    0    0  0.00000000000E+00  0.00000000000E+00  0.45593999997E+02  0.45594000000E+02  0.51100000000E-03 0.  1.
         11   -1    0    0    0    0 -0.00000000000E+00 -0.00000000000E+00 -0.45593999997E+02  0.45594000000E+02  0.51100000000E-03 0. -1.
    9900012    2    1    2    0    0  0.59293827860E+01 -0.53350972038E+01  0.16942815480E+02  0.72461552425E+02  0.69999976722E+02 0.  0.
         12    1    1    2    0    0 -0.59293827860E+01  0.53350972038E+01 -0.16942815480E+02  0.18726447575E+02  0.00000000000E+00 0. -1.
         11    1    3    3    0    0  0.42972743611E+01  0.14088115018E+00 -0.17028993709E+02  0.17563400622E+02  0.51100000000E-03 0. -1.
        -11    1    3    3    0    0  0.58089275892E+01 -0.22120701497E+02  0.29191769070E+02  0.37084072810E+02  0.51100000000E-03 0.  1.
        -12    1    3    3    0    0 -0.41768191643E+01  0.16644723143E+02  0.47800401181E+01  0.17814078993E+02  0.00000000000E+00 0.  1.
</event>
<event>
 7    1  0.1302069E-013  0.7246157E+02  0.7816164E-02  0.1226708E+00
        -11   -1    0    0    0    0  0.00000000000E+00  0.00000000000E+00  0.45593999997E+02  0.45594000000E+02  0.51100000000E-03 0.  1.
         11   -1    0    0    0    0 -0.00000000000E+00 -0.00000000000E+00 -0.45593999997E+02  0.45594000000E+02  0.51100000000E-03 0. -1.
    9900012    2    1    2    0    0  0.33232143708E+01 -0.49911161271E+00  0.18422438563E+02  0.72461571917E+02  0.70000002114E+02 0.  0.
         12    1    1    2    0    0 -0.33232143708E+01  0.49911161271E+00 -0.18422438563E+02  0.18726428083E+02  0.00000000000E+00 0. -1.
         11    1    3    3    0    0 -0.25324084674E+02  0.69236184055E+01 -0.66184308032E+01  0.27074884726E+02  0.51100000000E-03 0. -1.
        -11    1    3    3    0    0  0.32102350983E+02 -0.86594018203E+01  0.25189470701E+02  0.41713973834E+02  0.51100000000E-03 0.  1.
        -12    1    3    3    0    0 -0.34550519388E+01  0.12366718020E+01 -0.14860133497E+00  0.36727133569E+01  0.00000000000E+00 0.  1.
</event>
<event>
 7    1  0.1302069E-013  0.7246153E+02  0.7816164E-02  0.1226708E+00
        -11   -1    0    0    0    0  0.00000000000E+00  0.00000000000E+00  0.45593999997E+02  0.45594000000E+02  0.51100000000E-03 0.  1.
         11   -1    0    0    0    0 -0.00000000000E+00 -0.00000000000E+00 -0.45593999997E+02  0.45594000000E+02  0.51100000000E-03 0. -1.
    9900012    2    1    2    0    0 -0.26784891618E+01  0.28205249782E+01  0.18318049957E+02  0.72461531578E+02  0.69999949564E+02 0.  0.
         12    1    1    2    0    0  0.26784891618E+01 -0.28205249782E+01 -0.18318049957E+02  0.18726468422E+02  0.00000000000E+00 0. -1.
         11    1    3    3    0    0  0.30471439124E+02 -0.86682147299E+00  0.11344873347E+02  0.32526391335E+02  0.51100000000E-03 0. -1.
        -11    1    3    3    0    0 -0.10746523962E+02 -0.63573659898E+01 -0.39028437036E+01  0.13081898518E+02  0.51100000000E-03 0.  1.
         12    1    3    3    0    0 -0.22403404323E+02  0.10044712441E+02  0.10876020314E+02  0.26853241725E+02  0.00000000000E+00 0. -1.
</event>
<event>
 7    1  0.1302069E-013  0.7246163E+02  0.7816164E-02  0.1226708E+00
        -11   -1    0    0    0    0  0.00000000000E+00  0.00000000000E+00  0.45593999997E+02  0.45594000000E+02  0.51100000000E-03 0.  1.
         11   -1    0    0    0    0 -0.00000000000E+00 -0.00000000000E+00 -0.45593999997E+02  0.45594000000E+02  0.51100000000E-03 0. -1.
    9900012    2    1    2    0    0 -0.11744806490E+02 -0.13068044706E+02  0.64778684742E+01  0.72461626835E+02  0.70000073655E+02 0.  0.
         12    1    1    2    0    0  0.11744806490E+02  0.13068044706E+02 -0.64778684742E+01  0.18726373165E+02  0.00000000000E+00 0. -1.
         11    1    3    3    0    0 -0.18789564240E+02  0.95294590582E+01 -0.10577690167E+02  0.23574262317E+02  0.51100000000E-03 0. -1.
        -11    1    3    3    0    0  0.18357024597E+02 -0.17979464804E+02  0.23719781008E+02  0.34969551299E+02  0.51100000000E-03 0.  1.
        -12    1    3    3    0    0 -0.11312266847E+02 -0.46180389600E+01 -0.66642223678E+01  0.13917813220E+02  0.00000000000E+00 0.  1.
</event>
<event>
 7    1  0.1302069E-013  0.7246157E+02  0.7816164E-02  0.1226708E+00
        -11   -1    0    0    0    0  0.00000000000E+00  0.00000000000E+00  0.45593999997E+02  0.45594000000E+02  0.51100000000E-03 0. -1.
         11   -1    0    0    0    0 -0.00000000000E+00 -0.00000000000E+00 -0.45593999997E+02  0.45594000000E+02  0.51100000000E-03 0.  1.
    9900012    2    1    2    0    0 -0.23177511257E+00  0.44542321274E+01 -0.18187498360E+02  0.72461574817E+02  0.70000005891E+02 0.  0.
         12    1    1    2    0    0  0.23177511257E+00 -0.44542321274E+01  0.18187498360E+02  0.18726425183E+02  0.00000000000E+00 0. -1.
         11    1    3    3    0    0 -0.20431625025E+01 -0.24657788028E+02 -0.70851692070E+01  0.25736756719E+02  0.51100000000E-03 0. -1.
        -11    1    3    3    0    0  0.15870314368E+02  0.10146992434E+02 -0.13234019021E+02  0.23021025027E+02  0.51100000000E-03 0.  1.
        -12    1    3    3    0    0 -0.14058926978E+02  0.18965027722E+02  0.21316898681E+01  0.23703793071E+02  0.00000000000E+00 0.  1.
</event>
<event>
 7    1  0.1302069E-013  0.7246155E+02  0.7816164E-02  0.1226708E+00
        -11   -1    0    0    0    0  0.00000000000E+00  0.00000000000E+00  0.45593999997E+02  0.45594000000E+02  0.51100000000E-03 0.  1.
         11   -1    0    0    0    0 -0.00000000000E+00 -0.00000000000E+00 -0.45593999997E+02  0.45594000000E+02  0.51100000000E-03 0. -1.
    9900012    2    1    2    0    0 -0.86538135757E+01 -0.64010324249E+01  0.15323778687E+02  0.72461550823E+02  0.69999974636E+02 0.  0.
         12    1    1    2    0    0  0.86538135757E+01  0.64010324249E+01 -0.15323778687E+02  0.18726449177E+02  0.00000000000E+00 0. -1.
         11    1    3    3    0    0 -0.13567289250E+02 -0.87508355239E+01 -0.57609678778E+01  0.17141680522E+02  0.51100000000E-03 0. -1.
        -11    1    3    3    0    0  0.37225293077E+01 -0.27416399713E+01  0.37658306607E+02  0.37941031495E+02  0.51100000000E-03 0.  1.
        -12    1    3    3    0    0  0.11909463671E+01  0.50914430703E+01 -0.16573560042E+02  0.17378838806E+02  0.00000000000E+00 0.  1.
</event>
<event>
 7    1  0.1302069E-013  0.7246158E+02  0.7816164E-02  0.1226708E+00
        -11   -1    0    0    0    0  0.00000000000E+00  0.00000000000E+00  0.45593999997E+02  0.45594000000E+02  0.51100000000E-03 0.  1.
         11   -1    0    0    0    0 -0.00000000000E+00 -0.00000000000E+00 -0.45593999997E+02  0.45594000000E+02  0.51100000000E-03 0. -1.
    9900012    2    1    2    0    0  0.31650137458E+01 -0.17801114379E+02  0.48766632425E+01  0.72461579373E+02  0.70000011826E+02 0.  0.
         12    1    1    2    0    0 -0.31650137458E+01  0.17801114379E+02 -0.48766632425E+01  0.18726420627E+02  0.00000000000E+00 0. -1.
         11    1    3    3    0    0 -0.98402769406E+01 -0.35718637294E+02 -0.12425875973E+02  0.39077544631E+02  0.51100000000E-03 0. -1.
        -11    1    3    3    0    0  0.11867513526E+02  0.27380105620E+01  0.31055354669E+01  0.12568966939E+02  0.51100000000E-03 0.  1.
         12    1    3    3    0    0  0.11377771605E+01  0.15179512354E+02  0.14197003749E+02  0.20815067802E+02  0.00000000000E+00 0. -1.
</event>
<event>
 7    1  0.1302069E-013  0.7246157E+02  0.7816164E-02  0.1226708E+00
        -11   -1    0    0    0    0  0.00000000000E+00  0.00000000000E+00  0.45593999997E+02  0.45594000000E+02  0.51100000000E-03 0. -1.
         11   -1    0    0    0    0 -0.00000000000E+00 -0.00000000000E+00 -0.45593999997E+02  0.45594000000E+02  0.51100000000E-03 0.  1.
    9900012    2    1    2    0    0  0.62360202137E+01  0.19544199835E+01 -0.17549116090E+02  0.72461569984E+02  0.69999999596E+02 0.  0.
         12    1    1    2    0    0 -0.62360202137E+01 -0.19544199835E+01  0.17549116090E+02  0.18726430016E+02  0.00000000000E+00 0. -1.
         11    1    3    3    0    0 -0.15492460785E+02 -0.26880388124E+02 -0.86059989767E+01  0.32196813903E+02  0.51100000000E-03 0. -1.
        -11    1    3    3    0    0  0.15672666970E+02  0.22029501102E+02 -0.13342033096E+02  0.30148652642E+02  0.51100000000E-03 0.  1.
        -12    1    3    3    0    0  0.60558140280E+01  0.68053070055E+01  0.43989159821E+01  0.10116103440E+02  0.00000000000E+00 0.  1.
</event>
<event>
 7    1  0.1302069E-013  0.7246163E+02  0.7816164E-02  0.1226708E+00
        -11   -1    0    0    0    0  0.00000000000E+00  0.00000000000E+00  0.45593999997E+02  0.45594000000E+02  0.51100000000E-03 0. -1.
         11   -1    0    0    0    0 -0.00000000000E+00 -0.00000000000E+00 -0.45593999997E+02  0.45594000000E+02  0.51100000000E-03 0.  1.
    9900012    2    1    2    0    0  0.14147395542E+02 -0.12094580298E+02 -0.20613681286E+01  0.72461630576E+02  0.70000078529E+02 0.  0.
         12    1    1    2    0    0 -0.14147395542E+02  0.12094580298E+02  0.20613681286E+01  0.18726369424E+02  0.00000000000E+00 0. -1.
         11    1    3    3    0    0 -0.17369585317E+02 -0.43227306475E+01  0.20270308457E+02  0.27042076465E+02  0.51100000000E-03 0. -1.
        -11    1    3    3    0    0  0.21436408568E+02 -0.19236748138E+01 -0.15314374672E+01  0.21576965451E+02  0.51100000000E-03 0.  1.
         12    1    3    3    0    0  0.10080572291E+02 -0.58481748370E+01 -0.20800239119E+02  0.23842588660E+02  0.00000000000E+00 0. -1.
</event>
<event>
 7    1  0.1302069E-013  0.7246155E+02  0.7816164E-02  0.1226708E+00
        -11   -1    0    0    0    0  0.00000000000E+00  0.00000000000E+00  0.45593999997E+02  0.45594000000E+02  0.51100000000E-03 0. -1.
         11   -1    0    0    0    0 -0.00000000000E+00 -0.00000000000E+00 -0.45593999997E+02  0.45594000000E+02  0.51100000000E-03 0.  1.
    9900012    2    1    2    0    0  0.14356683000E+02 -0.44829700609E+01 -0.11156549316E+02  0.72461549189E+02  0.69999972506E+02 0.  0.
         12    1    1    2    0    0 -0.14356683000E+02  0.44829700609E+01  0.11156549316E+02  0.18726450811E+02  0.00000000000E+00 0. -1.
         11    1    3    3    0    0 -0.44926413092E+01 -0.10316628630E+02  0.17649602994E+01  0.11389984080E+02  0.51100000000E-03 0. -1.
        -11    1    3    3    0    0  0.29225972928E+02  0.37803502242E+01  0.13646105645E+02  0.32475602241E+02  0.51100000000E-03 0.  1.
        -12    1    3    3    0    0 -0.10376648618E+02  0.20533083447E+01 -0.26567615260E+02  0.28595962868E+02  0.00000000000E+00 0.  1.
</event>
<event>
 7    1  0.1302069E-013  0.7246155E+02  0.7816164E-02  0.1226708E+00
        -11   -1    0    0    0    0  0.00000000000E+00  0.00000000000E+00  0.45593999997E+02  0.45594000000E+02  0.51100000000E-03 0. -1.
         11   -1    0    0    0    0 -0.00000000000E+00 -0.00000000000E+00 -0.45593999997E+02  0.45594000000E+02  0.51100000000E-03 0.  1.
    9900012    2    1    2    0    0 -0.45403882993E+01 -0.13765506465E+02  0.11856458259E+02  0.72461550881E+02  0.69999974711E+02 0.  0.
         12    1    1    2    0    0  0.45403882993E+01  0.13765506465E+02 -0.11856458259E+02  0.18726449119E+02  0.00000000000E+00 0. -1.
         11    1    3    3    0    0  0.52964057850E+01 -0.17227520816E+01  0.14214992099E+02  0.15267147396E+02  0.51100000000E-03 0. -1.
        -11    1    3    3    0    0  0.94223069029E+01  0.12781454511E+00 -0.23992601443E+02  0.25776755579E+02  0.51100000000E-03 0.  1.
        -12    1    3    3    0    0 -0.19259100987E+02 -0.12170568929E+02  0.21634067603E+02  0.31417647906E+02  0.00000000000E+00 0.  1.
</event>
<event>
 7    1  0.1302069E-013  0.7246168E+02  0.7816164E-02  0.1226708E+00
        -11   -1    0    0    0    0  0.00000000000E+00  0.00000000000E+00  0.45593999997E+02  0.45594000000E+02  0.51100000000E-03 0.  1.
         11   -1    0    0    0    0 -0.00000000000E+00 -0.00000000000E+00 -0.45593999997E+02  0.45594000000E+02  0.51100000000E-03 0. -1.
    9900012    2    1    2    0    0  0.80284849845E+01  0.13912101885E+02 -0.96266280064E+01  0.72461678504E+02  0.70000140962E+02 0.  0.
         12    1    1    2    0    0 -0.80284849845E+01 -0.13912101885E+02  0.96266280064E+01  0.18726321496E+02  0.00000000000E+00 0. -1.
         11    1    3    3    0    0  0.60724326507E+01  0.69673595552E+01 -0.34804118748E+02  0.36010348784E+02  0.51100000000E-03 0. -1.
        -11    1    3    3    0    0 -0.70868052561E+01 -0.62443133193E+01  0.14200887799E+02  0.17055189009E+02  0.51100000000E-03 0.  1.
        -12    1    3    3    0    0  0.90428575899E+01  0.13189055649E+02  0.10976602942E+02  0.19396140711E+02  0.00000000000E+00 0.  1.
</event>
<event>
 7    1  0.1302069E-013  0.7246157E+02  0.7816164E-02  0.1226708E+00
        -11   -1    0    0    0    0  0.00000000000E+00  0.00000000000E+00  0.45593999997E+02  0.45594000000E+02  0.51100000000E-03 0.  1.
         11   -1    0    0    0    0 -0.00000000000E+00 -0.00000000000E+00 -0.45593999997E+02  0.45594000000E+02  0.51100000000E-03 0. -1.
    9900012    2    1    2    0    0  0.94227120425E+00 -0.14024913090E+02  0.12373076129E+02  0.72461572816E+02  0.70000003284E+02 0.  0.
         12    1    1    2    0    0 -0.94227120425E+00  0.14024913090E+02 -0.12373076129E+02  0.18726427184E+02  0.00000000000E+00 0. -1.
         11    1    3    3    0    0 -0.10322157888E+02 -0.25015289436E+02 -0.21693367035E+02  0.34683048058E+02  0.51100000000E-03 0. -1.
        -11    1    3    3    0    0  0.32718959438E+01  0.38399210358E+01  0.67083668318E+01  0.83935977054E+01  0.51100000000E-03 0.  1.
         12    1    3    3    0    0  0.79925331488E+01  0.71504553102E+01  0.27358076332E+02  0.29384927052E+02  0.00000000000E+00 0. -1.
</event>
<event>
 7    1  0.1302069E-013  0.7246147E+02  0.7816164E-02  0.1226708E+00
        -11   -1    0    0    0    0  0.00000000000E+00  0.00000000000E+00  0.45593999997E+02  0.45594000000E+02  0.51100000000E-03 0. -1.
         11   -1    0    0    0    0 -0.00000000000E+00 -0.00000000000E+00 -0.45593999997E+02  0.45594000000E+02  0.51100000000E-03 0.  1.
    9900012    2    1    2    0    0  0.18229874895E+02  0.41593101874E+01  0.10269925996E+01  0.72461470323E+02  0.69999869769E+02 0.  0.
         12    1    1    2    0    0 -0.18229874895E+02 -0.41593101874E+01 -0.10269925996E+01  0.18726529677E+02  0.00000000000E+00 0. -1.
         11    1    3    3    0    0  0.26330110488E+02  0.13048000244E+01  0.16134151545E+02  0.30907734755E+02  0.51100000000E-03 0. -1.
        -11    1    3    3    0    0  0.65183018922E+01  0.11159008473E+02 -0.20205641881E+02  0.23984988925E+02  0.51100000000E-03 0.  1.
         12    1    3    3    0    0 -0.14618537485E+02 -0.83044983097E+01  0.50984829357E+01  0.17568746643E+02  0.00000000000E+00 0. -1.
</event>
<event>
 7    1  0.1302069E-013  0.7246160E+02  0.7816164E-02  0.1226708E+00
        -11   -1    0    0    0    0  0.00000000000E+00  0.00000000000E+00  0.45593999997E+02  0.45594000000E+02  0.51100000000E-03 0. -1.
         11   -1    0    0    0    0 -0.00000000000E+00 -0.00000000000E+00 -0.45593999997E+02  0.45594000000E+02  0.51100000000E-03 0.  1.
    9900012    2    1    2    0    0 -0.15176701840E+02  0.10055748295E+02 -0.43849348117E+01  0.72461601365E+02  0.70000040476E+02 0.  0.
         12    1    1    2    0    0  0.15176701840E+02 -0.10055748295E+02  0.43849348117E+01  0.18726398635E+02  0.00000000000E+00 0. -1.
         11    1    3    3    0    0  0.12876158970E+02 -0.59795389594E+01 -0.81087773016E+01  0.16349392208E+02  0.51100000000E-03 0. -1.
        -11    1    3    3    0    0 -0.36500932966E+02  0.39017244382E+01 -0.76020735049E+01  0.37487772444E+02  0.51100000000E-03 0.  1.
        -12    1    3    3    0    0  0.84480721552E+01  0.12133562816E+02  0.11325915995E+02  0.18624436713E+02  0.00000000000E+00 0.  1.
</event>
<event>
 7    1  0.1302069E-013  0.7246210E+02  0.7816164E-02  0.1226707E+00
        -11   -1    0    0    0    0  0.00000000000E+00  0.00000000000E+00  0.45593999997E+02  0.45594000000E+02  0.51100000000E-03 0. -1.
         11   -1    0    0    0    0 -0.00000000000E+00 -0.00000000000E+00 -0.45593999997E+02  0.45594000000E+02  0.51100000000E-03 0.  1.
    9900012    2    1    2    0    0 -0.16805919284E+01  0.14848027280E+02  0.11285876102E+02  0.72462100750E+02  0.70000691014E+02 0.  0.
         12    1    1    2    0    0  0.16805919284E+01 -0.14848027280E+02 -0.11285876102E+02  0.18725899250E+02  0.00000000000E+00 0. -1.
         11    1    3    3    0    0 -0.12624376000E+02 -0.54044864127E+01  0.23091328916E+02  0.26866202079E+02  0.51100000000E-03 0. -1.
        -11    1    3    3    0    0  0.68063382235E+01  0.27074487850E+02  0.36971188376E+01  0.28160660865E+02  0.51100000000E-03 0.  1.
        -12    1    3    3    0    0  0.41374458482E+01 -0.68219741582E+01 -0.15502571652E+02  0.17435237807E+02  0.00000000000E+00 0.  1.
</event>
<event>
 7    1  0.1302069E-013  0.7246156E+02  0.7816164E-02  0.1226708E+00
        -11   -1    0    0    0    0  0.00000000000E+00  0.00000000000E+00  0.45593999997E+02  0.45594000000E+02  0.51100000000E-03 0.  1.
         11   -1    0    0    0    0 -0.00000000000E+00 -0.00000000000E+00 -0.45593999997E+02  0.45594000000E+02  0.51100000000E-03 0. -1.
    9900012    2    1    2    0    0  0.62016700564E+01 -0.17553678048E+02 -0.20216797230E+01  0.72461561113E+02  0.69999988040E+02 0.  0.
         12    1    1    2    0    0 -0.62016700564E+01  0.17553678048E+02  0.20216797230E+01  0.18726438887E+02  0.00000000000E+00 0. -1.
         11    1    3    3    0    0  0.38131562218E+01 -0.43807337936E+01 -0.29778348166E+02  0.30339429934E+02  0.51100000000E-03 0. -1.
        -11    1    3    3    0    0 -0.25884175230E+01 -0.21103008569E+02  0.13909629307E+02  0.25406980608E+02  0.51100000000E-03 0.  1.
         12    1    3    3    0    0  0.49769313576E+01  0.79300643148E+01  0.13847039136E+02  0.16715150571E+02  0.00000000000E+00 0. -1.
</event>
<event>
 7    1  0.1302069E-013  0.7246160E+02  0.7816164E-02  0.1226708E+00
        -11   -1    0    0    0    0  0.00000000000E+00  0.00000000000E+00  0.45593999997E+02  0.45594000000E+02  0.51100000000E-03 0.  1.
         11   -1    0    0    0    0 -0.00000000000E+00 -0.00000000000E+00 -0.45593999997E+02  0.45594000000E+02  0.51100000000E-03 0. -1.
    9900012    2    1    2    0    0  0.89027081824E+01  0.14479916736E+02  0.78582434407E+01  0.72461596404E+02  0.70000034013E+02 0.  0.
         12    1    1    2    0    0 -0.89027081824E+01 -0.14479916736E+02 -0.78582434407E+01  0.18726403596E+02  0.00000000000E+00 0. -1.
         11    1    3    3    0    0 -0.22536055840E+02 -0.36244428667E+01  0.56827345485E+00  0.22832725065E+02  0.51100000000E-03 0. -1.
        -11    1    3    3    0    0  0.16894482154E+02  0.55733772700E+01  0.19874696714E+02  0.26673762974E+02  0.51100000000E-03 0.  1.
        -12    1    3    3    0    0  0.14544281868E+02  0.12530982333E+02 -0.12584726728E+02  0.22955108366E+02  0.00000000000E+00 0.  1.
</event>
<event>
 7    1  0.1302069E-013  0.7246159E+02  0.7816164E-02  0.1226708E+00
        -11   -1    0    0    0    0  0.00000000000E+00  0.00000000000E+00  0.45593999997E+02  0.45594000000E+02  0.51100000000E-03 0.  1.
         11   -1    0    0    0    0 -0.00000000000E+00 -0.00000000000E+00 -0.45593999997E+02  0.45594000000E+02  0.51100000000E-03 0. -1.
    9900012    2    1    2    0    0 -0.15344729696E+02  0.10448091426E+02  0.24607235069E+01  0.72461588062E+02  0.70000023146E+02 0.  0.
         12    1    1    2    0    0  0.15344729696E+02 -0.10448091426E+02 -0.24607235069E+01  0.18726411938E+02  0.00000000000E+00 0. -1.
         11    1    3    3    0    0 -0.11795374723E+02  0.15217020280E+02  0.27312832770E+02  0.33416753362E+02  0.51100000000E-03 0.  1.
        -11    1    3    3    0    0 -0.56273557367E+01 -0.16509554720E+02 -0.18900330852E+02  0.25718768171E+02  0.51100000000E-03 0. -1.
         12    1    3    3    0    0  0.20780007632E+01  0.11740625866E+02 -0.59517784115E+01  0.13326066530E+02  0.00000000000E+00 0. -1.
</event>
<event>
 7    1  0.1302069E-013  0.7246128E+02  0.7816164E-02  0.1226709E+00
        -11   -1    0    0    0    0  0.00000000000E+00  0.00000000000E+00  0.45593999997E+02  0.45594000000E+02  0.51100000000E-03 0. -1.
         11   -1    0    0    0    0 -0.00000000000E+00 -0.00000000000E+00 -0.45593999997E+02  0.45594000000E+02  0.51100000000E-03 0.  1.
    9900012    2    1    2    0    0  0.51426200810E+01 -0.17048526657E+02  0.57957848171E+01  0.72461283146E+02  0.69999625935E+02 0.  0.
         12    1    1    2    0    0 -0.51426200810E+01  0.17048526657E+02 -0.57957848171E+01  0.18726716854E+02  0.00000000000E+00 0. -1.
         11    1    3    3    0    0 -0.81654324561E+01 -0.82623787802E+01  0.30695179279E+02  0.32819738292E+02  0.51100000000E-03 0. -1.
        -11    1    3    3    0    0  0.21389157768E+02 -0.54318974313E+01 -0.17055347918E+02  0.27890616210E+02  0.51100000000E-03 0.  1.
         12    1    3    3    0    0 -0.80811052309E+01 -0.33542504458E+01 -0.78440465440E+01  0.11750928644E+02  0.00000000000E+00 0. -1.
</event>
<event>
 7    1  0.1302069E-013  0.7246157E+02  0.7816164E-02  0.1226708E+00
        -11   -1    0    0    0    0  0.00000000000E+00  0.00000000000E+00  0.45593999997E+02  0.45594000000E+02  0.51100000000E-03 0. -1.
         11   -1    0    0    0    0 -0.00000000000E+00 -0.00000000000E+00 -0.45593999997E+02  0.45594000000E+02  0.51100000000E-03 0.  1.
    9900012    2    1    2    0    0 -0.15967596880E+01 -0.14951344835E+02 -0.11161852147E+02  0.72461566884E+02  0.69999995558E+02 0.  0.
         12    1    1    2    0    0  0.15967596880E+01  0.14951344835E+02  0.11161852147E+02  0.18726433116E+02  0.00000000000E+00 0. -1.
         11    1    3    3    0    0 -0.23407607237E+02 -0.20436623846E+02 -0.23770142246E+02  0.39122772569E+02  0.51100000000E-03 0. -1.
        -11    1    3    3    0    0  0.16210874702E+02  0.55796216290E+01 -0.24075399701E+01  0.17312448847E+02  0.51100000000E-03 0.  1.
         12    1    3    3    0    0  0.55999728473E+01 -0.94342617790E-01  0.15015830069E+02  0.16026345468E+02  0.00000000000E+00 0. -1.
</event>
<event>
 7    1  0.1302069E-013  0.7246157E+02  0.7816164E-02  0.1226708E+00
        -11   -1    0    0    0    0  0.00000000000E+00  0.00000000000E+00  0.45593999997E+02  0.45594000000E+02  0.51100000000E-03 0.  1.
         11   -1    0    0    0    0 -0.00000000000E+00 -0.00000000000E+00 -0.45593999997E+02  0.45594000000E+02  0.51100000000E-03 0. -1.
    9900012    2    1    2    0    0 -0.44968337950E+00 -0.33669676482E+01  0.18415763123E+02  0.72461574348E+02  0.70000005280E+02 0.  0.
         12    1    1    2    0    0  0.44968337950E+00  0.33669676482E+01 -0.18415763123E+02  0.18726425652E+02  0.00000000000E+00 0. -1.
         11    1    3    3    0    0  0.42686718138E+01 -0.46330594699E+01 -0.13353550004E+02  0.14764961805E+02  0.51100000000E-03 0. -1.
        -11    1    3    3    0    0 -0.69581841545E+01 -0.21545645248E+02  0.25146615276E+02  0.33837603579E+02  0.51100000000E-03 0.  1.
        -12    1    3    3    0    0  0.22398289612E+01  0.22811737070E+02  0.66226978522E+01  0.23859008964E+02  0.00000000000E+00 0.  1.
</event>
<event>
 7    1  0.1302069E-013  0.7246157E+02  0.7816164E-02  0.1226708E+00
        -11   -1    0    0    0    0  0.00000000000E+00  0.00000000000E+00  0.45593999997E+02  0.45594000000E+02  0.51100000000E-03 0.  1.
         11   -1    0    0    0    0 -0.00000000000E+00 -0.00000000000E+00 -0.45593999997E+02  0.45594000000E+02  0.51100000000E-03 0. -1.
    9900012    2    1    2    0    0  0.15144374662E+02 -0.10963478721E+02  0.10626736620E+01  0.72461568817E+02  0.69999998075E+02 0.  0.
         12    1    1    2    0    0 -0.15144374662E+02  0.10963478721E+02 -0.10626736620E+01  0.18726431183E+02  0.00000000000E+00 0. -1.
         11    1    3    3    0    0  0.24282510777E+02  0.55498310540E+01 -0.80881625910E+01  0.26188916143E+02  0.51100000000E-03 0. -1.
        -11    1    3    3    0    0 -0.14253599028E+02  0.34628736540E+01 -0.10301845085E+02  0.17924413285E+02  0.51100000000E-03 0.  1.
         12    1    3    3    0    0  0.51154629129E+01 -0.19976183429E+02  0.19452681338E+02  0.28348239389E+02  0.00000000000E+00 0. -1.
</event>
<event>
 7    1  0.1302069E-013  0.7246152E+02  0.7816164E-02  0.1226708E+00
        -11   -1    0    0    0    0  0.00000000000E+00  0.00000000000E+00  0.45593999997E+02  0.45594000000E+02  0.51100000000E-03 0. -1.
         11   -1    0    0    0    0 -0.00000000000E+00 -0.00000000000E+00 -0.45593999997E+02  0.45594000000E+02  0.51100000000E-03 0.  1.
    9900012    2    1    2    0    0 -0.13445411271E+01  0.66025354501E+01 -0.17472257280E+02  0.72461520361E+02  0.69999934953E+02 0.  0.
         12    1    1    2    0    0  0.13445411271E+01 -0.66025354501E+01  0.17472257280E+02  0.18726479639E+02  0.00000000000E+00 0. -1.
         11    1    3    3    0    0  0.12311717539E+01  0.24320975233E+02  0.12858137312E+01  0.24386039805E+02  0.51100000000E-03 0. -1.
        -11    1    3    3    0    0 -0.14882822655E+02 -0.18352601268E+02 -0.24882523675E+02  0.34314084108E+02  0.51100000000E-03 0.  1.
        -12    1    3    3    0    0  0.12307109774E+02  0.63416148499E+00  0.61244526638E+01  0.13761396448E+02  0.00000000000E+00 0.  1.
</event>
<event>
 7    1  0.1302069E-013  0.7246212E+02  0.7816164E-02  0.1226707E+00
        -11   -1    0    0    0    0  0.00000000000E+00  0.00000000000E+00  0.45593999997E+02  0.45594000000E+02  0.51100000000E-03 0. -1.
         11   -1    0    0    0    0 -0.00000000000E+00 -0.00000000000E+00 -0.45593999997E+02  0.45594000000E+02  0.51100000000E-03 0.  1.
    9900012    2    1    2    0    0 -0.62187069528E+01 -0.14570668991E+02  0.99840823864E+01  0.72462119190E+02  0.70000715035E+02 0.  0.
         12    1    1    2    0    0  0.62187069528E+01  0.14570668991E+02 -0.99840823864E+01  0.18725880810E+02  0.00000000000E+00 0. -1.
         11    1    3    3    0    0 -0.32747453852E+02 -0.81925388092E+01  0.90651804601E+01  0.34952695503E+02  0.51100000000E-03 0. -1.
        -11    1    3    3    0    0  0.20878829880E+02  0.37251267318E+01 -0.82354737154E+01  0.22751376528E+02  0.51100000000E-03 0.  1.
         12    1    3    3    0    0  0.56499170187E+01 -0.10103256913E+02  0.91543756416E+01  0.14758047160E+02  0.00000000000E+00 0. -1.
</event>
<event>
 7    1  0.1302069E-013  0.7246157E+02  0.7816164E-02  0.1226708E+00
        -11   -1    0    0    0    0  0.00000000000E+00  0.00000000000E+00  0.45593999997E+02  0.45594000000E+02  0.51100000000E-03 0. -1.
         11   -1    0    0    0    0 -0.00000000000E+00 -0.00000000000E+00 -0.45593999997E+02  0.45594000000E+02  0.51100000000E-03 0.  1.
    9900012    2    1    2    0    0 -0.10915057781E+01 -0.64614483084E+01 -0.17542444771E+02  0.72461573014E+02  0.70000003543E+02 0.  0.
         12    1    1    2    0    0  0.10915057781E+01  0.64614483084E+01  0.17542444771E+02  0.18726426986E+02  0.00000000000E+00 0. -1.
         11    1    3    3    0    0  0.19738577348E+02 -0.14050067866E+02 -0.40338058696E+01  0.24561910203E+02  0.51100000000E-03 0. -1.
        -11    1    3    3    0    0 -0.37646312818E+01  0.22720108005E+02 -0.85002756322E+01  0.24548532391E+02  0.51100000000E-03 0.  1.
        -12    1    3    3    0    0 -0.17065451844E+02 -0.15131488448E+02 -0.50083632695E+01  0.23351130421E+02  0.00000000000E+00 0.  1.
</event>
<event>
 7    1  0.1302069E-013  0.7246155E+02  0.7816164E-02  0.1226708E+00
        -11   -1    0    0    0    0  0.00000000000E+00  0.00000000000E+00  0.45593999997E+02  0.45594000000E+02  0.51100000000E-03 0. -1.
         11   -1    0    0    0    0 -0.00000000000E+00 -0.00000000000E+00 -0.45593999997E+02  0.45594000000E+02  0.51100000000E-03 0.  1.
    9900012    2    1    2    0    0 -0.11275402818E+02  0.84451717989E+01  0.12337916939E+02  0.72461552664E+02  0.69999977033E+02 0.  0.
         12    1    1    2    0    0  0.11275402818E+02 -0.84451717989E+01 -0.12337916939E+02  0.18726447336E+02  0.00000000000E+00 0. -1.
         11    1    3    3    0    0  0.10048980408E+02  0.27887784288E+02  0.55545799153E+01  0.30158976740E+02  0.51100000000E-03 0. -1.
        -11    1    3    3    0    0 -0.83095371757E+01 -0.15697281003E+02 -0.10277222731E+02  0.20520096157E+02  0.51100000000E-03 0.  1.
         12    1    3    3    0    0 -0.13014846050E+02 -0.37453314860E+01  0.17060559755E+02  0.21782479767E+02  0.00000000000E+00 0. -1.
</event>
<event>
 7    1  0.1302069E-013  0.7246158E+02  0.7816164E-02  0.1226708E+00
        -11   -1    0    0    0    0  0.00000000000E+00  0.00000000000E+00  0.45593999997E+02  0.45594000000E+02  0.51100000000E-03 0. -1.
         11   -1    0    0    0    0 -0.00000000000E+00 -0.00000000000E+00 -0.45593999997E+02  0.45594000000E+02  0.51100000000E-03 0.  1.
    9900012    2    1    2    0    0 -0.14050665006E+02  0.11354449213E+02 -0.49329429728E+01  0.72461584689E+02  0.70000018752E+02 0.  0.
         12    1    1    2    0    0  0.14050665006E+02 -0.11354449213E+02  0.49329429728E+01  0.18726415311E+02  0.00000000000E+00 0. -1.
         11    1    3    3    0    0 -0.19379550740E+02  0.13406994224E+02 -0.28412814510E+01  0.23735782304E+02  0.51100000000E-03 0. -1.
        -11    1    3    3    0    0  0.82387968561E+01 -0.22732982438E+02 -0.10305541127E+02  0.26284414437E+02  0.51100000000E-03 0.  1.
        -12    1    3    3    0    0 -0.29099111219E+01  0.20680437426E+02  0.82138796052E+01  0.22441387948E+02  0.00000000000E+00 0.  1.
</event>
<event>
 7    1  0.1302069E-013  0.7246182E+02  0.7816164E-02  0.1226707E+00
        -11   -1    0    0    0    0  0.00000000000E+00  0.00000000000E+00  0.45593999997E+02  0.45594000000E+02  0.51100000000E-03 0. -1.
         11   -1    0    0    0    0 -0.00000000000E+00 -0.00000000000E+00 -0.45593999997E+02  0.45594000000E+02  0.51100000000E-03 0.  1.
    9900012    2    1    2    0    0  0.10890110874E+02  0.14777011472E+02 -0.37033888583E+01  0.72461823884E+02  0.70000330347E+02 0.  0.
         12    1    1    2    0    0 -0.10890110874E+02 -0.14777011472E+02  0.37033888583E+01  0.18726176116E+02  0.00000000000E+00 0. -1.
         11    1    3    3    0    0 -0.64697068993E+01 -0.11664647316E+01  0.47710674075E+01  0.81228585979E+01  0.51100000000E-03 0. -1.
        -11    1    3    3    0    0  0.15924565485E+02  0.39382728140E+01 -0.33079572143E+02  0.36923703390E+02  0.51100000000E-03 0.  1.
        -12    1    3    3    0    0  0.14352522878E+01  0.12005203389E+02  0.24605115877E+02  0.27415261897E+02  0.00000000000E+00 0.  1.
</event>
<event>
 7    1  0.1302069E-013  0.7246154E+02  0.7816164E-02  0.1226708E+00
        -11   -1    0    0    0    0  0.00000000000E+00  0.00000000000E+00  0.45593999997E+02  0.45594000000E+02  0.51100000000E-03 0.  1.
         11   -1    0    0    0    0 -0.00000000000E+00 -0.00000000000E+00 -0.45593999997E+02  0.45594000000E+02  0.51100000000E-03 0. -1.
    9900012    2    1    2    0    0  0.14793863977E+02 -0.11114324157E+02  0.28798673838E+01  0.72461541472E+02  0.69999962453E+02 0.  0.
         12    1    1    2    0    0 -0.14793863977E+02  0.11114324157E+02 -0.28798673838E+01  0.18726458528E+02  0.00000000000E+00 0. -1.
         11    1    3    3    0    0  0.34196138534E+02  0.39843171193E+01 -0.53608683486E-01  0.34427511495E+02  0.51100000000E-03 0. -1.
        -11    1    3    3    0    0 -0.93676496789E+01 -0.17483321189E+02 -0.94056677782E+01  0.21951901214E+02  0.51100000000E-03 0.  1.
        -12    1    3    3    0    0 -0.10034624878E+02  0.23846799121E+01  0.12339143846E+02  0.16082128763E+02  0.00000000000E+00 0.  1.
</event>
<event>
 7    1  0.1302069E-013  0.7246157E+02  0.7816164E-02  0.1226708E+00
        -11   -1    0    0    0    0  0.00000000000E+00  0.00000000000E+00  0.45593999997E+02  0.45594000000E+02  0.51100000000E-03 0.  1.
         11   -1    0    0    0    0 -0.00000000000E+00 -0.00000000000E+00 -0.45593999997E+02  0.45594000000E+02  0.51100000000E-03 0. -1.
    9900012    2    1    2    0    0 -0.77407419613E+01 -0.14980082609E+02 -0.81459910525E+01  0.72461571315E+02  0.70000001329E+02 0.  0.
         12    1    1    2    0    0  0.77407419613E+01  0.14980082609E+02  0.81459910525E+01  0.18726428685E+02  0.00000000000E+00 0. -1.
         11    1    3    3    0    0  0.27700679329E+02  0.62579678407E+01 -0.57364153875E+01  0.28972336091E+02  0.51100000000E-03 0. -1.
        -11    1    3    3    0    0 -0.92601347756E+01 -0.37218863416E+00 -0.37157449561E+01  0.99847574473E+01  0.51100000000E-03 0.  1.
         12    1    3    3    0    0 -0.26181286515E+02 -0.20865861815E+02  0.13061692911E+01  0.33504477777E+02  0.00000000000E+00 0. -1.
</event>
<event>
 7    1  0.1302069E-013  0.7246155E+02  0.7816164E-02  0.1226708E+00
        -11   -1    0    0    0    0  0.00000000000E+00  0.00000000000E+00  0.45593999997E+02  0.45594000000E+02  0.51100000000E-03 0. -1.
         11   -1    0    0    0    0 -0.00000000000E+00 -0.00000000000E+00 -0.45593999997E+02  0.45594000000E+02  0.51100000000E-03 0.  1.
    9900012    2    1    2    0    0 -0.92793177169E+01  0.16091093274E+02  0.23771798880E+01  0.72461548007E+02  0.69999970966E+02 0.  0.
         12    1    1    2    0    0  0.92793177169E+01 -0.16091093274E+02 -0.23771798880E+01  0.18726451993E+02  0.00000000000E+00 0. -1.
         11    1    3    3    0    0 -0.45334214759E+01  0.19049164969E+02  0.30495376446E+02  0.36240730968E+02  0.51100000000E-03 0. -1.
        -11    1    3    3    0    0 -0.87028889246E+01 -0.53253949797E+01 -0.29318145432E+01  0.10615820463E+02  0.51100000000E-03 0.  1.
         12    1    3    3    0    0  0.39569926836E+01  0.23673232847E+01 -0.25186382015E+02  0.25604996575E+02  0.00000000000E+00 0. -1.
</event>
<event>
 7    1  0.1302069E-013  0.7246153E+02  0.7816164E-02  0.1226708E+00
        -11   -1    0    0    0    0  0.00000000000E+00  0.00000000000E+00  0.45593999997E+02  0.45594000000E+02  0.51100000000E-03 0.  1.
         11   -1    0    0    0    0 -0.00000000000E+00 -0.00000000000E+00 -0.45593999997E+02  0.45594000000E+02  0.51100000000E-03 0. -1.
    9900012    2    1    2    0    0 -0.85176278298E+01  0.16405224268E+02 -0.29998576037E+01  0.72461534429E+02  0.69999953279E+02 0.  0.
         12    1    1    2    0    0  0.85176278298E+01 -0.16405224268E+02  0.29998576037E+01  0.18726465571E+02  0.00000000000E+00 0. -1.
         11    1    3    3    0    0 -0.24078652391E+01 -0.21831347252E+01 -0.11290619369E+02  0.11749126701E+02  0.51100000000E-03 0. -1.
        -11    1    3    3    0    0 -0.30513297825E+02  0.14450608505E+02  0.11689094853E+02  0.35728369247E+02  0.51100000000E-03 0.  1.
        -12    1    3    3    0    0  0.24403535235E+02  0.41377504885E+01 -0.33983330879E+01  0.24984038481E+02  0.00000000000E+00 0.  1.
</event>
<event>
 7    1  0.1302069E-013  0.7246154E+02  0.7816164E-02  0.1226708E+00
        -11   -1    0    0    0    0  0.00000000000E+00  0.00000000000E+00  0.45593999997E+02  0.45594000000E+02  0.51100000000E-03 0. -1.
         11   -1    0    0    0    0 -0.00000000000E+00 -0.00000000000E+00 -0.45593999997E+02  0.45594000000E+02  0.51100000000E-03 0.  1.
    9900012    2    1    2    0    0  0.25337933076E+01 -0.17523897009E+02  0.60969813933E+01  0.72461541258E+02  0.69999962175E+02 0.  0.
         12    1    1    2    0    0 -0.25337933076E+01  0.17523897009E+02 -0.60969813933E+01  0.18726458742E+02  0.00000000000E+00 0. -1.
         11    1    3    3    0    0  0.19314483246E+02 -0.25419676726E+02  0.53982012820E+01  0.32378230422E+02  0.51100000000E-03 0. -1.
        -11    1    3    3    0    0  0.13098306582E+01  0.18492021062E+02  0.37006592231E+01  0.18904110089E+02  0.51100000000E-03 0.  1.
         12    1    3    3    0    0 -0.18090520597E+02 -0.10596241345E+02 -0.30018791118E+01  0.21179200748E+02  0.00000000000E+00 0. -1.
</event>
<event>
 7    1  0.1302069E-013  0.7246144E+02  0.7816164E-02  0.1226708E+00
        -11   -1    0    0    0    0  0.00000000000E+00  0.00000000000E+00  0.45593999997E+02  0.45594000000E+02  0.51100000000E-03 0.  1.
         11   -1    0    0    0    0 -0.00000000000E+00 -0.00000000000E+00 -0.45593999997E+02  0.45594000000E+02  0.51100000000E-03 0. -1.
    9900012    2    1    2    0    0  0.15758998624E+01  0.11361856682E+02  0.14802319416E+02  0.72461443783E+02  0.69999835196E+02 0.  0.
         12    1    1    2    0    0 -0.15758998624E+01 -0.11361856682E+02 -0.14802319416E+02  0.18726556217E+02  0.00000000000E+00 0. -1.
         11    1    3    3    0    0 -0.19499885772E+01  0.26928061593E+01 -0.35196913010E+01  0.48416823086E+01  0.51100000000E-03 0. -1.
        -11    1    3    3    0    0  0.30839898294E+02  0.18227172751E+02  0.13498895323E+02  0.38282493760E+02  0.51100000000E-03 0.  1.
        -12    1    3    3    0    0 -0.27314009854E+02 -0.95581222286E+01  0.48231153941E+01  0.29337267715E+02  0.00000000000E+00 0.  1.
</event>
<event>
 7    1  0.1302069E-013  0.7246158E+02  0.7816164E-02  0.1226708E+00
        -11   -1    0    0    0    0  0.00000000000E+00  0.00000000000E+00  0.45593999997E+02  0.45594000000E+02  0.51100000000E-03 0. -1.
         11   -1    0    0    0    0 -0.00000000000E+00 -0.00000000000E+00 -0.45593999997E+02  0.45594000000E+02  0.51100000000E-03 0.  1.
    9900012    2    1    2    0    0  0.10165961421E+02  0.15451600396E+02 -0.29292052830E+01  0.72461575621E+02  0.70000006940E+02 0.  0.
         12    1    1    2    0    0 -0.10165961421E+02 -0.15451600396E+02  0.29292052830E+01  0.18726424379E+02  0.00000000000E+00 0. -1.
         11    1    3    3    0    0 -0.15847955539E+00  0.22186098068E+02  0.24663368001E+02  0.33174233746E+02  0.51100000000E-03 0. -1.
        -11    1    3    3    0    0  0.12314575973E+02 -0.65090589699E+01 -0.25447048685E+01  0.14159525176E+02  0.51100000000E-03 0.  1.
         12    1    3    3    0    0 -0.19901349974E+01 -0.22543870170E+00 -0.25047868415E+02  0.25127816699E+02  0.00000000000E+00 0. -1.
</event>
<event>
 7    1  0.1302069E-013  0.7246161E+02  0.7816164E-02  0.1226708E+00
        -11   -1    0    0    0    0  0.00000000000E+00  0.00000000000E+00  0.45593999997E+02  0.45594000000E+02  0.51100000000E-03 0.  1.
         11   -1    0    0    0    0 -0.00000000000E+00 -0.00000000000E+00 -0.45593999997E+02  0.45594000000E+02  0.51100000000E-03 0. -1.
    9900012    2    1    2    0    0 -0.10816900267E+02 -0.13553596486E+02 -0.70691254959E+01  0.72461605676E+02  0.70000046092E+02 0.  0.
         12    1    1    2    0    0  0.10816900267E+02  0.13553596486E+02  0.70691254959E+01  0.18726394324E+02  0.00000000000E+00 0. -1.
         11    1    3    3    0    0 -0.22527388623E+02  0.13371482313E+02  0.41691050828E+01  0.26526613332E+02  0.51100000000E-03 0. -1.
        -11    1    3    3    0    0  0.10906811610E+02  0.51525607650E+01 -0.41038313207E+00  0.12069624539E+02  0.51100000000E-03 0.  1.
         12    1    3    3    0    0  0.80367674637E+00 -0.32077639564E+02 -0.10827847447E+02  0.33865367806E+02  0.00000000000E+00 0. -1.
</event>
<event>
 7    1  0.1302069E-013  0.7246159E+02  0.7816164E-02  0.1226708E+00
        -11   -1    0    0    0    0  0.00000000000E+00  0.00000000000E+00  0.45593999997E+02  0.45594000000E+02  0.51100000000E-03 0. -1.
         11   -1    0    0    0    0 -0.00000000000E+00 -0.00000000000E+00 -0.45593999997E+02  0.45594000000E+02  0.51100000000E-03 0.  1.
    9900012    2    1    2    0    0  0.58882355577E+01  0.15864068685E+02 -0.80211240341E+01  0.72461590200E+02  0.70000025931E+02 0.  0.
         12    1    1    2    0    0 -0.58882355577E+01 -0.15864068685E+02  0.80211240341E+01  0.18726409800E+02  0.00000000000E+00 0. -1.
         11    1    3    3    0    0  0.63454433303E+01  0.66676143372E+01  0.47146361574E+01  0.10341640410E+02  0.51100000000E-03 0. -1.
        -11    1    3    3    0    0  0.15878023921E+02  0.12031998452E+02 -0.31380355517E+02  0.37169979056E+02  0.51100000000E-03 0.  1.
        -12    1    3    3    0    0 -0.16335231693E+02 -0.28355441045E+01  0.18644595325E+02  0.24949970735E+02  0.00000000000E+00 0.  1.
</event>
<event>
 7    1  0.1302069E-013  0.7246153E+02  0.7816164E-02  0.1226708E+00
        -11   -1    0    0    0    0  0.00000000000E+00  0.00000000000E+00  0.45593999997E+02  0.45594000000E+02  0.51100000000E-03 0.  1.
         11   -1    0    0    0    0 -0.00000000000E+00 -0.00000000000E+00 -0.45593999997E+02  0.45594000000E+02  0.51100000000E-03 0. -1.
    9900012    2    1    2    0    0 -0.90734956346E+01  0.13122338488E+02  0.98059446011E+01  0.72461531034E+02  0.69999948856E+02 0.  0.
         12    1    1    2    0    0  0.90734956346E+01 -0.13122338488E+02 -0.98059446011E+01  0.18726468966E+02  0.00000000000E+00 0. -1.
         11    1    3    3    0    0  0.95882531767E+01  0.11452725230E+02 -0.11419750837E+02  0.18801867556E+02  0.51100000000E-03 0.  1.
        -11    1    3    3    0    0 -0.28633224631E+02 -0.12070911346E+02  0.78596737520E+01  0.32052190647E+02  0.51100000000E-03 0. -1.
        -12    1    3    3    0    0  0.99714758201E+01  0.13740524604E+02  0.13366021686E+02  0.21607472831E+02  0.00000000000E+00 0.  1.
</event>
<event>
 7    1  0.1302069E-013  0.7246172E+02  0.7816164E-02  0.1226708E+00
        -11   -1    0    0    0    0  0.00000000000E+00  0.00000000000E+00  0.45593999997E+02  0.45594000000E+02  0.51100000000E-03 0.  1.
         11   -1    0    0    0    0 -0.00000000000E+00 -0.00000000000E+00 -0.45593999997E+02  0.45594000000E+02  0.51100000000E-03 0. -1.
    9900012    2    1    2    0    0  0.63563731890E+01  0.47458178980E+01  0.16963115787E+02  0.72461719941E+02  0.70000194942E+02 0.  0.
         12    1    1    2    0    0 -0.63563731890E+01 -0.47458178980E+01 -0.16963115787E+02  0.18726280059E+02  0.00000000000E+00 0. -1.
         11    1    3    3    0    0 -0.73863775742E+01 -0.14369509246E+02 -0.40882245075E+01  0.16665981805E+02  0.51100000000E-03 0. -1.
        -11    1    3    3    0    0  0.28909877235E+02  0.21584917881E+02  0.12336901536E+02  0.38129894065E+02  0.51100000000E-03 0.  1.
        -12    1    3    3    0    0 -0.15167126472E+02 -0.24695907362E+01  0.87144387592E+01  0.17665844070E+02  0.00000000000E+00 0.  1.
</event>
<event>
 7    1  0.1302069E-013  0.7246157E+02  0.7816164E-02  0.1226708E+00
        -11   -1    0    0    0    0  0.00000000000E+00  0.00000000000E+00  0.45593999997E+02  0.45594000000E+02  0.51100000000E-03 0.  1.
         11   -1    0    0    0    0 -0.00000000000E+00 -0.00000000000E+00 -0.45593999997E+02  0.45594000000E+02  0.51100000000E-03 0. -1.
    9900012    2    1    2    0    0  0.48600227791E+01  0.46928689445E+01  0.17465292254E+02  0.72461567508E+02  0.69999996370E+02 0.  0.
         12    1    1    2    0    0 -0.48600227791E+01 -0.46928689445E+01 -0.17465292254E+02  0.18726432492E+02  0.00000000000E+00 0. -1.
         11    1    3    3    0    0  0.24725186089E+02  0.12942004536E+02  0.19022364121E+02  0.33773964019E+02  0.51100000000E-03 0. -1.
        -11    1    3    3    0    0 -0.28286402851E+01 -0.16736331700E+02  0.62876299116E+01  0.18100836854E+02  0.51100000000E-03 0.  1.
         12    1    3    3    0    0 -0.17036523024E+02  0.84871961083E+01 -0.78447017778E+01  0.20586766636E+02  0.00000000000E+00 0. -1.
</event>
<event>
 7    1  0.1302069E-013  0.7246159E+02  0.7816164E-02  0.1226708E+00
        -11   -1    0    0    0    0  0.00000000000E+00  0.00000000000E+00  0.45593999997E+02  0.45594000000E+02  0.51100000000E-03 0. -1.
         11   -1    0    0    0    0 -0.00000000000E+00 -0.00000000000E+00 -0.45593999997E+02  0.45594000000E+02  0.51100000000E-03 0.  1.
    9900012    2    1    2    0    0 -0.81340254510E+01  0.14631613466E+02 -0.83923738683E+01  0.72461590258E+02  0.70000026007E+02 0.  0.
         12    1    1    2    0    0  0.81340254510E+01 -0.14631613466E+02  0.83923738683E+01  0.18726409742E+02  0.00000000000E+00 0. -1.
         11    1    3    3    0    0 -0.28164433168E+01 -0.24882981547E+02 -0.15990057620E+01  0.25092866383E+02  0.51100000000E-03 0. -1.
        -11    1    3    3    0    0 -0.14191302544E+02  0.14409705572E+02 -0.37362741903E+01  0.20566779711E+02  0.51100000000E-03 0.  1.
         12    1    3    3    0    0  0.88737204102E+01  0.25104889442E+02 -0.30570939160E+01  0.26801944165E+02  0.00000000000E+00 0. -1.
</event>
<event>
 7    1  0.1302069E-013  0.7246154E+02  0.7816164E-02  0.1226708E+00
        -11   -1    0    0    0    0  0.00000000000E+00  0.00000000000E+00  0.45593999997E+02  0.45594000000E+02  0.51100000000E-03 0.  1.
         11   -1    0    0    0    0 -0.00000000000E+00 -0.00000000000E+00 -0.45593999997E+02  0.45594000000E+02  0.51100000000E-03 0. -1.
    9900012    2    1    2    0    0 -0.69100479106E+01  0.14798975815E+02  0.91608854871E+01  0.72461540906E+02  0.69999961716E+02 0.  0.
         12    1    1    2    0    0  0.69100479106E+01 -0.14798975815E+02 -0.91608854871E+01  0.18726459094E+02  0.00000000000E+00 0. -1.
         11    1    3    3    0    0  0.16331603846E+02  0.89116225677E+01 -0.67543966310E+01  0.19792932453E+02  0.51100000000E-03 0. -1.
        -11    1    3    3    0    0 -0.24630410839E+02  0.77729310538E+01 -0.92202413116E+01  0.27424230990E+02  0.51100000000E-03 0.  1.
        -12    1    3    3    0    0  0.13887590825E+01 -0.18855778069E+01  0.25135523430E+02  0.25244377464E+02  0.00000000000E+00 0.  1.
</event>
<event>
 7    1  0.1302069E-013  0.7246155E+02  0.7816164E-02  0.1226708E+00
        -11   -1    0    0    0    0  0.00000000000E+00  0.00000000000E+00  0.45593999997E+02  0.45594000000E+02  0.51100000000E-03 0.  1.
         11   -1    0    0    0    0 -0.00000000000E+00 -0.00000000000E+00 -0.45593999997E+02  0.45594000000E+02  0.51100000000E-03 0. -1.
    9900012    2    1    2    0    0  0.45049867857E+01 -0.33485267047E+01  0.17865395843E+02  0.72461550640E+02  0.69999974396E+02 0.  0.
         12    1    1    2    0    0 -0.45049867857E+01  0.33485267047E+01 -0.17865395843E+02  0.18726449360E+02  0.00000000000E+00 0. -1.
         11    1    3    3    0    0  0.13484778312E+02 -0.18480988749E+02 -0.14029613078E+02  0.26836844722E+02  0.51100000000E-03 0. -1.
        -11    1    3    3    0    0  0.67357850805E+01  0.14534821372E+02  0.21341260987E+02  0.26684850642E+02  0.51100000000E-03 0.  1.
         12    1    3    3    0    0 -0.15715576607E+02  0.59764067147E+00  0.10553747933E+02  0.18939855276E+02  0.00000000000E+00 0. -1.
</event>
<event>
 7    1  0.1302069E-013  0.7246157E+02  0.7816164E-02  0.1226708E+00
        -11   -1    0    0    0    0  0.00000000000E+00  0.00000000000E+00  0.45593999997E+02  0.45594000000E+02  0.51100000000E-03 0.  1.
         11   -1    0    0    0    0 -0.00000000000E+00 -0.00000000000E+00 -0.45593999997E+02  0.45594000000E+02  0.51100000000E-03 0. -1.
    9900012    2    1    2    0    0 -0.11187546640E+02  0.74997887282E+01  0.13010431452E+02  0.72461565279E+02  0.69999993467E+02 0.  0.
         12    1    1    2    0    0  0.11187546640E+02 -0.74997887282E+01 -0.13010431452E+02  0.18726434721E+02  0.00000000000E+00 0. -1.
         11    1    3    3    0    0 -0.81671833861E+01  0.14698501524E+02 -0.13127107196E+02  0.21332364499E+02  0.51100000000E-03 0. -1.
        -11    1    3    3    0    0 -0.66962159179E+01  0.12502213920E+02  0.27604455299E+02  0.31034667924E+02  0.51100000000E-03 0.  1.
        -12    1    3    3    0    0  0.36758526641E+01 -0.19700926716E+02 -0.14669166505E+01  0.20094532857E+02  0.00000000000E+00 0.  1.
</event>
<event>
 7    1  0.1302069E-013  0.7246158E+02  0.7816164E-02  0.1226708E+00
        -11   -1    0    0    0    0  0.00000000000E+00  0.00000000000E+00  0.45593999997E+02  0.45594000000E+02  0.51100000000E-03 0.  1.
         11   -1    0    0    0    0 -0.00000000000E+00 -0.00000000000E+00 -0.45593999997E+02  0.45594000000E+02  0.51100000000E-03 0. -1.
    9900012    2    1    2    0    0 -0.15705621523E+02 -0.10656499730E+01  0.10142816483E+02  0.72461577931E+02  0.70000009949E+02 0.  0.
         12    1    1    2    0    0  0.15705621523E+02  0.10656499730E+01 -0.10142816483E+02  0.18726422069E+02  0.00000000000E+00 0. -1.
         11    1    3    3    0    0 -0.95283598643E+01 -0.64670789385E+01  0.30561297944E+02  0.32658929621E+02  0.51100000000E-03 0.  1.
        -11    1    3    3    0    0 -0.19849154060E+01 -0.13963640434E+02 -0.10878332551E+02  0.17811829291E+02  0.51100000000E-03 0. -1.
         12    1    3    3    0    0 -0.41923462525E+01  0.19365069399E+02 -0.95401489091E+01  0.21990819020E+02  0.00000000000E+00 0. -1.
</event>
<event>
 7    1  0.1302069E-013  0.7246157E+02  0.7816164E-02  0.1226708E+00
        -11   -1    0    0    0    0  0.00000000000E+00  0.00000000000E+00  0.45593999997E+02  0.45594000000E+02  0.51100000000E-03 0. -1.
         11   -1    0    0    0    0 -0.00000000000E+00 -0.00000000000E+00 -0.45593999997E+02  0.45594000000E+02  0.51100000000E-03 0.  1.
    9900012    2    1    2    0    0  0.85732660828E+01  0.74370946425E+00 -0.16632054668E+02  0.72461568477E+02  0.69999997633E+02 0.  0.
         12    1    1    2    0    0 -0.85732660828E+01 -0.74370946425E+00  0.16632054668E+02  0.18726431523E+02  0.00000000000E+00 0. -1.
         11    1    3    3    0    0  0.30178157158E+02 -0.81781931149E+01 -0.45268659779E+00  0.31269936640E+02  0.51100000000E-03 0. -1.
        -11    1    3    3    0    0 -0.57243313602E+01 -0.10746520656E+02 -0.82123797717E+01  0.14686689808E+02  0.51100000000E-03 0.  1.
         12    1    3    3    0    0 -0.15880559715E+02  0.19668423235E+02 -0.79669882990E+01  0.26504942029E+02  0.00000000000E+00 0. -1.
</event>
<event>
 7    1  0.1302069E-013  0.7246168E+02  0.7816164E-02  0.1226708E+00
        -11   -1    0    0    0    0  0.00000000000E+00  0.00000000000E+00  0.45593999997E+02  0.45594000000E+02  0.51100000000E-03 0.  1.
         11   -1    0    0    0    0 -0.00000000000E+00 -0.00000000000E+00 -0.45593999997E+02  0.45594000000E+02  0.51100000000E-03 0. -1.
    9900012    2    1    2    0    0 -0.10782435448E+02  0.65753489881E-01  0.15310442841E+02  0.72461684353E+02  0.70000148583E+02 0.  0.
         12    1    1    2    0    0  0.10782435448E+02 -0.65753489881E-01 -0.15310442841E+02  0.18726315647E+02  0.00000000000E+00 0. -1.
         11    1    3    3    0    0  0.15472323568E+02 -0.13917132704E+02 -0.10759027675E+02  0.23427250288E+02  0.51100000000E-03 0. -1.
        -11    1    3    3    0    0 -0.26762979158E+02  0.91297737677E+01  0.67006946179E+01  0.29060439279E+02  0.51100000000E-03 0.  1.
         12    1    3    3    0    0  0.50822014214E+00  0.48531124261E+01  0.19368775898E+02  0.19973994786E+02  0.00000000000E+00 0. -1.
</event>
<event>
 7    1  0.1302069E-013  0.7246161E+02  0.7816164E-02  0.1226708E+00
        -11   -1    0    0    0    0  0.00000000000E+00  0.00000000000E+00  0.45593999997E+02  0.45594000000E+02  0.51100000000E-03 0.  1.
         11   -1    0    0    0    0 -0.00000000000E+00 -0.00000000000E+00 -0.45593999997E+02  0.45594000000E+02  0.51100000000E-03 0. -1.
    9900012    2    1    2    0    0  0.13663509304E+02 -0.40713882902E+01  0.12141252467E+02  0.72461609516E+02  0.70000051093E+02 0.  0.
         12    1    1    2    0    0 -0.13663509304E+02  0.40713882902E+01 -0.12141252467E+02  0.18726390484E+02  0.00000000000E+00 0. -1.
         11    1    3    3    0    0  0.28675609230E+02  0.10011171556E+02  0.91530026948E+01  0.31722099225E+02  0.51100000000E-03 0. -1.
        -11    1    3    3    0    0 -0.61353092031E+01 -0.84731372294E+01  0.18942825084E+02  0.21639470787E+02  0.51100000000E-03 0.  1.
         12    1    3    3    0    0 -0.88767907225E+01 -0.56094226170E+01 -0.15954575313E+02  0.19100039503E+02  0.00000000000E+00 0. -1.
</event>
<event>
 7    1  0.1302069E-013  0.7246149E+02  0.7816164E-02  0.1226708E+00
        -11   -1    0    0    0    0  0.00000000000E+00  0.00000000000E+00  0.45593999997E+02  0.45594000000E+02  0.51100000000E-03 0. -1.
         11   -1    0    0    0    0 -0.00000000000E+00 -0.00000000000E+00 -0.45593999997E+02  0.45594000000E+02  0.51100000000E-03 0.  1.
    9900012    2    1    2    0    0  0.34693309665E+01 -0.74576122928E+01 -0.16823497083E+02  0.72461486909E+02  0.69999891375E+02 0.  0.
         12    1    1    2    0    0 -0.34693309665E+01  0.74576122928E+01  0.16823497083E+02  0.18726513091E+02  0.00000000000E+00 0. -1.
         11    1    3    3    0    0  0.48100846427E+01 -0.28839996722E+02  0.36344114613E+01  0.29463388674E+02  0.51100000000E-03 0. -1.
        -11    1    3    3    0    0 -0.15759933436E+02  0.11271174102E+02 -0.62138261140E+01  0.20347641209E+02  0.51100000000E-03 0.  1.
        -12    1    3    3    0    0  0.14419179760E+02  0.10111210327E+02 -0.14244082430E+02  0.22650457026E+02  0.00000000000E+00 0.  1.
</event>
<event>
 7    1  0.1302069E-013  0.7246157E+02  0.7816164E-02  0.1226708E+00
        -11   -1    0    0    0    0  0.00000000000E+00  0.00000000000E+00  0.45593999997E+02  0.45594000000E+02  0.51100000000E-03 0.  1.
         11   -1    0    0    0    0 -0.00000000000E+00 -0.00000000000E+00 -0.45593999997E+02  0.45594000000E+02  0.51100000000E-03 0. -1.
    9900012    2    1    2    0    0  0.12400967337E+02 -0.11605890685E+02  0.78865927183E+01  0.72461573908E+02  0.70000004707E+02 0.  0.
         12    1    1    2    0    0 -0.12400967337E+02  0.11605890685E+02 -0.78865927183E+01  0.18726426092E+02  0.00000000000E+00 0. -1.
         11    1    3    3    0    0 -0.23124954441E+00  0.55173831445E+01 -0.13634641414E+02  0.14710487411E+02  0.51100000000E-03 0. -1.
        -11    1    3    3    0    0  0.26914217252E+02 -0.73742618809E+01  0.27765596628E+02  0.39366015609E+02  0.51100000000E-03 0.  1.
        -12    1    3    3    0    0 -0.14282000371E+02 -0.97490119488E+01 -0.62443624956E+01  0.18385070888E+02  0.00000000000E+00 0.  1.
</event>
<event>
 7    1  0.1302069E-013  0.7246161E+02  0.7816164E-02  0.1226708E+00
        -11   -1    0    0    0    0  0.00000000000E+00  0.00000000000E+00  0.45593999997E+02  0.45594000000E+02  0.51100000000E-03 0.  1.
         11   -1    0    0    0    0 -0.00000000000E+00 -0.00000000000E+00 -0.45593999997E+02  0.45594000000E+02  0.51100000000E-03 0. -1.
    9900012    2    1    2    0    0 -0.28740968198E+01  0.45889084700E+01  0.17926491806E+02  0.72461611615E+02  0.70000053828E+02 0.  0.
         12    1    1    2    0    0  0.28740968198E+01 -0.45889084700E+01 -0.17926491806E+02  0.18726388385E+02  0.00000000000E+00 0. -1.
         11    1    3    3    0    0 -0.70209259127E+01 -0.14023664542E+01  0.23177258753E+02  0.24257892652E+02  0.51100000000E-03 0.  1.
        -11    1    3    3    0    0  0.23809583378E+02  0.10424971696E+02  0.35061243311E+01  0.26227260695E+02  0.51100000000E-03 0. -1.
        -12    1    3    3    0    0 -0.19662754285E+02 -0.44336967713E+01 -0.87568912788E+01  0.21976458268E+02  0.00000000000E+00 0.  1.
</event>
<event>
 7    1  0.1302069E-013  0.7246160E+02  0.7816164E-02  0.1226708E+00
        -11   -1    0    0    0    0  0.00000000000E+00  0.00000000000E+00  0.45593999997E+02  0.45594000000E+02  0.51100000000E-03 0.  1.
         11   -1    0    0    0    0 -0.00000000000E+00 -0.00000000000E+00 -0.45593999997E+02  0.45594000000E+02  0.51100000000E-03 0. -1.
    9900012    2    1    2    0    0  0.17132693641E+02  0.62009792176E+01  0.43239644244E+01  0.72461601441E+02  0.70000040574E+02 0.  0.
         12    1    1    2    0    0 -0.17132693641E+02 -0.62009792176E+01 -0.43239644244E+01  0.18726398559E+02  0.00000000000E+00 0. -1.
         11    1    3    3    0    0  0.12353185279E+02  0.22145394950E+02  0.13854857512E+02  0.28895964787E+02  0.51100000000E-03 0. -1.
        -11    1    3    3    0    0  0.30766359955E+01 -0.28065120976E+02 -0.29931690323E+00  0.28234841868E+02  0.51100000000E-03 0.  1.
        -12    1    3    3    0    0  0.17028723666E+01  0.12120705244E+02 -0.92315761847E+01  0.15330794786E+02  0.00000000000E+00 0.  1.
</event>
<event>
 7    1  0.1302069E-013  0.7246157E+02  0.7816164E-02  0.1226708E+00
        -11   -1    0    0    0    0  0.00000000000E+00  0.00000000000E+00  0.45593999997E+02  0.45594000000E+02  0.51100000000E-03 0.  1.
         11   -1    0    0    0    0 -0.00000000000E+00 -0.00000000000E+00 -0.45593999997E+02  0.45594000000E+02  0.51100000000E-03 0. -1.
    9900012    2    1    2    0    0  0.34954872360E+01  0.17433793049E+02  0.58756756274E+01  0.72461571212E+02  0.70000001195E+02 0.  0.
         12    1    1    2    0    0 -0.34954872360E+01 -0.17433793049E+02 -0.58756756274E+01  0.18726428788E+02  0.00000000000E+00 0. -1.
         11    1    3    3    0    0 -0.81538134169E+00 -0.25664654090E+02 -0.77369354364E+01  0.26817894893E+02  0.51100000000E-03 0. -1.
        -11    1    3    3    0    0  0.14572357007E+01  0.37346381120E+01  0.42380979616E+00  0.40312123138E+01  0.51100000000E-03 0.  1.
         12    1    3    3    0    0  0.28536328770E+01  0.39363809027E+02  0.13188801268E+02  0.41612464005E+02  0.00000000000E+00 0. -1.
</event>
<event>
 7    1  0.1302069E-013  0.7246152E+02  0.7816164E-02  0.1226708E+00
        -11   -1    0    0    0    0  0.00000000000E+00  0.00000000000E+00  0.45593999997E+02  0.45594000000E+02  0.51100000000E-03 0.  1.
         11   -1    0    0    0    0 -0.00000000000E+00 -0.00000000000E+00 -0.45593999997E+02  0.45594000000E+02  0.51100000000E-03 0. -1.
    9900012    2    1    2    0    0  0.10594569528E+02 -0.15343254464E+02  0.17379779738E+01  0.72461523330E+02  0.69999938820E+02 0.  0.
         12    1    1    2    0    0 -0.10594569528E+02  0.15343254464E+02 -0.17379779738E+01  0.18726476670E+02  0.00000000000E+00 0. -1.
         11    1    3    3    0    0  0.23707300088E+02  0.75093650426E+01 -0.19698295116E+02  0.31724587808E+02  0.51100000000E-03 0. -1.
        -11    1    3    3    0    0  0.13056766747E+01 -0.19675783878E+02  0.10324133577E+02  0.22258234368E+02  0.51100000000E-03 0.  1.
         12    1    3    3    0    0 -0.14418407235E+02 -0.31768356284E+01  0.11112139513E+02  0.18478701155E+02  0.00000000000E+00 0. -1.
</event>
<event>
 7    1  0.1302069E-013  0.7246164E+02  0.7816164E-02  0.1226708E+00
        -11   -1    0    0    0    0  0.00000000000E+00  0.00000000000E+00  0.45593999997E+02  0.45594000000E+02  0.51100000000E-03 0.  1.
         11   -1    0    0    0    0 -0.00000000000E+00 -0.00000000000E+00 -0.45593999997E+02  0.45594000000E+02  0.51100000000E-03 0. -1.
    9900012    2    1    2    0    0 -0.91317225179E+01 -0.31021636681E+01  0.16051942291E+02  0.72461638184E+02  0.70000088439E+02 0.  0.
         12    1    1    2    0    0  0.91317225179E+01  0.31021636681E+01 -0.16051942291E+02  0.18726361816E+02  0.00000000000E+00 0. -1.
         11    1    3    3    0    0  0.21992725087E+02  0.27939053264E+01 -0.43731016646E+01  0.22596678565E+02  0.51100000000E-03 0. -1.
        -11    1    3    3    0    0 -0.27075428663E+02 -0.77685811571E+01  0.28857004603E+02  0.40325629634E+02  0.51100000000E-03 0.  1.
        -12    1    3    3    0    0 -0.40490189418E+01  0.18725121627E+01 -0.84319606476E+01  0.95393299844E+01  0.00000000000E+00 0.  1.
</event>
<event>
 7    1  0.1302069E-013  0.7246156E+02  0.7816164E-02  0.1226708E+00
        -11   -1    0    0    0    0  0.00000000000E+00  0.00000000000E+00  0.45593999997E+02  0.45594000000E+02  0.51100000000E-03 0. -1.
         11   -1    0    0    0    0 -0.00000000000E+00 -0.00000000000E+00 -0.45593999997E+02  0.45594000000E+02  0.51100000000E-03 0.  1.
    9900012    2    1    2    0    0 -0.77435853967E+01 -0.26440049925E+01 -0.16844163792E+02  0.72461555301E+02  0.69999980469E+02 0.  0.
         12    1    1    2    0    0  0.77435853967E+01  0.26440049925E+01  0.16844163792E+02  0.18726444699E+02  0.00000000000E+00 0. -1.
         11    1    3    3    0    0 -0.61067442505E+01 -0.13672506476E+02 -0.21830742506E+02  0.26472836594E+02  0.51100000000E-03 0.  1.
        -11    1    3    3    0    0 -0.26412167024E+01  0.21912942758E+02  0.18364887837E+02  0.28712753116E+02  0.51100000000E-03 0. -1.
         12    1    3    3    0    0  0.10043755562E+01 -0.10884441274E+02 -0.13378309123E+02  0.17275965591E+02  0.00000000000E+00 0. -1.
</event>
<event>
 7    1  0.1302069E-013  0.7246167E+02  0.7816164E-02  0.1226708E+00
        -11   -1    0    0    0    0  0.00000000000E+00  0.00000000000E+00  0.45593999997E+02  0.45594000000E+02  0.51100000000E-03 0. -1.
         11   -1    0    0    0    0 -0.00000000000E+00 -0.00000000000E+00 -0.45593999997E+02  0.45594000000E+02  0.51100000000E-03 0.  1.
    9900012    2    1    2    0    0 -0.11596930454E+01  0.97627026924E+01 -0.15938006517E+02  0.72461673516E+02  0.70000134466E+02 0.  0.
         12    1    1    2    0    0  0.11596930454E+01 -0.97627026924E+01  0.15938006517E+02  0.18726326484E+02  0.00000000000E+00 0. -1.
         11    1    3    3    0    0  0.16185568478E+02  0.23607956642E+02 -0.27535760613E+02  0.39718086013E+02  0.51100000000E-03 0.  1.
        -11    1    3    3    0    0 -0.21399045603E+02 -0.15249116474E+02  0.92767447039E+01  0.27865977437E+02  0.51100000000E-03 0. -1.
         12    1    3    3    0    0  0.40537840803E+01  0.14038625245E+01  0.23210093920E+01  0.48776100659E+01  0.00000000000E+00 0. -1.
</event>
<event>
 7    1  0.1652491E-013  0.7246147E+02  0.7816164E-02  0.1226708E+00
        -11   -1    0    0    0    0  0.00000000000E+00  0.00000000000E+00  0.45593999997E+02  0.45594000000E+02  0.51100000000E-03 0. -1.
         11   -1    0    0    0    0 -0.00000000000E+00 -0.00000000000E+00 -0.45593999997E+02  0.45594000000E+02  0.51100000000E-03 0.  1.
    9900012    2    1    2    0    0 -0.25048627349E+01  0.76790565503E+01 -0.16894984951E+02  0.72461474339E+02  0.69999875001E+02 0.  0.
         12    1    1    2    0    0  0.25048627349E+01 -0.76790565503E+01  0.16894984951E+02  0.18726525661E+02  0.00000000000E+00 0. -1.
         11    1    3    3    0    0  0.12834866212E+02  0.31693331845E+01  0.18759206393E+02  0.22949646800E+02  0.51100000000E-03 0. -1.
        -11    1    3    3    0    0  0.65109705291E+01  0.32572709259E+01 -0.23231381113E+02  0.24345422974E+02  0.51100000000E-03 0.  1.
         12    1    3    3    0    0 -0.21850699476E+02  0.12524524399E+01 -0.12422810231E+02  0.25166404565E+02  0.00000000000E+00 0. -1.
</event>
<event>
 7    1  0.1302069E-013  0.7246137E+02  0.7816164E-02  0.1226709E+00
        -11   -1    0    0    0    0  0.00000000000E+00  0.00000000000E+00  0.45593999997E+02  0.45594000000E+02  0.51100000000E-03 0. -1.
         11   -1    0    0    0    0 -0.00000000000E+00 -0.00000000000E+00 -0.45593999997E+02  0.45594000000E+02  0.51100000000E-03 0.  1.
    9900012    2    1    2    0    0 -0.10396810658E+02 -0.11410724222E+02 -0.10601340778E+02  0.72461368551E+02  0.69999737192E+02 0.  0.
         12    1    1    2    0    0  0.10396810658E+02  0.11410724222E+02  0.10601340778E+02  0.18726631449E+02  0.00000000000E+00 0. -1.
         11    1    3    3    0    0 -0.21937693804E+02  0.27296545008E+01  0.21500696129E+02  0.30838180190E+02  0.51100000000E-03 0. -1.
        -11    1    3    3    0    0  0.35129019706E+01  0.47781437638E+01 -0.66660626331E+01  0.89223051602E+01  0.51100000000E-03 0.  1.
         12    1    3    3    0    0  0.80279811755E+01 -0.18918522487E+02 -0.25435974274E+02  0.32700883201E+02  0.00000000000E+00 0. -1.
</event>
<event>
 7    1  0.1302069E-013  0.7246129E+02  0.7816164E-02  0.1226709E+00
        -11   -1    0    0    0    0  0.00000000000E+00  0.00000000000E+00  0.45593999997E+02  0.45594000000E+02  0.51100000000E-03 0. -1.
         11   -1    0    0    0    0 -0.00000000000E+00 -0.00000000000E+00 -0.45593999997E+02  0.45594000000E+02  0.51100000000E-03 0.  1.
    9900012    2    1    2    0    0 -0.56265725716E+01  0.10671211354E+02  0.14323291290E+02  0.72461287954E+02  0.69999632199E+02 0.  0.
         12    1    1    2    0    0  0.56265725716E+01 -0.10671211354E+02 -0.14323291290E+02  0.18726712046E+02  0.00000000000E+00 0. -1.
         11    1    3    3    0    0  0.18325937434E+02  0.22425442507E+02  0.10435629740E+02  0.30783807802E+02  0.51100000000E-03 0. -1.
        -11    1    3    3    0    0 -0.10805483205E+01 -0.14504152676E+02 -0.70651879508E+01  0.16169567421E+02  0.51100000000E-03 0.  1.
        -12    1    3    3    0    0 -0.22871961685E+02  0.27499215234E+01  0.10952849501E+02  0.25507912732E+02  0.00000000000E+00 0.  1.
</event>
<event>
 7    1  0.1302069E-013  0.7246153E+02  0.7816164E-02  0.1226708E+00
        -11   -1    0    0    0    0  0.00000000000E+00  0.00000000000E+00  0.45593999997E+02  0.45594000000E+02  0.51100000000E-03 0.  1.
         11   -1    0    0    0    0 -0.00000000000E+00 -0.00000000000E+00 -0.45593999997E+02  0.45594000000E+02  0.51100000000E-03 0. -1.
    9900012    2    1    2    0    0 -0.16189785259E+01 -0.11740319116E+02  0.14499118085E+02  0.72461531842E+02  0.69999949909E+02 0.  0.
         12    1    1    2    0    0  0.16189785259E+01  0.11740319116E+02 -0.14499118085E+02  0.18726468158E+02  0.00000000000E+00 0. -1.
         11    1    3    3    0    0 -0.14842607733E+02 -0.25774737428E+02  0.27176598170E+02  0.40289050401E+02  0.51100000000E-03 0. -1.
        -11    1    3    3    0    0  0.12415667268E+02  0.99789075811E+01  0.27816124313E+01  0.16169871929E+02  0.51100000000E-03 0.  1.
         12    1    3    3    0    0  0.80796193887E+00  0.40555107314E+01 -0.15459092516E+02  0.16002609513E+02  0.00000000000E+00 0. -1.
</event>
<event>
 7    1  0.1302069E-013  0.7246155E+02  0.7816164E-02  0.1226708E+00
        -11   -1    0    0    0    0  0.00000000000E+00  0.00000000000E+00  0.45593999997E+02  0.45594000000E+02  0.51100000000E-03 0.  1.
         11   -1    0    0    0    0 -0.00000000000E+00 -0.00000000000E+00 -0.45593999997E+02  0.45594000000E+02  0.51100000000E-03 0. -1.
    9900012    2    1    2    0    0 -0.18092791943E+02  0.51173009409E+00  0.48030243872E+01  0.72461547286E+02  0.69999970028E+02 0.  0.
         12    1    1    2    0    0  0.18092791943E+02 -0.51173009409E+00 -0.48030243872E+01  0.18726452714E+02  0.00000000000E+00 0. -1.
         11    1    3    3    0    0 -0.26467763546E+02  0.57801190560E+01 -0.22845424574E+02  0.35438195603E+02  0.51100000000E-03 0. -1.
        -11    1    3    3    0    0  0.72902375224E+01 -0.10838171183E+02  0.55225395206E+01  0.14181394880E+02  0.51100000000E-03 0.  1.
         12    1    3    3    0    0  0.10847340805E+01  0.55697822210E+01  0.22125909441E+02  0.22841956803E+02  0.00000000000E+00 0. -1.
</event>
<event>
 7    1  0.1302069E-013  0.7246154E+02  0.7816164E-02  0.1226708E+00
        -11   -1    0    0    0    0  0.00000000000E+00  0.00000000000E+00  0.45593999997E+02  0.45594000000E+02  0.51100000000E-03 0.  1.
         11   -1    0    0    0    0 -0.00000000000E+00 -0.00000000000E+00 -0.45593999997E+02  0.45594000000E+02  0.51100000000E-03 0. -1.
    9900012    2    1    2    0    0 -0.27148640895E+01 -0.13864493459E+02 -0.12291682247E+02  0.72461544960E+02  0.69999966997E+02 0.  0.
         12    1    1    2    0    0  0.27148640895E+01  0.13864493459E+02  0.12291682247E+02  0.18726455040E+02  0.00000000000E+00 0. -1.
         11    1    3    3    0    0 -0.42962393125E+01  0.75224238247E+01  0.49141744850E+01  0.99596005722E+01  0.51100000000E-03 0. -1.
        -11    1    3    3    0    0  0.20276045880E+02 -0.32383342936E+02 -0.13352592184E+02  0.40473332634E+02  0.51100000000E-03 0.  1.
        -12    1    3    3    0    0 -0.18694670657E+02  0.10996425652E+02 -0.38532645485E+01  0.22028611754E+02  0.00000000000E+00 0.  1.
</event>
<event>
 7    1  0.2310596E-013  0.7246159E+02  0.7816164E-02  0.1226708E+00
        -11   -1    0    0    0    0  0.00000000000E+00  0.00000000000E+00  0.45593999997E+02  0.45594000000E+02  0.51100000000E-03 0. -1.
         11   -1    0    0    0    0 -0.00000000000E+00 -0.00000000000E+00 -0.45593999997E+02  0.45594000000E+02  0.51100000000E-03 0.  1.
    9900012    2    1    2    0    0 -0.16412780620E+02  0.20948627963E+01 -0.87698668241E+01  0.72461591323E+02  0.70000027394E+02 0.  0.
         12    1    1    2    0    0  0.16412780620E+02 -0.20948627963E+01  0.87698668241E+01  0.18726408677E+02  0.00000000000E+00 0. -1.
         11    1    3    3    0    0  0.89128688096E+01  0.20339226807E+02  0.81618270749E+01  0.23658799610E+02  0.51100000000E-03 0. -1.
        -11    1    3    3    0    0 -0.16755919485E+01 -0.21753411935E+02 -0.91563036923E+01  0.23661285611E+02  0.51100000000E-03 0.  1.
        -12    1    3    3    0    0 -0.23650057482E+02  0.35090479245E+01 -0.77753902066E+01  0.25141506102E+02  0.00000000000E+00 0.  1.
</event>
<event>
 7    1  0.1302069E-013  0.7246167E+02  0.7816164E-02  0.1226708E+00
        -11   -1    0    0    0    0  0.00000000000E+00  0.00000000000E+00  0.45593999997E+02  0.45594000000E+02  0.51100000000E-03 0.  1.
         11   -1    0    0    0    0 -0.00000000000E+00 -0.00000000000E+00 -0.45593999997E+02  0.45594000000E+02  0.51100000000E-03 0. -1.
    9900012    2    1    2    0    0  0.85455815952E+01 -0.14297369832E+02 -0.85576617471E+01  0.72461672985E+02  0.70000133773E+02 0.  0.
         12    1    1    2    0    0 -0.85455815952E+01  0.14297369832E+02  0.85576617471E+01  0.18726327015E+02  0.00000000000E+00 0. -1.
         11    1    3    3    0    0 -0.10193613608E+02  0.19739891173E+01  0.78587816664E+01  0.13021783325E+02  0.51100000000E-03 0. -1.
        -11    1    3    3    0    0  0.31144143509E+02 -0.72191260247E+01  0.57408052560E+01  0.32481229975E+02  0.51100000000E-03 0.  1.
        -12    1    3    3    0    0 -0.12404948305E+02 -0.90522329244E+01 -0.22157248669E+02  0.26958659684E+02  0.00000000000E+00 0.  1.
</event>
<event>
 7    1  0.1302069E-013  0.7246163E+02  0.7816164E-02  0.1226708E+00
        -11   -1    0    0    0    0  0.00000000000E+00  0.00000000000E+00  0.45593999997E+02  0.45594000000E+02  0.51100000000E-03 0.  1.
         11   -1    0    0    0    0 -0.00000000000E+00 -0.00000000000E+00 -0.45593999997E+02  0.45594000000E+02  0.51100000000E-03 0. -1.
    9900012    2    1    2    0    0  0.38896754284E+01  0.18309749880E+02  0.54821676570E+00  0.72461626693E+02  0.70000073470E+02 0.  0.
         12    1    1    2    0    0 -0.38896754284E+01 -0.18309749880E+02 -0.54821676570E+00  0.18726373307E+02  0.00000000000E+00 0. -1.
         11    1    3    3    0    0 -0.18253276916E+02  0.34029392034E+01 -0.21514816621E+02  0.28419173948E+02  0.51100000000E-03 0. -1.
        -11    1    3    3    0    0  0.26333172636E+02  0.47617866440E+01  0.18381378994E+02  0.32465145727E+02  0.51100000000E-03 0.  1.
         12    1    3    3    0    0 -0.41902202922E+01  0.10145024032E+02  0.36816543932E+01  0.11577307018E+02  0.00000000000E+00 0. -1.
</event>
<event>
 7    1  0.1302069E-013  0.7246151E+02  0.7816164E-02  0.1226708E+00
        -11   -1    0    0    0    0  0.00000000000E+00  0.00000000000E+00  0.45593999997E+02  0.45594000000E+02  0.51100000000E-03 0.  1.
         11   -1    0    0    0    0 -0.00000000000E+00 -0.00000000000E+00 -0.45593999997E+02  0.45594000000E+02  0.51100000000E-03 0. -1.
    9900012    2    1    2    0    0  0.61773971705E+01  0.56569353527E+00  0.17669217848E+02  0.72461507954E+02  0.69999918790E+02 0.  0.
         12    1    1    2    0    0 -0.61773971705E+01 -0.56569353527E+00 -0.17669217848E+02  0.18726492046E+02  0.00000000000E+00 0. -1.
         11    1    3    3    0    0 -0.14874393226E+02  0.13384174562E+02 -0.19208929238E+02  0.27737459604E+02  0.51100000000E-03 0. -1.
        -11    1    3    3    0    0  0.84949095667E+01 -0.79180374751E+01  0.14216880716E+02  0.18356974248E+02  0.51100000000E-03 0.  1.
         12    1    3    3    0    0  0.12556880830E+02 -0.49004435515E+01  0.22661266371E+02  0.26367074102E+02  0.00000000000E+00 0. -1.
</event>
<event>
 7    1  0.1302069E-013  0.7246163E+02  0.7816164E-02  0.1226708E+00
        -11   -1    0    0    0    0  0.00000000000E+00  0.00000000000E+00  0.45593999997E+02  0.45594000000E+02  0.51100000000E-03 0.  1.
         11   -1    0    0    0    0 -0.00000000000E+00 -0.00000000000E+00 -0.45593999997E+02  0.45594000000E+02  0.51100000000E-03 0. -1.
    9900012    2    1    2    0    0 -0.95003881400E+01  0.12766405219E+02  0.98710974585E+01  0.72461627098E+02  0.70000073997E+02 0.  0.
         12    1    1    2    0    0  0.95003881400E+01 -0.12766405219E+02 -0.98710974585E+01  0.18726372902E+02  0.00000000000E+00 0. -1.
         11    1    3    3    0    0  0.38929969394E+01  0.13855666871E+02  0.31466403838E+02  0.34601582339E+02  0.51100000000E-03 0. -1.
        -11    1    3    3    0    0 -0.14792337927E+02  0.93744126108E+01 -0.50367753039E+01  0.18222567845E+02  0.51100000000E-03 0.  1.
         12    1    3    3    0    0  0.13989528477E+01 -0.10463674263E+02 -0.16558531076E+02  0.19637476914E+02  0.00000000000E+00 0. -1.
</event>
<event>
 7    1  0.1302069E-013  0.7246157E+02  0.7816164E-02  0.1226708E+00
        -11   -1    0    0    0    0  0.00000000000E+00  0.00000000000E+00  0.45593999997E+02  0.45594000000E+02  0.51100000000E-03 0.  1.
         11   -1    0    0    0    0 -0.00000000000E+00 -0.00000000000E+00 -0.45593999997E+02  0.45594000000E+02  0.51100000000E-03 0. -1.
    9900012    2    1    2    0    0 -0.14516551752E+02 -0.10222537318E+02  0.59538871530E+01  0.72461566377E+02  0.69999994897E+02 0.  0.
         12    1    1    2    0    0  0.14516551752E+02  0.10222537318E+02 -0.59538871530E+01  0.18726433623E+02  0.00000000000E+00 0. -1.
         11    1    3    3    0    0 -0.29133421746E+02  0.55832199475E+01 -0.85161881394E+01  0.30861854583E+02  0.51100000000E-03 0. -1.
        -11    1    3    3    0    0  0.18153052537E+02  0.13232237545E+01  0.15740555464E+02  0.24063443729E+02  0.51100000000E-03 0.  1.
        -12    1    3    3    0    0 -0.35361825427E+01 -0.17128981020E+02 -0.12704801720E+01  0.17536268065E+02  0.00000000000E+00 0.  1.
</event>
<event>
 7    1  0.1302069E-013  0.7246159E+02  0.7816164E-02  0.1226708E+00
        -11   -1    0    0    0    0  0.00000000000E+00  0.00000000000E+00  0.45593999997E+02  0.45594000000E+02  0.51100000000E-03 0. -1.
         11   -1    0    0    0    0 -0.00000000000E+00 -0.00000000000E+00 -0.45593999997E+02  0.45594000000E+02  0.51100000000E-03 0.  1.
    9900012    2    1    2    0    0 -0.30667320316E+01  0.60080490023E+01 -0.17469315253E+02  0.72461588876E+02  0.70000024206E+02 0.  0.
         12    1    1    2    0    0  0.30667320316E+01 -0.60080490023E+01  0.17469315253E+02  0.18726411124E+02  0.00000000000E+00 0. -1.
         11    1    3    3    0    0 -0.11234309180E+02 -0.38510010024E+01 -0.15861249138E+01  0.11981473364E+02  0.51100000000E-03 0. -1.
        -11    1    3    3    0    0  0.31178311906E+01 -0.14288340001E+02  0.15002612982E+02  0.20951275089E+02  0.51100000000E-03 0.  1.
        -12    1    3    3    0    0  0.50497459578E+01  0.24147390005E+02 -0.30885803322E+02  0.39528840422E+02  0.00000000000E+00 0.  1.
</event>
<event>
 7    1  0.1302069E-013  0.7246158E+02  0.7816164E-02  0.1226708E+00
        -11   -1    0    0    0    0  0.00000000000E+00  0.00000000000E+00  0.45593999997E+02  0.45594000000E+02  0.51100000000E-03 0.  1.
         11   -1    0    0    0    0 -0.00000000000E+00 -0.00000000000E+00 -0.45593999997E+02  0.45594000000E+02  0.51100000000E-03 0. -1.
    9900012    2    1    2    0    0  0.18469740335E+02 -0.20430370932E+01  0.23180447084E+01  0.72461584436E+02  0.70000018423E+02 0.  0.
         12    1    1    2    0    0 -0.18469740335E+02  0.20430370932E+01 -0.23180447084E+01  0.18726415564E+02  0.00000000000E+00 0. -1.
         11    1    3    3    0    0  0.75982948242E+01 -0.12656459721E+02  0.12332458489E+02  0.19235633329E+02  0.51100000000E-03 0.  1.
        -11    1    3    3    0    0  0.68932243219E+01  0.26240679418E+02  0.87287934231E+01  0.28500554955E+02  0.51100000000E-03 0. -1.
        -12    1    3    3    0    0  0.39782211885E+01 -0.15627256790E+02 -0.18743207204E+02  0.24725396152E+02  0.00000000000E+00 0.  1.
</event>
<event>
 7    1  0.1302069E-013  0.7246157E+02  0.7816164E-02  0.1226708E+00
        -11   -1    0    0    0    0  0.00000000000E+00  0.00000000000E+00  0.45593999997E+02  0.45594000000E+02  0.51100000000E-03 0. -1.
         11   -1    0    0    0    0 -0.00000000000E+00 -0.00000000000E+00 -0.45593999997E+02  0.45594000000E+02  0.51100000000E-03 0.  1.
    9900012    2    1    2    0    0  0.10520752231E+02 -0.54412959015E+01 -0.14504665815E+02  0.72461567905E+02  0.69999996888E+02 0.  0.
         12    1    1    2    0    0 -0.10520752231E+02  0.54412959015E+01  0.14504665815E+02  0.18726432095E+02  0.00000000000E+00 0. -1.
         11    1    3    3    0    0  0.24532504339E+02 -0.25962887645E+02 -0.58243376587E+01  0.36191687076E+02  0.51100000000E-03 0. -1.
        -11    1    3    3    0    0 -0.78961055446E+01 -0.41067611021E+01 -0.60408691787E+01  0.10756675612E+02  0.51100000000E-03 0.  1.
         12    1    3    3    0    0 -0.61156465634E+01  0.24628352845E+02 -0.26394589776E+01  0.25513205217E+02  0.00000000000E+00 0. -1.
</event>
<event>
 7    1  0.1302069E-013  0.7246156E+02  0.7816164E-02  0.1226708E+00
        -11   -1    0    0    0    0  0.00000000000E+00  0.00000000000E+00  0.45593999997E+02  0.45594000000E+02  0.51100000000E-03 0.  1.
         11   -1    0    0    0    0 -0.00000000000E+00 -0.00000000000E+00 -0.45593999997E+02  0.45594000000E+02  0.51100000000E-03 0. -1.
    9900012    2    1    2    0    0  0.25174530737E+01 -0.44229883149E+01  0.18021632205E+02  0.72461558188E+02  0.69999984230E+02 0.  0.
         12    1    1    2    0    0 -0.25174530737E+01  0.44229883149E+01 -0.18021632205E+02  0.18726441812E+02  0.00000000000E+00 0. -1.
         11    1    3    3    0    0 -0.19736532715E+02 -0.21271793250E+02  0.22577163570E+02  0.36766128798E+02  0.51100000000E-03 0. -1.
        -11    1    3    3    0    0  0.24228982795E+02  0.15450525582E+02  0.19024205724E+01  0.28798985266E+02  0.51100000000E-03 0.  1.
        -12    1    3    3    0    0 -0.19749970064E+01  0.13982793533E+01 -0.64579519374E+01  0.68964441236E+01  0.00000000000E+00 0.  1.
</event>
<event>
 7    1  0.1302069E-013  0.7246156E+02  0.7816164E-02  0.1226708E+00
        -11   -1    0    0    0    0  0.00000000000E+00  0.00000000000E+00  0.45593999997E+02  0.45594000000E+02  0.51100000000E-03 0.  1.
         11   -1    0    0    0    0 -0.00000000000E+00 -0.00000000000E+00 -0.45593999997E+02  0.45594000000E+02  0.51100000000E-03 0. -1.
    9900012    2    1    2    0    0 -0.16251248146E+02 -0.37923723820E+00  0.92969149746E+01  0.72461561064E+02  0.69999987976E+02 0.  0.
         12    1    1    2    0    0  0.16251248146E+02  0.37923723820E+00 -0.92969149746E+01  0.18726438936E+02  0.00000000000E+00 0. -1.
         11    1    3    3    0    0  0.44188840474E+01  0.13662462498E+02 -0.22829108491E+02  0.26969568267E+02  0.51100000000E-03 0. -1.
        -11    1    3    3    0    0 -0.16648354945E+02 -0.96451351482E+01  0.83387239165E+01  0.20969756108E+02  0.51100000000E-03 0.  1.
         12    1    3    3    0    0 -0.40217772482E+01 -0.43965645878E+01  0.23787299550E+02  0.24522236690E+02  0.00000000000E+00 0. -1.
</event>
<event>
 7    1  0.1302069E-013  0.7246120E+02  0.7816164E-02  0.1226709E+00
        -11   -1    0    0    0    0  0.00000000000E+00  0.00000000000E+00  0.45593999997E+02  0.45594000000E+02  0.51100000000E-03 0. -1.
         11   -1    0    0    0    0 -0.00000000000E+00 -0.00000000000E+00 -0.45593999997E+02  0.45594000000E+02  0.51100000000E-03 0.  1.
    9900012    2    1    2    0    0 -0.49523704990E+01 -0.15248598321E+02 -0.96771598665E+01  0.72461197086E+02  0.69999513825E+02 0.  0.
         12    1    1    2    0    0  0.49523704990E+01  0.15248598321E+02  0.96771598665E+01  0.18726802914E+02  0.00000000000E+00 0. -1.
         11    1    3    3    0    0 -0.19774486220E+02 -0.24115923600E+02 -0.17108290385E+02  0.35571079215E+02  0.51100000000E-03 0. -1.
        -11    1    3    3    0    0  0.17040520116E+02  0.53407936842E+01 -0.89587114048E+01  0.19979036846E+02  0.51100000000E-03 0.  1.
         12    1    3    3    0    0 -0.22184043952E+01  0.35265315947E+01  0.16389841924E+02  0.16911081025E+02  0.00000000000E+00 0. -1.
</event>
<event>
 7    1  0.1302069E-013  0.7246157E+02  0.7816164E-02  0.1226708E+00
        -11   -1    0    0    0    0  0.00000000000E+00  0.00000000000E+00  0.45593999997E+02  0.45594000000E+02  0.51100000000E-03 0. -1.
         11   -1    0    0    0    0 -0.00000000000E+00 -0.00000000000E+00 -0.45593999997E+02  0.45594000000E+02  0.51100000000E-03 0.  1.
    9900012    2    1    2    0    0 -0.85516362642E+01  0.37038795422E+01 -0.16242846685E+02  0.72461567481E+02  0.69999996335E+02 0.  0.
         12    1    1    2    0    0  0.85516362642E+01 -0.37038795422E+01  0.16242846685E+02  0.18726432519E+02  0.00000000000E+00 0. -1.
         11    1    3    3    0    0 -0.76244659185E+01  0.34816535090E+02 -0.76733930768E+01  0.36458257745E+02  0.51100000000E-03 0.  1.
        -11    1    3    3    0    0  0.63083788629E+01 -0.16242531238E+02 -0.86779175584E+01  0.19465911700E+02  0.51100000000E-03 0. -1.
        -12    1    3    3    0    0 -0.72355492087E+01 -0.14870124311E+02  0.10846394978E+00  0.16537398036E+02  0.00000000000E+00 0.  1.
</event>
<event>
 7    1  0.1302069E-013  0.7246140E+02  0.7816164E-02  0.1226708E+00
        -11   -1    0    0    0    0  0.00000000000E+00  0.00000000000E+00  0.45593999997E+02  0.45594000000E+02  0.51100000000E-03 0. -1.
         11   -1    0    0    0    0 -0.00000000000E+00 -0.00000000000E+00 -0.45593999997E+02  0.45594000000E+02  0.51100000000E-03 0.  1.
    9900012    2    1    2    0    0  0.99914995126E+01 -0.98651013402E+01 -0.12390941042E+02  0.72461395746E+02  0.69999772618E+02 0.  0.
         12    1    1    2    0    0 -0.99914995126E+01  0.98651013402E+01  0.12390941042E+02  0.18726604254E+02  0.00000000000E+00 0. -1.
         11    1    3    3    0    0  0.10646927387E+02 -0.20240047369E+02  0.17147185468E+02  0.28583956164E+02  0.51100000000E-03 0. -1.
        -11    1    3    3    0    0  0.98319607570E+01  0.12363334550E+02 -0.41434185485E+01  0.16330566771E+02  0.51100000000E-03 0.  1.
         12    1    3    3    0    0 -0.10487388631E+02 -0.19883885217E+01 -0.25394707962E+02  0.27546872811E+02  0.00000000000E+00 0. -1.
</event>
<event>
 7    1  0.1302069E-013  0.7246152E+02  0.7816164E-02  0.1226708E+00
        -11   -1    0    0    0    0  0.00000000000E+00  0.00000000000E+00  0.45593999997E+02  0.45594000000E+02  0.51100000000E-03 0.  1.
         11   -1    0    0    0    0 -0.00000000000E+00 -0.00000000000E+00 -0.45593999997E+02  0.45594000000E+02  0.51100000000E-03 0. -1.
    9900012    2    1    2    0    0 -0.13288286197E+02  0.83939525176E+01  0.10180566408E+02  0.72461523521E+02  0.69999939069E+02 0.  0.
         12    1    1    2    0    0  0.13288286197E+02 -0.83939525176E+01 -0.10180566408E+02  0.18726476479E+02  0.00000000000E+00 0. -1.
         11    1    3    3    0    0  0.40205373938E+01  0.31413721947E+01 -0.22652701840E+02  0.23220203296E+02  0.51100000000E-03 0. -1.
        -11    1    3    3    0    0  0.64213886579E+01  0.90425136837E+01  0.17554822343E+02  0.20764707409E+02  0.51100000000E-03 0.  1.
        -12    1    3    3    0    0 -0.23730212249E+02 -0.37899333608E+01  0.15278445905E+02  0.28476612817E+02  0.00000000000E+00 0.  1.
</event>
<event>
 7    1  0.1302069E-013  0.7246156E+02  0.7816164E-02  0.1226708E+00
        -11   -1    0    0    0    0  0.00000000000E+00  0.00000000000E+00  0.45593999997E+02  0.45594000000E+02  0.51100000000E-03 0. -1.
         11   -1    0    0    0    0 -0.00000000000E+00 -0.00000000000E+00 -0.45593999997E+02  0.45594000000E+02  0.51100000000E-03 0.  1.
    9900012    2    1    2    0    0 -0.18023058462E+02 -0.36138532204E+01  0.35761462481E+01  0.72461564316E+02  0.69999992212E+02 0.  0.
         12    1    1    2    0    0  0.18023058462E+02  0.36138532204E+01 -0.35761462481E+01  0.18726435684E+02  0.00000000000E+00 0. -1.
         11    1    3    3    0    0  0.15629635691E+01 -0.12399789004E+02  0.13750698373E+02  0.18581693369E+02  0.51100000000E-03 0. -1.
        -11    1    3    3    0    0 -0.28763693006E+02 -0.18483570056E+01 -0.21399751495E+02  0.35898688323E+02  0.51100000000E-03 0.  1.
        -12    1    3    3    0    0  0.91776709749E+01  0.10634292789E+02  0.11225199370E+02  0.17981182624E+02  0.00000000000E+00 0.  1.
</event>
<event>
 7    1  0.1302069E-013  0.7246159E+02  0.7816164E-02  0.1226708E+00
        -11   -1    0    0    0    0  0.00000000000E+00  0.00000000000E+00  0.45593999997E+02  0.45594000000E+02  0.51100000000E-03 0. -1.
         11   -1    0    0    0    0 -0.00000000000E+00 -0.00000000000E+00 -0.45593999997E+02  0.45594000000E+02  0.51100000000E-03 0.  1.
    9900012    2    1    2    0    0  0.13928475687E+02 -0.23197821681E+01 -0.12300187219E+02  0.72461590043E+02  0.70000025726E+02 0.  0.
         12    1    1    2    0    0 -0.13928475687E+02  0.23197821681E+01  0.12300187219E+02  0.18726409957E+02  0.00000000000E+00 0. -1.
         11    1    3    3    0    0 -0.50692922006E+01 -0.12177018357E+02  0.25172144209E+02  0.28418556329E+02  0.51100000000E-03 0. -1.
        -11    1    3    3    0    0  0.15649051963E+02  0.36497207460E+01 -0.25161859808E+02  0.29855191812E+02  0.51100000000E-03 0.  1.
         12    1    3    3    0    0  0.33487159250E+01  0.62075154425E+01 -0.12310471620E+02  0.14187841902E+02  0.00000000000E+00 0. -1.
</event>
<event>
 7    1  0.1302069E-013  0.7246155E+02  0.7816164E-02  0.1226708E+00
        -11   -1    0    0    0    0  0.00000000000E+00  0.00000000000E+00  0.45593999997E+02  0.45594000000E+02  0.51100000000E-03 0.  1.
         11   -1    0    0    0    0 -0.00000000000E+00 -0.00000000000E+00 -0.45593999997E+02  0.45594000000E+02  0.51100000000E-03 0. -1.
    9900012    2    1    2    0    0 -0.98671779766E+01 -0.14286815882E+02  0.70146665710E+01  0.72461551955E+02  0.69999976110E+02 0.  0.
         12    1    1    2    0    0  0.98671779766E+01  0.14286815882E+02 -0.70146665710E+01  0.18726448045E+02  0.00000000000E+00 0. -1.
         11    1    3    3    0    0 -0.10077859533E+02 -0.33728024516E+02  0.24186591953E+02  0.42709883178E+02  0.51100000000E-03 0.  1.
        -11    1    3    3    0    0  0.71690438012E+01  0.89880709350E+01 -0.10305151599E+02  0.15439454585E+02  0.51100000000E-03 0. -1.
        -12    1    3    3    0    0 -0.69583622444E+01  0.10453137699E+02 -0.68667737828E+01  0.14312214192E+02  0.00000000000E+00 0.  1.
</event>
<event>
 7    1  0.1302069E-013  0.7246182E+02  0.7816164E-02  0.1226707E+00
        -11   -1    0    0    0    0  0.00000000000E+00  0.00000000000E+00  0.45593999997E+02  0.45594000000E+02  0.51100000000E-03 0.  1.
         11   -1    0    0    0    0 -0.00000000000E+00 -0.00000000000E+00 -0.45593999997E+02  0.45594000000E+02  0.51100000000E-03 0. -1.
    9900012    2    1    2    0    0 -0.26421145018E+01  0.92407880358E+01  0.16071613678E+02  0.72461823167E+02  0.70000329412E+02 0.  0.
         12    1    1    2    0    0  0.26421145018E+01 -0.92407880358E+01 -0.16071613678E+02  0.18726176833E+02  0.00000000000E+00 0. -1.
         11    1    3    3    0    0 -0.14747595292E+02 -0.17274771316E+02  0.12493129494E+02  0.25922723154E+02  0.51100000000E-03 0. -1.
        -11    1    3    3    0    0  0.23756704263E+02  0.10145349109E+02 -0.12901253742E+01  0.25864522608E+02  0.51100000000E-03 0.  1.
        -12    1    3    3    0    0 -0.11651223473E+02  0.16370210243E+02  0.48686095587E+01  0.20674577405E+02  0.00000000000E+00 0.  1.
</event>
<event>
 7    1  0.1302069E-013  0.7246153E+02  0.7816164E-02  0.1226708E+00
        -11   -1    0    0    0    0  0.00000000000E+00  0.00000000000E+00  0.45593999997E+02  0.45594000000E+02  0.51100000000E-03 0. -1.
         11   -1    0    0    0    0 -0.00000000000E+00 -0.00000000000E+00 -0.45593999997E+02  0.45594000000E+02  0.51100000000E-03 0.  1.
    9900012    2    1    2    0    0 -0.64311498614E+01 -0.17187905341E+02  0.37278527946E+01  0.72461530365E+02  0.69999947984E+02 0.  0.
         12    1    1    2    0    0  0.64311498614E+01  0.17187905341E+02 -0.37278527946E+01  0.18726469635E+02  0.00000000000E+00 0. -1.
         11    1    3    3    0    0 -0.52775220201E+01  0.87581263576E+01  0.92614583315E+01  0.13796072871E+02  0.51100000000E-03 0. -1.
        -11    1    3    3    0    0 -0.12291334706E+02 -0.29633667149E+02  0.14690117571E+02  0.35284992448E+02  0.51100000000E-03 0.  1.
        -12    1    3    3    0    0  0.11137706864E+02  0.36876354508E+01 -0.20223723108E+02  0.23380465046E+02  0.00000000000E+00 0.  1.
</event>
<event>
 7    1  0.1302069E-013  0.7246138E+02  0.7816164E-02  0.1226709E+00
        -11   -1    0    0    0    0  0.00000000000E+00  0.00000000000E+00  0.45593999997E+02  0.45594000000E+02  0.51100000000E-03 0.  1.
         11   -1    0    0    0    0 -0.00000000000E+00 -0.00000000000E+00 -0.45593999997E+02  0.45594000000E+02  0.51100000000E-03 0. -1.
    9900012    2    1    2    0    0 -0.14120228582E+02  0.11953442346E+02 -0.29018471895E+01  0.72461378409E+02  0.69999750033E+02 0.  0.
         12    1    1    2    0    0  0.14120228582E+02 -0.11953442346E+02  0.29018471895E+01  0.18726621591E+02  0.00000000000E+00 0. -1.
         11    1    3    3    0    0  0.11539794959E+02 -0.11950894393E+02 -0.16233935226E+02  0.23227815172E+02  0.51100000000E-03 0. -1.
        -11    1    3    3    0    0 -0.18236262411E+02  0.26228218361E+02 -0.20350260404E+01  0.32009717843E+02  0.51100000000E-03 0.  1.
        -12    1    3    3    0    0 -0.74237611300E+01 -0.23238816227E+01  0.15367114076E+02  0.17223845394E+02  0.00000000000E+00 0.  1.
</event>
<event>
 7    1  0.1302069E-013  0.7246156E+02  0.7816164E-02  0.1226708E+00
        -11   -1    0    0    0    0  0.00000000000E+00  0.00000000000E+00  0.45593999997E+02  0.45594000000E+02  0.51100000000E-03 0.  1.
         11   -1    0    0    0    0 -0.00000000000E+00 -0.00000000000E+00 -0.45593999997E+02  0.45594000000E+02  0.51100000000E-03 0. -1.
    9900012    2    1    2    0    0 -0.10598477428E+02  0.15305013970E+02 -0.20269124504E+01  0.72461560123E+02  0.69999986750E+02 0.  0.
         12    1    1    2    0    0  0.10598477428E+02 -0.15305013970E+02  0.20269124504E+01  0.18726439877E+02  0.00000000000E+00 0. -1.
         11    1    3    3    0    0  0.18566529055E+02 -0.64362958261E+01  0.14861976819E+01  0.19706615360E+02  0.51100000000E-03 0. -1.
        -11    1    3    3    0    0 -0.70323764825E+01  0.66720508561E+01  0.16629608004E+02  0.19248751758E+02  0.51100000000E-03 0.  1.
         12    1    3    3    0    0 -0.22132630001E+02  0.15069258940E+02 -0.20142718137E+02  0.33506193005E+02  0.00000000000E+00 0. -1.
</event>
<event>
 7    1  0.1302069E-013  0.7246155E+02  0.7816164E-02  0.1226708E+00
        -11   -1    0    0    0    0  0.00000000000E+00  0.00000000000E+00  0.45593999997E+02  0.45594000000E+02  0.51100000000E-03 0.  1.
         11   -1    0    0    0    0 -0.00000000000E+00 -0.00000000000E+00 -0.45593999997E+02  0.45594000000E+02  0.51100000000E-03 0. -1.
    9900012    2    1    2    0    0  0.18289505737E+02 -0.78963747958E+00  0.39434027427E+01  0.72461548851E+02  0.69999972066E+02 0.  0.
         12    1    1    2    0    0 -0.18289505737E+02  0.78963747958E+00 -0.39434027427E+01  0.18726451149E+02  0.00000000000E+00 0. -1.
         11    1    3    3    0    0 -0.38782580786E+01 -0.30754832708E+02  0.11535528797E+02  0.33075202879E+02  0.51100000000E-03 0. -1.
        -11    1    3    3    0    0  0.57891354200E+01  0.56510138471E+01  0.23596030684E+01  0.84270856951E+01  0.51100000000E-03 0.  1.
         12    1    3    3    0    0  0.16378628396E+02  0.24314181381E+02 -0.99517291225E+01  0.30959260277E+02  0.00000000000E+00 0. -1.
</event>
<event>
 7    1  0.1302069E-013  0.7246158E+02  0.7816164E-02  0.1226708E+00
        -11   -1    0    0    0    0  0.00000000000E+00  0.00000000000E+00  0.45593999997E+02  0.45594000000E+02  0.51100000000E-03 0.  1.
         11   -1    0    0    0    0 -0.00000000000E+00 -0.00000000000E+00 -0.45593999997E+02  0.45594000000E+02  0.51100000000E-03 0. -1.
    9900012    2    1    2    0    0 -0.74632389248E+01  0.16897371649E+02  0.30753169064E+01  0.72461583419E+02  0.70000017097E+02 0.  0.
         12    1    1    2    0    0  0.74632389248E+01 -0.16897371649E+02 -0.30753169064E+01  0.18726416581E+02  0.00000000000E+00 0. -1.
         11    1    3    3    0    0  0.15226794342E+02  0.10203025933E+02 -0.22229455452E+02  0.28811554871E+02  0.51100000000E-03 0. -1.
        -11    1    3    3    0    0 -0.22939897698E+02  0.14134424686E+02  0.14701725819E+02  0.30694651162E+02  0.51100000000E-03 0.  1.
        -12    1    3    3    0    0  0.24986443113E+00 -0.74400789701E+01  0.10603046539E+02  0.12955377386E+02  0.00000000000E+00 0.  1.
</event>
<event>
 7    1  0.1302069E-013  0.7246154E+02  0.7816164E-02  0.1226708E+00
        -11   -1    0    0    0    0  0.00000000000E+00  0.00000000000E+00  0.45593999997E+02  0.45594000000E+02  0.51100000000E-03 0. -1.
         11   -1    0    0    0    0 -0.00000000000E+00 -0.00000000000E+00 -0.45593999997E+02  0.45594000000E+02  0.51100000000E-03 0.  1.
    9900012    2    1    2    0    0  0.81694412515E+01  0.16411581048E+02 -0.38210571988E+01  0.72461541686E+02  0.69999962733E+02 0.  0.
         12    1    1    2    0    0 -0.81694412515E+01 -0.16411581048E+02  0.38210571988E+01  0.18726458314E+02  0.00000000000E+00 0. -1.
         11    1    3    3    0    0 -0.32868284185E+00  0.19891064309E+02  0.94833809834E+00  0.19916370582E+02  0.51100000000E-03 0. -1.
        -11    1    3    3    0    0 -0.14250796690E+02 -0.13855714028E+02 -0.15629106189E+02  0.25285074215E+02  0.51100000000E-03 0.  1.
        -12    1    3    3    0    0  0.22748920783E+02  0.10376230767E+02  0.10859710892E+02  0.27260096889E+02  0.00000000000E+00 0.  1.
</event>
<event>
 7    1  0.1302069E-013  0.7246159E+02  0.7816164E-02  0.1226708E+00
        -11   -1    0    0    0    0  0.00000000000E+00  0.00000000000E+00  0.45593999997E+02  0.45594000000E+02  0.51100000000E-03 0.  1.
         11   -1    0    0    0    0 -0.00000000000E+00 -0.00000000000E+00 -0.45593999997E+02  0.45594000000E+02  0.51100000000E-03 0. -1.
    9900012    2    1    2    0    0 -0.15261357989E+02 -0.99547932183E+01  0.43210500381E+01  0.72461590063E+02  0.70000025753E+02 0.  0.
         12    1    1    2    0    0  0.15261357989E+02  0.99547932183E+01 -0.43210500381E+01  0.18726409937E+02  0.00000000000E+00 0. -1.
         11    1    3    3    0    0  0.18752894515E+02  0.10858773898E+01 -0.98226848463E+01  0.21197530994E+02  0.51100000000E-03 0. -1.
        -11    1    3    3    0    0 -0.22093466433E+02 -0.93934350677E+00  0.24122379475E+02  0.32724498728E+02  0.51100000000E-03 0.  1.
        -12    1    3    3    0    0 -0.11920786071E+02 -0.10101327101E+02 -0.99786445904E+01  0.18539560341E+02  0.00000000000E+00 0.  1.
</event>
<event>
 7    1  0.1302069E-013  0.7246162E+02  0.7816164E-02  0.1226708E+00
        -11   -1    0    0    0    0  0.00000000000E+00  0.00000000000E+00  0.45593999997E+02  0.45594000000E+02  0.51100000000E-03 0. -1.
         11   -1    0    0    0    0 -0.00000000000E+00 -0.00000000000E+00 -0.45593999997E+02  0.45594000000E+02  0.51100000000E-03 0.  1.
    9900012    2    1    2    0    0  0.84462368096E+01 -0.12281495609E+02 -0.11335934065E+02  0.72461616159E+02  0.70000059747E+02 0.  0.
         12    1    1    2    0    0 -0.84462368096E+01  0.12281495609E+02  0.11335934065E+02  0.18726383841E+02  0.00000000000E+00 0. -1.
         11    1    3    3    0    0  0.23442914362E+02 -0.56322187604E+01  0.15978288545E+02  0.28924000882E+02  0.51100000000E-03 0. -1.
        -11    1    3    3    0    0 -0.62575918781E+01 -0.10879108954E+02 -0.30770729281E+02  0.33231765654E+02  0.51100000000E-03 0.  1.
         12    1    3    3    0    0 -0.87390856747E+01  0.42298321057E+01  0.34565066705E+01  0.10305849622E+02  0.00000000000E+00 0. -1.
</event>
<event>
 7    1  0.1302069E-013  0.7246162E+02  0.7816164E-02  0.1226708E+00
        -11   -1    0    0    0    0  0.00000000000E+00  0.00000000000E+00  0.45593999997E+02  0.45594000000E+02  0.51100000000E-03 0. -1.
         11   -1    0    0    0    0 -0.00000000000E+00 -0.00000000000E+00 -0.45593999997E+02  0.45594000000E+02  0.51100000000E-03 0.  1.
    9900012    2    1    2    0    0  0.26557272061E+00 -0.11163456583E+02 -0.15032759187E+02  0.72461624469E+02  0.70000070573E+02 0.  0.
         12    1    1    2    0    0 -0.26557272061E+00  0.11163456583E+02  0.15032759187E+02  0.18726375531E+02  0.00000000000E+00 0. -1.
         11    1    3    3    0    0  0.29089775904E+02 -0.12745461404E+00 -0.18459213660E+02  0.34452487225E+02  0.51100000000E-03 0.  1.
        -11    1    3    3    0    0 -0.25975393176E+02 -0.90624149785E-01 -0.65878973821E+00  0.25983904009E+02  0.51100000000E-03 0. -1.
        -12    1    3    3    0    0 -0.28488100071E+01 -0.10945377820E+02  0.40852442114E+01  0.12025233234E+02  0.00000000000E+00 0.  1.
</event>
<event>
 7    1  0.1302069E-013  0.7246155E+02  0.7816164E-02  0.1226708E+00
        -11   -1    0    0    0    0  0.00000000000E+00  0.00000000000E+00  0.45593999997E+02  0.45594000000E+02  0.51100000000E-03 0. -1.
         11   -1    0    0    0    0 -0.00000000000E+00 -0.00000000000E+00 -0.45593999997E+02  0.45594000000E+02  0.51100000000E-03 0.  1.
    9900012    2    1    2    0    0  0.30108742966E+01  0.11711791653E+02 -0.14298551378E+02  0.72461548140E+02  0.69999971140E+02 0.  0.
         12    1    1    2    0    0 -0.30108742966E+01 -0.11711791653E+02  0.14298551378E+02  0.18726451860E+02  0.00000000000E+00 0. -1.
         11    1    3    3    0    0  0.23034804207E+02  0.64876724730E+00  0.10832746828E+02  0.25463140182E+02  0.51100000000E-03 0. -1.
        -11    1    3    3    0    0 -0.10493633542E+02 -0.98449083062E+01 -0.22363366348E+01  0.14561585294E+02  0.51100000000E-03 0.  1.
         12    1    3    3    0    0 -0.95302963685E+01  0.20907932712E+02 -0.22894961572E+02  0.32436822664E+02  0.00000000000E+00 0. -1.
</event>
<event>
 7    1  0.1302069E-013  0.7246156E+02  0.7816164E-02  0.1226708E+00
        -11   -1    0    0    0    0  0.00000000000E+00  0.00000000000E+00  0.45593999997E+02  0.45594000000E+02  0.51100000000E-03 0.  1.
         11   -1    0    0    0    0 -0.00000000000E+00 -0.00000000000E+00 -0.45593999997E+02  0.45594000000E+02  0.51100000000E-03 0. -1.
    9900012    2    1    2    0    0 -0.17710993944E+02 -0.60678485209E+01  0.42610557108E+00  0.72461557249E+02  0.69999983006E+02 0.  0.
         12    1    1    2    0    0  0.17710993944E+02  0.60678485209E+01 -0.42610557108E+00  0.18726442751E+02  0.00000000000E+00 0. -1.
         11    1    3    3    0    0  0.10676627024E+02  0.10403587243E+02  0.10993669727E+02  0.18522574509E+02  0.51100000000E-03 0.  1.
        -11    1    3    3    0    0 -0.23515754798E+02  0.75789074568E+00 -0.22393409892E+02  0.32481224253E+02  0.51100000000E-03 0. -1.
        -12    1    3    3    0    0 -0.48718661690E+01 -0.17229326509E+02  0.11825845736E+02  0.21457758487E+02  0.00000000000E+00 0.  1.
</event>
<event>
 7    1  0.1302069E-013  0.7246152E+02  0.7816164E-02  0.1226708E+00
        -11   -1    0    0    0    0  0.00000000000E+00  0.00000000000E+00  0.45593999997E+02  0.45594000000E+02  0.51100000000E-03 0.  1.
         11   -1    0    0    0    0 -0.00000000000E+00 -0.00000000000E+00 -0.45593999997E+02  0.45594000000E+02  0.51100000000E-03 0. -1.
    9900012    2    1    2    0    0 -0.52010795943E+01  0.18747674205E+01  0.17891758373E+02  0.72461521433E+02  0.69999936349E+02 0.  0.
         12    1    1    2    0    0  0.52010795943E+01 -0.18747674205E+01 -0.17891758373E+02  0.18726478567E+02  0.00000000000E+00 0. -1.
         11    1    3    3    0    0  0.78942483386E+01  0.33142578545E+01 -0.16104304143E+02  0.18238751990E+02  0.51100000000E-03 0. -1.
        -11    1    3    3    0    0 -0.17430724868E+02 -0.85340102611E+01  0.18932259606E+00  0.19408640958E+02  0.51100000000E-03 0.  1.
         12    1    3    3    0    0  0.43353969348E+01  0.70945198271E+01  0.33806739920E+02  0.34814128485E+02  0.00000000000E+00 0. -1.
</event>
<event>
 7    1  0.1302069E-013  0.7246150E+02  0.7816164E-02  0.1226708E+00
        -11   -1    0    0    0    0  0.00000000000E+00  0.00000000000E+00  0.45593999997E+02  0.45594000000E+02  0.51100000000E-03 0.  1.
         11   -1    0    0    0    0 -0.00000000000E+00 -0.00000000000E+00 -0.45593999997E+02  0.45594000000E+02  0.51100000000E-03 0. -1.
    9900012    2    1    2    0    0  0.15093733732E+02 -0.16826587576E+01  0.10955811475E+02  0.72461496227E+02  0.69999903514E+02 0.  0.
         12    1    1    2    0    0 -0.15093733732E+02  0.16826587576E+01 -0.10955811475E+02  0.18726503773E+02  0.00000000000E+00 0. -1.
         11    1    3    3    0    0 -0.65676616017E+01 -0.10770885558E+02 -0.18697105041E+02  0.22554997048E+02  0.51100000000E-03 0. -1.
        -11    1    3    3    0    0  0.30356533617E+02  0.71470631342E+01  0.24039487431E+02  0.39376345703E+02  0.51100000000E-03 0.  1.
         12    1    3    3    0    0 -0.86951382836E+01  0.19411636666E+01  0.56134290853E+01  0.10530153477E+02  0.00000000000E+00 0. -1.
</event>
<event>
 7    1  0.1302069E-013  0.7246158E+02  0.7816164E-02  0.1226708E+00
        -11   -1    0    0    0    0  0.00000000000E+00  0.00000000000E+00  0.45593999997E+02  0.45594000000E+02  0.51100000000E-03 0.  1.
         11   -1    0    0    0    0 -0.00000000000E+00 -0.00000000000E+00 -0.45593999997E+02  0.45594000000E+02  0.51100000000E-03 0. -1.
    9900012    2    1    2    0    0  0.41596559963E+01 -0.17621157986E+02  0.47823580935E+01  0.72461577605E+02  0.70000009524E+02 0.  0.
         12    1    1    2    0    0 -0.41596559963E+01  0.17621157986E+02 -0.47823580935E+01  0.18726422395E+02  0.00000000000E+00 0. -1.
         11    1    3    3    0    0  0.15460554708E+02  0.18430934701E+02 -0.51983634550E+01  0.24612011065E+02  0.51100000000E-03 0. -1.
        -11    1    3    3    0    0 -0.16362172373E+02 -0.25987261750E+02  0.16471443120E+02  0.34847767457E+02  0.51100000000E-03 0.  1.
         12    1    3    3    0    0  0.50612736616E+01 -0.10064830936E+02 -0.64907215719E+01  0.13001799082E+02  0.00000000000E+00 0. -1.
</event>
<event>
 7    1  0.1302069E-013  0.7246157E+02  0.7816164E-02  0.1226708E+00
        -11   -1    0    0    0    0  0.00000000000E+00  0.00000000000E+00  0.45593999997E+02  0.45594000000E+02  0.51100000000E-03 0.  1.
         11   -1    0    0    0    0 -0.00000000000E+00 -0.00000000000E+00 -0.45593999997E+02  0.45594000000E+02  0.51100000000E-03 0. -1.
    9900012    2    1    2    0    0  0.17118640301E+02 -0.70318453866E+01  0.28608810879E+01  0.72461565852E+02  0.69999994213E+02 0.  0.
         12    1    1    2    0    0 -0.17118640301E+02  0.70318453866E+01 -0.28608810879E+01  0.18726434148E+02  0.00000000000E+00 0. -1.
         11    1    3    3    0    0  0.17220412721E+02 -0.19844292286E+01 -0.19500812466E+02  0.26091421209E+02  0.51100000000E-03 0. -1.
        -11    1    3    3    0    0  0.48416628396E+01  0.88224442644E+01  0.28644768632E+02  0.30361159268E+02  0.51100000000E-03 0.  1.
         12    1    3    3    0    0 -0.49434352593E+01 -0.13869860422E+02 -0.62830750778E+01  0.16008985375E+02  0.00000000000E+00 0. -1.
</event>
<event>
 7    1  0.1302069E-013  0.7246161E+02  0.7816164E-02  0.1226708E+00
        -11   -1    0    0    0    0  0.00000000000E+00  0.00000000000E+00  0.45593999997E+02  0.45594000000E+02  0.51100000000E-03 0. -1.
         11   -1    0    0    0    0 -0.00000000000E+00 -0.00000000000E+00 -0.45593999997E+02  0.45594000000E+02  0.51100000000E-03 0.  1.
    9900012    2    1    2    0    0 -0.16946002934E+02  0.79433234352E+01  0.64350285543E+00  0.72461614909E+02  0.70000058119E+02 0.  0.
         12    1    1    2    0    0  0.16946002934E+02 -0.79433234352E+01 -0.64350285543E+00  0.18726385091E+02  0.00000000000E+00 0. -1.
         11    1    3    3    0    0  0.19606144214E+02  0.11470922408E+02  0.51836947942E+01  0.23299219812E+02  0.51100000000E-03 0. -1.
        -11    1    3    3    0    0 -0.30066409716E+02  0.22131321176E+01 -0.16521651968E+02  0.34378073405E+02  0.51100000000E-03 0.  1.
        -12    1    3    3    0    0 -0.64857374319E+01 -0.57407310905E+01  0.11981460029E+02  0.14784321693E+02  0.00000000000E+00 0.  1.
</event>
<event>
 7    1  0.1302069E-013  0.7246155E+02  0.7816164E-02  0.1226708E+00
        -11   -1    0    0    0    0  0.00000000000E+00  0.00000000000E+00  0.45593999997E+02  0.45594000000E+02  0.51100000000E-03 0.  1.
         11   -1    0    0    0    0 -0.00000000000E+00 -0.00000000000E+00 -0.45593999997E+02  0.45594000000E+02  0.51100000000E-03 0. -1.
    9900012    2    1    2    0    0  0.12271424601E+02  0.69731767964E+01  0.12307188320E+02  0.72461549703E+02  0.69999973176E+02 0.  0.
         12    1    1    2    0    0 -0.12271424601E+02 -0.69731767964E+01 -0.12307188320E+02  0.18726450297E+02  0.00000000000E+00 0. -1.
         11    1    3    3    0    0  0.22785215824E+02  0.17808268470E+02  0.54172822057E+01  0.29421886969E+02  0.51100000000E-03 0.  1.
        -11    1    3    3    0    0 -0.15779159013E+01 -0.24700469030E+02 -0.96478122869E+00  0.24769614288E+02  0.51100000000E-03 0. -1.
        -12    1    3    3    0    0 -0.89358753216E+01  0.13865377356E+02  0.78546873428E+01  0.18270048447E+02  0.00000000000E+00 0.  1.
</event>
<event>
 7    1  0.1302069E-013  0.7246157E+02  0.7816164E-02  0.1226708E+00
        -11   -1    0    0    0    0  0.00000000000E+00  0.00000000000E+00  0.45593999997E+02  0.45594000000E+02  0.51100000000E-03 0.  1.
         11   -1    0    0    0    0 -0.00000000000E+00 -0.00000000000E+00 -0.45593999997E+02  0.45594000000E+02  0.51100000000E-03 0. -1.
    9900012    2    1    2    0    0  0.12388960079E+02 -0.11988131513E+02  0.73128226068E+01  0.72461574727E+02  0.70000005774E+02 0.  0.
         12    1    1    2    0    0 -0.12388960079E+02  0.11988131513E+02 -0.73128226068E+01  0.18726425273E+02  0.00000000000E+00 0. -1.
         11    1    3    3    0    0  0.25409291467E+02 -0.31732129524E+02 -0.17215365842E+01  0.40688128803E+02  0.51100000000E-03 0. -1.
        -11    1    3    3    0    0 -0.11211896745E+02  0.15277427240E+02 -0.26499304724E+01  0.19134485712E+02  0.51100000000E-03 0.  1.
        -12    1    3    3    0    0 -0.18084346427E+01  0.44665707709E+01  0.11684289663E+02  0.12638960212E+02  0.00000000000E+00 0.  1.
</event>
<event>
 7    1  0.1302069E-013  0.7246156E+02  0.7816164E-02  0.1226708E+00
        -11   -1    0    0    0    0  0.00000000000E+00  0.00000000000E+00  0.45593999997E+02  0.45594000000E+02  0.51100000000E-03 0.  1.
         11   -1    0    0    0    0 -0.00000000000E+00 -0.00000000000E+00 -0.45593999997E+02  0.45594000000E+02  0.51100000000E-03 0. -1.
    9900012    2    1    2    0    0  0.59169843599E+01 -0.35789892438E+01  0.17402863893E+02  0.72461560413E+02  0.69999987128E+02 0.  0.
         12    1    1    2    0    0 -0.59169843599E+01  0.35789892438E+01 -0.17402863893E+02  0.18726439587E+02  0.00000000000E+00 0. -1.
         11    1    3    3    0    0 -0.68699663355E+01 -0.22924192283E+02 -0.80092036309E+01  0.25236132278E+02  0.51100000000E-03 0. -1.
        -11    1    3    3    0    0  0.61034210979E+01 -0.57756732152E+01  0.18512887516E+02  0.20330694888E+02  0.51100000000E-03 0.  1.
         12    1    3    3    0    0  0.66835295975E+01  0.25120876255E+02  0.68991800080E+01  0.26894733248E+02  0.00000000000E+00 0. -1.
</event>
<event>
 7    1  0.1302069E-013  0.7246153E+02  0.7816164E-02  0.1226708E+00
        -11   -1    0    0    0    0  0.00000000000E+00  0.00000000000E+00  0.45593999997E+02  0.45594000000E+02  0.51100000000E-03 0. -1.
         11   -1    0    0    0    0 -0.00000000000E+00 -0.00000000000E+00 -0.45593999997E+02  0.45594000000E+02  0.51100000000E-03 0.  1.
    9900012    2    1    2    0    0  0.81060241915E+01  0.15439698274E+02 -0.68255981887E+01  0.72461529387E+02  0.69999946711E+02 0.  0.
         12    1    1    2    0    0 -0.81060241915E+01 -0.15439698274E+02  0.68255981887E+01  0.18726470613E+02  0.00000000000E+00 0. -1.
         11    1    3    3    0    0 -0.67643351149E+01 -0.24645240295E+01  0.68061401331E+01  0.99072524956E+01  0.51100000000E-03 0. -1.
        -11    1    3    3    0    0  0.28210970874E+02  0.98087407517E+01 -0.28294298792E+02  0.41141677374E+02  0.51100000000E-03 0.  1.
        -12    1    3    3    0    0 -0.13340611567E+02  0.80954815514E+01  0.14662560470E+02  0.21412599517E+02  0.00000000000E+00 0.  1.
</event>
<event>
 7    1  0.1302069E-013  0.7246159E+02  0.7816164E-02  0.1226708E+00
        -11   -1    0    0    0    0  0.00000000000E+00  0.00000000000E+00  0.45593999997E+02  0.45594000000E+02  0.51100000000E-03 0.  1.
         11   -1    0    0    0    0 -0.00000000000E+00 -0.00000000000E+00 -0.45593999997E+02  0.45594000000E+02  0.51100000000E-03 0. -1.
    9900012    2    1    2    0    0 -0.11232014365E+02  0.43938984046E+01  0.14325287058E+02  0.72461592464E+02  0.70000028880E+02 0.  0.
         12    1    1    2    0    0  0.11232014365E+02 -0.43938984046E+01 -0.14325287058E+02  0.18726407536E+02  0.00000000000E+00 0. -1.
         11    1    3    3    0    0 -0.13769876833E+02  0.21414016045E+02  0.58995344555E+01  0.26133773134E+02  0.51100000000E-03 0. -1.
        -11    1    3    3    0    0 -0.34691677369E+01 -0.25246431059E+02 -0.82511576859E+01  0.26786171981E+02  0.51100000000E-03 0.  1.
         12    1    3    3    0    0  0.60070302041E+01  0.82263134189E+01  0.16676910289E+02  0.19541647349E+02  0.00000000000E+00 0. -1.
</event>
<event>
 7    1  0.1302069E-013  0.7246159E+02  0.7816164E-02  0.1226708E+00
        -11   -1    0    0    0    0  0.00000000000E+00  0.00000000000E+00  0.45593999997E+02  0.45594000000E+02  0.51100000000E-03 0.  1.
         11   -1    0    0    0    0 -0.00000000000E+00 -0.00000000000E+00 -0.45593999997E+02  0.45594000000E+02  0.51100000000E-03 0. -1.
    9900012    2    1    2    0    0  0.97769685628E+01 -0.12447001184E+02 -0.10008074499E+02  0.72461587959E+02  0.70000023012E+02 0.  0.
         12    1    1    2    0    0 -0.97769685628E+01  0.12447001184E+02  0.10008074499E+02  0.18726412041E+02  0.00000000000E+00 0. -1.
         11    1    3    3    0    0  0.33226180493E+02 -0.72819004444E+01  0.32673144464E+01  0.34171340158E+02  0.51100000000E-03 0. -1.
        -11    1    3    3    0    0 -0.65532646257E+01 -0.14018589760E+02 -0.11200244710E+02  0.19102659970E+02  0.51100000000E-03 0.  1.
         12    1    3    3    0    0 -0.16895947305E+02  0.88534890207E+01 -0.20751442353E+01  0.19187587831E+02  0.00000000000E+00 0. -1.
</event>
<event>
 7    1  0.1302069E-013  0.7246156E+02  0.7816164E-02  0.1226708E+00
        -11   -1    0    0    0    0  0.00000000000E+00  0.00000000000E+00  0.45593999997E+02  0.45594000000E+02  0.51100000000E-03 0.  1.
         11   -1    0    0    0    0 -0.00000000000E+00 -0.00000000000E+00 -0.45593999997E+02  0.45594000000E+02  0.51100000000E-03 0. -1.
    9900012    2    1    2    0    0 -0.11632483249E+02 -0.35305936104E+01  0.14244290393E+02  0.72461559693E+02  0.69999986190E+02 0.  0.
         12    1    1    2    0    0  0.11632483249E+02  0.35305936104E+01 -0.14244290393E+02  0.18726440307E+02  0.00000000000E+00 0. -1.
         11    1    3    3    0    0 -0.20147755212E+02  0.25784139251E+02  0.11331870367E+02  0.34628964225E+02  0.51100000000E-03 0. -1.
        -11    1    3    3    0    0  0.98928811408E+01 -0.10069322754E+02  0.99763794017E+01  0.17285499825E+02  0.51100000000E-03 0.  1.
         12    1    3    3    0    0 -0.13776091787E+01 -0.19245410108E+02 -0.70639593765E+01  0.20547095643E+02  0.00000000000E+00 0. -1.
</event>
<event>
 7    1  0.1302069E-013  0.7246138E+02  0.7816164E-02  0.1226709E+00
        -11   -1    0    0    0    0  0.00000000000E+00  0.00000000000E+00  0.45593999997E+02  0.45594000000E+02  0.51100000000E-03 0. -1.
         11   -1    0    0    0    0 -0.00000000000E+00 -0.00000000000E+00 -0.45593999997E+02  0.45594000000E+02  0.51100000000E-03 0.  1.
    9900012    2    1    2    0    0 -0.50673663363E+01 -0.16099604271E+02 -0.81123901980E+01  0.72461379002E+02  0.69999750806E+02 0.  0.
         12    1    1    2    0    0  0.50673663363E+01  0.16099604271E+02  0.81123901980E+01  0.18726620998E+02  0.00000000000E+00 0. -1.
         11    1    3    3    0    0 -0.20578722441E+02  0.10414283693E+02  0.68005032593E+00  0.23073872472E+02  0.51100000000E-03 0. -1.
        -11    1    3    3    0    0  0.96489241863E+01 -0.30133840120E+02  0.67797341750E+01  0.32359154100E+02  0.51100000000E-03 0.  1.
        -12    1    3    3    0    0  0.58624319185E+01  0.36199521563E+01 -0.15572174699E+02  0.17028352430E+02  0.00000000000E+00 0.  1.
</event>
<event>
 7    1  0.1302069E-013  0.7246158E+02  0.7816164E-02  0.1226708E+00
        -11   -1    0    0    0    0  0.00000000000E+00  0.00000000000E+00  0.45593999997E+02  0.45594000000E+02  0.51100000000E-03 0.  1.
         11   -1    0    0    0    0 -0.00000000000E+00 -0.00000000000E+00 -0.45593999997E+02  0.45594000000E+02  0.51100000000E-03 0. -1.
    9900012    2    1    2    0    0  0.13710441640E+02 -0.11577868579E+02  0.53530809833E+01  0.72461582115E+02  0.70000015399E+02 0.  0.
         12    1    1    2    0    0 -0.13710441640E+02  0.11577868579E+02 -0.53530809833E+01  0.18726417885E+02  0.00000000000E+00 0. -1.
         11    1    3    3    0    0 -0.13648358375E+02  0.88068897299E+01  0.14213930041E+02  0.21584133073E+02  0.51100000000E-03 0. -1.
        -11    1    3    3    0    0  0.86550385964E+01 -0.23809650937E+02 -0.16664688983E+02  0.30323605161E+02  0.51100000000E-03 0.  1.
        -12    1    3    3    0    0  0.18703761418E+02  0.34248926278E+01  0.78038399251E+01  0.20553843881E+02  0.00000000000E+00 0.  1.
</event>
<event>
 7    1  0.1302069E-013  0.7246157E+02  0.7816164E-02  0.1226708E+00
        -11   -1    0    0    0    0  0.00000000000E+00  0.00000000000E+00  0.45593999997E+02  0.45594000000E+02  0.51100000000E-03 0.  1.
         11   -1    0    0    0    0 -0.00000000000E+00 -0.00000000000E+00 -0.45593999997E+02  0.45594000000E+02  0.51100000000E-03 0. -1.
    9900012    2    1    2    0    0 -0.82103369447E+01  0.72859411176E+01  0.15171833076E+02  0.72461572429E+02  0.70000002780E+02 0.  0.
         12    1    1    2    0    0  0.82103369447E+01 -0.72859411176E+01 -0.15171833076E+02  0.18726427571E+02  0.00000000000E+00 0. -1.
         11    1    3    3    0    0 -0.16656866871E+02 -0.19957060295E+02 -0.21732186952E+01  0.26085596588E+02  0.51100000000E-03 0.  1.
        -11    1    3    3    0    0 -0.60010953503E+01  0.22880830335E+02  0.36370209313E+00  0.23657510894E+02  0.51100000000E-03 0. -1.
         12    1    3    3    0    0  0.14447625277E+02  0.43621710768E+01  0.16981349678E+02  0.22718464946E+02  0.00000000000E+00 0. -1.
</event>
<event>
 7    1  0.1302069E-013  0.7246164E+02  0.7816164E-02  0.1226708E+00
        -11   -1    0    0    0    0  0.00000000000E+00  0.00000000000E+00  0.45593999997E+02  0.45594000000E+02  0.51100000000E-03 0. -1.
         11   -1    0    0    0    0 -0.00000000000E+00 -0.00000000000E+00 -0.45593999997E+02  0.45594000000E+02  0.51100000000E-03 0.  1.
    9900012    2    1    2    0    0  0.89073841167E+01 -0.81727484509E+00 -0.16451969436E+02  0.72461635476E+02  0.70000084911E+02 0.  0.
         12    1    1    2    0    0 -0.89073841167E+01  0.81727484509E+00  0.16451969436E+02  0.18726364524E+02  0.00000000000E+00 0. -1.
         11    1    3    3    0    0  0.55663483189E+00 -0.28382600979E+02 -0.30618517477E+00  0.28389709937E+02  0.51100000000E-03 0. -1.
        -11    1    3    3    0    0 -0.91611621477E+01  0.15329277368E+02 -0.10031733865E+01  0.17886307434E+02  0.51100000000E-03 0.  1.
         12    1    3    3    0    0  0.17511911432E+02  0.12236048766E+02 -0.15142610874E+02  0.26185618105E+02  0.00000000000E+00 0. -1.
</event>
<event>
 7    1  0.1302069E-013  0.7246159E+02  0.7816164E-02  0.1226708E+00
        -11   -1    0    0    0    0  0.00000000000E+00  0.00000000000E+00  0.45593999997E+02  0.45594000000E+02  0.51100000000E-03 0. -1.
         11   -1    0    0    0    0 -0.00000000000E+00 -0.00000000000E+00 -0.45593999997E+02  0.45594000000E+02  0.51100000000E-03 0.  1.
    9900012    2    1    2    0    0  0.10933407568E+02  0.23767111274E+01 -0.15016335773E+02  0.72461588254E+02  0.70000023396E+02 0.  0.
         12    1    1    2    0    0 -0.10933407568E+02 -0.23767111274E+01  0.15016335773E+02  0.18726411746E+02  0.00000000000E+00 0. -1.
         11    1    3    3    0    0  0.36732607060E+02 -0.32511658443E+00 -0.89833758060E+01  0.37816546158E+02  0.51100000000E-03 0. -1.
        -11    1    3    3    0    0 -0.60920339021E+01  0.89727476896E+01 -0.85516986261E+01  0.13811394854E+02  0.51100000000E-03 0.  1.
         12    1    3    3    0    0 -0.19707165590E+02 -0.62709199778E+01  0.25187386594E+01  0.20833647241E+02  0.00000000000E+00 0. -1.
</event>
<event>
 7    1  0.1302069E-013  0.7246155E+02  0.7816164E-02  0.1226708E+00
        -11   -1    0    0    0    0  0.00000000000E+00  0.00000000000E+00  0.45593999997E+02  0.45594000000E+02  0.51100000000E-03 0. -1.
         11   -1    0    0    0    0 -0.00000000000E+00 -0.00000000000E+00 -0.45593999997E+02  0.45594000000E+02  0.51100000000E-03 0.  1.
    9900012    2    1    2    0    0 -0.13467161020E+02  0.12148338265E+02  0.46619079911E+01  0.72461549865E+02  0.69999973387E+02 0.  0.
         12    1    1    2    0    0  0.13467161020E+02 -0.12148338265E+02 -0.46619079911E+01  0.18726450135E+02  0.00000000000E+00 0. -1.
         11    1    3    3    0    0 -0.17488364189E+02  0.12250989788E+02 -0.21792214617E+02  0.30509510828E+02  0.51100000000E-03 0. -1.
        -11    1    3    3    0    0  0.15396059317E+02 -0.70547013885E+01  0.69024467216E+01  0.18288007688E+02  0.51100000000E-03 0.  1.
         12    1    3    3    0    0 -0.11374856148E+02  0.69520498663E+01  0.19551675886E+02  0.23664031349E+02  0.00000000000E+00 0. -1.
</event>
<event>
 7    1  0.1302069E-013  0.7246222E+02  0.7816164E-02  0.1226706E+00
        -11   -1    0    0    0    0  0.00000000000E+00  0.00000000000E+00  0.45593999997E+02  0.45594000000E+02  0.51100000000E-03 0. -1.
         11   -1    0    0    0    0 -0.00000000000E+00 -0.00000000000E+00 -0.45593999997E+02  0.45594000000E+02  0.51100000000E-03 0.  1.
    9900012    2    1    2    0    0 -0.44633649063E+01 -0.23024820667E+01 -0.18039726755E+02  0.72462221208E+02  0.70000847931E+02 0.  0.
         12    1    1    2    0    0  0.44633649063E+01  0.23024820667E+01  0.18039726755E+02  0.18725778792E+02  0.00000000000E+00 0. -1.
         11    1    3    3    0    0  0.18124201634E+02 -0.18799282644E+02  0.77496710680E+01  0.27238889748E+02  0.51100000000E-03 0. -1.
        -11    1    3    3    0    0 -0.13189024865E+02  0.18116942091E+02 -0.27562502829E+02  0.35522746658E+02  0.51100000000E-03 0.  1.
        -12    1    3    3    0    0 -0.93985416747E+01 -0.16201415140E+01  0.17731050060E+01  0.97005848019E+01  0.00000000000E+00 0.  1.
</event>
<event>
 7    1  0.1302069E-013  0.7246157E+02  0.7816164E-02  0.1226708E+00
        -11   -1    0    0    0    0  0.00000000000E+00  0.00000000000E+00  0.45593999997E+02  0.45594000000E+02  0.51100000000E-03 0. -1.
         11   -1    0    0    0    0 -0.00000000000E+00 -0.00000000000E+00 -0.45593999997E+02  0.45594000000E+02  0.51100000000E-03 0.  1.
    9900012    2    1    2    0    0  0.23357249852E+01  0.13661714415E+02 -0.12592894075E+02  0.72461573935E+02  0.70000004743E+02 0.  0.
         12    1    1    2    0    0 -0.23357249852E+01 -0.13661714415E+02  0.12592894075E+02  0.18726426065E+02  0.00000000000E+00 0. -1.
         11    1    3    3    0    0 -0.71201920539E+01 -0.64459576936E+01  0.23025021776E+02  0.24947928442E+02  0.51100000000E-03 0. -1.
        -11    1    3    3    0    0  0.15709377745E+02  0.18081909749E+02 -0.22607292960E+02  0.32936753096E+02  0.51100000000E-03 0.  1.
         12    1    3    3    0    0 -0.62534607059E+01  0.20257623604E+01 -0.13010622891E+02  0.14576892397E+02  0.00000000000E+00 0. -1.
</event>
<event>
 7    1  0.1302069E-013  0.7246160E+02  0.7816164E-02  0.1226708E+00
        -11   -1    0    0    0    0  0.00000000000E+00  0.00000000000E+00  0.45593999997E+02  0.45594000000E+02  0.51100000000E-03 0. -1.
         11   -1    0    0    0    0 -0.00000000000E+00 -0.00000000000E+00 -0.45593999997E+02  0.45594000000E+02  0.51100000000E-03 0.  1.
    9900012    2    1    2    0    0  0.12684425736E+02  0.29046717785E+01  0.13466492633E+02  0.72461596228E+02  0.70000033783E+02 0.  0.
         12    1    1    2    0    0 -0.12684425736E+02 -0.29046717785E+01 -0.13466492633E+02  0.18726403772E+02  0.00000000000E+00 0. -1.
         11    1    3    3    0    0  0.19120931500E+02 -0.29883202586E+02  0.15898093572E+02  0.38876280657E+02  0.51100000000E-03 0. -1.
        -11    1    3    3    0    0 -0.46027969627E+01  0.17378554202E+02 -0.14566458463E+01  0.18036676618E+02  0.51100000000E-03 0.  1.
         12    1    3    3    0    0 -0.18337088014E+01  0.15409320162E+02 -0.97495509269E+00  0.15548638952E+02  0.00000000000E+00 0. -1.
</event>
<event>
 7    1  0.1302069E-013  0.7246159E+02  0.7816164E-02  0.1226708E+00
        -11   -1    0    0    0    0  0.00000000000E+00  0.00000000000E+00  0.45593999997E+02  0.45594000000E+02  0.51100000000E-03 0.  1.
         11   -1    0    0    0    0 -0.00000000000E+00 -0.00000000000E+00 -0.45593999997E+02  0.45594000000E+02  0.51100000000E-03 0. -1.
    9900012    2    1    2    0    0 -0.11654807333E+02 -0.85789822158E+01  0.11884659748E+02  0.72461585309E+02  0.70000019560E+02 0.  0.
         12    1    1    2    0    0  0.11654807333E+02  0.85789822158E+01 -0.11884659748E+02  0.18726414691E+02  0.00000000000E+00 0. -1.
         11    1    3    3    0    0 -0.26308135426E+02  0.10053926605E+02 -0.15529178802E+02  0.32161387163E+02  0.51100000000E-03 0. -1.
        -11    1    3    3    0    0  0.43095205156E+01 -0.18039778296E+02  0.21406045102E+02  0.28323565016E+02  0.51100000000E-03 0.  1.
         12    1    3    3    0    0  0.10343807577E+02 -0.59313052458E+00  0.60077934486E+01  0.11976633130E+02  0.00000000000E+00 0. -1.
</event>
<event>
 7    1  0.1302069E-013  0.7246161E+02  0.7816164E-02  0.1226708E+00
        -11   -1    0    0    0    0  0.00000000000E+00  0.00000000000E+00  0.45593999997E+02  0.45594000000E+02  0.51100000000E-03 0.  1.
         11   -1    0    0    0    0 -0.00000000000E+00 -0.00000000000E+00 -0.45593999997E+02  0.45594000000E+02  0.51100000000E-03 0. -1.
    9900012    2    1    2    0    0 -0.16291705587E+02 -0.88360623320E+01  0.26799088674E+01  0.72461612735E+02  0.70000055286E+02 0.  0.
         12    1    1    2    0    0  0.16291705587E+02  0.88360623320E+01 -0.26799088674E+01  0.18726387265E+02  0.00000000000E+00 0. -1.
         11    1    3    3    0    0  0.21715844899E+01 -0.15970336360E+02 -0.22487969451E+02  0.27667240429E+02  0.51100000000E-03 0. -1.
        -11    1    3    3    0    0 -0.13034739159E+02  0.15234261869E+02  0.26094156228E+01  0.20218709399E+02  0.51100000000E-03 0.  1.
        -12    1    3    3    0    0 -0.54285509186E+01 -0.80999878403E+01  0.22558462696E+02  0.24575662907E+02  0.00000000000E+00 0.  1.
</event>
<event>
 7    1  0.1302069E-013  0.7246156E+02  0.7816164E-02  0.1226708E+00
        -11   -1    0    0    0    0  0.00000000000E+00  0.00000000000E+00  0.45593999997E+02  0.45594000000E+02  0.51100000000E-03 0.  1.
         11   -1    0    0    0    0 -0.00000000000E+00 -0.00000000000E+00 -0.45593999997E+02  0.45594000000E+02  0.51100000000E-03 0. -1.
    9900012    2    1    2    0    0  0.99356178599E+01 -0.18449306364E+01  0.15765759478E+02  0.72461562986E+02  0.69999990480E+02 0.  0.
         12    1    1    2    0    0 -0.99356178599E+01  0.18449306364E+01 -0.15765759478E+02  0.18726437014E+02  0.00000000000E+00 0. -1.
         11    1    3    3    0    0 -0.75275957364E+01  0.11062256915E+02 -0.15176568928E+02  0.20232806782E+02  0.51100000000E-03 0. -1.
        -11    1    3    3    0    0  0.21025567482E+02 -0.22566152123E+02  0.18072918050E+02  0.35748231798E+02  0.51100000000E-03 0.  1.
         12    1    3    3    0    0 -0.35623538857E+01  0.96589645714E+01  0.12869410355E+02  0.16480524406E+02  0.00000000000E+00 0. -1.
</event>
<event>
 7    1  0.1302069E-013  0.7246149E+02  0.7816164E-02  0.1226708E+00
        -11   -1    0    0    0    0  0.00000000000E+00  0.00000000000E+00  0.45593999997E+02  0.45594000000E+02  0.51100000000E-03 0. -1.
         11   -1    0    0    0    0 -0.00000000000E+00 -0.00000000000E+00 -0.45593999997E+02  0.45594000000E+02  0.51100000000E-03 0.  1.
    9900012    2    1    2    0    0 -0.96235438917E+01  0.13336996958E+02 -0.89551185641E+01  0.72461488488E+02  0.69999893433E+02 0.  0.
         12    1    1    2    0    0  0.96235438917E+01 -0.13336996958E+02  0.89551185641E+01  0.18726511512E+02  0.00000000000E+00 0. -1.
         11    1    3    3    0    0  0.36465361897E+01 -0.10847875953E+02  0.96460711338E+00  0.11484951285E+02  0.51100000000E-03 0. -1.
        -11    1    3    3    0    0 -0.30612616798E+02  0.28113790398E+02 -0.11498371950E+02  0.43124587830E+02  0.51100000000E-03 0.  1.
        -12    1    3    3    0    0  0.17342536716E+02 -0.39289174878E+01  0.15786462723E+01  0.17851949374E+02  0.00000000000E+00 0.  1.
</event>
<event>
 7    1  0.1302069E-013  0.7246157E+02  0.7816164E-02  0.1226708E+00
        -11   -1    0    0    0    0  0.00000000000E+00  0.00000000000E+00  0.45593999997E+02  0.45594000000E+02  0.51100000000E-03 0.  1.
         11   -1    0    0    0    0 -0.00000000000E+00 -0.00000000000E+00 -0.45593999997E+02  0.45594000000E+02  0.51100000000E-03 0. -1.
    9900012    2    1    2    0    0  0.72343658867E+01 -0.15247312143E+02  0.81155849842E+01  0.72461566891E+02  0.69999995566E+02 0.  0.
         12    1    1    2    0    0 -0.72343658867E+01  0.15247312143E+02 -0.81155849842E+01  0.18726433109E+02  0.00000000000E+00 0. -1.
         11    1    3    3    0    0  0.28120479995E+02  0.46817478029E+01  0.17977027434E+02  0.33702428299E+02  0.51100000000E-03 0.  1.
        -11    1    3    3    0    0 -0.15599579922E+02 -0.43698830406E+01 -0.14438851627E+02  0.21700765151E+02  0.51100000000E-03 0. -1.
         12    1    3    3    0    0 -0.52865341861E+01 -0.15559176905E+02  0.45774091778E+01  0.17058373441E+02  0.00000000000E+00 0. -1.
</event>
<event>
 7    1  0.1302069E-013  0.7246144E+02  0.7816164E-02  0.1226708E+00
        -11   -1    0    0    0    0  0.00000000000E+00  0.00000000000E+00  0.45593999997E+02  0.45594000000E+02  0.51100000000E-03 0.  1.
         11   -1    0    0    0    0 -0.00000000000E+00 -0.00000000000E+00 -0.45593999997E+02  0.45594000000E+02  0.51100000000E-03 0. -1.
    9900012    2    1    2    0    0 -0.36139387263E+01 -0.17266905710E+02 -0.62831145658E+01  0.72461438261E+02  0.69999828002E+02 0.  0.
         12    1    1    2    0    0  0.36139387263E+01  0.17266905710E+02  0.62831145658E+01  0.18726561739E+02  0.00000000000E+00 0. -1.
         11    1    3    3    0    0  0.75492328156E+01 -0.16349316025E+02 -0.18555151207E+02  0.25857004605E+02  0.51100000000E-03 0. -1.
        -11    1    3    3    0    0 -0.16866743698E+02  0.13093315429E+02 -0.66638341713E+01  0.22368027138E+02  0.51100000000E-03 0.  1.
        -12    1    3    3    0    0  0.57035721565E+01 -0.14010905115E+02  0.18935870812E+02  0.24236406518E+02  0.00000000000E+00 0.  1.
</event>
<event>
 7    1  0.1302069E-013  0.7246189E+02  0.7816164E-02  0.1226707E+00
        -11   -1    0    0    0    0  0.00000000000E+00  0.00000000000E+00  0.45593999997E+02  0.45594000000E+02  0.51100000000E-03 0. -1.
         11   -1    0    0    0    0 -0.00000000000E+00 -0.00000000000E+00 -0.45593999997E+02  0.45594000000E+02  0.51100000000E-03 0.  1.
    9900012    2    1    2    0    0 -0.12960301298E+02  0.42814111509E+01  0.12820585952E+02  0.72461886807E+02  0.70000412315E+02 0.  0.
         12    1    1    2    0    0  0.12960301298E+02 -0.42814111509E+01 -0.12820585952E+02  0.18726113193E+02  0.00000000000E+00 0. -1.
         11    1    3    3    0    0  0.36335139396E+01 -0.22688043477E+02  0.11011270232E+02  0.25479360524E+02  0.51100000000E-03 0. -1.
        -11    1    3    3    0    0  0.71368954075E+01  0.17766744188E+02 -0.64810399060E+01  0.20213766439E+02  0.51100000000E-03 0.  1.
         12    1    3    3    0    0 -0.23730710645E+02  0.92027104392E+01  0.82903556266E+01  0.26768759843E+02  0.00000000000E+00 0. -1.
</event>
<event>
 7    1  0.1302069E-013  0.7246159E+02  0.7816164E-02  0.1226708E+00
        -11   -1    0    0    0    0  0.00000000000E+00  0.00000000000E+00  0.45593999997E+02  0.45594000000E+02  0.51100000000E-03 0. -1.
         11   -1    0    0    0    0 -0.00000000000E+00 -0.00000000000E+00 -0.45593999997E+02  0.45594000000E+02  0.51100000000E-03 0.  1.
    9900012    2    1    2    0    0  0.16243319211E+01  0.69015275032E+01 -0.17332310249E+02  0.72461587780E+02  0.70000022778E+02 0.  0.
         12    1    1    2    0    0 -0.16243319211E+01 -0.69015275032E+01  0.17332310249E+02  0.18726412220E+02  0.00000000000E+00 0. -1.
         11    1    3    3    0    0  0.71571734663E+01 -0.16955097160E+02  0.17214978661E+02  0.25200316314E+02  0.51100000000E-03 0. -1.
        -11    1    3    3    0    0 -0.84048641303E+01  0.12524308347E+02 -0.56809450122E+01  0.16117480483E+02  0.51100000000E-03 0.  1.
         12    1    3    3    0    0  0.28720225851E+01  0.11332316317E+02 -0.28866343898E+02  0.31143790984E+02  0.00000000000E+00 0. -1.
</event>
<event>
 7    1  0.1302069E-013  0.7246160E+02  0.7816164E-02  0.1226708E+00
        -11   -1    0    0    0    0  0.00000000000E+00  0.00000000000E+00  0.45593999997E+02  0.45594000000E+02  0.51100000000E-03 0.  1.
         11   -1    0    0    0    0 -0.00000000000E+00 -0.00000000000E+00 -0.45593999997E+02  0.45594000000E+02  0.51100000000E-03 0. -1.
    9900012    2    1    2    0    0  0.55920345063E+01 -0.83383562298E+00  0.17852503315E+02  0.72461601351E+02  0.70000040457E+02 0.  0.
         12    1    1    2    0    0 -0.55920345063E+01  0.83383562298E+00 -0.17852503315E+02  0.18726398649E+02  0.00000000000E+00 0. -1.
         11    1    3    3    0    0 -0.26079873910E+02 -0.81503691090E+01 -0.94529132767E+01  0.28912729194E+02  0.51100000000E-03 0. -1.
        -11    1    3    3    0    0  0.13529185086E+01 -0.15904279412E+01  0.31258438820E+01  0.37590889538E+01  0.51100000000E-03 0.  1.
         12    1    3    3    0    0  0.30318989908E+02  0.89069614272E+01  0.24179572709E+02  0.39789783203E+02  0.00000000000E+00 0. -1.
</event>
<event>
 7    1  0.1302069E-013  0.7246162E+02  0.7816164E-02  0.1226708E+00
        -11   -1    0    0    0    0  0.00000000000E+00  0.00000000000E+00  0.45593999997E+02  0.45594000000E+02  0.51100000000E-03 0. -1.
         11   -1    0    0    0    0 -0.00000000000E+00 -0.00000000000E+00 -0.45593999997E+02  0.45594000000E+02  0.51100000000E-03 0.  1.
    9900012    2    1    2    0    0  0.10416840031E+02 -0.14670366826E+02 -0.51910447731E+01  0.72461623819E+02  0.70000069725E+02 0.  0.
         12    1    1    2    0    0 -0.10416840031E+02  0.14670366826E+02  0.51910447731E+01  0.18726376181E+02  0.00000000000E+00 0. -1.
         11    1    3    3    0    0  0.19721990023E+02 -0.36159302450E+01  0.17149484736E+02  0.26384402001E+02  0.51100000000E-03 0. -1.
        -11    1    3    3    0    0 -0.12961673162E+01 -0.23916304624E+02 -0.81003466827E+01  0.25284091703E+02  0.51100000000E-03 0.  1.
         12    1    3    3    0    0 -0.80089826757E+01  0.12861868043E+02 -0.14240182826E+02  0.20793130115E+02  0.00000000000E+00 0. -1.
</event>
<event>
 7    1  0.1302069E-013  0.7246157E+02  0.7816164E-02  0.1226708E+00
        -11   -1    0    0    0    0  0.00000000000E+00  0.00000000000E+00  0.45593999997E+02  0.45594000000E+02  0.51100000000E-03 0.  1.
         11   -1    0    0    0    0 -0.00000000000E+00 -0.00000000000E+00 -0.45593999997E+02  0.45594000000E+02  0.51100000000E-03 0. -1.
    9900012    2    1    2    0    0  0.14332185514E+02 -0.24350994823E+01  0.11804151454E+02  0.72461568342E+02  0.69999997456E+02 0.  0.
         12    1    1    2    0    0 -0.14332185514E+02  0.24350994823E+01 -0.11804151454E+02  0.18726431658E+02  0.00000000000E+00 0. -1.
         11    1    3    3    0    0  0.23058508084E+02 -0.23149547660E+02  0.83463498159E+01  0.33723254699E+02  0.51100000000E-03 0.  1.
        -11    1    3    3    0    0 -0.41708774918E-01  0.23675517534E+02  0.11696130355E+02  0.26407031936E+02  0.51100000000E-03 0. -1.
        -12    1    3    3    0    0 -0.86846137950E+01 -0.29610693555E+01 -0.82383287169E+01  0.12331281707E+02  0.00000000000E+00 0.  1.
</event>
<event>
 7    1  0.1302069E-013  0.7246155E+02  0.7816164E-02  0.1226708E+00
        -11   -1    0    0    0    0  0.00000000000E+00  0.00000000000E+00  0.45593999997E+02  0.45594000000E+02  0.51100000000E-03 0.  1.
         11   -1    0    0    0    0 -0.00000000000E+00 -0.00000000000E+00 -0.45593999997E+02  0.45594000000E+02  0.51100000000E-03 0. -1.
    9900012    2    1    2    0    0 -0.84210708760E+01 -0.78833347264E+01  0.14751899340E+02  0.72461549849E+02  0.69999973366E+02 0.  0.
         12    1    1    2    0    0  0.84210708760E+01  0.78833347264E+01 -0.14751899340E+02  0.18726450151E+02  0.00000000000E+00 0. -1.
         11    1    3    3    0    0 -0.91307577550E+01 -0.31105550768E+02  0.17958649657E+02  0.37059939605E+02  0.51100000000E-03 0.  1.
        -11    1    3    3    0    0  0.11198637300E+02  0.20462866384E+02 -0.62260350026E+01  0.24143361202E+02  0.51100000000E-03 0. -1.
        -12    1    3    3    0    0 -0.10488950421E+02  0.27593496575E+01  0.30192846862E+01  0.11258249042E+02  0.00000000000E+00 0.  1.
</event>
<event>
 7    1  0.1302069E-013  0.7246112E+02  0.7816164E-02  0.1226709E+00
        -11   -1    0    0    0    0  0.00000000000E+00  0.00000000000E+00  0.45593999997E+02  0.45594000000E+02  0.51100000000E-03 0. -1.
         11   -1    0    0    0    0 -0.00000000000E+00 -0.00000000000E+00 -0.45593999997E+02  0.45594000000E+02  0.51100000000E-03 0.  1.
    9900012    2    1    2    0    0 -0.15920714953E+02 -0.79286174329E+01 -0.58620644737E+01  0.72461122553E+02  0.69999416732E+02 0.  0.
         12    1    1    2    0    0  0.15920714953E+02  0.79286174329E+01  0.58620644737E+01  0.18726877447E+02  0.00000000000E+00 0. -1.
         11    1    3    3    0    0 -0.18483541976E+02 -0.28751350216E+02  0.73221568489E+01  0.34955621070E+02  0.51100000000E-03 0. -1.
        -11    1    3    3    0    0  0.48774250064E+01  0.32999109172E+01 -0.18202912807E+02  0.19131772570E+02  0.51100000000E-03 0.  1.
         12    1    3    3    0    0 -0.23145979839E+01  0.17522821865E+02  0.50186914847E+01  0.18373728913E+02  0.00000000000E+00 0. -1.
</event>
<event>
 7    1  0.1302069E-013  0.7246113E+02  0.7816164E-02  0.1226709E+00
        -11   -1    0    0    0    0  0.00000000000E+00  0.00000000000E+00  0.45593999997E+02  0.45594000000E+02  0.51100000000E-03 0.  1.
         11   -1    0    0    0    0 -0.00000000000E+00 -0.00000000000E+00 -0.45593999997E+02  0.45594000000E+02  0.51100000000E-03 0. -1.
    9900012    2    1    2    0    0 -0.18225877888E+02 -0.20231875839E+01 -0.37973456867E+01  0.72461127676E+02  0.69999423405E+02 0.  0.
         12    1    1    2    0    0  0.18225877888E+02  0.20231875839E+01  0.37973456867E+01  0.18726872324E+02  0.00000000000E+00 0. -1.
         11    1    3    3    0    0 -0.24847384232E+02  0.16822208559E+02 -0.24723151982E+01  0.30107998052E+02  0.51100000000E-03 0. -1.
        -11    1    3    3    0    0  0.87695618157E+01 -0.13921801481E+02 -0.18264222905E+02  0.24582587527E+02  0.51100000000E-03 0.  1.
        -12    1    3    3    0    0 -0.21480554717E+01 -0.49235946623E+01  0.16939192417E+02  0.17770542098E+02  0.00000000000E+00 0.  1.
</event>
<event>
 7    1  0.1302069E-013  0.7246159E+02  0.7816164E-02  0.1226708E+00
        -11   -1    0    0    0    0  0.00000000000E+00  0.00000000000E+00  0.45593999997E+02  0.45594000000E+02  0.51100000000E-03 0. -1.
         11   -1    0    0    0    0 -0.00000000000E+00 -0.00000000000E+00 -0.45593999997E+02  0.45594000000E+02  0.51100000000E-03 0.  1.
    9900012    2    1    2    0    0  0.16649098079E+02 -0.31375078911E+01 -0.79775957721E+01  0.72461589321E+02  0.70000024785E+02 0.  0.
         12    1    1    2    0    0 -0.16649098079E+02  0.31375078911E+01  0.79775957721E+01  0.18726410679E+02  0.00000000000E+00 0. -1.
         11    1    3    3    0    0  0.17022459187E+02 -0.21694833272E+02  0.23100609553E+02  0.35973157624E+02  0.51100000000E-03 0. -1.
        -11    1    3    3    0    0  0.15095491408E+01  0.10908899164E+02 -0.20838901996E+02  0.23569952402E+02  0.51100000000E-03 0.  1.
         12    1    3    3    0    0 -0.18829102489E+01  0.76484262169E+01 -0.10239303329E+02  0.12918479294E+02  0.00000000000E+00 0. -1.
</event>
<event>
 7    1  0.1302069E-013  0.7246161E+02  0.7816164E-02  0.1226708E+00
        -11   -1    0    0    0    0  0.00000000000E+00  0.00000000000E+00  0.45593999997E+02  0.45594000000E+02  0.51100000000E-03 0.  1.
         11   -1    0    0    0    0 -0.00000000000E+00 -0.00000000000E+00 -0.45593999997E+02  0.45594000000E+02  0.51100000000E-03 0. -1.
    9900012    2    1    2    0    0  0.47709439253E+01 -0.10826840927E+02  0.14515342015E+02  0.72461613690E+02  0.70000056531E+02 0.  0.
         12    1    1    2    0    0 -0.47709439253E+01  0.10826840927E+02 -0.14515342015E+02  0.18726386310E+02  0.00000000000E+00 0. -1.
         11    1    3    3    0    0  0.76823790582E+01  0.11403766753E+01 -0.18477064962E+01  0.79833217719E+01  0.51100000000E-03 0. -1.
        -11    1    3    3    0    0 -0.23692064937E+02 -0.12303906613E+02  0.29582077730E+02  0.39847200428E+02  0.51100000000E-03 0.  1.
        -12    1    3    3    0    0  0.20780629804E+02  0.33668901057E+00 -0.13219029218E+02  0.24631091490E+02  0.00000000000E+00 0.  1.
</event>
<event>
 7    1  0.1302069E-013  0.7246154E+02  0.7816164E-02  0.1226708E+00
        -11   -1    0    0    0    0  0.00000000000E+00  0.00000000000E+00  0.45593999997E+02  0.45594000000E+02  0.51100000000E-03 0.  1.
         11   -1    0    0    0    0 -0.00000000000E+00 -0.00000000000E+00 -0.45593999997E+02  0.45594000000E+02  0.51100000000E-03 0. -1.
    9900012    2    1    2    0    0  0.98974772641E+01  0.87068845303E+01  0.13300764377E+02  0.72461542048E+02  0.69999963204E+02 0.  0.
         12    1    1    2    0    0 -0.98974772641E+01 -0.87068845303E+01 -0.13300764377E+02  0.18726457952E+02  0.00000000000E+00 0. -1.
         11    1    3    3    0    0 -0.18567255379E+02  0.92973079677E+01  0.12369623261E+01  0.20801754345E+02  0.51100000000E-03 0. -1.
        -11    1    3    3    0    0  0.30268981192E+02  0.98441489895E+01  0.20722694804E+02  0.37980897461E+02  0.51100000000E-03 0.  1.
         12    1    3    3    0    0 -0.18042485484E+01 -0.10434572427E+02 -0.86588927530E+01  0.13678890242E+02  0.00000000000E+00 0. -1.
</event>
<event>
 7    1  0.1302069E-013  0.7246156E+02  0.7816164E-02  0.1226708E+00
        -11   -1    0    0    0    0  0.00000000000E+00  0.00000000000E+00  0.45593999997E+02  0.45594000000E+02  0.51100000000E-03 0.  1.
         11   -1    0    0    0    0 -0.00000000000E+00 -0.00000000000E+00 -0.45593999997E+02  0.45594000000E+02  0.51100000000E-03 0. -1.
    9900012    2    1    2    0    0  0.46903485272E+01  0.17493609647E+02 -0.47595994373E+01  0.72461560547E+02  0.69999987302E+02 0.  0.
         12    1    1    2    0    0 -0.46903485272E+01 -0.17493609647E+02  0.47595994373E+01  0.18726439453E+02  0.00000000000E+00 0. -1.
         11    1    3    3    0    0  0.24084224306E+02  0.71574919538E+00  0.13963008786E+02  0.27848299265E+02  0.51100000000E-03 0.  1.
        -11    1    3    3    0    0 -0.28805245140E+01  0.15856463441E+02  0.39081532351E+01  0.16583079216E+02  0.51100000000E-03 0. -1.
         12    1    3    3    0    0 -0.16513351265E+02  0.92139701087E+00 -0.22630761458E+02  0.28030182066E+02  0.00000000000E+00 0. -1.
</event>
<event>
 7    1  0.1302069E-013  0.7246156E+02  0.7816164E-02  0.1226708E+00
        -11   -1    0    0    0    0  0.00000000000E+00  0.00000000000E+00  0.45593999997E+02  0.45594000000E+02  0.51100000000E-03 0.  1.
         11   -1    0    0    0    0 -0.00000000000E+00 -0.00000000000E+00 -0.45593999997E+02  0.45594000000E+02  0.51100000000E-03 0. -1.
    9900012    2    1    2    0    0 -0.14567490621E+02  0.15077238663E+01  0.11670238614E+02  0.72461561910E+02  0.69999989078E+02 0.  0.
         12    1    1    2    0    0  0.14567490621E+02 -0.15077238663E+01 -0.11670238614E+02  0.18726438090E+02  0.00000000000E+00 0. -1.
         11    1    3    3    0    0  0.15223055742E+02  0.21912051410E+02  0.12302212894E+02  0.29380671631E+02  0.51100000000E-03 0. -1.
        -11    1    3    3    0    0 -0.13508005241E+02  0.54063302865E+00 -0.77900960101E+01  0.15602694824E+02  0.51100000000E-03 0.  1.
         12    1    3    3    0    0 -0.16282541121E+02 -0.20944960573E+02  0.71581217300E+01  0.27478195455E+02  0.00000000000E+00 0. -1.
</event>
<event>
 7    1  0.1302069E-013  0.7246158E+02  0.7816164E-02  0.1226708E+00
        -11   -1    0    0    0    0  0.00000000000E+00  0.00000000000E+00  0.45593999997E+02  0.45594000000E+02  0.51100000000E-03 0.  1.
         11   -1    0    0    0    0 -0.00000000000E+00 -0.00000000000E+00 -0.45593999997E+02  0.45594000000E+02  0.51100000000E-03 0. -1.
    9900012    2    1    2    0    0  0.59121081088E+01  0.28261265422E+01  0.17542481831E+02  0.72461583303E+02  0.70000016946E+02 0.  0.
         12    1    1    2    0    0 -0.59121081088E+01 -0.28261265422E+01 -0.17542481831E+02  0.18726416697E+02  0.00000000000E+00 0. -1.
         11    1    3    3    0    0  0.36217159687E+01 -0.18920714216E+01 -0.17802717190E+02  0.18265637148E+02  0.51100000000E-03 0. -1.
        -11    1    3    3    0    0 -0.50351145158E+01  0.21215388859E+02  0.25790211943E+02  0.33772475997E+02  0.51100000000E-03 0.  1.
        -12    1    3    3    0    0  0.73255066559E+01 -0.16497190895E+02  0.95549870778E+01  0.20423470157E+02  0.00000000000E+00 0.  1.
</event>
<event>
 7    1  0.1302069E-013  0.7246160E+02  0.7816164E-02  0.1226708E+00
        -11   -1    0    0    0    0  0.00000000000E+00  0.00000000000E+00  0.45593999997E+02  0.45594000000E+02  0.51100000000E-03 0.  1.
         11   -1    0    0    0    0 -0.00000000000E+00 -0.00000000000E+00 -0.45593999997E+02  0.45594000000E+02  0.51100000000E-03 0. -1.
    9900012    2    1    2    0    0  0.67138938730E+01  0.34501997592E+01  0.17137613139E+02  0.72461600629E+02  0.70000039516E+02 0.  0.
         12    1    1    2    0    0 -0.67138938730E+01 -0.34501997592E+01 -0.17137613139E+02  0.18726399371E+02  0.00000000000E+00 0. -1.
         11    1    3    3    0    0  0.26658234440E+02  0.90031266316E+01  0.14380369283E+02  0.31599252738E+02  0.51100000000E-03 0. -1.
        -11    1    3    3    0    0 -0.14317831816E+02 -0.16320573660E+02  0.12709482842E+02  0.25157352542E+02  0.51100000000E-03 0.  1.
         12    1    3    3    0    0 -0.56265087509E+01  0.10767646788E+02 -0.99522389864E+01  0.15704995349E+02  0.00000000000E+00 0. -1.
</event>
<event>
 7    1  0.1302069E-013  0.7246158E+02  0.7816164E-02  0.1226708E+00
        -11   -1    0    0    0    0  0.00000000000E+00  0.00000000000E+00  0.45593999997E+02  0.45594000000E+02  0.51100000000E-03 0. -1.
         11   -1    0    0    0    0 -0.00000000000E+00 -0.00000000000E+00 -0.45593999997E+02  0.45594000000E+02  0.51100000000E-03 0.  1.
    9900012    2    1    2    0    0 -0.18721350705E+02 -0.38713803555E+00 -0.20024774017E+00  0.72461576229E+02  0.70000007731E+02 0.  0.
         12    1    1    2    0    0  0.18721350705E+02  0.38713803555E+00  0.20024774017E+00  0.18726423771E+02  0.00000000000E+00 0. -1.
         11    1    3    3    0    0  0.76189540191E+01 -0.14220347337E+01  0.71635762600E+01  0.10554026162E+02  0.51100000000E-03 0. -1.
        -11    1    3    3    0    0 -0.37754854969E+02 -0.41073591916E+01  0.11129776233E+02  0.39574883355E+02  0.51100000000E-03 0.  1.
        -12    1    3    3    0    0  0.11414550245E+02  0.51422558898E+01 -0.18493600233E+02  0.22332666713E+02  0.00000000000E+00 0.  1.
</event>
<event>
 7    1  0.1302069E-013  0.7246150E+02  0.7816164E-02  0.1226708E+00
        -11   -1    0    0    0    0  0.00000000000E+00  0.00000000000E+00  0.45593999997E+02  0.45594000000E+02  0.51100000000E-03 0. -1.
         11   -1    0    0    0    0 -0.00000000000E+00 -0.00000000000E+00 -0.45593999997E+02  0.45594000000E+02  0.51100000000E-03 0.  1.
    9900012    2    1    2    0    0 -0.14406542555E+02 -0.61252418808E+01 -0.10276908056E+02  0.72461497505E+02  0.69999905178E+02 0.  0.
         12    1    1    2    0    0  0.14406542555E+02  0.61252418808E+01  0.10276908056E+02  0.18726502495E+02  0.00000000000E+00 0. -1.
         11    1    3    3    0    0  0.32104546664E+01  0.14866175458E+02 -0.26534448801E+02  0.30584099878E+02  0.51100000000E-03 0.  1.
        -11    1    3    3    0    0 -0.18817223121E+02 -0.26744792897E+02  0.13365734977E+02  0.35327251589E+02  0.51100000000E-03 0. -1.
         12    1    3    3    0    0  0.12002259000E+01  0.57533755583E+01  0.28918057679E+01  0.65501460384E+01  0.00000000000E+00 0. -1.
</event>
<event>
 7    1  0.1302069E-013  0.7246153E+02  0.7816164E-02  0.1226708E+00
        -11   -1    0    0    0    0  0.00000000000E+00  0.00000000000E+00  0.45593999997E+02  0.45594000000E+02  0.51100000000E-03 0. -1.
         11   -1    0    0    0    0 -0.00000000000E+00 -0.00000000000E+00 -0.45593999997E+02  0.45594000000E+02  0.51100000000E-03 0.  1.
    9900012    2    1    2    0    0  0.75525380579E+01  0.14929740402E+02 -0.84108768818E+01  0.72461525973E+02  0.69999942263E+02 0.  0.
         12    1    1    2    0    0 -0.75525380579E+01 -0.14929740402E+02  0.84108768818E+01  0.18726474027E+02  0.00000000000E+00 0. -1.
         11    1    3    3    0    0  0.13810314416E+02  0.33209070638E+01  0.31265905408E+01  0.14544028901E+02  0.51100000000E-03 0. -1.
        -11    1    3    3    0    0 -0.26804623474E+02  0.21063037269E+02 -0.81115270789E+01  0.35041921328E+02  0.51100000000E-03 0.  1.
        -12    1    3    3    0    0  0.20546847115E+02 -0.94542039315E+01 -0.34259403436E+01  0.22875575744E+02  0.00000000000E+00 0.  1.
</event>
<event>
 7    1  0.1302069E-013  0.7246154E+02  0.7816164E-02  0.1226708E+00
        -11   -1    0    0    0    0  0.00000000000E+00  0.00000000000E+00  0.45593999997E+02  0.45594000000E+02  0.51100000000E-03 0.  1.
         11   -1    0    0    0    0 -0.00000000000E+00 -0.00000000000E+00 -0.45593999997E+02  0.45594000000E+02  0.51100000000E-03 0. -1.
    9900012    2    1    2    0    0 -0.10474391120E+02 -0.13638846681E+02 -0.74127716658E+01  0.72461542997E+02  0.69999964440E+02 0.  0.
         12    1    1    2    0    0  0.10474391120E+02  0.13638846681E+02  0.74127716658E+01  0.18726457003E+02  0.00000000000E+00 0. -1.
         11    1    3    3    0    0  0.14488303731E+01  0.17000428957E+02 -0.18308791980E+02  0.25026497122E+02  0.51100000000E-03 0. -1.
        -11    1    3    3    0    0 -0.21798791617E+02 -0.28097351524E+02  0.57882183625E+01  0.36029875807E+02  0.51100000000E-03 0.  1.
        -12    1    3    3    0    0  0.98755701243E+01 -0.25419241150E+01  0.51078019518E+01  0.11405170067E+02  0.00000000000E+00 0.  1.
</event>
<event>
 7    1  0.1302069E-013  0.7246161E+02  0.7816164E-02  0.1226708E+00
        -11   -1    0    0    0    0  0.00000000000E+00  0.00000000000E+00  0.45593999997E+02  0.45594000000E+02  0.51100000000E-03 0. -1.
         11   -1    0    0    0    0 -0.00000000000E+00 -0.00000000000E+00 -0.45593999997E+02  0.45594000000E+02  0.51100000000E-03 0.  1.
    9900012    2    1    2    0    0 -0.14375991660E+02  0.22473963944E+01  0.11788028959E+02  0.72461613442E+02  0.70000056208E+02 0.  0.
         12    1    1    2    0    0  0.14375991660E+02 -0.22473963944E+01 -0.11788028959E+02  0.18726386558E+02  0.00000000000E+00 0. -1.
         11    1    3    3    0    0  0.28489485705E+01 -0.14731633041E+01  0.25284260651E+02  0.25486870247E+02  0.51100000000E-03 0. -1.
        -11    1    3    3    0    0 -0.27591914282E+02  0.12913697258E+02 -0.12965442777E+02  0.33108609414E+02  0.51100000000E-03 0.  1.
        -12    1    3    3    0    0  0.10366974052E+02 -0.91931375596E+01 -0.53078891526E+00  0.13866133782E+02  0.00000000000E+00 0.  1.
</event>
<event>
 7    1  0.1302069E-013  0.7246155E+02  0.7816164E-02  0.1226708E+00
        -11   -1    0    0    0    0  0.00000000000E+00  0.00000000000E+00  0.45593999997E+02  0.45594000000E+02  0.51100000000E-03 0.  1.
         11   -1    0    0    0    0 -0.00000000000E+00 -0.00000000000E+00 -0.45593999997E+02  0.45594000000E+02  0.51100000000E-03 0. -1.
    9900012    2    1    2    0    0 -0.10188195401E+02 -0.52687549659E+01  0.14802727397E+02  0.72461552317E+02  0.69999976581E+02 0.  0.
         12    1    1    2    0    0  0.10188195401E+02  0.52687549659E+01 -0.14802727397E+02  0.18726447683E+02  0.00000000000E+00 0. -1.
         11    1    3    3    0    0 -0.34764139820E+01 -0.22364400804E+02  0.26189805098E+02  0.34614415621E+02  0.51100000000E-03 0.  1.
        -11    1    3    3    0    0  0.11525644327E+02  0.12099708039E+02 -0.23015146428E+01  0.16868324804E+02  0.51100000000E-03 0. -1.
         12    1    3    3    0    0 -0.18237425746E+02  0.49959377991E+01 -0.90855630574E+01  0.20978811892E+02  0.00000000000E+00 0. -1.
</event>
<event>
 7    1  0.1302069E-013  0.7246157E+02  0.7816164E-02  0.1226708E+00
        -11   -1    0    0    0    0  0.00000000000E+00  0.00000000000E+00  0.45593999997E+02  0.45594000000E+02  0.51100000000E-03 0.  1.
         11   -1    0    0    0    0 -0.00000000000E+00 -0.00000000000E+00 -0.45593999997E+02  0.45594000000E+02  0.51100000000E-03 0. -1.
    9900012    2    1    2    0    0  0.13606735837E+02 -0.58601896993E+01  0.11453998167E+02  0.72461570616E+02  0.70000000420E+02 0.  0.
         12    1    1    2    0    0 -0.13606735837E+02  0.58601896993E+01 -0.11453998167E+02  0.18726429384E+02  0.00000000000E+00 0. -1.
         11    1    3    3    0    0  0.11453680847E+02 -0.10125925015E+02 -0.21429051085E+02  0.26323476082E+02  0.51100000000E-03 0. -1.
        -11    1    3    3    0    0  0.46041998003E-01 -0.91835760053E+01  0.31076881088E+02  0.32405442854E+02  0.51100000000E-03 0.  1.
         12    1    3    3    0    0  0.21070129925E+01  0.13449311321E+02  0.18061681635E+01  0.13732651681E+02  0.00000000000E+00 0. -1.
</event>
<event>
 7    1  0.1302069E-013  0.7246233E+02  0.7816164E-02  0.1226706E+00
        -11   -1    0    0    0    0  0.00000000000E+00  0.00000000000E+00  0.45593999997E+02  0.45594000000E+02  0.51100000000E-03 0.  1.
         11   -1    0    0    0    0 -0.00000000000E+00 -0.00000000000E+00 -0.45593999997E+02  0.45594000000E+02  0.51100000000E-03 0. -1.
    9900012    2    1    2    0    0  0.39939267066E+01 -0.89130411315E+01  0.15976757825E+02  0.72462334636E+02  0.70000995689E+02 0.  0.
         12    1    1    2    0    0 -0.39939267066E+01  0.89130411315E+01 -0.15976757825E+02  0.18725665364E+02  0.00000000000E+00 0. -1.
         11    1    3    3    0    0  0.46914969832E+01 -0.22954116229E+02 -0.12445630524E+02  0.26529140868E+02  0.51100000000E-03 0. -1.
        -11    1    3    3    0    0  0.10023649118E+02  0.20487306691E+02  0.13670449972E+02  0.26591060148E+02  0.51100000000E-03 0.  1.
         12    1    3    3    0    0 -0.10721219394E+02 -0.64462315938E+01  0.14751938377E+02  0.19342133619E+02  0.00000000000E+00 0. -1.
</event>
<event>
 7    1  0.1302069E-013  0.7246179E+02  0.7816164E-02  0.1226707E+00
        -11   -1    0    0    0    0  0.00000000000E+00  0.00000000000E+00  0.45593999997E+02  0.45594000000E+02  0.51100000000E-03 0.  1.
         11   -1    0    0    0    0 -0.00000000000E+00 -0.00000000000E+00 -0.45593999997E+02  0.45594000000E+02  0.51100000000E-03 0. -1.
    9900012    2    1    2    0    0 -0.16322743042E+02  0.89410881399E+00 -0.91345357135E+01  0.72461785388E+02  0.70000280199E+02 0.  0.
         12    1    1    2    0    0  0.16322743042E+02 -0.89410881399E+00  0.91345357135E+01  0.18726214612E+02  0.00000000000E+00 0. -1.
         11    1    3    3    0    0 -0.20156478510E+02 -0.13978528279E+02 -0.13153621003E+02  0.27833444352E+02  0.51100000000E-03 0. -1.
        -11    1    3    3    0    0  0.76971537837E+00  0.43898870122E+01  0.22621803951E+02  0.23056660296E+02  0.51100000000E-03 0.  1.
        -12    1    3    3    0    0  0.30640200897E+01  0.10482750081E+02 -0.18602718661E+02  0.21571680740E+02  0.00000000000E+00 0.  1.
</event>
<event>
 7    1  0.1302069E-013  0.7246154E+02  0.7816164E-02  0.1226708E+00
        -11   -1    0    0    0    0  0.00000000000E+00  0.00000000000E+00  0.45593999997E+02  0.45594000000E+02  0.51100000000E-03 0.  1.
         11   -1    0    0    0    0 -0.00000000000E+00 -0.00000000000E+00 -0.45593999997E+02  0.45594000000E+02  0.51100000000E-03 0. -1.
    9900012    2    1    2    0    0 -0.63805148388E+01 -0.17479185727E+02 -0.21088644258E+01  0.72461542448E+02  0.69999963725E+02 0.  0.
         12    1    1    2    0    0  0.63805148388E+01  0.17479185727E+02  0.21088644258E+01  0.18726457552E+02  0.00000000000E+00 0. -1.
         11    1    3    3    0    0 -0.30893110944E+01 -0.21170967640E+02 -0.26116967361E+02  0.33761660182E+02  0.51100000000E-03 0. -1.
        -11    1    3    3    0    0  0.12959090377E+02  0.61079826120E+00  0.15120822440E+02  0.19923613363E+02  0.51100000000E-03 0.  1.
         12    1    3    3    0    0 -0.16250294122E+02  0.30809836517E+01  0.88872804956E+01  0.18776268903E+02  0.00000000000E+00 0. -1.
</event>
<event>
 7    1  0.1302069E-013  0.7246129E+02  0.7816164E-02  0.1226709E+00
        -11   -1    0    0    0    0  0.00000000000E+00  0.00000000000E+00  0.45593999997E+02  0.45594000000E+02  0.51100000000E-03 0. -1.
         11   -1    0    0    0    0 -0.00000000000E+00 -0.00000000000E+00 -0.45593999997E+02  0.45594000000E+02  0.51100000000E-03 0.  1.
    9900012    2    1    2    0    0 -0.11911021236E+02  0.44104653589E+01 -0.13760994691E+02  0.72461291628E+02  0.69999636984E+02 0.  0.
         12    1    1    2    0    0  0.11911021236E+02 -0.44104653589E+01  0.13760994691E+02  0.18726708372E+02  0.00000000000E+00 0. -1.
         11    1    3    3    0    0 -0.97010616439E+01  0.13113101815E+02 -0.69102609727E+01  0.17714845278E+02  0.51100000000E-03 0. -1.
        -11    1    3    3    0    0 -0.15077934868E+02 -0.18725735791E+02  0.14349005795E+02  0.27998058297E+02  0.51100000000E-03 0.  1.
        -12    1    3    3    0    0  0.12867975276E+02  0.10023099335E+02 -0.21199739514E+02  0.26748388053E+02  0.00000000000E+00 0.  1.
</event>
<event>
 7    1  0.1302069E-013  0.7246154E+02  0.7816164E-02  0.1226708E+00
        -11   -1    0    0    0    0  0.00000000000E+00  0.00000000000E+00  0.45593999997E+02  0.45594000000E+02  0.51100000000E-03 0.  1.
         11   -1    0    0    0    0 -0.00000000000E+00 -0.00000000000E+00 -0.45593999997E+02  0.45594000000E+02  0.51100000000E-03 0. -1.
    9900012    2    1    2    0    0  0.98577792582E+01  0.11614612469E+02  0.10890608045E+02  0.72461538020E+02  0.69999957956E+02 0.  0.
         12    1    1    2    0    0 -0.98577792582E+01 -0.11614612469E+02 -0.10890608045E+02  0.18726461980E+02  0.00000000000E+00 0. -1.
         11    1    3    3    0    0  0.16262291265E+02 -0.38857368997E+01 -0.13584795391E+02  0.21543159808E+02  0.51100000000E-03 0. -1.
        -11    1    3    3    0    0 -0.87784121035E+01 -0.11900656567E+02  0.16763500866E+02  0.22353995333E+02  0.51100000000E-03 0.  1.
        -12    1    3    3    0    0  0.23739000967E+01  0.27401005936E+02  0.77119025708E+01  0.28564382879E+02  0.00000000000E+00 0.  1.
</event>
<event>
 7    1  0.1302069E-013  0.7246161E+02  0.7816164E-02  0.1226708E+00
        -11   -1    0    0    0    0  0.00000000000E+00  0.00000000000E+00  0.45593999997E+02  0.45594000000E+02  0.51100000000E-03 0. -1.
         11   -1    0    0    0    0 -0.00000000000E+00 -0.00000000000E+00 -0.45593999997E+02  0.45594000000E+02  0.51100000000E-03 0.  1.
    9900012    2    1    2    0    0 -0.18667810183E+02  0.13549254584E+01 -0.59550419651E+00  0.72461612595E+02  0.70000055104E+02 0.  0.
         12    1    1    2    0    0  0.18667810183E+02 -0.13549254584E+01  0.59550419651E+00  0.18726387405E+02  0.00000000000E+00 0. -1.
         11    1    3    3    0    0  0.39592563851E+01  0.22630578480E+02  0.10410484153E+02  0.25222945387E+02  0.51100000000E-03 0. -1.
        -11    1    3    3    0    0 -0.29524124392E+02 -0.14000371798E+02 -0.44665206446E+00  0.32678491855E+02  0.51100000000E-03 0.  1.
         12    1    3    3    0    0  0.68970578243E+01 -0.72752812231E+01 -0.10559336285E+02  0.14560175352E+02  0.00000000000E+00 0. -1.
</event>
<event>
 7    1  0.1302069E-013  0.7246131E+02  0.7816164E-02  0.1226709E+00
        -11   -1    0    0    0    0  0.00000000000E+00  0.00000000000E+00  0.45593999997E+02  0.45594000000E+02  0.51100000000E-03 0.  1.
         11   -1    0    0    0    0 -0.00000000000E+00 -0.00000000000E+00 -0.45593999997E+02  0.45594000000E+02  0.51100000000E-03 0. -1.
    9900012    2    1    2    0    0  0.10987165032E+02 -0.14720485366E+02 -0.36439820516E+01  0.72461305416E+02  0.69999654946E+02 0.  0.
         12    1    1    2    0    0 -0.10987165032E+02  0.14720485366E+02  0.36439820516E+01  0.18726694584E+02  0.00000000000E+00 0. -1.
         11    1    3    3    0    0  0.11533515209E+01  0.12677285880E+01 -0.22867471515E+02  0.22931607211E+02  0.51100000000E-03 0. -1.
        -11    1    3    3    0    0  0.17417054595E+02  0.71625578603E+01  0.16461089612E+02  0.25012466838E+02  0.51100000000E-03 0.  1.
        -12    1    3    3    0    0 -0.75832410838E+01 -0.23150771815E+02  0.27623998514E+01  0.24517231367E+02  0.00000000000E+00 0.  1.
</event>
<event>
 7    1  0.1302069E-013  0.7246156E+02  0.7816164E-02  0.1226708E+00
        -11   -1    0    0    0    0  0.00000000000E+00  0.00000000000E+00  0.45593999997E+02  0.45594000000E+02  0.51100000000E-03 0.  1.
         11   -1    0    0    0    0 -0.00000000000E+00 -0.00000000000E+00 -0.45593999997E+02  0.45594000000E+02  0.51100000000E-03 0. -1.
    9900012    2    1    2    0    0  0.17116995913E+02  0.21165121898E+01 -0.72943961495E+01  0.72461564458E+02  0.69999992396E+02 0.  0.
         12    1    1    2    0    0 -0.17116995913E+02 -0.21165121898E+01  0.72943961495E+01  0.18726435542E+02  0.00000000000E+00 0. -1.
         11    1    3    3    0    0  0.30007506973E+02 -0.22103547523E+01  0.20107395640E+02  0.36188996982E+02  0.51100000000E-03 0. -1.
        -11    1    3    3    0    0 -0.10510611158E+02  0.11854129015E+02 -0.17431980005E+02  0.23555620322E+02  0.51100000000E-03 0.  1.
         12    1    3    3    0    0 -0.23798999019E+01 -0.75272620731E+01 -0.99698117852E+01  0.12716947153E+02  0.00000000000E+00 0. -1.
</event>
<event>
 7    1  0.1302069E-013  0.7246156E+02  0.7816164E-02  0.1226708E+00
        -11   -1    0    0    0    0  0.00000000000E+00  0.00000000000E+00  0.45593999997E+02  0.45594000000E+02  0.51100000000E-03 0. -1.
         11   -1    0    0    0    0 -0.00000000000E+00 -0.00000000000E+00 -0.45593999997E+02  0.45594000000E+02  0.51100000000E-03 0.  1.
    9900012    2    1    2    0    0  0.93914555437E+01 -0.16101576343E+02 -0.17942279061E+01  0.72461562759E+02  0.69999990184E+02 0.  0.
         12    1    1    2    0    0 -0.93914555437E+01  0.16101576343E+02  0.17942279061E+01  0.18726437241E+02  0.00000000000E+00 0. -1.
         11    1    3    3    0    0  0.99715189645E+01 -0.13516306292E+02  0.14016943044E+02  0.21876846637E+02  0.51100000000E-03 0. -1.
        -11    1    3    3    0    0 -0.12660375031E+02 -0.11749556146E+02 -0.26782241464E+02  0.31868881744E+02  0.51100000000E-03 0.  1.
         12    1    3    3    0    0  0.12080311610E+02  0.91642860945E+01  0.10971070514E+02  0.18715834377E+02  0.00000000000E+00 0. -1.
</event>
<event>
 7    1  0.1302069E-013  0.7246155E+02  0.7816164E-02  0.1226708E+00
        -11   -1    0    0    0    0  0.00000000000E+00  0.00000000000E+00  0.45593999997E+02  0.45594000000E+02  0.51100000000E-03 0.  1.
         11   -1    0    0    0    0 -0.00000000000E+00 -0.00000000000E+00 -0.45593999997E+02  0.45594000000E+02  0.51100000000E-03 0. -1.
    9900012    2    1    2    0    0  0.18347581453E+02  0.29876585737E+01  0.22627308936E+01  0.72461553460E+02  0.69999978070E+02 0.  0.
         12    1    1    2    0    0 -0.18347581453E+02 -0.29876585737E+01 -0.22627308936E+01  0.18726446540E+02  0.00000000000E+00 0. -1.
         11    1    3    3    0    0  0.30110503073E+02 -0.20639731774E+02  0.40459518830E+01  0.36728880325E+02  0.51100000000E-03 0. -1.
        -11    1    3    3    0    0  0.18828729952E+01  0.40269748188E+01  0.86073736580E+01  0.96875496622E+01  0.51100000000E-03 0.  1.
         12    1    3    3    0    0 -0.13645794615E+02  0.19600415529E+02 -0.10390594647E+02  0.26045123473E+02  0.00000000000E+00 0. -1.
</event>
<event>
 7    1  0.1302069E-013  0.7246153E+02  0.7816164E-02  0.1226708E+00
        -11   -1    0    0    0    0  0.00000000000E+00  0.00000000000E+00  0.45593999997E+02  0.45594000000E+02  0.51100000000E-03 0.  1.
         11   -1    0    0    0    0 -0.00000000000E+00 -0.00000000000E+00 -0.45593999997E+02  0.45594000000E+02  0.51100000000E-03 0. -1.
    9900012    2    1    2    0    0  0.12835747516E+02 -0.99834643902E+01  0.92873326987E+01  0.72461534125E+02  0.69999952882E+02 0.  0.
         12    1    1    2    0    0 -0.12835747516E+02  0.99834643902E+01 -0.92873326987E+01  0.18726465875E+02  0.00000000000E+00 0. -1.
         11    1    3    3    0    0 -0.22441384152E+01 -0.29317069213E+02  0.87208254945E+01  0.30668868614E+02  0.51100000000E-03 0. -1.
        -11    1    3    3    0    0  0.13538144567E+02  0.90068253692E+01  0.16225986938E+02  0.22971436915E+02  0.51100000000E-03 0.  1.
         12    1    3    3    0    0  0.15417413643E+01  0.10326779454E+02 -0.15659479734E+02  0.18821228596E+02  0.00000000000E+00 0. -1.
</event>
<event>
 7    1  0.1302069E-013  0.7246148E+02  0.7816164E-02  0.1226708E+00
        -11   -1    0    0    0    0  0.00000000000E+00  0.00000000000E+00  0.45593999997E+02  0.45594000000E+02  0.51100000000E-03 0.  1.
         11   -1    0    0    0    0 -0.00000000000E+00 -0.00000000000E+00 -0.45593999997E+02  0.45594000000E+02  0.51100000000E-03 0. -1.
    9900012    2    1    2    0    0 -0.52054660602E+01 -0.15178611331E+02  0.96537823624E+01  0.72461477826E+02  0.69999879543E+02 0.  0.
         12    1    1    2    0    0  0.52054660602E+01  0.15178611331E+02 -0.96537823624E+01  0.18726522174E+02  0.00000000000E+00 0. -1.
         11    1    3    3    0    0  0.13078213702E+02  0.12530221797E+02  0.28271733059E+02  0.33575839861E+02  0.51100000000E-03 0.  1.
        -11    1    3    3    0    0 -0.13488589710E+02 -0.13518993698E+02 -0.11606877372E+02  0.22347815230E+02  0.51100000000E-03 0. -1.
        -12    1    3    3    0    0 -0.47950900519E+01 -0.14189839430E+02 -0.70110733250E+01  0.16537822735E+02  0.00000000000E+00 0.  1.
</event>
<event>
 7    1  0.1302069E-013  0.7246158E+02  0.7816164E-02  0.1226708E+00
        -11   -1    0    0    0    0  0.00000000000E+00  0.00000000000E+00  0.45593999997E+02  0.45594000000E+02  0.51100000000E-03 0.  1.
         11   -1    0    0    0    0 -0.00000000000E+00 -0.00000000000E+00 -0.45593999997E+02  0.45594000000E+02  0.51100000000E-03 0. -1.
    9900012    2    1    2    0    0 -0.15969623997E+02 -0.85163144353E+01  0.48085722567E+01  0.72461578310E+02  0.70000010442E+02 0.  0.
         12    1    1    2    0    0  0.15969623997E+02  0.85163144353E+01 -0.48085722567E+01  0.18726421690E+02  0.00000000000E+00 0. -1.
         11    1    3    3    0    0 -0.66948854817E+01 -0.12893936397E+02 -0.27815773672E+02  0.31381401381E+02  0.51100000000E-03 0. -1.
        -11    1    3    3    0    0 -0.15709124501E+02  0.52494132522E+01  0.15181598976E+02  0.22468063552E+02  0.51100000000E-03 0.  1.
         12    1    3    3    0    0  0.64343859858E+01 -0.87179129084E+00  0.17442746953E+02  0.18612113377E+02  0.00000000000E+00 0. -1.
</event>
<event>
 8    1  0.1302069E-013  0.7246150E+02  0.7816164E-02  0.1226708E+00
        -11   -1    0    0    0    0  0.00000000000E+00  0.00000000000E+00  0.45593999997E+02  0.45594000000E+02  0.51100000000E-03 0.  1.
         11   -1    0    0    0    0 -0.00000000000E+00 -0.00000000000E+00 -0.45593999997E+02  0.45594000000E+02  0.51100000000E-03 0. -1.
    9900012    2    1    2    0    0 -0.15481540164E+02 -0.23972489846E+01  0.10259479549E+02  0.72461499815E+02  0.69999908188E+02 0.  0.
        -24    2    3    3    0    0  0.10205677100E+01 -0.37627750303E+01  0.34134652284E+01  0.54543571977E+02  0.54296864226E+02 0.  0.
         12    1    1    2    0    0  0.15481540164E+02  0.23972489846E+01 -0.10259479549E+02  0.18726500185E+02  0.00000000000E+00 0. -1.
         11    1    4    4    0    0  0.24984891459E+02  0.92912865880E+01  0.53412324403E+01  0.27186422566E+02  0.51100000000E-03 0. -1.
        -11    1    3    3    0    0 -0.16502107874E+02  0.13655260457E+01  0.68460143207E+01  0.17917927838E+02  0.51100000000E-03 0.  1.
        -12    1    4    4    0    0 -0.23964323749E+02 -0.13054061618E+02 -0.19277672119E+01  0.27357149411E+02  0.00000000000E+00 0.  1.
</event>
<event>
 7    1  0.1302069E-013  0.7246160E+02  0.7816164E-02  0.1226708E+00
        -11   -1    0    0    0    0  0.00000000000E+00  0.00000000000E+00  0.45593999997E+02  0.45594000000E+02  0.51100000000E-03 0. -1.
         11   -1    0    0    0    0 -0.00000000000E+00 -0.00000000000E+00 -0.45593999997E+02  0.45594000000E+02  0.51100000000E-03 0.  1.
    9900012    2    1    2    0    0 -0.11574746816E+02  0.75872092556E+01 -0.12614969064E+02  0.72461602786E+02  0.70000042326E+02 0.  0.
         12    1    1    2    0    0  0.11574746816E+02 -0.75872092556E+01  0.12614969064E+02  0.18726397214E+02  0.00000000000E+00 0. -1.
         11    1    3    3    0    0  0.13537736331E+02  0.44392917594E+01  0.22707913399E+02  0.26807218197E+02  0.51100000000E-03 0. -1.
        -11    1    3    3    0    0 -0.16650174584E+02 -0.32250517773E+01 -0.28138716209E+02  0.32854476450E+02  0.51100000000E-03 0.  1.
        -12    1    3    3    0    0 -0.84623085639E+01  0.63729692735E+01 -0.71841662534E+01  0.12799908138E+02  0.00000000000E+00 0.  1.
</event>
<event>
 8    1  0.1302069E-013  0.7246155E+02  0.7816164E-02  0.1226708E+00
        -11   -1    0    0    0    0  0.00000000000E+00  0.00000000000E+00  0.45593999997E+02  0.45594000000E+02  0.51100000000E-03 0.  1.
         11   -1    0    0    0    0 -0.00000000000E+00 -0.00000000000E+00 -0.45593999997E+02  0.45594000000E+02  0.51100000000E-03 0. -1.
    9900012    2    1    2    0    0  0.87830505502E+01  0.89497797732E+01  0.13908246894E+02  0.72461551681E+02  0.69999975753E+02 0.  0.
         24    2    3    3    0    0  0.11721503586E+02  0.19842880954E+02  0.12675644071E+02  0.61111949505E+02  0.55162168638E+02 0.  0.
         12    1    1    2    0    0 -0.87830505502E+01 -0.89497797732E+01 -0.13908246894E+02  0.18726448319E+02  0.00000000000E+00 0. -1.
         11    1    3    3    0    0 -0.29384530361E+01 -0.10893101181E+02  0.12326028232E+01  0.11349602176E+02  0.51100000000E-03 0. -1.
        -11    1    4    4    0    0  0.18326100490E+02  0.28160129739E+02 -0.10844577164E+02  0.35305009846E+02  0.51100000000E-03 0.  1.
         12    1    4    4    0    0 -0.66045969036E+01 -0.83172487853E+01  0.23520221235E+02  0.25806939659E+02  0.00000000000E+00 0. -1.
</event>
<event>
 7    1  0.1302069E-013  0.7246159E+02  0.7816164E-02  0.1226708E+00
        -11   -1    0    0    0    0  0.00000000000E+00  0.00000000000E+00  0.45593999997E+02  0.45594000000E+02  0.51100000000E-03 0. -1.
         11   -1    0    0    0    0 -0.00000000000E+00 -0.00000000000E+00 -0.45593999997E+02  0.45594000000E+02  0.51100000000E-03 0.  1.
    9900012    2    1    2    0    0  0.11012980723E+02  0.14824697038E+02  0.31017751546E+01  0.72461590953E+02  0.70000026912E+02 0.  0.
         12    1    1    2    0    0 -0.11012980723E+02 -0.14824697038E+02 -0.31017751546E+01  0.18726409047E+02  0.00000000000E+00 0. -1.
         11    1    3    3    0    0  0.14338455969E+02 -0.35027288270E+01  0.24106428220E+02  0.28266239767E+02  0.51100000000E-03 0. -1.
        -11    1    3    3    0    0 -0.12066014753E+02  0.19134043376E+02 -0.13398426173E+01  0.22660439237E+02  0.51100000000E-03 0.  1.
         12    1    3    3    0    0  0.87405395072E+01 -0.80661751034E+00 -0.19664810448E+02  0.21534911948E+02  0.00000000000E+00 0. -1.
</event>
<event>
 7    1  0.1302069E-013  0.7246159E+02  0.7816164E-02  0.1226708E+00
        -11   -1    0    0    0    0  0.00000000000E+00  0.00000000000E+00  0.45593999997E+02  0.45594000000E+02  0.51100000000E-03 0.  1.
         11   -1    0    0    0    0 -0.00000000000E+00 -0.00000000000E+00 -0.45593999997E+02  0.45594000000E+02  0.51100000000E-03 0. -1.
    9900012    2    1    2    0    0 -0.28936205498E+01  0.13350080242E+01  0.18453269207E+02  0.72461590020E+02  0.70000025696E+02 0.  0.
         12    1    1    2    0    0  0.28936205498E+01 -0.13350080242E+01 -0.18453269207E+02  0.18726409980E+02  0.00000000000E+00 0. -1.
         11    1    3    3    0    0  0.12274309252E+01  0.13843659740E+02 -0.14345487909E+02  0.19973645768E+02  0.51100000000E-03 0. -1.
        -11    1    3    3    0    0  0.21625307386E+01 -0.12063641775E+02  0.40629615836E+02  0.42437880193E+02  0.51100000000E-03 0.  1.
        -12    1    3    3    0    0 -0.62835822136E+01 -0.44500994072E+00 -0.78308587197E+01  0.10050064058E+02  0.00000000000E+00 0.  1.
</event>
<event>
 7    1  0.1302069E-013  0.7246156E+02  0.7816164E-02  0.1226708E+00
        -11   -1    0    0    0    0  0.00000000000E+00  0.00000000000E+00  0.45593999997E+02  0.45594000000E+02  0.51100000000E-03 0.  1.
         11   -1    0    0    0    0 -0.00000000000E+00 -0.00000000000E+00 -0.45593999997E+02  0.45594000000E+02  0.51100000000E-03 0. -1.
    9900012    2    1    2    0    0  0.24218913947E+01  0.69301566743E+01  0.17227504118E+02  0.72461560733E+02  0.69999987545E+02 0.  0.
         12    1    1    2    0    0 -0.24218913947E+01 -0.69301566743E+01 -0.17227504118E+02  0.18726439267E+02  0.00000000000E+00 0. -1.
         11    1    3    3    0    0 -0.15033659309E+02  0.95175092097E+01  0.99881956019E+01  0.20404851027E+02  0.51100000000E-03 0.  1.
        -11    1    3    3    0    0  0.11435435488E+02  0.17279948577E+02 -0.11836755720E+02  0.23863666815E+02  0.51100000000E-03 0. -1.
        -12    1    3    3    0    0  0.60201152155E+01 -0.19867301113E+02  0.19076064237E+02  0.28193042891E+02  0.00000000000E+00 0.  1.
</event>
<event>
 7    1  0.1302069E-013  0.7246157E+02  0.7816164E-02  0.1226708E+00
        -11   -1    0    0    0    0  0.00000000000E+00  0.00000000000E+00  0.45593999997E+02  0.45594000000E+02  0.51100000000E-03 0. -1.
         11   -1    0    0    0    0 -0.00000000000E+00 -0.00000000000E+00 -0.45593999997E+02  0.45594000000E+02  0.51100000000E-03 0.  1.
    9900012    2    1    2    0    0  0.65940750623E+01 -0.16895301639E+02 -0.46632853796E+01  0.72461567506E+02  0.69999996368E+02 0.  0.
         12    1    1    2    0    0 -0.65940750623E+01  0.16895301639E+02  0.46632853796E+01  0.18726432494E+02  0.00000000000E+00 0. -1.
         11    1    3    3    0    0  0.11841993537E+02 -0.63298299738E+01 -0.24085656165E+02  0.27575684789E+02  0.51100000000E-03 0. -1.
        -11    1    3    3    0    0  0.13225478502E+02  0.10924041917E+01  0.18826429825E+02  0.23033477565E+02  0.51100000000E-03 0.  1.
        -12    1    3    3    0    0 -0.18473396976E+02 -0.11657875857E+02  0.59594096106E+00  0.21852405153E+02  0.00000000000E+00 0.  1.
</event>
<event>
 7    1  0.1302069E-013  0.7246156E+02  0.7816164E-02  0.1226708E+00
        -11   -1    0    0    0    0  0.00000000000E+00  0.00000000000E+00  0.45593999997E+02  0.45594000000E+02  0.51100000000E-03 0.  1.
         11   -1    0    0    0    0 -0.00000000000E+00 -0.00000000000E+00 -0.45593999997E+02  0.45594000000E+02  0.51100000000E-03 0. -1.
    9900012    2    1    2    0    0  0.67253443053E+01  0.15548134926E+02  0.79815230378E+01  0.72461562386E+02  0.69999989699E+02 0.  0.
         12    1    1    2    0    0 -0.67253443053E+01 -0.15548134926E+02 -0.79815230378E+01  0.18726437614E+02  0.00000000000E+00 0. -1.
         11    1    3    3    0    0 -0.18978668978E+02 -0.12753560171E+02  0.15923536224E+01  0.22921142283E+02  0.51100000000E-03 0.  1.
        -11    1    3    3    0    0  0.17202611792E+02  0.91943335182E+01 -0.10954553707E+02  0.22371139186E+02  0.51100000000E-03 0. -1.
        -12    1    3    3    0    0  0.85014014912E+01  0.19107361579E+02  0.17343723123E+02  0.27169280917E+02  0.00000000000E+00 0.  1.
</event>
<event>
 7    1  0.1367953E-013  0.7246158E+02  0.7816164E-02  0.1226708E+00
        -11   -1    0    0    0    0  0.00000000000E+00  0.00000000000E+00  0.45593999997E+02  0.45594000000E+02  0.51100000000E-03 0.  1.
         11   -1    0    0    0    0 -0.00000000000E+00 -0.00000000000E+00 -0.45593999997E+02  0.45594000000E+02  0.51100000000E-03 0. -1.
    9900012    2    1    2    0    0 -0.65589494295E+01 -0.12920563420E+02 -0.11862467345E+02  0.72461577272E+02  0.70000009089E+02 0.  0.
         12    1    1    2    0    0  0.65589494295E+01  0.12920563420E+02  0.11862467345E+02  0.18726422728E+02  0.00000000000E+00 0. -1.
         11    1    3    3    0    0  0.25714411273E+02 -0.11721291535E+01  0.64391596663E+00  0.25749164296E+02  0.51100000000E-03 0. -1.
        -11    1    3    3    0    0 -0.21127487765E+02  0.46798968782E+01  0.25595950048E+01  0.21790449763E+02  0.51100000000E-03 0.  1.
        -12    1    3    3    0    0 -0.11145872938E+02 -0.16428331144E+02 -0.15065978316E+02  0.24921963213E+02  0.00000000000E+00 0.  1.
</event>
<event>
 7    1  0.1302069E-013  0.7246153E+02  0.7816164E-02  0.1226708E+00
        -11   -1    0    0    0    0  0.00000000000E+00  0.00000000000E+00  0.45593999997E+02  0.45594000000E+02  0.51100000000E-03 0. -1.
         11   -1    0    0    0    0 -0.00000000000E+00 -0.00000000000E+00 -0.45593999997E+02  0.45594000000E+02  0.51100000000E-03 0.  1.
    9900012    2    1    2    0    0 -0.44656425748E+01 -0.14756072933E+02 -0.10630005550E+02  0.72461530231E+02  0.69999947810E+02 0.  0.
         12    1    1    2    0    0  0.44656425748E+01  0.14756072933E+02  0.10630005550E+02  0.18726469769E+02  0.00000000000E+00 0. -1.
         11    1    3    3    0    0 -0.96765093826E+01 -0.16197467092E+02  0.22353306284E+02  0.29251719200E+02  0.51100000000E-03 0. -1.
        -11    1    3    3    0    0  0.46629102838E+01  0.83565717192E+01 -0.34756579482E+02  0.36049893770E+02  0.51100000000E-03 0.  1.
         12    1    3    3    0    0  0.54795652399E+00 -0.69151775604E+01  0.17732676483E+01  0.71599172619E+01  0.00000000000E+00 0. -1.
</event>
<event>
 7    1  0.1302069E-013  0.7246160E+02  0.7816164E-02  0.1226708E+00
        -11   -1    0    0    0    0  0.00000000000E+00  0.00000000000E+00  0.45593999997E+02  0.45594000000E+02  0.51100000000E-03 0. -1.
         11   -1    0    0    0    0 -0.00000000000E+00 -0.00000000000E+00 -0.45593999997E+02  0.45594000000E+02  0.51100000000E-03 0.  1.
    9900012    2    1    2    0    0  0.14362109462E+01  0.32934619092E+01 -0.18378473321E+02  0.72461604862E+02  0.70000045031E+02 0.  0.
         12    1    1    2    0    0 -0.14362109462E+01 -0.32934619092E+01  0.18378473321E+02  0.18726395138E+02  0.00000000000E+00 0. -1.
         11    1    3    3    0    0  0.33507916629E+02 -0.42280814212E+01 -0.30251117887E+01  0.33908825561E+02  0.51100000000E-03 0. -1.
        -11    1    3    3    0    0 -0.80776682528E+01  0.66290442141E+01 -0.80954639886E+00  0.10480854795E+02  0.51100000000E-03 0.  1.
         12    1    3    3    0    0 -0.23994037430E+02  0.89249911619E+00 -0.14543815134E+02  0.28071924507E+02  0.00000000000E+00 0. -1.
</event>
<event>
 7    1  0.1302069E-013  0.7246160E+02  0.7816164E-02  0.1226708E+00
        -11   -1    0    0    0    0  0.00000000000E+00  0.00000000000E+00  0.45593999997E+02  0.45594000000E+02  0.51100000000E-03 0. -1.
         11   -1    0    0    0    0 -0.00000000000E+00 -0.00000000000E+00 -0.45593999997E+02  0.45594000000E+02  0.51100000000E-03 0.  1.
    9900012    2    1    2    0    0  0.10956344302E+02  0.11719251392E+02  0.96589660561E+01  0.72461602617E+02  0.70000042107E+02 0.  0.
         12    1    1    2    0    0 -0.10956344302E+02 -0.11719251392E+02 -0.96589660561E+01  0.18726397383E+02  0.00000000000E+00 0. -1.
         11    1    3    3    0    0 -0.13532368736E+02  0.20127729572E+02  0.93307223737E+00  0.24271817513E+02  0.51100000000E-03 0. -1.
        -11    1    3    3    0    0  0.87995120842E+01 -0.83210024662E+01 -0.15288720323E+02  0.19504242214E+02  0.51100000000E-03 0.  1.
        -12    1    3    3    0    0  0.15689200954E+02 -0.87475713887E-01  0.24014614141E+02  0.28685542891E+02  0.00000000000E+00 0.  1.
</event>
<event>
 7    1  0.1302069E-013  0.7246155E+02  0.7816164E-02  0.1226708E+00
        -11   -1    0    0    0    0  0.00000000000E+00  0.00000000000E+00  0.45593999997E+02  0.45594000000E+02  0.51100000000E-03 0. -1.
         11   -1    0    0    0    0 -0.00000000000E+00 -0.00000000000E+00 -0.45593999997E+02  0.45594000000E+02  0.51100000000E-03 0.  1.
    9900012    2    1    2    0    0 -0.12423198451E+02  0.60825340478E+01  0.12623273247E+02  0.72461545246E+02  0.69999967369E+02 0.  0.
         12    1    1    2    0    0  0.12423198451E+02 -0.60825340478E+01 -0.12623273247E+02  0.18726454754E+02  0.00000000000E+00 0. -1.
         11    1    3    3    0    0 -0.33446149118E+02 -0.12751864305E+02  0.41593449338E+01  0.36035469813E+02  0.51100000000E-03 0. -1.
        -11    1    3    3    0    0  0.15053612780E+02 -0.61642441016E+00  0.41540951877E+01  0.15628427428E+02  0.51100000000E-03 0.  1.
         12    1    3    3    0    0  0.59693378874E+01  0.19450822763E+02  0.43098331259E+01  0.20797648005E+02  0.00000000000E+00 0. -1.
</event>
<event>
 7    1  0.1302069E-013  0.7246159E+02  0.7816164E-02  0.1226708E+00
        -11   -1    0    0    0    0  0.00000000000E+00  0.00000000000E+00  0.45593999997E+02  0.45594000000E+02  0.51100000000E-03 0. -1.
         11   -1    0    0    0    0 -0.00000000000E+00 -0.00000000000E+00 -0.45593999997E+02  0.45594000000E+02  0.51100000000E-03 0.  1.
    9900012    2    1    2    0    0 -0.35302791400E+01 -0.14001520674E+02 -0.11923624980E+02  0.72461593921E+02  0.70000030778E+02 0.  0.
         12    1    1    2    0    0  0.35302791400E+01  0.14001520674E+02  0.11923624980E+02  0.18726406079E+02  0.00000000000E+00 0. -1.
         11    1    3    3    0    0 -0.27039522862E+02  0.97245505388E+01  0.30582839088E+01  0.28897331719E+02  0.51100000000E-03 0. -1.
        -11    1    3    3    0    0  0.29143375311E+01  0.26241886356E+01 -0.86897777183E+01  0.95337278278E+01  0.51100000000E-03 0.  1.
         12    1    3    3    0    0  0.20594906191E+02 -0.26350259848E+02 -0.62921311702E+01  0.34030534373E+02  0.00000000000E+00 0. -1.
</event>
<event>
 7    1  0.1302069E-013  0.7246211E+02  0.7816164E-02  0.1226707E+00
        -11   -1    0    0    0    0  0.00000000000E+00  0.00000000000E+00  0.45593999997E+02  0.45594000000E+02  0.51100000000E-03 0. -1.
         11   -1    0    0    0    0 -0.00000000000E+00 -0.00000000000E+00 -0.45593999997E+02  0.45594000000E+02  0.51100000000E-03 0.  1.
    9900012    2    1    2    0    0 -0.63680023885E+00 -0.73277221978E+00 -0.18700703766E+02  0.72462114413E+02  0.70000708812E+02 0.  0.
         12    1    1    2    0    0  0.63680023885E+00  0.73277221978E+00  0.18700703766E+02  0.18725885587E+02  0.00000000000E+00 0. -1.
         11    1    3    3    0    0  0.68658444808E+01 -0.89390269016E+01 -0.18201899159E+02  0.21409230618E+02  0.51100000000E-03 0. -1.
        -11    1    3    3    0    0 -0.30256216096E+01  0.28932879220E+02 -0.46091933459E+01  0.29453532040E+02  0.51100000000E-03 0.  1.
        -12    1    3    3    0    0 -0.44770231101E+01 -0.20726624538E+02  0.41103887396E+01  0.21599351755E+02  0.00000000000E+00 0.  1.
</event>
<event>
 7    1  0.1302069E-013  0.7246154E+02  0.7816164E-02  0.1226708E+00
        -11   -1    0    0    0    0  0.00000000000E+00  0.00000000000E+00  0.45593999997E+02  0.45594000000E+02  0.51100000000E-03 0.  1.
         11   -1    0    0    0    0 -0.00000000000E+00 -0.00000000000E+00 -0.45593999997E+02  0.45594000000E+02  0.51100000000E-03 0. -1.
    9900012    2    1    2    0    0 -0.15139727620E+02 -0.91950795015E+00  0.10982878818E+02  0.72461535454E+02  0.69999954613E+02 0.  0.
         12    1    1    2    0    0  0.15139727620E+02  0.91950795015E+00 -0.10982878818E+02  0.18726464546E+02  0.00000000000E+00 0. -1.
         11    1    3    3    0    0  0.53975194988E+01 -0.16804214804E+02  0.10276339442E+02  0.20423467005E+02  0.51100000000E-03 0. -1.
        -11    1    3    3    0    0 -0.12536924549E+02  0.29279900369E+02  0.10593844554E+02  0.33566599253E+02  0.51100000000E-03 0.  1.
         12    1    3    3    0    0 -0.80003225701E+01 -0.13395193515E+02 -0.98873051788E+01  0.18471469195E+02  0.00000000000E+00 0. -1.
</event>
<event>
 7    1  0.1302069E-013  0.7246083E+02  0.7816164E-02  0.1226710E+00
        -11   -1    0    0    0    0  0.00000000000E+00  0.00000000000E+00  0.45593999997E+02  0.45594000000E+02  0.51100000000E-03 0. -1.
         11   -1    0    0    0    0 -0.00000000000E+00 -0.00000000000E+00 -0.45593999997E+02  0.45594000000E+02  0.51100000000E-03 0.  1.
    9900012    2    1    2    0    0 -0.12650055967E+02  0.13619527352E+02 -0.22784832569E+01  0.72460829172E+02  0.69999034544E+02 0.  0.
         12    1    1    2    0    0  0.12650055967E+02 -0.13619527352E+02  0.22784832569E+01  0.18727170828E+02  0.00000000000E+00 0. -1.
         11    1    3    3    0    0  0.19606239898E+01  0.36487580541E+02  0.14148241769E+02  0.39183674223E+02  0.51100000000E-03 0. -1.
        -11    1    3    3    0    0 -0.12728071492E+02 -0.18576307643E+02 -0.17440180030E+02  0.28482325911E+02  0.51100000000E-03 0.  1.
         12    1    3    3    0    0 -0.18826084650E+01 -0.42917455458E+01  0.10134550044E+01  0.47948290385E+01  0.00000000000E+00 0. -1.
</event>
<event>
 7    1  0.1302069E-013  0.7246167E+02  0.7816164E-02  0.1226708E+00
        -11   -1    0    0    0    0  0.00000000000E+00  0.00000000000E+00  0.45593999997E+02  0.45594000000E+02  0.51100000000E-03 0.  1.
         11   -1    0    0    0    0 -0.00000000000E+00 -0.00000000000E+00 -0.45593999997E+02  0.45594000000E+02  0.51100000000E-03 0. -1.
    9900012    2    1    2    0    0  0.54450380569E+01 -0.33291397518E+01  0.17605224657E+02  0.72461667040E+02  0.70000126029E+02 0.  0.
         12    1    1    2    0    0 -0.54450380569E+01  0.33291397518E+01 -0.17605224657E+02  0.18726332960E+02  0.00000000000E+00 0. -1.
         11    1    3    3    0    0 -0.57393281488E+01  0.56929473717E+01  0.11662928359E+02  0.14190610824E+02  0.51100000000E-03 0. -1.
        -11    1    3    3    0    0  0.15475694795E+02 -0.58067823191E+01 -0.23285333316E+02  0.28555605372E+02  0.51100000000E-03 0.  1.
        -12    1    3    3    0    0 -0.42913285889E+01 -0.32153048044E+01  0.29227629613E+02  0.29715450844E+02  0.00000000000E+00 0.  1.
</event>
<event>
 7    1  0.1302069E-013  0.7246150E+02  0.7816164E-02  0.1226708E+00
        -11   -1    0    0    0    0  0.00000000000E+00  0.00000000000E+00  0.45593999997E+02  0.45594000000E+02  0.51100000000E-03 0.  1.
         11   -1    0    0    0    0 -0.00000000000E+00 -0.00000000000E+00 -0.45593999997E+02  0.45594000000E+02  0.51100000000E-03 0. -1.
    9900012    2    1    2    0    0 -0.14993391833E+02  0.87212918655E+01 -0.70582575264E+01  0.72461501935E+02  0.69999910949E+02 0.  0.
         12    1    1    2    0    0  0.14993391833E+02 -0.87212918655E+01  0.70582575264E+01  0.18726498065E+02  0.00000000000E+00 0. -1.
         11    1    3    3    0    0 -0.25675117389E+02  0.23580393770E+02 -0.29272629254E+01  0.34983074362E+02  0.51100000000E-03 0. -1.
        -11    1    3    3    0    0  0.12782863924E+02 -0.40318066802E+01  0.11964381209E+02  0.17966732958E+02  0.51100000000E-03 0.  1.
        -12    1    3    3    0    0 -0.21011383682E+01 -0.10827295224E+02 -0.16095375810E+02  0.19511694616E+02  0.00000000000E+00 0.  1.
</event>
<event>
 7    1  0.1302069E-013  0.7246159E+02  0.7816164E-02  0.1226708E+00
        -11   -1    0    0    0    0  0.00000000000E+00  0.00000000000E+00  0.45593999997E+02  0.45594000000E+02  0.51100000000E-03 0.  1.
         11   -1    0    0    0    0 -0.00000000000E+00 -0.00000000000E+00 -0.45593999997E+02  0.45594000000E+02  0.51100000000E-03 0. -1.
    9900012    2    1    2    0    0 -0.11191471213E+02  0.14574110347E+02 -0.36089807224E+01  0.72461589181E+02  0.70000024603E+02 0.  0.
         12    1    1    2    0    0  0.11191471213E+02 -0.14574110347E+02  0.36089807224E+01  0.18726410819E+02  0.00000000000E+00 0. -1.
         11    1    3    3    0    0 -0.26162536578E+02  0.25741710227E+02  0.10753638581E+01  0.36718801360E+02  0.51100000000E-03 0. -1.
        -11    1    3    3    0    0  0.16274173615E+01 -0.10918384903E+02  0.10701826687E+02  0.15374937752E+02  0.51100000000E-03 0.  1.
         12    1    3    3    0    0  0.13343648003E+02 -0.24921497697E+00 -0.15386171268E+02  0.20367850069E+02  0.00000000000E+00 0. -1.
</event>
<event>
 7    1  0.1302069E-013  0.7246158E+02  0.7816164E-02  0.1226708E+00
        -11   -1    0    0    0    0  0.00000000000E+00  0.00000000000E+00  0.45593999997E+02  0.45594000000E+02  0.51100000000E-03 0.  1.
         11   -1    0    0    0    0 -0.00000000000E+00 -0.00000000000E+00 -0.45593999997E+02  0.45594000000E+02  0.51100000000E-03 0. -1.
    9900012    2    1    2    0    0 -0.96464594339E+01 -0.14921140826E+02  0.59147524471E+01  0.72461576966E+02  0.70000008691E+02 0.  0.
         12    1    1    2    0    0  0.96464594339E+01  0.14921140826E+02 -0.59147524471E+01  0.18726423034E+02  0.00000000000E+00 0. -1.
         11    1    3    3    0    0  0.53459274386E+01  0.11957444365E+02  0.41923462892E+01  0.13752642786E+02  0.51100000000E-03 0. -1.
        -11    1    3    3    0    0 -0.30459937419E+02 -0.25804698237E+02 -0.75704934629E+01  0.40632531428E+02  0.51100000000E-03 0.  1.
        -12    1    3    3    0    0  0.15467550547E+02 -0.10738869537E+01  0.92928996208E+01  0.18076402752E+02  0.00000000000E+00 0.  1.
</event>
<event>
 7    1  0.1302069E-013  0.7246162E+02  0.7816164E-02  0.1226708E+00
        -11   -1    0    0    0    0  0.00000000000E+00  0.00000000000E+00  0.45593999997E+02  0.45594000000E+02  0.51100000000E-03 0.  1.
         11   -1    0    0    0    0 -0.00000000000E+00 -0.00000000000E+00 -0.45593999997E+02  0.45594000000E+02  0.51100000000E-03 0. -1.
    9900012    2    1    2    0    0 -0.69764778137E+01 -0.17143015780E+02  0.28501081065E+01  0.72461618904E+02  0.70000063323E+02 0.  0.
         12    1    1    2    0    0  0.69764778137E+01  0.17143015780E+02 -0.28501081065E+01  0.18726381096E+02  0.00000000000E+00 0. -1.
         11    1    3    3    0    0 -0.16385213576E+02 -0.99389646277E+01 -0.21325312929E+02  0.28671016961E+02  0.51100000000E-03 0. -1.
        -11    1    3    3    0    0  0.13683272146E+02 -0.18649960174E+02  0.10353310057E+02  0.25342533033E+02  0.51100000000E-03 0.  1.
         12    1    3    3    0    0 -0.42745363842E+01  0.11445909021E+02  0.13822110979E+02  0.18448068911E+02  0.00000000000E+00 0. -1.
</event>
<event>
 7    1  0.1302069E-013  0.7246154E+02  0.7816164E-02  0.1226708E+00
        -11   -1    0    0    0    0  0.00000000000E+00  0.00000000000E+00  0.45593999997E+02  0.45594000000E+02  0.51100000000E-03 0.  1.
         11   -1    0    0    0    0 -0.00000000000E+00 -0.00000000000E+00 -0.45593999997E+02  0.45594000000E+02  0.51100000000E-03 0. -1.
    9900012    2    1    2    0    0 -0.76151784356E-01  0.72330230640E+00  0.18712333254E+02  0.72461537944E+02  0.69999957858E+02 0.  0.
         12    1    1    2    0    0  0.76151784356E-01 -0.72330230640E+00 -0.18712333254E+02  0.18726462056E+02  0.00000000000E+00 0. -1.
         11    1    3    3    0    0 -0.31760319409E+01 -0.11846110705E+02 -0.60827527860E+01  0.13690047460E+02  0.51100000000E-03 0. -1.
        -11    1    3    3    0    0 -0.12927190590E+02  0.28110498894E+02  0.15192601345E+02  0.34469225992E+02  0.51100000000E-03 0.  1.
        -12    1    3    3    0    0  0.16027070746E+02 -0.15541085883E+02  0.96024846956E+01  0.24302264492E+02  0.00000000000E+00 0.  1.
</event>
<event>
 7    1  0.1302069E-013  0.7246162E+02  0.7816164E-02  0.1226708E+00
        -11   -1    0    0    0    0  0.00000000000E+00  0.00000000000E+00  0.45593999997E+02  0.45594000000E+02  0.51100000000E-03 0.  1.
         11   -1    0    0    0    0 -0.00000000000E+00 -0.00000000000E+00 -0.45593999997E+02  0.45594000000E+02  0.51100000000E-03 0. -1.
    9900012    2    1    2    0    0 -0.33765156636E+01  0.14060415437E+02 -0.11898785544E+02  0.72461621874E+02  0.70000067192E+02 0.  0.
         12    1    1    2    0    0  0.33765156636E+01 -0.14060415437E+02  0.11898785544E+02  0.18726378126E+02  0.00000000000E+00 0. -1.
         11    1    3    3    0    0  0.16752248243E+00 -0.17232193459E+02 -0.13571647643E+02  0.21935500341E+02  0.51100000000E-03 0. -1.
        -11    1    3    3    0    0  0.44274245359E+01  0.30776442518E+02 -0.13093396121E+02  0.33737642542E+02  0.51100000000E-03 0.  1.
        -12    1    3    3    0    0 -0.79714626819E+01  0.51616637883E+00  0.14766258220E+02  0.16788478991E+02  0.00000000000E+00 0.  1.
</event>
<event>
 7    1  0.1302069E-013  0.7246162E+02  0.7816164E-02  0.1226708E+00
        -11   -1    0    0    0    0  0.00000000000E+00  0.00000000000E+00  0.45593999997E+02  0.45594000000E+02  0.51100000000E-03 0. -1.
         11   -1    0    0    0    0 -0.00000000000E+00 -0.00000000000E+00 -0.45593999997E+02  0.45594000000E+02  0.51100000000E-03 0.  1.
    9900012    2    1    2    0    0 -0.20726582582E+01 -0.51273728516E+01 -0.17891094597E+02  0.72461624737E+02  0.70000070921E+02 0.  0.
         12    1    1    2    0    0  0.20726582582E+01  0.51273728516E+01  0.17891094597E+02  0.18726375263E+02  0.00000000000E+00 0. -1.
         11    1    3    3    0    0 -0.28953920170E+02 -0.10830020279E+02 -0.23680361360E+02  0.38940702958E+02  0.51100000000E-03 0. -1.
        -11    1    3    3    0    0  0.23793708243E+02 -0.12055686182E+01 -0.27202641583E+00  0.23825783225E+02  0.51100000000E-03 0.  1.
        -12    1    3    3    0    0  0.30875536694E+01  0.69082160451E+01  0.60612931785E+01  0.96951385541E+01  0.00000000000E+00 0.  1.
</event>
<event>
 7    1  0.1302069E-013  0.7246155E+02  0.7816164E-02  0.1226708E+00
        -11   -1    0    0    0    0  0.00000000000E+00  0.00000000000E+00  0.45593999997E+02  0.45594000000E+02  0.51100000000E-03 0. -1.
         11   -1    0    0    0    0 -0.00000000000E+00 -0.00000000000E+00 -0.45593999997E+02  0.45594000000E+02  0.51100000000E-03 0.  1.
    9900012    2    1    2    0    0 -0.13749063957E+02 -0.12619277979E+02  0.15481720639E+01  0.72461554177E+02  0.69999979004E+02 0.  0.
         12    1    1    2    0    0  0.13749063957E+02  0.12619277979E+02 -0.15481720639E+01  0.18726445823E+02  0.00000000000E+00 0. -1.
         11    1    3    3    0    0 -0.18313909793E+02 -0.11798901235E+02  0.23210869553E+02  0.31833281765E+02  0.51100000000E-03 0. -1.
        -11    1    3    3    0    0  0.15721898639E+02 -0.75456128211E+01 -0.27369265904E+01  0.17652340839E+02  0.51100000000E-03 0.  1.
        -12    1    3    3    0    0 -0.11157052803E+02  0.67252360769E+01 -0.18925770899E+02  0.22975931573E+02  0.00000000000E+00 0.  1.
</event>
<event>
 7    1  0.1302069E-013  0.7246157E+02  0.7816164E-02  0.1226708E+00
        -11   -1    0    0    0    0  0.00000000000E+00  0.00000000000E+00  0.45593999997E+02  0.45594000000E+02  0.51100000000E-03 0.  1.
         11   -1    0    0    0    0 -0.00000000000E+00 -0.00000000000E+00 -0.45593999997E+02  0.45594000000E+02  0.51100000000E-03 0. -1.
    9900012    2    1    2    0    0  0.75981218735E+01  0.31189034720E+01  0.16829150533E+02  0.72461566209E+02  0.69999994678E+02 0.  0.
         12    1    1    2    0    0 -0.75981218735E+01 -0.31189034720E+01 -0.16829150533E+02  0.18726433791E+02  0.00000000000E+00 0. -1.
         11    1    3    3    0    0  0.31463633239E+02  0.60296297058E+00  0.23738996277E+01  0.31558820965E+02  0.51100000000E-03 0. -1.
        -11    1    3    3    0    0 -0.23647535083E+02  0.86957893807E+01  0.16641399816E-01  0.25195692998E+02  0.51100000000E-03 0.  1.
         12    1    3    3    0    0 -0.21797628321E+00 -0.61798488793E+01  0.14438609505E+02  0.15707052247E+02  0.00000000000E+00 0. -1.
</event>
<event>
 7    1  0.1302069E-013  0.7246158E+02  0.7816164E-02  0.1226708E+00
        -11   -1    0    0    0    0  0.00000000000E+00  0.00000000000E+00  0.45593999997E+02  0.45594000000E+02  0.51100000000E-03 0.  1.
         11   -1    0    0    0    0 -0.00000000000E+00 -0.00000000000E+00 -0.45593999997E+02  0.45594000000E+02  0.51100000000E-03 0. -1.
    9900012    2    1    2    0    0 -0.14765487958E+02  0.11438479082E+02 -0.13492684756E+01  0.72461575788E+02  0.70000007156E+02 0.  0.
         12    1    1    2    0    0  0.14765487958E+02 -0.11438479082E+02  0.13492684756E+01  0.18726424212E+02  0.00000000000E+00 0. -1.
         11    1    3    3    0    0 -0.30146208873E+02  0.11285819383E+02 -0.29041451090E+01  0.32320236504E+02  0.51100000000E-03 0. -1.
        -11    1    3    3    0    0  0.14668892480E+02 -0.17264560410E+02  0.18147544280E+00  0.22655559722E+02  0.51100000000E-03 0.  1.
        -12    1    3    3    0    0  0.71182843483E+00  0.17417220109E+02  0.13734011906E+01  0.17485779562E+02  0.00000000000E+00 0.  1.
</event>
<event>
 7    1  0.1302069E-013  0.7246169E+02  0.7816164E-02  0.1226708E+00
        -11   -1    0    0    0    0  0.00000000000E+00  0.00000000000E+00  0.45593999997E+02  0.45594000000E+02  0.51100000000E-03 0.  1.
         11   -1    0    0    0    0 -0.00000000000E+00 -0.00000000000E+00 -0.45593999997E+02  0.45594000000E+02  0.51100000000E-03 0. -1.
    9900012    2    1    2    0    0 -0.25285375141E+01 -0.16920065149E+02  0.76152976739E+01  0.72461685219E+02  0.70000149710E+02 0.  0.
         12    1    1    2    0    0  0.25285375141E+01  0.16920065149E+02 -0.76152976739E+01  0.18726314781E+02  0.00000000000E+00 0. -1.
         11    1    3    3    0    0  0.15793526105E+02 -0.11770236656E+02  0.26662064677E+02  0.33148750064E+02  0.51100000000E-03 0.  1.
        -11    1    3    3    0    0 -0.22167182809E+02 -0.12344532012E+02 -0.17953773542E+02  0.31082301217E+02  0.51100000000E-03 0. -1.
         12    1    3    3    0    0  0.38451191902E+01  0.71947035186E+01 -0.10929934609E+01  0.82306339375E+01  0.00000000000E+00 0. -1.
</event>
<event>
 7    1  0.1302069E-013  0.7246154E+02  0.7816164E-02  0.1226708E+00
        -11   -1    0    0    0    0  0.00000000000E+00  0.00000000000E+00  0.45593999997E+02  0.45594000000E+02  0.51100000000E-03 0. -1.
         11   -1    0    0    0    0 -0.00000000000E+00 -0.00000000000E+00 -0.45593999997E+02  0.45594000000E+02  0.51100000000E-03 0.  1.
    9900012    2    1    2    0    0 -0.12202458238E+02 -0.12549535867E+02  0.66550274062E+01  0.72461542051E+02  0.69999963208E+02 0.  0.
         12    1    1    2    0    0  0.12202458238E+02  0.12549535867E+02 -0.66550274062E+01  0.18726457949E+02  0.00000000000E+00 0. -1.
         11    1    3    3    0    0 -0.13280256090E+02  0.24887144289E+01  0.19427851693E+02  0.23664325957E+02  0.51100000000E-03 0. -1.
        -11    1    3    3    0    0  0.35987969871E+01 -0.64008916743E+01 -0.29177296105E+02  0.30087162748E+02  0.51100000000E-03 0.  1.
        -12    1    3    3    0    0 -0.25209991344E+01 -0.86373586218E+01  0.16404471818E+02  0.18710053347E+02  0.00000000000E+00 0.  1.
</event>
<event>
 7    1  0.1302069E-013  0.7246165E+02  0.7816164E-02  0.1226708E+00
        -11   -1    0    0    0    0  0.00000000000E+00  0.00000000000E+00  0.45593999997E+02  0.45594000000E+02  0.51100000000E-03 0.  1.
         11   -1    0    0    0    0 -0.00000000000E+00 -0.00000000000E+00 -0.45593999997E+02  0.45594000000E+02  0.51100000000E-03 0. -1.
    9900012    2    1    2    0    0  0.53543286628E+01  0.14854608986E+02  0.10067178231E+02  0.72461646348E+02  0.70000099075E+02 0.  0.
         12    1    1    2    0    0 -0.53543286628E+01 -0.14854608986E+02 -0.10067178231E+02  0.18726353652E+02  0.00000000000E+00 0. -1.
         11    1    3    3    0    0  0.46781118362E+01  0.70032378818E+00 -0.13618945511E+02  0.14417033705E+02  0.51100000000E-03 0. -1.
        -11    1    3    3    0    0  0.23210268461E+02  0.58664687526E+01  0.24184362049E+02  0.34029625117E+02  0.51100000000E-03 0.  1.
        -12    1    3    3    0    0 -0.22534051634E+02  0.82878164451E+01 -0.49823830747E+00  0.24014987527E+02  0.00000000000E+00 0.  1.
</event>
<event>
 7    1  0.1302069E-013  0.7246159E+02  0.7816164E-02  0.1226708E+00
        -11   -1    0    0    0    0  0.00000000000E+00  0.00000000000E+00  0.45593999997E+02  0.45594000000E+02  0.51100000000E-03 0. -1.
         11   -1    0    0    0    0 -0.00000000000E+00 -0.00000000000E+00 -0.45593999997E+02  0.45594000000E+02  0.51100000000E-03 0.  1.
    9900012    2    1    2    0    0  0.50328924907E+01  0.52392801094E+01 -0.17259736294E+02  0.72461586573E+02  0.70000021206E+02 0.  0.
         12    1    1    2    0    0 -0.50328924907E+01 -0.52392801094E+01  0.17259736294E+02  0.18726413427E+02  0.00000000000E+00 0. -1.
         11    1    3    3    0    0 -0.19134595073E+02  0.10141097721E+02 -0.18029857112E+02  0.28178898831E+02  0.51100000000E-03 0. -1.
        -11    1    3    3    0    0  0.32212582648E+02  0.66067165629E+00  0.66109201830E+01  0.32890594914E+02  0.51100000000E-03 0.  1.
        -12    1    3    3    0    0 -0.80450950844E+01 -0.55624892676E+01 -0.58407993648E+01  0.11392092827E+02  0.00000000000E+00 0.  1.
</event>
<event>
 7    1  0.1302069E-013  0.7246157E+02  0.7816164E-02  0.1226708E+00
        -11   -1    0    0    0    0  0.00000000000E+00  0.00000000000E+00  0.45593999997E+02  0.45594000000E+02  0.51100000000E-03 0. -1.
         11   -1    0    0    0    0 -0.00000000000E+00 -0.00000000000E+00 -0.45593999997E+02  0.45594000000E+02  0.51100000000E-03 0.  1.
    9900012    2    1    2    0    0 -0.22917582930E+01 -0.70845041903E+01 -0.17182457509E+02  0.72461569434E+02  0.69999998879E+02 0.  0.
         12    1    1    2    0    0  0.22917582930E+01  0.70845041903E+01  0.17182457509E+02  0.18726430566E+02  0.00000000000E+00 0. -1.
         11    1    3    3    0    0  0.84210593119E+01 -0.14761392215E+02 -0.32402302595E+02  0.36588552223E+02  0.51100000000E-03 0. -1.
        -11    1    3    3    0    0  0.84069241199E+01 -0.44192170318E+01  0.70110050021E+01  0.11805085503E+02  0.51100000000E-03 0.  1.
         12    1    3    3    0    0 -0.19119741725E+02  0.12096105057E+02  0.82088400837E+01  0.24067931708E+02  0.00000000000E+00 0. -1.
</event>
<event>
 7    1  0.1302069E-013  0.7246155E+02  0.7816164E-02  0.1226708E+00
        -11   -1    0    0    0    0  0.00000000000E+00  0.00000000000E+00  0.45593999997E+02  0.45594000000E+02  0.51100000000E-03 0.  1.
         11   -1    0    0    0    0 -0.00000000000E+00 -0.00000000000E+00 -0.45593999997E+02  0.45594000000E+02  0.51100000000E-03 0. -1.
    9900012    2    1    2    0    0 -0.91735709569E+01 -0.10227987575E+01  0.16293538032E+02  0.72461550710E+02  0.69999974488E+02 0.  0.
         12    1    1    2    0    0  0.91735709569E+01  0.10227987575E+01 -0.16293538032E+02  0.18726449290E+02  0.00000000000E+00 0. -1.
         11    1    3    3    0    0 -0.23474844354E+02 -0.23863254948E+02  0.25470311908E+02  0.42062572949E+02  0.51100000000E-03 0. -1.
        -11    1    3    3    0    0  0.29054822429E+01  0.13806237099E+02 -0.68064905446E+01  0.15664683964E+02  0.51100000000E-03 0.  1.
         12    1    3    3    0    0  0.11395791154E+02  0.90342190915E+01 -0.23702833310E+01  0.14734293797E+02  0.00000000000E+00 0. -1.
</event>
<event>
 7    1  0.1302069E-013  0.7246155E+02  0.7816164E-02  0.1226708E+00
        -11   -1    0    0    0    0  0.00000000000E+00  0.00000000000E+00  0.45593999997E+02  0.45594000000E+02  0.51100000000E-03 0.  1.
         11   -1    0    0    0    0 -0.00000000000E+00 -0.00000000000E+00 -0.45593999997E+02  0.45594000000E+02  0.51100000000E-03 0. -1.
    9900012    2    1    2    0    0 -0.10785435144E+02  0.12887982010E+02  0.82616222619E+01  0.72461545612E+02  0.69999967847E+02 0.  0.
         12    1    1    2    0    0  0.10785435144E+02 -0.12887982010E+02 -0.82616222619E+01  0.18726454388E+02  0.00000000000E+00 0. -1.
         11    1    3    3    0    0 -0.31925652097E+02  0.96572707527E+01 -0.11764383955E+02  0.35368218365E+02  0.51100000000E-03 0. -1.
        -11    1    3    3    0    0  0.52724361626E+01 -0.66237926206E+01 -0.14948076404E+01  0.85969565494E+01  0.51100000000E-03 0.  1.
         12    1    3    3    0    0  0.15867780790E+02  0.98545038781E+01  0.21520813857E+02  0.28496370698E+02  0.00000000000E+00 0. -1.
</event>
<event>
 7    1  0.1302069E-013  0.7246158E+02  0.7816164E-02  0.1226708E+00
        -11   -1    0    0    0    0  0.00000000000E+00  0.00000000000E+00  0.45593999997E+02  0.45594000000E+02  0.51100000000E-03 0.  1.
         11   -1    0    0    0    0 -0.00000000000E+00 -0.00000000000E+00 -0.45593999997E+02  0.45594000000E+02  0.51100000000E-03 0. -1.
    9900012    2    1    2    0    0  0.12875155978E+02 -0.13409192963E+02 -0.22589160764E+01  0.72461580182E+02  0.70000012880E+02 0.  0.
         12    1    1    2    0    0 -0.12875155978E+02  0.13409192963E+02  0.22589160764E+01  0.18726419818E+02  0.00000000000E+00 0. -1.
         11    1    3    3    0    0 -0.33116028358E+01 -0.24698297102E+02 -0.23587661037E+02  0.34312539203E+02  0.51100000000E-03 0. -1.
        -11    1    3    3    0    0  0.15057924481E+02 -0.35075449388E+01  0.53951659027E+01  0.16375340501E+02  0.51100000000E-03 0.  1.
         12    1    3    3    0    0  0.11288343330E+01  0.14796649078E+02  0.15933579058E+02  0.21773700477E+02  0.00000000000E+00 0. -1.
</event>
<event>
 7    1  0.1302069E-013  0.7246157E+02  0.7816164E-02  0.1226708E+00
        -11   -1    0    0    0    0  0.00000000000E+00  0.00000000000E+00  0.45593999997E+02  0.45594000000E+02  0.51100000000E-03 0.  1.
         11   -1    0    0    0    0 -0.00000000000E+00 -0.00000000000E+00 -0.45593999997E+02  0.45594000000E+02  0.51100000000E-03 0. -1.
    9900012    2    1    2    0    0  0.90864327523E+01  0.20217713229E+01  0.16248951934E+02  0.72461567921E+02  0.69999996909E+02 0.  0.
         12    1    1    2    0    0 -0.90864327523E+01 -0.20217713229E+01 -0.16248951934E+02  0.18726432079E+02  0.00000000000E+00 0. -1.
         11    1    3    3    0    0 -0.76495060350E+01  0.71887889602E+01 -0.59370841360E+01  0.12059958441E+02  0.51100000000E-03 0. -1.
        -11    1    3    3    0    0  0.97206076434E+01  0.18077474085E+02  0.28680156740E+02  0.35268068747E+02  0.51100000000E-03 0.  1.
        -12    1    3    3    0    0  0.70153311439E+01 -0.23244491723E+02 -0.64941206702E+01  0.25133540733E+02  0.00000000000E+00 0.  1.
</event>
<event>
 7    1  0.1302069E-013  0.7246158E+02  0.7816164E-02  0.1226708E+00
        -11   -1    0    0    0    0  0.00000000000E+00  0.00000000000E+00  0.45593999997E+02  0.45594000000E+02  0.51100000000E-03 0.  1.
         11   -1    0    0    0    0 -0.00000000000E+00 -0.00000000000E+00 -0.45593999997E+02  0.45594000000E+02  0.51100000000E-03 0. -1.
    9900012    2    1    2    0    0  0.71847552145E+01 -0.13258045277E+02  0.11103261504E+02  0.72461577809E+02  0.70000009789E+02 0.  0.
         12    1    1    2    0    0 -0.71847552145E+01  0.13258045277E+02 -0.11103261504E+02  0.18726422191E+02  0.00000000000E+00 0. -1.
         11    1    3    3    0    0  0.16900130013E+02 -0.28449093668E+02 -0.10007795225E+02  0.34570526327E+02  0.51100000000E-03 0. -1.
        -11    1    3    3    0    0 -0.43502067698E+01  0.20053572568E+02  0.64005126344E+01  0.21495037425E+02  0.51100000000E-03 0.  1.
        -12    1    3    3    0    0 -0.53651680288E+01 -0.48625241766E+01  0.14710544095E+02  0.16396014056E+02  0.00000000000E+00 0.  1.
</event>
<event>
 7    1  0.1302069E-013  0.7246164E+02  0.7816164E-02  0.1226708E+00
        -11   -1    0    0    0    0  0.00000000000E+00  0.00000000000E+00  0.45593999997E+02  0.45594000000E+02  0.51100000000E-03 0. -1.
         11   -1    0    0    0    0 -0.00000000000E+00 -0.00000000000E+00 -0.45593999997E+02  0.45594000000E+02  0.51100000000E-03 0.  1.
    9900012    2    1    2    0    0 -0.16880508660E+02  0.72076985078E+01 -0.37113516944E+01  0.72461638319E+02  0.70000088615E+02 0.  0.
         12    1    1    2    0    0  0.16880508660E+02 -0.72076985078E+01  0.37113516944E+01  0.18726361681E+02  0.00000000000E+00 0. -1.
         11    1    3    3    0    0  0.66098415521E+01  0.50967484925E+01  0.68530594625E+01  0.10799596048E+02  0.51100000000E-03 0. -1.
        -11    1    3    3    0    0 -0.29244662529E+02  0.20097837035E+02  0.66570744050E+01  0.36103877629E+02  0.51100000000E-03 0.  1.
        -12    1    3    3    0    0  0.57543123170E+01 -0.17986887020E+02 -0.17221485562E+02  0.25558164642E+02  0.00000000000E+00 0.  1.
</event>
<event>
 7    1  0.1302069E-013  0.7246157E+02  0.7816164E-02  0.1226708E+00
        -11   -1    0    0    0    0  0.00000000000E+00  0.00000000000E+00  0.45593999997E+02  0.45594000000E+02  0.51100000000E-03 0.  1.
         11   -1    0    0    0    0 -0.00000000000E+00 -0.00000000000E+00 -0.45593999997E+02  0.45594000000E+02  0.51100000000E-03 0. -1.
    9900012    2    1    2    0    0 -0.50024955974E+01  0.16305557446E+02  0.77319538302E+01  0.72461567455E+02  0.69999996301E+02 0.  0.
         12    1    1    2    0    0  0.50024955974E+01 -0.16305557446E+02 -0.77319538302E+01  0.18726432545E+02  0.00000000000E+00 0. -1.
         11    1    3    3    0    0 -0.13522447625E+02  0.40616622560E+02  0.63946255369E+01  0.43283459358E+02  0.51100000000E-03 0. -1.
        -11    1    3    3    0    0  0.66121326484E+01 -0.24042182137E+01 -0.81759144836E+00  0.70830092063E+01  0.51100000000E-03 0.  1.
         12    1    3    3    0    0  0.19078193794E+01 -0.21906846900E+02  0.21549197417E+01  0.22095098890E+02  0.00000000000E+00 0. -1.
</event>
<event>
 7    1  0.1302069E-013  0.7246144E+02  0.7816164E-02  0.1226708E+00
        -11   -1    0    0    0    0  0.00000000000E+00  0.00000000000E+00  0.45593999997E+02  0.45594000000E+02  0.51100000000E-03 0. -1.
         11   -1    0    0    0    0 -0.00000000000E+00 -0.00000000000E+00 -0.45593999997E+02  0.45594000000E+02  0.51100000000E-03 0.  1.
    9900012    2    1    2    0    0  0.12154184150E+02 -0.14077296493E+02 -0.21885028104E+01  0.72461440960E+02  0.69999831518E+02 0.  0.
         12    1    1    2    0    0 -0.12154184150E+02  0.14077296493E+02  0.21885028104E+01  0.18726559040E+02  0.00000000000E+00 0. -1.
         11    1    3    3    0    0  0.49496476758E+00 -0.22202284905E+02  0.20566226388E+02  0.30268070854E+02  0.51100000000E-03 0.  1.
        -11    1    3    3    0    0 -0.62299836949E+01  0.13409115898E+02 -0.31210624081E+01  0.15111522650E+02  0.51100000000E-03 0. -1.
        -12    1    3    3    0    0  0.17889203077E+02 -0.52841274857E+01 -0.19633666790E+02  0.27081847456E+02  0.00000000000E+00 0.  1.
</event>
<event>
 7    1  0.1302069E-013  0.7246157E+02  0.7816164E-02  0.1226708E+00
        -11   -1    0    0    0    0  0.00000000000E+00  0.00000000000E+00  0.45593999997E+02  0.45594000000E+02  0.51100000000E-03 0.  1.
         11   -1    0    0    0    0 -0.00000000000E+00 -0.00000000000E+00 -0.45593999997E+02  0.45594000000E+02  0.51100000000E-03 0. -1.
    9900012    2    1    2    0    0 -0.17846072051E+01 -0.15566110714E+02  0.10256242973E+02  0.72461570934E+02  0.70000000834E+02 0.  0.
         12    1    1    2    0    0  0.17846072051E+01  0.15566110714E+02 -0.10256242973E+02  0.18726429066E+02  0.00000000000E+00 0. -1.
         11    1    3    3    0    0  0.86049377157E+01 -0.50511506284E+01  0.27464723511E+02  0.29221055996E+02  0.51100000000E-03 0. -1.
        -11    1    3    3    0    0 -0.71573026232E+01 -0.24299376083E+02 -0.90487284189E+01  0.26899184842E+02  0.51100000000E-03 0.  1.
        -12    1    3    3    0    0 -0.32322422976E+01  0.13784415998E+02 -0.81597521186E+01  0.16341330096E+02  0.00000000000E+00 0.  1.
</event>
<event>
 7    1  0.1302069E-013  0.7246124E+02  0.7816164E-02  0.1226709E+00
        -11   -1    0    0    0    0  0.00000000000E+00  0.00000000000E+00  0.45593999997E+02  0.45594000000E+02  0.51100000000E-03 0.  1.
         11   -1    0    0    0    0 -0.00000000000E+00 -0.00000000000E+00 -0.45593999997E+02  0.45594000000E+02  0.51100000000E-03 0. -1.
    9900012    2    1    2    0    0 -0.49249635593E+01  0.75753770431E+01  0.16402740008E+02  0.72461241520E+02  0.69999571709E+02 0.  0.
         12    1    1    2    0    0  0.49249635593E+01 -0.75753770431E+01 -0.16402740008E+02  0.18726758480E+02  0.00000000000E+00 0. -1.
         11    1    3    3    0    0 -0.77396746041E+00  0.11007623326E+02  0.24355790831E+02  0.26738948075E+02  0.51100000000E-03 0.  1.
        -11    1    3    3    0    0  0.90188380106E+01 -0.20415220302E+02  0.12277841752E+01  0.22352362588E+02  0.51100000000E-03 0. -1.
         12    1    3    3    0    0 -0.13169834110E+02  0.16982974019E+02 -0.91808349981E+01  0.23369930857E+02  0.00000000000E+00 0. -1.
</event>
<event>
 7    1  0.1302069E-013  0.7246157E+02  0.7816164E-02  0.1226708E+00
        -11   -1    0    0    0    0  0.00000000000E+00  0.00000000000E+00  0.45593999997E+02  0.45594000000E+02  0.51100000000E-03 0.  1.
         11   -1    0    0    0    0 -0.00000000000E+00 -0.00000000000E+00 -0.45593999997E+02  0.45594000000E+02  0.51100000000E-03 0. -1.
    9900012    2    1    2    0    0 -0.75006598524E+01  0.16769445252E+02 -0.36338774691E+01  0.72461567939E+02  0.69999996932E+02 0.  0.
         12    1    1    2    0    0  0.75006598524E+01 -0.16769445252E+02  0.36338774691E+01  0.18726432061E+02  0.00000000000E+00 0. -1.
         11    1    3    3    0    0 -0.24589773431E+02 -0.51305868251E+01 -0.89951575503E+01  0.26681318149E+02  0.51100000000E-03 0. -1.
        -11    1    3    3    0    0  0.19977401161E+02  0.11429755881E+01  0.12555282709E+02  0.23622829519E+02  0.51100000000E-03 0.  1.
        -12    1    3    3    0    0 -0.28882875819E+01  0.20757056489E+02 -0.71940026279E+01  0.22157420270E+02  0.00000000000E+00 0.  1.
</event>
<event>
 7    1  0.1302069E-013  0.7246157E+02  0.7816164E-02  0.1226708E+00
        -11   -1    0    0    0    0  0.00000000000E+00  0.00000000000E+00  0.45593999997E+02  0.45594000000E+02  0.51100000000E-03 0. -1.
         11   -1    0    0    0    0 -0.00000000000E+00 -0.00000000000E+00 -0.45593999997E+02  0.45594000000E+02  0.51100000000E-03 0.  1.
    9900012    2    1    2    0    0  0.11728433256E+01 -0.14296996300E+02  0.12037418159E+02  0.72461572135E+02  0.70000002398E+02 0.  0.
         12    1    1    2    0    0 -0.11728433256E+01  0.14296996300E+02 -0.12037418159E+02  0.18726427865E+02  0.00000000000E+00 0. -1.
         11    1    3    3    0    0 -0.54663640346E+01  0.22314203411E+02  0.10873423843E+02  0.25417241313E+02  0.51100000000E-03 0. -1.
        -11    1    3    3    0    0  0.12226237336E+02 -0.24394809147E+02 -0.10515926663E+02  0.29243329266E+02  0.51100000000E-03 0.  1.
        -12    1    3    3    0    0 -0.55870299756E+01 -0.12216390564E+02  0.11679920979E+02  0.17801001557E+02  0.00000000000E+00 0.  1.
</event>
<event>
 7    1  0.1302069E-013  0.7246163E+02  0.7816164E-02  0.1226708E+00
        -11   -1    0    0    0    0  0.00000000000E+00  0.00000000000E+00  0.45593999997E+02  0.45594000000E+02  0.51100000000E-03 0. -1.
         11   -1    0    0    0    0 -0.00000000000E+00 -0.00000000000E+00 -0.45593999997E+02  0.45594000000E+02  0.51100000000E-03 0.  1.
    9900012    2    1    2    0    0 -0.67661216313E+01  0.67223554089E+01 -0.16115408980E+02  0.72461631672E+02  0.70000079956E+02 0.  0.
         12    1    1    2    0    0  0.67661216313E+01 -0.67223554089E+01  0.16115408980E+02  0.18726368328E+02  0.00000000000E+00 0. -1.
         11    1    3    3    0    0  0.28895179373E+01  0.24675846999E+02 -0.90842203709E+01  0.26453162364E+02  0.51100000000E-03 0. -1.
        -11    1    3    3    0    0 -0.24732391784E+02 -0.17011866727E+02 -0.19930276583E+01  0.30084331011E+02  0.51100000000E-03 0.  1.
         12    1    3    3    0    0  0.15076752215E+02 -0.94162486296E+00 -0.50381609507E+01  0.15924138297E+02  0.00000000000E+00 0. -1.
</event>
<event>
 7    1  0.1302069E-013  0.7246190E+02  0.7816164E-02  0.1226707E+00
        -11   -1    0    0    0    0  0.00000000000E+00  0.00000000000E+00  0.45593999997E+02  0.45594000000E+02  0.51100000000E-03 0.  1.
         11   -1    0    0    0    0 -0.00000000000E+00 -0.00000000000E+00 -0.45593999997E+02  0.45594000000E+02  0.51100000000E-03 0. -1.
    9900012    2    1    2    0    0  0.71850285765E+01 -0.50026198255E+01  0.16553423353E+02  0.72461904158E+02  0.70000434918E+02 0.  0.
         12    1    1    2    0    0 -0.71850285765E+01  0.50026198255E+01 -0.16553423353E+02  0.18726095842E+02  0.00000000000E+00 0. -1.
         11    1    3    3    0    0  0.22385639778E+02 -0.15960443248E+02  0.29441740683E+02  0.40282362290E+02  0.51100000000E-03 0. -1.
        -11    1    3    3    0    0 -0.31613877682E+01 -0.62349341083E+01  0.92716984478E+00  0.70518380680E+01  0.51100000000E-03 0.  1.
         12    1    3    3    0    0 -0.12039223433E+02  0.17192757531E+02 -0.13815487175E+02  0.25127703800E+02  0.00000000000E+00 0. -1.
</event>
<event>
 7    1  0.1302069E-013  0.7246157E+02  0.7816164E-02  0.1226708E+00
        -11   -1    0    0    0    0  0.00000000000E+00  0.00000000000E+00  0.45593999997E+02  0.45594000000E+02  0.51100000000E-03 0.  1.
         11   -1    0    0    0    0 -0.00000000000E+00 -0.00000000000E+00 -0.45593999997E+02  0.45594000000E+02  0.51100000000E-03 0. -1.
    9900012    2    1    2    0    0  0.25874904806E+01  0.12686809338E+02  0.13528813697E+02  0.72461573800E+02  0.70000004567E+02 0.  0.
         12    1    1    2    0    0 -0.25874904806E+01 -0.12686809338E+02 -0.13528813697E+02  0.18726426200E+02  0.00000000000E+00 0. -1.
         11    1    3    3    0    0 -0.30512690520E+01 -0.44170675885E+01 -0.21428030480E+01  0.57803403076E+01  0.51100000000E-03 0. -1.
        -11    1    3    3    0    0 -0.18630292069E+02  0.51125738405E+01  0.30282366067E+02  0.35920020723E+02  0.51100000000E-03 0.  1.
        -12    1    3    3    0    0  0.24269051602E+02  0.11991303086E+02 -0.14610749322E+02  0.30761212770E+02  0.00000000000E+00 0.  1.
</event>
<event>
 7    1  0.1302069E-013  0.7246157E+02  0.7816164E-02  0.1226708E+00
        -11   -1    0    0    0    0  0.00000000000E+00  0.00000000000E+00  0.45593999997E+02  0.45594000000E+02  0.51100000000E-03 0.  1.
         11   -1    0    0    0    0 -0.00000000000E+00 -0.00000000000E+00 -0.45593999997E+02  0.45594000000E+02  0.51100000000E-03 0. -1.
    9900012    2    1    2    0    0  0.78807674230E+01  0.51213567548E+01  0.16197052993E+02  0.72461566387E+02  0.69999994911E+02 0.  0.
         12    1    1    2    0    0 -0.78807674230E+01 -0.51213567548E+01 -0.16197052993E+02  0.18726433613E+02  0.00000000000E+00 0. -1.
         11    1    3    3    0    0  0.15762078932E+02 -0.77290041065E+01 -0.83654998954E+01  0.19446393638E+02  0.51100000000E-03 0. -1.
        -11    1    3    3    0    0 -0.12552641461E+02  0.50316420432E+01  0.35963935124E+02  0.38422530619E+02  0.51100000000E-03 0.  1.
        -12    1    3    3    0    0  0.46713299520E+01  0.78187188180E+01 -0.11401382236E+02  0.14592642131E+02  0.00000000000E+00 0.  1.
</event>
<event>
 7    1  0.1302069E-013  0.7246155E+02  0.7816164E-02  0.1226708E+00
        -11   -1    0    0    0    0  0.00000000000E+00  0.00000000000E+00  0.45593999997E+02  0.45594000000E+02  0.51100000000E-03 0. -1.
         11   -1    0    0    0    0 -0.00000000000E+00 -0.00000000000E+00 -0.45593999997E+02  0.45594000000E+02  0.51100000000E-03 0.  1.
    9900012    2    1    2    0    0 -0.14517770332E+02  0.77268492976E+01 -0.89560061697E+01  0.72461550737E+02  0.69999974523E+02 0.  0.
         12    1    1    2    0    0  0.14517770332E+02 -0.77268492976E+01  0.89560061697E+01  0.18726449263E+02  0.00000000000E+00 0. -1.
         11    1    3    3    0    0 -0.17729285437E+02  0.13891422693E+01 -0.10575628469E+02  0.20690606471E+02  0.51100000000E-03 0. -1.
        -11    1    3    3    0    0  0.21855793609E+02  0.90161633415E+01  0.15589966504E+02  0.28319851192E+02  0.51100000000E-03 0.  1.
        -12    1    3    3    0    0 -0.18644278504E+02 -0.26784563132E+01 -0.13970344205E+02  0.23451093074E+02  0.00000000000E+00 0.  1.
</event>
<event>
 8    1  0.1302069E-013  0.7246155E+02  0.7816164E-02  0.1226708E+00
        -11   -1    0    0    0    0  0.00000000000E+00  0.00000000000E+00  0.45593999997E+02  0.45594000000E+02  0.51100000000E-03 0. -1.
         11   -1    0    0    0    0 -0.00000000000E+00 -0.00000000000E+00 -0.45593999997E+02  0.45594000000E+02  0.51100000000E-03 0.  1.
    9900012    2    1    2    0    0  0.85879751913E+01 -0.16633767992E+02  0.49445516132E+00  0.72461547015E+02  0.69999969674E+02 0.  0.
         24    2    3    3    0    0  0.27768275165E+01 -0.20292054408E+02  0.16236272584E+02  0.55287225694E+02  0.48719426663E+02 0.  0.
         12    1    1    2    0    0 -0.85879751913E+01  0.16633767992E+02 -0.49445516132E+00  0.18726452985E+02  0.00000000000E+00 0. -1.
         11    1    3    3    0    0  0.58111476748E+01  0.36582864160E+01 -0.15741817423E+02  0.17174321321E+02  0.51100000000E-03 0.  1.
        -11    1    4    4    0    0 -0.86718397334E+00 -0.13721366431E+02  0.33634450232E+02  0.36335989700E+02  0.51100000000E-03 0. -1.
         12    1    4    4    0    0  0.36440114899E+01 -0.65706879766E+01 -0.17398177649E+02  0.18951235994E+02  0.00000000000E+00 0. -1.
</event>
<event>
 7    1  0.1302069E-013  0.7246155E+02  0.7816164E-02  0.1226708E+00
        -11   -1    0    0    0    0  0.00000000000E+00  0.00000000000E+00  0.45593999997E+02  0.45594000000E+02  0.51100000000E-03 0.  1.
         11   -1    0    0    0    0 -0.00000000000E+00 -0.00000000000E+00 -0.45593999997E+02  0.45594000000E+02  0.51100000000E-03 0. -1.
    9900012    2    1    2    0    0 -0.13498314631E+02 -0.10120843975E+02  0.81267421152E+01  0.72461550308E+02  0.69999973964E+02 0.  0.
         12    1    1    2    0    0  0.13498314631E+02  0.10120843975E+02 -0.81267421152E+01  0.18726449692E+02  0.00000000000E+00 0. -1.
         11    1    3    3    0    0  0.44146183443E+00  0.21280700348E+02 -0.71194485128E+01  0.22444367740E+02  0.51100000000E-03 0. -1.
        -11    1    3    3    0    0 -0.20299421143E+02 -0.33220824330E+02  0.17950663550E+02  0.42870922431E+02  0.51100000000E-03 0.  1.
        -12    1    3    3    0    0  0.63596446778E+01  0.18192800067E+01 -0.27044729225E+01  0.71462601380E+01  0.00000000000E+00 0.  1.
</event>
<event>
 7    1  0.1302069E-013  0.7246099E+02  0.7816164E-02  0.1226710E+00
        -11   -1    0    0    0    0  0.00000000000E+00  0.00000000000E+00  0.45593999997E+02  0.45594000000E+02  0.51100000000E-03 0.  1.
         11   -1    0    0    0    0 -0.00000000000E+00 -0.00000000000E+00 -0.45593999997E+02  0.45594000000E+02  0.51100000000E-03 0. -1.
    9900012    2    1    2    0    0  0.12288677684E+02  0.95808451198E+01 -0.10387330918E+02  0.72460991802E+02  0.69999246403E+02 0.  0.
         12    1    1    2    0    0 -0.12288677684E+02 -0.95808451198E+01  0.10387330918E+02  0.18727008198E+02  0.00000000000E+00 0. -1.
         11    1    3    3    0    0  0.38163946046E+02 -0.66901319342E+01  0.84687050846E+00  0.38755152341E+02  0.51100000000E-03 0. -1.
        -11    1    3    3    0    0 -0.53847027788E+01  0.80472661628E+01 -0.29244280043E+01  0.10114632773E+02  0.51100000000E-03 0.  1.
         12    1    3    3    0    0 -0.20490565582E+02  0.82237108912E+01 -0.83097734218E+01  0.23591206689E+02  0.00000000000E+00 0. -1.
</event>
<event>
 7    1  0.1302069E-013  0.7246156E+02  0.7816164E-02  0.1226708E+00
        -11   -1    0    0    0    0  0.00000000000E+00  0.00000000000E+00  0.45593999997E+02  0.45594000000E+02  0.51100000000E-03 0.  1.
         11   -1    0    0    0    0 -0.00000000000E+00 -0.00000000000E+00 -0.45593999997E+02  0.45594000000E+02  0.51100000000E-03 0. -1.
    9900012    2    1    2    0    0 -0.69890264425E+01 -0.37356528572E+01  0.16966964134E+02  0.72461562411E+02  0.69999989730E+02 0.  0.
         12    1    1    2    0    0  0.69890264425E+01  0.37356528572E+01 -0.16966964134E+02  0.18726437589E+02  0.00000000000E+00 0. -1.
         11    1    3    3    0    0  0.88709876757E+01 -0.34437433842E+02  0.80005456580E+01  0.36450514441E+02  0.51100000000E-03 0. -1.
        -11    1    3    3    0    0 -0.12203161971E+02  0.21808391041E+02  0.44349234535E+01  0.25380930404E+02  0.51100000000E-03 0.  1.
         12    1    3    3    0    0 -0.36568521474E+01  0.88933899438E+01  0.45314950220E+01  0.10630117565E+02  0.00000000000E+00 0. -1.
</event>
<event>
 7    1  0.2610722E-013  0.7246158E+02  0.7816164E-02  0.1226708E+00
        -11   -1    0    0    0    0  0.00000000000E+00  0.00000000000E+00  0.45593999997E+02  0.45594000000E+02  0.51100000000E-03 0. -1.
         11   -1    0    0    0    0 -0.00000000000E+00 -0.00000000000E+00 -0.45593999997E+02  0.45594000000E+02  0.51100000000E-03 0.  1.
    9900012    2    1    2    0    0 -0.47584000210E+01  0.70580600343E+01 -0.16679938645E+02  0.72461576546E+02  0.70000008143E+02 0.  0.
         12    1    1    2    0    0  0.47584000210E+01 -0.70580600343E+01  0.16679938645E+02  0.18726423454E+02  0.00000000000E+00 0. -1.
         11    1    3    3    0    0 -0.10471182800E+02 -0.90779251700E+01  0.15841582153E+02  0.21047805586E+02  0.51100000000E-03 0. -1.
        -11    1    3    3    0    0  0.14609667130E+01  0.26743725986E+02 -0.15602586627E+02  0.30996806498E+02  0.51100000000E-03 0.  1.
        -12    1    3    3    0    0  0.42518160661E+01 -0.10607740782E+02 -0.16918934171E+02  0.20416964462E+02  0.00000000000E+00 0.  1.
</event>
<event>
 7    1  0.1302069E-013  0.7246170E+02  0.7816164E-02  0.1226708E+00
        -11   -1    0    0    0    0  0.00000000000E+00  0.00000000000E+00  0.45593999997E+02  0.45594000000E+02  0.51100000000E-03 0.  1.
         11   -1    0    0    0    0 -0.00000000000E+00 -0.00000000000E+00 -0.45593999997E+02  0.45594000000E+02  0.51100000000E-03 0. -1.
    9900012    2    1    2    0    0  0.43455755491E+01  0.15141508230E+02  0.10125468309E+02  0.72461697460E+02  0.70000165657E+02 0.  0.
         12    1    1    2    0    0 -0.43455755491E+01 -0.15141508230E+02 -0.10125468309E+02  0.18726302540E+02  0.00000000000E+00 0. -1.
         11    1    3    3    0    0  0.19397627265E+02  0.17357540606E+02  0.43402236596E+01  0.26389196674E+02  0.51100000000E-03 0. -1.
        -11    1    3    3    0    0 -0.12517071904E+02  0.36053436268E+01  0.23712134311E+02  0.27054406398E+02  0.51100000000E-03 0.  1.
        -12    1    3    3    0    0 -0.25349798123E+01 -0.58213760020E+01 -0.17926889662E+02  0.19018094388E+02  0.00000000000E+00 0.  1.
</event>
<event>
 7    1  0.1302069E-013  0.7246158E+02  0.7816164E-02  0.1226708E+00
        -11   -1    0    0    0    0  0.00000000000E+00  0.00000000000E+00  0.45593999997E+02  0.45594000000E+02  0.51100000000E-03 0.  1.
         11   -1    0    0    0    0 -0.00000000000E+00 -0.00000000000E+00 -0.45593999997E+02  0.45594000000E+02  0.51100000000E-03 0. -1.
    9900012    2    1    2    0    0  0.92942664097E+01 -0.87661635167E+01  0.13691231126E+02  0.72461579610E+02  0.70000012135E+02 0.  0.
         12    1    1    2    0    0 -0.92942664097E+01  0.87661635167E+01 -0.13691231126E+02  0.18726420390E+02  0.00000000000E+00 0. -1.
         11    1    3    3    0    0 -0.52048026147E+01 -0.40879920695E+01 -0.16109283162E+02  0.17415816193E+02  0.51100000000E-03 0. -1.
        -11    1    3    3    0    0  0.65064740895E+01 -0.43970940190E+01  0.40742619689E+02  0.41492525836E+02  0.51100000000E-03 0.  1.
         12    1    3    3    0    0  0.79925949348E+01 -0.28107742813E+00 -0.10942105401E+02  0.13553237580E+02  0.00000000000E+00 0. -1.
</event>
<event>
 7    1  0.1302069E-013  0.7246154E+02  0.7816164E-02  0.1226708E+00
        -11   -1    0    0    0    0  0.00000000000E+00  0.00000000000E+00  0.45593999997E+02  0.45594000000E+02  0.51100000000E-03 0.  1.
         11   -1    0    0    0    0 -0.00000000000E+00 -0.00000000000E+00 -0.45593999997E+02  0.45594000000E+02  0.51100000000E-03 0. -1.
    9900012    2    1    2    0    0 -0.16143995501E+02 -0.72053593950E+01  0.61753274230E+01  0.72461535744E+02  0.69999954992E+02 0.  0.
         12    1    1    2    0    0  0.16143995501E+02  0.72053593950E+01 -0.61753274230E+01  0.18726464256E+02  0.00000000000E+00 0. -1.
         11    1    3    3    0    0 -0.30920504142E+02 -0.61866844291E+01  0.16825522775E+02  0.35741444536E+02  0.51100000000E-03 0.  1.
        -11    1    3    3    0    0  0.98502110507E+00 -0.12602036095E+02 -0.13490282650E+02  0.18487003720E+02  0.51100000000E-03 0. -1.
         12    1    3    3    0    0  0.13791487535E+02  0.11583361129E+02  0.28400872980E+01  0.18233087488E+02  0.00000000000E+00 0. -1.
</event>
<event>
 7    1  0.1302069E-013  0.7246160E+02  0.7816164E-02  0.1226708E+00
        -11   -1    0    0    0    0  0.00000000000E+00  0.00000000000E+00  0.45593999997E+02  0.45594000000E+02  0.51100000000E-03 0. -1.
         11   -1    0    0    0    0 -0.00000000000E+00 -0.00000000000E+00 -0.45593999997E+02  0.45594000000E+02  0.51100000000E-03 0.  1.
    9900012    2    1    2    0    0  0.70131260215E+00  0.29826782765E+01 -0.18474032699E+02  0.72461599031E+02  0.70000037435E+02 0.  0.
         12    1    1    2    0    0 -0.70131260215E+00 -0.29826782765E+01  0.18474032699E+02  0.18726400969E+02  0.00000000000E+00 0. -1.
         11    1    3    3    0    0  0.17515300159E+02 -0.10523980224E+02 -0.71448534600E+01  0.21646912728E+02  0.51100000000E-03 0.  1.
        -11    1    3    3    0    0 -0.31044664162E+02  0.98748353300E+01 -0.52434908363E+00  0.32581566689E+02  0.51100000000E-03 0. -1.
         12    1    3    3    0    0  0.14230676604E+02  0.36318231703E+01 -0.10804830156E+02  0.18233119614E+02  0.00000000000E+00 0. -1.
</event>
<event>
 7    1  0.1302069E-013  0.7246153E+02  0.7816164E-02  0.1226708E+00
        -11   -1    0    0    0    0  0.00000000000E+00  0.00000000000E+00  0.45593999997E+02  0.45594000000E+02  0.51100000000E-03 0.  1.
         11   -1    0    0    0    0 -0.00000000000E+00 -0.00000000000E+00 -0.45593999997E+02  0.45594000000E+02  0.51100000000E-03 0. -1.
    9900012    2    1    2    0    0  0.49114211148E+01 -0.17163628386E+02  0.56540803543E+01  0.72461526189E+02  0.69999942545E+02 0.  0.
         12    1    1    2    0    0 -0.49114211148E+01  0.17163628386E+02 -0.56540803543E+01  0.18726473811E+02  0.00000000000E+00 0. -1.
         11    1    3    3    0    0 -0.21827675632E+01  0.17562382534E+01 -0.28482535798E+02  0.28619987645E+02  0.51100000000E-03 0. -1.
        -11    1    3    3    0    0  0.37544887498E+01 -0.12721300828E+02  0.34324436283E+02  0.36798024498E+02  0.51100000000E-03 0.  1.
        -12    1    3    3    0    0  0.33396999282E+01 -0.61985658110E+01 -0.18782013024E+00  0.70435140466E+01  0.00000000000E+00 0.  1.
</event>
<event>
 7    1  0.1413854E-013  0.7246158E+02  0.7816164E-02  0.1226708E+00
        -11   -1    0    0    0    0  0.00000000000E+00  0.00000000000E+00  0.45593999997E+02  0.45594000000E+02  0.51100000000E-03 0.  1.
         11   -1    0    0    0    0 -0.00000000000E+00 -0.00000000000E+00 -0.45593999997E+02  0.45594000000E+02  0.51100000000E-03 0. -1.
    9900012    2    1    2    0    0 -0.81355042486E+01  0.54327971384E+01 -0.15968006409E+02  0.72461576348E+02  0.70000007886E+02 0.  0.
         12    1    1    2    0    0  0.81355042486E+01 -0.54327971384E+01  0.15968006409E+02  0.18726423652E+02  0.00000000000E+00 0. -1.
         11    1    3    3    0    0  0.13793143732E+02  0.19357048874E+02 -0.15238249877E+01  0.23817392762E+02  0.51100000000E-03 0. -1.
        -11    1    3    3    0    0 -0.43128084724E+01 -0.15615322931E+02 -0.23673121540E+02  0.28685454692E+02  0.51100000000E-03 0.  1.
        -12    1    3    3    0    0 -0.17615839508E+02  0.16910711956E+01  0.92289401188E+01  0.19958728894E+02  0.00000000000E+00 0.  1.
</event>
<event>
 7    1  0.1302069E-013  0.7246152E+02  0.7816164E-02  0.1226708E+00
        -11   -1    0    0    0    0  0.00000000000E+00  0.00000000000E+00  0.45593999997E+02  0.45594000000E+02  0.51100000000E-03 0.  1.
         11   -1    0    0    0    0 -0.00000000000E+00 -0.00000000000E+00 -0.45593999997E+02  0.45594000000E+02  0.51100000000E-03 0. -1.
    9900012    2    1    2    0    0  0.76931586431E+01 -0.25562067365E+01  0.16880826076E+02  0.72461516833E+02  0.69999930357E+02 0.  0.
         12    1    1    2    0    0 -0.76931586431E+01  0.25562067365E+01 -0.16880826076E+02  0.18726483167E+02  0.00000000000E+00 0. -1.
         11    1    3    3    0    0  0.98466761678E+01 -0.31966265692E+02  0.10873085346E+02  0.35171340023E+02  0.51100000000E-03 0.  1.
        -11    1    3    3    0    0  0.62489993222E+01  0.24493000661E+02 -0.99593281675E+00  0.25297212423E+02  0.51100000000E-03 0. -1.
        -12    1    3    3    0    0 -0.84025168469E+01  0.49170582940E+01  0.70036735473E+01  0.11992964387E+02  0.00000000000E+00 0.  1.
</event>
<event>
 7    1  0.1302069E-013  0.7246149E+02  0.7816164E-02  0.1226708E+00
        -11   -1    0    0    0    0  0.00000000000E+00  0.00000000000E+00  0.45593999997E+02  0.45594000000E+02  0.51100000000E-03 0.  1.
         11   -1    0    0    0    0 -0.00000000000E+00 -0.00000000000E+00 -0.45593999997E+02  0.45594000000E+02  0.51100000000E-03 0. -1.
    9900012    2    1    2    0    0 -0.95095665402E+01  0.15381346993E+02  0.48646039850E+01  0.72461493037E+02  0.69999899358E+02 0.  0.
         12    1    1    2    0    0  0.95095665402E+01 -0.15381346993E+02 -0.48646039850E+01  0.18726506963E+02  0.00000000000E+00 0. -1.
         11    1    3    3    0    0 -0.56019403635E+01 -0.11089685641E+02  0.46843899862E+01  0.13278041017E+02  0.51100000000E-03 0. -1.
        -11    1    3    3    0    0  0.10639405947E+02  0.38449260132E+02 -0.32635966786E+01  0.40027410947E+02  0.51100000000E-03 0.  1.
        -12    1    3    3    0    0 -0.14547032124E+02 -0.11978227498E+02  0.34438106774E+01  0.19156041073E+02  0.00000000000E+00 0.  1.
</event>
<event>
 7    1  0.1302069E-013  0.7246118E+02  0.7816164E-02  0.1226709E+00
        -11   -1    0    0    0    0  0.00000000000E+00  0.00000000000E+00  0.45593999997E+02  0.45594000000E+02  0.51100000000E-03 0.  1.
         11   -1    0    0    0    0 -0.00000000000E+00 -0.00000000000E+00 -0.45593999997E+02  0.45594000000E+02  0.51100000000E-03 0. -1.
    9900012    2    1    2    0    0 -0.17343936712E+02  0.18772798688E+01  0.68086251911E+01  0.72461182402E+02  0.69999494696E+02 0.  0.
         12    1    1    2    0    0  0.17343936712E+02 -0.18772798688E+01 -0.68086251911E+01  0.18726817598E+02  0.00000000000E+00 0. -1.
         11    1    3    3    0    0 -0.22485261961E+02 -0.20880753447E+02 -0.14666673702E+02  0.34010354125E+02  0.51100000000E-03 0. -1.
        -11    1    3    3    0    0 -0.72021553058E+01  0.78817345742E+01  0.14268074148E+02  0.17820514053E+02  0.51100000000E-03 0.  1.
         12    1    3    3    0    0  0.12343480555E+02  0.14876298742E+02  0.72072247450E+01  0.20630314224E+02  0.00000000000E+00 0. -1.
</event>
<event>
 7    1  0.1302069E-013  0.7246156E+02  0.7816164E-02  0.1226708E+00
        -11   -1    0    0    0    0  0.00000000000E+00  0.00000000000E+00  0.45593999997E+02  0.45594000000E+02  0.51100000000E-03 0.  1.
         11   -1    0    0    0    0 -0.00000000000E+00 -0.00000000000E+00 -0.45593999997E+02  0.45594000000E+02  0.51100000000E-03 0. -1.
    9900012    2    1    2    0    0  0.44211036491E+01  0.12559559551E+02 -0.13167789668E+02  0.72461564719E+02  0.69999992737E+02 0.  0.
         12    1    1    2    0    0 -0.44211036491E+01 -0.12559559551E+02  0.13167789668E+02  0.18726435281E+02  0.00000000000E+00 0. -1.
         11    1    3    3    0    0 -0.28422857255E+02 -0.17429739134E+01  0.78160882448E+01  0.29529443075E+02  0.51100000000E-03 0. -1.
        -11    1    3    3    0    0  0.23105990251E+02  0.50344391768E+01 -0.16191532251E+02  0.28660043270E+02  0.51100000000E-03 0.  1.
         12    1    3    3    0    0  0.97379706530E+01  0.92680942875E+01 -0.47923456622E+01  0.14272078374E+02  0.00000000000E+00 0. -1.
</event>
<event>
 7    1  0.1302069E-013  0.7246161E+02  0.7816164E-02  0.1226708E+00
        -11   -1    0    0    0    0  0.00000000000E+00  0.00000000000E+00  0.45593999997E+02  0.45594000000E+02  0.51100000000E-03 0.  1.
         11   -1    0    0    0    0 -0.00000000000E+00 -0.00000000000E+00 -0.45593999997E+02  0.45594000000E+02  0.51100000000E-03 0. -1.
    9900012    2    1    2    0    0 -0.16279059325E+02  0.91961086185E+01  0.10495406763E+01  0.72461608947E+02  0.70000050353E+02 0.  0.
         12    1    1    2    0    0  0.16279059325E+02 -0.91961086185E+01 -0.10495406763E+01  0.18726391053E+02  0.00000000000E+00 0. -1.
         11    1    3    3    0    0 -0.29656279249E+01  0.38957806582E+01  0.19318710362E+02  0.19929491370E+02  0.51100000000E-03 0.  1.
        -11    1    3    3    0    0 -0.21709724582E+02  0.20796301060E+02 -0.17724450990E+02  0.34899204036E+02  0.51100000000E-03 0. -1.
        -12    1    3    3    0    0  0.83962931820E+01 -0.15495973100E+02 -0.54471869649E+00  0.17632913541E+02  0.00000000000E+00 0.  1.
</event>
<event>
 7    1  0.1302069E-013  0.7246147E+02  0.7816164E-02  0.1226708E+00
        -11   -1    0    0    0    0  0.00000000000E+00  0.00000000000E+00  0.45593999997E+02  0.45594000000E+02  0.51100000000E-03 0. -1.
         11   -1    0    0    0    0 -0.00000000000E+00 -0.00000000000E+00 -0.45593999997E+02  0.45594000000E+02  0.51100000000E-03 0.  1.
    9900012    2    1    2    0    0  0.91266020230E+00  0.11766314172E+02 -0.14539728465E+02  0.72461473315E+02  0.69999873667E+02 0.  0.
         12    1    1    2    0    0 -0.91266020230E+00 -0.11766314172E+02  0.14539728465E+02  0.18726526685E+02  0.00000000000E+00 0. -1.
         11    1    3    3    0    0  0.23609835821E+02  0.19474406566E+02  0.11388892999E+02  0.32655531578E+02  0.51100000000E-03 0. -1.
        -11    1    3    3    0    0 -0.14075410813E+02  0.43464874941E+01 -0.17037535115E+02  0.22523027020E+02  0.51100000000E-03 0.  1.
         12    1    3    3    0    0 -0.86217648058E+01 -0.12054579888E+02 -0.88910863493E+01  0.17282914717E+02  0.00000000000E+00 0. -1.
</event>
<event>
 7    1  0.1302069E-013  0.7246156E+02  0.7816164E-02  0.1226708E+00
        -11   -1    0    0    0    0  0.00000000000E+00  0.00000000000E+00  0.45593999997E+02  0.45594000000E+02  0.51100000000E-03 0. -1.
         11   -1    0    0    0    0 -0.00000000000E+00 -0.00000000000E+00 -0.45593999997E+02  0.45594000000E+02  0.51100000000E-03 0.  1.
    9900012    2    1    2    0    0  0.40238350199E+01 -0.98083484097E+01 -0.15436474183E+02  0.72461556611E+02  0.69999982175E+02 0.  0.
         12    1    1    2    0    0 -0.40238350199E+01  0.98083484097E+01  0.15436474183E+02  0.18726443389E+02  0.00000000000E+00 0. -1.
         11    1    3    3    0    0  0.28898788590E+02 -0.72732458887E+01  0.13199896270E+02  0.32592596544E+02  0.51100000000E-03 0. -1.
        -11    1    3    3    0    0 -0.53967868185E+01 -0.50498949190E+01 -0.12175015213E+02  0.14242813709E+02  0.51100000000E-03 0.  1.
         12    1    3    3    0    0 -0.19478166751E+02  0.25147923980E+01 -0.16461355240E+02  0.25626146357E+02  0.00000000000E+00 0. -1.
</event>
<event>
 7    1  0.1302069E-013  0.7246162E+02  0.7816164E-02  0.1226708E+00
        -11   -1    0    0    0    0  0.00000000000E+00  0.00000000000E+00  0.45593999997E+02  0.45594000000E+02  0.51100000000E-03 0.  1.
         11   -1    0    0    0    0 -0.00000000000E+00 -0.00000000000E+00 -0.45593999997E+02  0.45594000000E+02  0.51100000000E-03 0. -1.
    9900012    2    1    2    0    0  0.80165107085E+01 -0.10609800119E+02  0.13185034283E+02  0.72461616698E+02  0.70000060450E+02 0.  0.
         12    1    1    2    0    0 -0.80165107085E+01  0.10609800119E+02 -0.13185034283E+02  0.18726383302E+02  0.00000000000E+00 0. -1.
         11    1    3    3    0    0 -0.26333750649E+02 -0.14412495896E+02  0.50253842520E+01  0.30437492477E+02  0.51100000000E-03 0. -1.
        -11    1    3    3    0    0  0.16380831950E+02 -0.18743122570E+00  0.15170233438E+02  0.22327175564E+02  0.51100000000E-03 0.  1.
         12    1    3    3    0    0  0.17969429407E+02  0.39901270022E+01 -0.70105834063E+01  0.19696948657E+02  0.00000000000E+00 0. -1.
</event>
<event>
 7    1  0.1302069E-013  0.7246162E+02  0.7816164E-02  0.1226708E+00
        -11   -1    0    0    0    0  0.00000000000E+00  0.00000000000E+00  0.45593999997E+02  0.45594000000E+02  0.51100000000E-03 0.  1.
         11   -1    0    0    0    0 -0.00000000000E+00 -0.00000000000E+00 -0.45593999997E+02  0.45594000000E+02  0.51100000000E-03 0. -1.
    9900012    2    1    2    0    0  0.16344177745E+02 -0.55895220351E+01  0.72320325496E+01  0.72461622947E+02  0.70000068589E+02 0.  0.
         12    1    1    2    0    0 -0.16344177745E+02  0.55895220351E+01 -0.72320325496E+01  0.18726377053E+02  0.00000000000E+00 0. -1.
         11    1    3    3    0    0  0.12274163152E+01 -0.71120344554E+01  0.12485177096E+02  0.14421069041E+02  0.51100000000E-03 0. -1.
        -11    1    3    3    0    0  0.34412124036E+02 -0.32522717470E+01 -0.12684595593E+02  0.36819431253E+02  0.51100000000E-03 0.  1.
        -12    1    3    3    0    0 -0.19295362606E+02  0.47747841672E+01  0.74314510463E+01  0.21221122652E+02  0.00000000000E+00 0.  1.
</event>
<event>
 8    1  0.1302069E-013  0.7246166E+02  0.7816164E-02  0.1226708E+00
        -11   -1    0    0    0    0  0.00000000000E+00  0.00000000000E+00  0.45593999997E+02  0.45594000000E+02  0.51100000000E-03 0.  1.
         11   -1    0    0    0    0 -0.00000000000E+00 -0.00000000000E+00 -0.45593999997E+02  0.45594000000E+02  0.51100000000E-03 0. -1.
    9900012    2    1    2    0    0 -0.12145051345E+02  0.10547174718E+02  0.95880488175E+01  0.72461659012E+02  0.70000115571E+02 0.  0.
         24    2    3    3    0    0 -0.18502036108E+02  0.12675049891E+02 -0.60640661691E+01  0.55434392294E+02  0.50331071126E+02 0.  0.
         12    1    1    2    0    0  0.12145051345E+02 -0.10547174718E+02 -0.95880488175E+01  0.18726340988E+02  0.00000000000E+00 0. -1.
         11    1    3    3    0    0  0.63569847638E+01 -0.21278751735E+01  0.15652114987E+02  0.17027266717E+02  0.51100000000E-03 0.  1.
        -11    1    4    4    0    0 -0.66010712103E+01  0.14131684718E+02 -0.27073181816E+02  0.31244772810E+02  0.51100000000E-03 0. -1.
         12    1    4    4    0    0 -0.11900964898E+02 -0.14566348265E+01  0.21009115647E+02  0.24189619484E+02  0.00000000000E+00 0. -1.
</event>
<event>
 7    1  0.1302069E-013  0.7246164E+02  0.7816164E-02  0.1226708E+00
        -11   -1    0    0    0    0  0.00000000000E+00  0.00000000000E+00  0.45593999997E+02  0.45594000000E+02  0.51100000000E-03 0. -1.
         11   -1    0    0    0    0 -0.00000000000E+00 -0.00000000000E+00 -0.45593999997E+02  0.45594000000E+02  0.51100000000E-03 0.  1.
    9900012    2    1    2    0    0 -0.12098666920E+02 -0.10212690379E+02 -0.99999867979E+01  0.72461640984E+02  0.70000092086E+02 0.  0.
         12    1    1    2    0    0  0.12098666920E+02  0.10212690379E+02  0.99999867979E+01  0.18726359016E+02  0.00000000000E+00 0. -1.
         11    1    3    3    0    0 -0.28701708664E+02 -0.21943846153E+01  0.57107814861E+01  0.29346489220E+02  0.51100000000E-03 0. -1.
        -11    1    3    3    0    0  0.80983324659E+01  0.14158491993E+02 -0.49989516943E+01  0.17059759745E+02  0.51100000000E-03 0.  1.
        -12    1    3    3    0    0  0.85047092778E+01 -0.22176797757E+02 -0.10711816590E+02  0.26055392020E+02  0.00000000000E+00 0.  1.
</event>
<event>
 8    1  0.1302069E-013  0.7246160E+02  0.7816164E-02  0.1226708E+00
        -11   -1    0    0    0    0  0.00000000000E+00  0.00000000000E+00  0.45593999997E+02  0.45594000000E+02  0.51100000000E-03 0.  1.
         11   -1    0    0    0    0 -0.00000000000E+00 -0.00000000000E+00 -0.45593999997E+02  0.45594000000E+02  0.51100000000E-03 0. -1.
    9900012    2    1    2    0    0 -0.17524215470E+02  0.14900923116E+01  0.64311436585E+01  0.72461598539E+02  0.70000036793E+02 0.  0.
         24    2    3    3    0    0 -0.21501602089E+02 -0.17980235805E+01 -0.10401869409E+02  0.54855303084E+02  0.49349302002E+02 0.  0.
         12    1    1    2    0    0  0.17524215470E+02 -0.14900923116E+01 -0.64311436585E+01  0.18726401461E+02  0.00000000000E+00 0. -1.
         11    1    3    3    0    0  0.39773866190E+01  0.32881158921E+01  0.16833013067E+02  0.17606295454E+02  0.51100000000E-03 0.  1.
        -11    1    4    4    0    0 -0.16282180221E+02 -0.17605117515E+02 -0.23574432295E+02  0.33627420564E+02  0.51100000000E-03 0. -1.
         12    1    4    4    0    0 -0.52194218683E+01  0.15807093935E+02  0.13172562886E+02  0.21227882520E+02  0.00000000000E+00 0. -1.
</event>
<event>
 7    1  0.1302069E-013  0.7246161E+02  0.7816164E-02  0.1226708E+00
        -11   -1    0    0    0    0  0.00000000000E+00  0.00000000000E+00  0.45593999997E+02  0.45594000000E+02  0.51100000000E-03 0.  1.
         11   -1    0    0    0    0 -0.00000000000E+00 -0.00000000000E+00 -0.45593999997E+02  0.45594000000E+02  0.51100000000E-03 0. -1.
    9900012    2    1    2    0    0  0.69314523169E+01  0.52671534698E+01  0.16579798761E+02  0.72461610496E+02  0.70000052371E+02 0.  0.
         12    1    1    2    0    0 -0.69314523169E+01 -0.52671534698E+01 -0.16579798761E+02  0.18726389504E+02  0.00000000000E+00 0. -1.
         11    1    3    3    0    0 -0.13450208738E+02  0.13373498508E+02  0.48732028589E+01  0.19583326679E+02  0.51100000000E-03 0. -1.
        -11    1    3    3    0    0  0.10863139045E+02 -0.24732115728E+02 -0.49853153522E+01  0.27468867973E+02  0.51100000000E-03 0.  1.
        -12    1    3    3    0    0  0.95185220099E+01  0.16625770690E+02  0.16691911254E+02  0.25409415845E+02  0.00000000000E+00 0.  1.
</event>
<event>
 7    1  0.1302069E-013  0.7246146E+02  0.7816164E-02  0.1226708E+00
        -11   -1    0    0    0    0  0.00000000000E+00  0.00000000000E+00  0.45593999997E+02  0.45594000000E+02  0.51100000000E-03 0. -1.
         11   -1    0    0    0    0 -0.00000000000E+00 -0.00000000000E+00 -0.45593999997E+02  0.45594000000E+02  0.51100000000E-03 0.  1.
    9900012    2    1    2    0    0  0.17088209223E+02  0.61336801008E+00 -0.76354664315E+01  0.72461455674E+02  0.69999850686E+02 0.  0.
         12    1    1    2    0    0 -0.17088209223E+02 -0.61336801008E+00  0.76354664315E+01  0.18726544326E+02  0.00000000000E+00 0. -1.
         11    1    3    3    0    0  0.30303843093E+02 -0.23969362872E+02  0.71122317357E+01  0.39286602083E+02  0.51100000000E-03 0.  1.
        -11    1    3    3    0    0 -0.51006884918E+01  0.19424351197E+02 -0.10510376626E+02  0.22666946411E+02  0.51100000000E-03 0. -1.
        -12    1    3    3    0    0 -0.81149453783E+01  0.51583796845E+01 -0.42373215412E+01  0.10507907180E+02  0.00000000000E+00 0.  1.
</event>
<event>
 7    1  0.1836433E-013  0.7246157E+02  0.7816164E-02  0.1226708E+00
        -11   -1    0    0    0    0  0.00000000000E+00  0.00000000000E+00  0.45593999997E+02  0.45594000000E+02  0.51100000000E-03 0. -1.
         11   -1    0    0    0    0 -0.00000000000E+00 -0.00000000000E+00 -0.45593999997E+02  0.45594000000E+02  0.51100000000E-03 0.  1.
    9900012    2    1    2    0    0  0.18636762889E+01  0.12008486268E+02 -0.14247880566E+02  0.72461571286E+02  0.70000001291E+02 0.  0.
         12    1    1    2    0    0 -0.18636762889E+01 -0.12008486268E+02  0.14247880566E+02  0.18726428714E+02  0.00000000000E+00 0. -1.
         11    1    3    3    0    0 -0.34559626580E+01  0.89657102486E+01  0.16556467038E+02  0.19142733326E+02  0.51100000000E-03 0. -1.
        -11    1    3    3    0    0  0.90803571861E+01  0.21549605746E+02 -0.23259334728E+02  0.32982344469E+02  0.51100000000E-03 0.  1.
        -12    1    3    3    0    0 -0.37607182392E+01 -0.18506829726E+02 -0.75450128758E+01  0.20336493490E+02  0.00000000000E+00 0.  1.
</event>
<event>
 7    1  0.1302069E-013  0.7246181E+02  0.7816164E-02  0.1226707E+00
        -11   -1    0    0    0    0  0.00000000000E+00  0.00000000000E+00  0.45593999997E+02  0.45594000000E+02  0.51100000000E-03 0. -1.
         11   -1    0    0    0    0 -0.00000000000E+00 -0.00000000000E+00 -0.45593999997E+02  0.45594000000E+02  0.51100000000E-03 0.  1.
    9900012    2    1    2    0    0  0.12681115392E+02  0.13778950766E+02 -0.45639932652E-02  0.72461809981E+02  0.70000312235E+02 0.  0.
         12    1    1    2    0    0 -0.12681115392E+02 -0.13778950766E+02  0.45639932652E-02  0.18726190019E+02  0.00000000000E+00 0. -1.
         11    1    3    3    0    0 -0.66060018120E+01 -0.23285907169E+02 -0.81092162413E+01  0.25527086025E+02  0.51100000000E-03 0. -1.
        -11    1    3    3    0    0  0.16302643824E+02  0.15557033819E+02 -0.26745281444E+01  0.22692522952E+02  0.51100000000E-03 0.  1.
         12    1    3    3    0    0  0.29844733804E+01  0.21507824116E+02  0.10779180392E+02  0.24242201004E+02  0.00000000000E+00 0. -1.
</event>
<event>
 7    1  0.1302069E-013  0.7246169E+02  0.7816164E-02  0.1226708E+00
        -11   -1    0    0    0    0  0.00000000000E+00  0.00000000000E+00  0.45593999997E+02  0.45594000000E+02  0.51100000000E-03 0.  1.
         11   -1    0    0    0    0 -0.00000000000E+00 -0.00000000000E+00 -0.45593999997E+02  0.45594000000E+02  0.51100000000E-03 0. -1.
    9900012    2    1    2    0    0  0.25028075505E+01  0.29785616604E+01  0.18317720228E+02  0.72461688309E+02  0.70000153736E+02 0.  0.
         12    1    1    2    0    0 -0.25028075505E+01 -0.29785616604E+01 -0.18317720228E+02  0.18726311691E+02  0.00000000000E+00 0. -1.
         11    1    3    3    0    0  0.15785470106E+01  0.90748156687E+01 -0.23258589673E+02  0.25016116483E+02  0.51100000000E-03 0. -1.
        -11    1    3    3    0    0 -0.40578716531E+01 -0.60597298781E+01  0.20072874263E+01  0.75641160502E+01  0.51100000000E-03 0.  1.
         12    1    3    3    0    0  0.49821321931E+01 -0.36524130199E-01  0.39569022474E+02  0.39881455775E+02  0.00000000000E+00 0. -1.
</event>
<event>
 7    1  0.1302069E-013  0.7246161E+02  0.7816164E-02  0.1226708E+00
        -11   -1    0    0    0    0  0.00000000000E+00  0.00000000000E+00  0.45593999997E+02  0.45594000000E+02  0.51100000000E-03 0. -1.
         11   -1    0    0    0    0 -0.00000000000E+00 -0.00000000000E+00 -0.45593999997E+02  0.45594000000E+02  0.51100000000E-03 0.  1.
    9900012    2    1    2    0    0  0.60113568246E+01  0.12006695499E+02 -0.13052988094E+02  0.72461610976E+02  0.70000052996E+02 0.  0.
         12    1    1    2    0    0 -0.60113568246E+01 -0.12006695499E+02  0.13052988094E+02  0.18726389024E+02  0.00000000000E+00 0. -1.
         11    1    3    3    0    0 -0.12917235488E+02 -0.54202074374E+00  0.11181645307E+01  0.12976866005E+02  0.51100000000E-03 0. -1.
        -11    1    3    3    0    0  0.21804973572E+02 -0.25288255828E+01 -0.30171824871E+02  0.37312073751E+02  0.51100000000E-03 0.  1.
        -12    1    3    3    0    0 -0.28763812593E+01  0.15077541826E+02  0.16000672247E+02  0.22172671220E+02  0.00000000000E+00 0.  1.
</event>
<event>
 7    1  0.1307337E-013  0.7246121E+02  0.7816164E-02  0.1226709E+00
        -11   -1    0    0    0    0  0.00000000000E+00  0.00000000000E+00  0.45593999997E+02  0.45594000000E+02  0.51100000000E-03 0.  1.
         11   -1    0    0    0    0 -0.00000000000E+00 -0.00000000000E+00 -0.45593999997E+02  0.45594000000E+02  0.51100000000E-03 0. -1.
    9900012    2    1    2    0    0 -0.16017134276E+02  0.49081326429E+01  0.83698503298E+01  0.72461207670E+02  0.69999527612E+02 0.  0.
         12    1    1    2    0    0  0.16017134276E+02 -0.49081326429E+01 -0.83698503298E+01  0.18726792330E+02  0.00000000000E+00 0. -1.
         11    1    3    3    0    0  0.10320940696E+02  0.88108228956E+01 -0.71535158030E+01  0.15340313085E+02  0.51100000000E-03 0. -1.
        -11    1    3    3    0    0 -0.77985840926E+01 -0.25299766574E+02  0.51630379913E+01  0.26973191582E+02  0.51100000000E-03 0.  1.
        -12    1    3    3    0    0 -0.18539490879E+02  0.21397076321E+02  0.10360328141E+02  0.30147703003E+02  0.00000000000E+00 0.  1.
</event>
<event>
 7    1  0.1302069E-013  0.7246148E+02  0.7816164E-02  0.1226708E+00
        -11   -1    0    0    0    0  0.00000000000E+00  0.00000000000E+00  0.45593999997E+02  0.45594000000E+02  0.51100000000E-03 0. -1.
         11   -1    0    0    0    0 -0.00000000000E+00 -0.00000000000E+00 -0.45593999997E+02  0.45594000000E+02  0.51100000000E-03 0.  1.
    9900012    2    1    2    0    0  0.16921911212E+02 -0.45002347776E+01  0.66392424054E+01  0.72461475180E+02  0.69999876096E+02 0.  0.
         12    1    1    2    0    0 -0.16921911212E+02  0.45002347776E+01 -0.66392424054E+01  0.18726524820E+02  0.00000000000E+00 0. -1.
         11    1    3    3    0    0  0.55196661515E+01 -0.28940009712E+01  0.26421776306E+02  0.27146863897E+02  0.51100000000E-03 0. -1.
        -11    1    3    3    0    0  0.13331580402E+02  0.14385541925E+02 -0.21516083540E+02  0.29113857588E+02  0.51100000000E-03 0.  1.
         12    1    3    3    0    0 -0.19293353419E+01 -0.15991775732E+02  0.17335496402E+01  0.16200753694E+02  0.00000000000E+00 0. -1.
</event>
<event>
 7    1  0.1302069E-013  0.7246156E+02  0.7816164E-02  0.1226708E+00
        -11   -1    0    0    0    0  0.00000000000E+00  0.00000000000E+00  0.45593999997E+02  0.45594000000E+02  0.51100000000E-03 0. -1.
         11   -1    0    0    0    0 -0.00000000000E+00 -0.00000000000E+00 -0.45593999997E+02  0.45594000000E+02  0.51100000000E-03 0.  1.
    9900012    2    1    2    0    0  0.63941216294E+01 -0.17255730781E+02 -0.34690928205E+01  0.72461557700E+02  0.69999983594E+02 0.  0.
         12    1    1    2    0    0 -0.63941216294E+01  0.17255730781E+02  0.34690928205E+01  0.18726442300E+02  0.00000000000E+00 0. -1.
         11    1    3    3    0    0  0.18285074260E+02  0.21453489056E+02  0.19850839029E+01  0.28258391528E+02  0.51100000000E-03 0. -1.
        -11    1    3    3    0    0 -0.45635335722E+01 -0.21796421187E+02 -0.11159192330E+02  0.24908580629E+02  0.51100000000E-03 0.  1.
        -12    1    3    3    0    0 -0.73274190578E+01 -0.16912798650E+02  0.57050156062E+01  0.19294585544E+02  0.00000000000E+00 0.  1.
</event>
<event>
 7    1  0.1302069E-013  0.7246158E+02  0.7816164E-02  0.1226708E+00
        -11   -1    0    0    0    0  0.00000000000E+00  0.00000000000E+00  0.45593999997E+02  0.45594000000E+02  0.51100000000E-03 0. -1.
         11   -1    0    0    0    0 -0.00000000000E+00 -0.00000000000E+00 -0.45593999997E+02  0.45594000000E+02  0.51100000000E-03 0.  1.
    9900012    2    1    2    0    0  0.10890339173E+02  0.12233680579E+02 -0.90783489791E+01  0.72461578879E+02  0.70000011183E+02 0.  0.
         12    1    1    2    0    0 -0.10890339173E+02 -0.12233680579E+02  0.90783489791E+01  0.18726421121E+02  0.00000000000E+00 0. -1.
         11    1    3    3    0    0 -0.62090885243E+01 -0.23790186608E+02 -0.16911318396E+02  0.29841555745E+02  0.51100000000E-03 0. -1.
        -11    1    3    3    0    0  0.62791077069E+01  0.25442639752E+02  0.82688905612E+01  0.27479622678E+02  0.51100000000E-03 0.  1.
        -12    1    3    3    0    0  0.10820319990E+02  0.10581227435E+02 -0.43592114465E+00  0.15140400456E+02  0.00000000000E+00 0.  1.
</event>
<event>
 7    1  0.1302069E-013  0.7246156E+02  0.7816164E-02  0.1226708E+00
        -11   -1    0    0    0    0  0.00000000000E+00  0.00000000000E+00  0.45593999997E+02  0.45594000000E+02  0.51100000000E-03 0. -1.
         11   -1    0    0    0    0 -0.00000000000E+00 -0.00000000000E+00 -0.45593999997E+02  0.45594000000E+02  0.51100000000E-03 0.  1.
    9900012    2    1    2    0    0 -0.69254383768E+01 -0.13989446099E+02 -0.10344716385E+02  0.72461562647E+02  0.69999990038E+02 0.  0.
         12    1    1    2    0    0  0.69254383768E+01  0.13989446099E+02  0.10344716385E+02  0.18726437353E+02  0.00000000000E+00 0. -1.
         11    1    3    3    0    0  0.68170936195E+01 -0.54533606196E+01  0.17891114058E+02  0.19907382298E+02  0.51100000000E-03 0. -1.
        -11    1    3    3    0    0 -0.19731831582E+02  0.11717800010E+02 -0.11885021495E+02  0.25843872598E+02  0.51100000000E-03 0.  1.
         12    1    3    3    0    0  0.59892995859E+01 -0.20253885489E+02 -0.16350808947E+02  0.26710307751E+02  0.00000000000E+00 0. -1.
</event>
<event>
 7    1  0.1302069E-013  0.7246159E+02  0.7816164E-02  0.1226708E+00
        -11   -1    0    0    0    0  0.00000000000E+00  0.00000000000E+00  0.45593999997E+02  0.45594000000E+02  0.51100000000E-03 0.  1.
         11   -1    0    0    0    0 -0.00000000000E+00 -0.00000000000E+00 -0.45593999997E+02  0.45594000000E+02  0.51100000000E-03 0. -1.
    9900012    2    1    2    0    0 -0.13819833034E+02 -0.59629709607E+01  0.11141529656E+02  0.72461588416E+02  0.70000023606E+02 0.  0.
         12    1    1    2    0    0  0.13819833034E+02  0.59629709607E+01 -0.11141529656E+02  0.18726411584E+02  0.00000000000E+00 0. -1.
         11    1    3    3    0    0  0.14579090058E+02 -0.10370602797E+02  0.15356337857E+02  0.23577879081E+02  0.51100000000E-03 0. -1.
        -11    1    3    3    0    0 -0.33706135544E+02  0.31994672052E+01  0.86240556266E+01  0.34938724926E+02  0.51100000000E-03 0.  1.
         12    1    3    3    0    0  0.53072124523E+01  0.12081646316E+01 -0.12838863828E+02  0.13944984409E+02  0.00000000000E+00 0. -1.
</event>
<event>
 7    1  0.1302069E-013  0.7246151E+02  0.7816164E-02  0.1226708E+00
        -11   -1    0    0    0    0  0.00000000000E+00  0.00000000000E+00  0.45593999997E+02  0.45594000000E+02  0.51100000000E-03 0. -1.
         11   -1    0    0    0    0 -0.00000000000E+00 -0.00000000000E+00 -0.45593999997E+02  0.45594000000E+02  0.51100000000E-03 0.  1.
    9900012    2    1    2    0    0 -0.17433066237E+02 -0.38253150784E+01  0.56689202248E+01  0.72461508327E+02  0.69999919275E+02 0.  0.
         12    1    1    2    0    0  0.17433066237E+02  0.38253150784E+01 -0.56689202248E+01  0.18726491673E+02  0.00000000000E+00 0. -1.
         11    1    3    3    0    0 -0.18993685562E+01 -0.28823895469E+02 -0.11386627127E-01  0.28886409968E+02  0.51100000000E-03 0. -1.
        -11    1    3    3    0    0 -0.26050414984E+01  0.94122325163E+01 -0.12840453071E+02  0.16132377304E+02  0.51100000000E-03 0.  1.
         12    1    3    3    0    0 -0.12928656183E+02  0.15586347874E+02  0.18520759923E+02  0.27442721055E+02  0.00000000000E+00 0. -1.
</event>
<event>
 7    1  0.1302069E-013  0.7246167E+02  0.7816164E-02  0.1226708E+00
        -11   -1    0    0    0    0  0.00000000000E+00  0.00000000000E+00  0.45593999997E+02  0.45594000000E+02  0.51100000000E-03 0.  1.
         11   -1    0    0    0    0 -0.00000000000E+00 -0.00000000000E+00 -0.45593999997E+02  0.45594000000E+02  0.51100000000E-03 0. -1.
    9900012    2    1    2    0    0  0.17867982790E+02 -0.12762047521E+01  0.54572828339E+01  0.72461669781E+02  0.70000129599E+02 0.  0.
         12    1    1    2    0    0 -0.17867982790E+02  0.12762047521E+01 -0.54572828339E+01  0.18726330219E+02  0.00000000000E+00 0. -1.
         11    1    3    3    0    0  0.32004684684E+02 -0.77234429413E+01  0.39661684164E+01  0.33161452090E+02  0.51100000000E-03 0. -1.
        -11    1    3    3    0    0 -0.66005946430E+01 -0.87203680817E+01  0.14344733003E+02  0.18038404428E+02  0.51100000000E-03 0.  1.
         12    1    3    3    0    0 -0.75361072504E+01  0.15167606271E+02 -0.12853618585E+02  0.21261813263E+02  0.00000000000E+00 0. -1.
</event>
<event>
 7    1  0.1302069E-013  0.7246151E+02  0.7816164E-02  0.1226708E+00
        -11   -1    0    0    0    0  0.00000000000E+00  0.00000000000E+00  0.45593999997E+02  0.45594000000E+02  0.51100000000E-03 0.  1.
         11   -1    0    0    0    0 -0.00000000000E+00 -0.00000000000E+00 -0.45593999997E+02  0.45594000000E+02  0.51100000000E-03 0. -1.
    9900012    2    1    2    0    0 -0.33154177873E+00  0.85058238141E+01  0.16680006119E+02  0.72461506392E+02  0.69999916756E+02 0.  0.
         12    1    1    2    0    0  0.33154177873E+00 -0.85058238141E+01 -0.16680006119E+02  0.18726493608E+02  0.00000000000E+00 0. -1.
         11    1    3    3    0    0 -0.67402086943E+00 -0.11195087756E+02  0.29448508657E+02  0.31511885954E+02  0.51100000000E-03 0. -1.
        -11    1    3    3    0    0 -0.15456084006E+02  0.13454069605E+02 -0.14645082655E+01  0.20543789973E+02  0.51100000000E-03 0.  1.
         12    1    3    3    0    0  0.15798563096E+02  0.62468419649E+01 -0.11303994273E+02  0.20405830465E+02  0.00000000000E+00 0. -1.
</event>
<event>
 7    1  0.1302069E-013  0.7246152E+02  0.7816164E-02  0.1226708E+00
        -11   -1    0    0    0    0  0.00000000000E+00  0.00000000000E+00  0.45593999997E+02  0.45594000000E+02  0.51100000000E-03 0. -1.
         11   -1    0    0    0    0 -0.00000000000E+00 -0.00000000000E+00 -0.45593999997E+02  0.45594000000E+02  0.51100000000E-03 0.  1.
    9900012    2    1    2    0    0  0.95467347648E+01  0.13298397419E+02 -0.90935895042E+01  0.72461524393E+02  0.69999940205E+02 0.  0.
         12    1    1    2    0    0 -0.95467347648E+01 -0.13298397419E+02  0.90935895042E+01  0.18726475607E+02  0.00000000000E+00 0. -1.
         11    1    3    3    0    0  0.32180096474E+02  0.10695711786E+02  0.13020098797E+02  0.36324644976E+02  0.51100000000E-03 0. -1.
        -11    1    3    3    0    0 -0.19853430379E+02 -0.18421420141E+01 -0.87358843261E+01  0.21768506155E+02  0.51100000000E-03 0.  1.
         12    1    3    3    0    0 -0.27799313301E+01  0.44448276466E+01 -0.13377803975E+02  0.14368373262E+02  0.00000000000E+00 0. -1.
</event>
<event>
 7    1  0.1302069E-013  0.7246161E+02  0.7816164E-02  0.1226708E+00
        -11   -1    0    0    0    0  0.00000000000E+00  0.00000000000E+00  0.45593999997E+02  0.45594000000E+02  0.51100000000E-03 0.  1.
         11   -1    0    0    0    0 -0.00000000000E+00 -0.00000000000E+00 -0.45593999997E+02  0.45594000000E+02  0.51100000000E-03 0. -1.
    9900012    2    1    2    0    0  0.15466165941E+02  0.79649266954E+01  0.69307404596E+01  0.72461614618E+02  0.70000057739E+02 0.  0.
         12    1    1    2    0    0 -0.15466165941E+02 -0.79649266954E+01 -0.69307404596E+01  0.18726385382E+02  0.00000000000E+00 0. -1.
         11    1    3    3    0    0  0.98765093962E+01 -0.13075410916E+02 -0.47424469780E+01  0.17058798670E+02  0.51100000000E-03 0. -1.
        -11    1    3    3    0    0 -0.19285372113E+02  0.15037041640E+02  0.16312889985E+02  0.29396404181E+02  0.51100000000E-03 0.  1.
        -12    1    3    3    0    0  0.24875028658E+02  0.60032959715E+01 -0.46397025474E+01  0.26006411767E+02  0.00000000000E+00 0.  1.
</event>
<event>
 7    1  0.1302069E-013  0.7246157E+02  0.7816164E-02  0.1226708E+00
        -11   -1    0    0    0    0  0.00000000000E+00  0.00000000000E+00  0.45593999997E+02  0.45594000000E+02  0.51100000000E-03 0.  1.
         11   -1    0    0    0    0 -0.00000000000E+00 -0.00000000000E+00 -0.45593999997E+02  0.45594000000E+02  0.51100000000E-03 0. -1.
    9900012    2    1    2    0    0  0.94362973992E+01 -0.36330727942E+01  0.15761856430E+02  0.72461573628E+02  0.70000004343E+02 0.  0.
         12    1    1    2    0    0 -0.94362973992E+01  0.36330727942E+01 -0.15761856430E+02  0.18726426372E+02  0.00000000000E+00 0. -1.
         11    1    3    3    0    0  0.77876682493E+01 -0.21208619890E+02 -0.58982604295E+01  0.23350434916E+02  0.51100000000E-03 0. -1.
        -11    1    3    3    0    0  0.20551251620E+02  0.10776679204E+02  0.16178796657E+02  0.28288588147E+02  0.51100000000E-03 0.  1.
        -12    1    3    3    0    0 -0.18902622470E+02  0.67988678923E+01  0.54813202029E+01  0.20822550565E+02  0.00000000000E+00 0.  1.
</event>
<event>
 7    1  0.1302069E-013  0.7246157E+02  0.7816164E-02  0.1226708E+00
        -11   -1    0    0    0    0  0.00000000000E+00  0.00000000000E+00  0.45593999997E+02  0.45594000000E+02  0.51100000000E-03 0. -1.
         11   -1    0    0    0    0 -0.00000000000E+00 -0.00000000000E+00 -0.45593999997E+02  0.45594000000E+02  0.51100000000E-03 0.  1.
    9900012    2    1    2    0    0  0.70814617268E+01 -0.90548553880E+01 -0.14783160510E+02  0.72461565717E+02  0.69999994037E+02 0.  0.
         12    1    1    2    0    0 -0.70814617268E+01  0.90548553880E+01  0.14783160510E+02  0.18726434283E+02  0.00000000000E+00 0. -1.
         11    1    3    3    0    0 -0.31052666633E+01  0.10483337361E+02 -0.18693038431E+02  0.21655778198E+02  0.51100000000E-03 0. -1.
        -11    1    3    3    0    0  0.26525237986E+02 -0.20160703846E+02  0.73000170094E+01  0.34107660112E+02  0.51100000000E-03 0.  1.
        -12    1    3    3    0    0 -0.16338509595E+02  0.62251109637E+00 -0.33901390881E+01  0.16698127407E+02  0.00000000000E+00 0.  1.
</event>
<event>
 7    1  0.1302069E-013  0.7246154E+02  0.7816164E-02  0.1226708E+00
        -11   -1    0    0    0    0  0.00000000000E+00  0.00000000000E+00  0.45593999997E+02  0.45594000000E+02  0.51100000000E-03 0. -1.
         11   -1    0    0    0    0 -0.00000000000E+00 -0.00000000000E+00 -0.45593999997E+02  0.45594000000E+02  0.51100000000E-03 0.  1.
    9900012    2    1    2    0    0 -0.36346359509E+01 -0.18141459645E+02 -0.28908508624E+01  0.72461543975E+02  0.69999965714E+02 0.  0.
         12    1    1    2    0    0  0.36346359509E+01  0.18141459645E+02  0.28908508624E+01  0.18726456025E+02  0.00000000000E+00 0. -1.
         11    1    3    3    0    0  0.28543187810E+01 -0.24477726173E+02  0.13558750478E+02  0.28127316422E+02  0.51100000000E-03 0. -1.
        -11    1    3    3    0    0 -0.22865723961E+02  0.82488770838E+01 -0.68484881304E+01  0.25254447041E+02  0.51100000000E-03 0.  1.
        -12    1    3    3    0    0  0.16376769229E+02 -0.19126105559E+01 -0.96011132101E+01  0.19079780512E+02  0.00000000000E+00 0.  1.
</event>
<event>
 7    1  0.1302069E-013  0.7246155E+02  0.7816164E-02  0.1226708E+00
        -11   -1    0    0    0    0  0.00000000000E+00  0.00000000000E+00  0.45593999997E+02  0.45594000000E+02  0.51100000000E-03 0. -1.
         11   -1    0    0    0    0 -0.00000000000E+00 -0.00000000000E+00 -0.45593999997E+02  0.45594000000E+02  0.51100000000E-03 0.  1.
    9900012    2    1    2    0    0  0.18690151439E+02 -0.11354271537E+01 -0.26279138508E+00  0.72461547721E+02  0.69999970594E+02 0.  0.
         12    1    1    2    0    0 -0.18690151439E+02  0.11354271537E+01  0.26279138508E+00  0.18726452279E+02  0.00000000000E+00 0. -1.
         11    1    3    3    0    0  0.28421621659E+02 -0.17730237762E+02 -0.22857041518E+00  0.33499285866E+02  0.51100000000E-03 0. -1.
        -11    1    3    3    0    0 -0.68564713675E+01  0.59740119177E+01 -0.16686210192E+02  0.19003410979E+02  0.51100000000E-03 0.  1.
         12    1    3    3    0    0 -0.28749988523E+01  0.10620798691E+02  0.16651989222E+02  0.19958850876E+02  0.00000000000E+00 0. -1.
</event>
<event>
 7    1  0.1302069E-013  0.7246157E+02  0.7816164E-02  0.1226708E+00
        -11   -1    0    0    0    0  0.00000000000E+00  0.00000000000E+00  0.45593999997E+02  0.45594000000E+02  0.51100000000E-03 0.  1.
         11   -1    0    0    0    0 -0.00000000000E+00 -0.00000000000E+00 -0.45593999997E+02  0.45594000000E+02  0.51100000000E-03 0. -1.
    9900012    2    1    2    0    0  0.97860569805E+01  0.65894586038E+01 -0.14542735360E+02  0.72461574082E+02  0.70000004934E+02 0.  0.
         12    1    1    2    0    0 -0.97860569805E+01 -0.65894586038E+01  0.14542735360E+02  0.18726425918E+02  0.00000000000E+00 0. -1.
         11    1    3    3    0    0  0.38142139540E+02  0.52588641872E+01 -0.82202722627E+01  0.39370691353E+02  0.51100000000E-03 0.  1.
        -11    1    3    3    0    0 -0.20432208562E+02  0.28259142755E+01 -0.11394429912E+02  0.23564676350E+02  0.51100000000E-03 0. -1.
        -12    1    3    3    0    0 -0.79238739974E+01 -0.14953198590E+01  0.50719668141E+01  0.95262063787E+01  0.00000000000E+00 0.  1.
</event>
<event>
 7    1  0.1302069E-013  0.7246158E+02  0.7816164E-02  0.1226708E+00
        -11   -1    0    0    0    0  0.00000000000E+00  0.00000000000E+00  0.45593999997E+02  0.45594000000E+02  0.51100000000E-03 0.  1.
         11   -1    0    0    0    0 -0.00000000000E+00 -0.00000000000E+00 -0.45593999997E+02  0.45594000000E+02  0.51100000000E-03 0. -1.
    9900012    2    1    2    0    0 -0.70695487143E+01  0.21216651130E+01  0.17210429048E+02  0.72461578829E+02  0.70000011118E+02 0.  0.
         12    1    1    2    0    0  0.70695487143E+01 -0.21216651130E+01 -0.17210429048E+02  0.18726421171E+02  0.00000000000E+00 0. -1.
         11    1    3    3    0    0 -0.88610597706E+01 -0.11092678515E+02 -0.18206105838E+02  0.23087403209E+02  0.51100000000E-03 0. -1.
        -11    1    3    3    0    0 -0.13957135162E+02  0.79241351201E+01  0.25180490169E+02  0.29860519499E+02  0.51100000000E-03 0.  1.
         12    1    3    3    0    0  0.15748646218E+02  0.52902085084E+01  0.10236044716E+02  0.19513656121E+02  0.00000000000E+00 0. -1.
</event>
<event>
 7    1  0.1302069E-013  0.7246154E+02  0.7816164E-02  0.1226708E+00
        -11   -1    0    0    0    0  0.00000000000E+00  0.00000000000E+00  0.45593999997E+02  0.45594000000E+02  0.51100000000E-03 0. -1.
         11   -1    0    0    0    0 -0.00000000000E+00 -0.00000000000E+00 -0.45593999997E+02  0.45594000000E+02  0.51100000000E-03 0.  1.
    9900012    2    1    2    0    0 -0.10235307975E+02 -0.12750446872E+02  0.91293419928E+01  0.72461539843E+02  0.69999960332E+02 0.  0.
         12    1    1    2    0    0  0.10235307975E+02  0.12750446872E+02 -0.91293419928E+01  0.18726460157E+02  0.00000000000E+00 0. -1.
         11    1    3    3    0    0 -0.20949568020E+02  0.79533002934E+01 -0.88712242353E+00  0.22426019982E+02  0.51100000000E-03 0. -1.
        -11    1    3    3    0    0  0.26179974454E+02 -0.57077551389E+01  0.13922527831E+01  0.26831099478E+02  0.51100000000E-03 0.  1.
         12    1    3    3    0    0 -0.15465714409E+02 -0.14995992027E+02  0.86242116333E+01  0.23204420384E+02  0.00000000000E+00 0. -1.
</event>
<event>
 7    1  0.1302069E-013  0.7246156E+02  0.7816164E-02  0.1226708E+00
        -11   -1    0    0    0    0  0.00000000000E+00  0.00000000000E+00  0.45593999997E+02  0.45594000000E+02  0.51100000000E-03 0.  1.
         11   -1    0    0    0    0 -0.00000000000E+00 -0.00000000000E+00 -0.45593999997E+02  0.45594000000E+02  0.51100000000E-03 0. -1.
    9900012    2    1    2    0    0  0.86008053331E+01  0.31958257064E+01  0.16324589396E+02  0.72461564854E+02  0.69999992913E+02 0.  0.
         12    1    1    2    0    0 -0.86008053331E+01 -0.31958257064E+01 -0.16324589396E+02  0.18726435146E+02  0.00000000000E+00 0. -1.
         11    1    3    3    0    0 -0.19368020905E+02 -0.43817966435E+01 -0.12611174935E+02  0.23523649995E+02  0.51100000000E-03 0. -1.
        -11    1    3    3    0    0 -0.23422360433E+00  0.96714402075E+01  0.13824177904E+02  0.16873040964E+02  0.51100000000E-03 0.  1.
         12    1    3    3    0    0  0.28203049842E+02 -0.20938178576E+01  0.15111586426E+02  0.32064873896E+02  0.00000000000E+00 0. -1.
</event>
<event>
 7    1  0.1302069E-013  0.7246158E+02  0.7816164E-02  0.1226708E+00
        -11   -1    0    0    0    0  0.00000000000E+00  0.00000000000E+00  0.45593999997E+02  0.45594000000E+02  0.51100000000E-03 0. -1.
         11   -1    0    0    0    0 -0.00000000000E+00 -0.00000000000E+00 -0.45593999997E+02  0.45594000000E+02  0.51100000000E-03 0.  1.
    9900012    2    1    2    0    0  0.82651016064E+01 -0.12718560608E+02 -0.10982040270E+02  0.72461577570E+02  0.70000009478E+02 0.  0.
         12    1    1    2    0    0 -0.82651016064E+01  0.12718560608E+02  0.10982040270E+02  0.18726422430E+02  0.00000000000E+00 0. -1.
         11    1    3    3    0    0  0.32241696713E+02 -0.21102032825E+02  0.76011383493E+01  0.39275948120E+02  0.51100000000E-03 0. -1.
        -11    1    3    3    0    0 -0.16036790316E+02  0.14279857088E+01 -0.15091913625E+02  0.22067705906E+02  0.51100000000E-03 0.  1.
         12    1    3    3    0    0 -0.79398047907E+01  0.69554865079E+01 -0.34912649946E+01  0.11117923544E+02  0.00000000000E+00 0. -1.
</event>
<event>
 8    1  0.1302069E-013  0.7246151E+02  0.7816164E-02  0.1226708E+00
        -11   -1    0    0    0    0  0.00000000000E+00  0.00000000000E+00  0.45593999997E+02  0.45594000000E+02  0.51100000000E-03 0. -1.
         11   -1    0    0    0    0 -0.00000000000E+00 -0.00000000000E+00 -0.45593999997E+02  0.45594000000E+02  0.51100000000E-03 0.  1.
    9900012    2    1    2    0    0  0.88290703406E-01  0.11538878484E+02 -0.14748821591E+02  0.72461514738E+02  0.69999927628E+02 0.  0.
         24    2    3    3    0    0  0.24295930958E+00  0.12023983000E+02  0.65446075262E+01  0.51161998955E+02  0.49295872576E+02 0.  0.
         12    1    1    2    0    0 -0.88290703406E-01 -0.11538878484E+02  0.14748821591E+02  0.18726485262E+02  0.00000000000E+00 0. -1.
         11    1    3    3    0    0 -0.15466860618E+00 -0.48510451579E+00 -0.21293429117E+02  0.21299515783E+02  0.51100000000E-03 0.  1.
        -11    1    4    4    0    0 -0.17953296583E+01 -0.62498306941E+00  0.26977553326E+02  0.27044448528E+02  0.51100000000E-03 0. -1.
         12    1    4    4    0    0  0.20382889679E+01  0.12648966070E+02 -0.20432945800E+02  0.24117550427E+02  0.00000000000E+00 0. -1.
</event>
<event>
 7    1  0.1302069E-013  0.7246158E+02  0.7816164E-02  0.1226708E+00
        -11   -1    0    0    0    0  0.00000000000E+00  0.00000000000E+00  0.45593999997E+02  0.45594000000E+02  0.51100000000E-03 0. -1.
         11   -1    0    0    0    0 -0.00000000000E+00 -0.00000000000E+00 -0.45593999997E+02  0.45594000000E+02  0.51100000000E-03 0.  1.
    9900012    2    1    2    0    0 -0.17344220386E+02  0.58052486201E+01  0.40194604221E+01  0.72461576037E+02  0.70000007481E+02 0.  0.
         12    1    1    2    0    0  0.17344220386E+02 -0.58052486201E+01 -0.40194604221E+01  0.18726423963E+02  0.00000000000E+00 0. -1.
         11    1    3    3    0    0 -0.13658927668E+01  0.13531804866E+02  0.27815429812E+02  0.30962453745E+02  0.51100000000E-03 0. -1.
        -11    1    3    3    0    0  0.14827371314E+01  0.59174433421E-01 -0.22270777514E+02  0.22320159998E+02  0.51100000000E-03 0.  1.
         12    1    3    3    0    0 -0.17461064751E+02 -0.77857306793E+01 -0.15251918762E+01  0.19178962295E+02  0.00000000000E+00 0. -1.
</event>
<event>
 7    1  0.1302069E-013  0.7246150E+02  0.7816164E-02  0.1226708E+00
        -11   -1    0    0    0    0  0.00000000000E+00  0.00000000000E+00  0.45593999997E+02  0.45594000000E+02  0.51100000000E-03 0.  1.
         11   -1    0    0    0    0 -0.00000000000E+00 -0.00000000000E+00 -0.45593999997E+02  0.45594000000E+02  0.51100000000E-03 0. -1.
    9900012    2    1    2    0    0 -0.71121759016E+01 -0.14159056258E+02  0.99809701380E+01  0.72461503128E+02  0.69999912504E+02 0.  0.
         12    1    1    2    0    0  0.71121759016E+01  0.14159056258E+02 -0.99809701380E+01  0.18726496872E+02  0.00000000000E+00 0. -1.
         11    1    3    3    0    0 -0.69642799373E+01  0.90847805721E+01 -0.13456888654E+02  0.17666982923E+02  0.51100000000E-03 0. -1.
        -11    1    3    3    0    0  0.19401333218E+02 -0.77383698095E+01  0.21169929558E+02  0.29739872490E+02  0.51100000000E-03 0.  1.
         12    1    3    3    0    0 -0.19549229182E+02 -0.15505467021E+02  0.22679292339E+01  0.25054647716E+02  0.00000000000E+00 0. -1.
</event>
<event>
 7    1  0.1302069E-013  0.7246157E+02  0.7816164E-02  0.1226708E+00
        -11   -1    0    0    0    0  0.00000000000E+00  0.00000000000E+00  0.45593999997E+02  0.45594000000E+02  0.51100000000E-03 0.  1.
         11   -1    0    0    0    0 -0.00000000000E+00 -0.00000000000E+00 -0.45593999997E+02  0.45594000000E+02  0.51100000000E-03 0. -1.
    9900012    2    1    2    0    0 -0.16003430849E+02  0.25373595304E+01  0.93878299246E+01  0.72461565662E+02  0.69999993965E+02 0.  0.
         12    1    1    2    0    0  0.16003430849E+02 -0.25373595304E+01 -0.93878299246E+01  0.18726434338E+02  0.00000000000E+00 0. -1.
         11    1    3    3    0    0 -0.13458928765E+02 -0.28298467121E+02 -0.37102458418E+01  0.31554903413E+02  0.51100000000E-03 0. -1.
        -11    1    3    3    0    0  0.58355321766E+01  0.26040113817E+02  0.28678412924E+01  0.26839625134E+02  0.51100000000E-03 0.  1.
        -12    1    3    3    0    0 -0.83800342605E+01  0.47957128344E+01  0.10230234474E+02  0.14067037115E+02  0.00000000000E+00 0.  1.
</event>
<event>
 7    1  0.1302069E-013  0.7246157E+02  0.7816164E-02  0.1226708E+00
        -11   -1    0    0    0    0  0.00000000000E+00  0.00000000000E+00  0.45593999997E+02  0.45594000000E+02  0.51100000000E-03 0.  1.
         11   -1    0    0    0    0 -0.00000000000E+00 -0.00000000000E+00 -0.45593999997E+02  0.45594000000E+02  0.51100000000E-03 0. -1.
    9900012    2    1    2    0    0 -0.15260813858E+01 -0.18652126445E+02  0.66962033160E+00  0.72461571171E+02  0.70000001142E+02 0.  0.
         12    1    1    2    0    0  0.15260813858E+01  0.18652126445E+02 -0.66962033160E+00  0.18726428829E+02  0.00000000000E+00 0. -1.
         11    1    3    3    0    0  0.15959332636E+02  0.68561517378E+01  0.12519761527E+02  0.21411481588E+02  0.51100000000E-03 0. -1.
        -11    1    3    3    0    0 -0.28847758917E+02 -0.14506988942E+02 -0.13799000425E+02  0.35114930381E+02  0.51100000000E-03 0.  1.
         12    1    3    3    0    0  0.11362344895E+02 -0.11001289241E+02  0.19488592298E+01  0.15935159201E+02  0.00000000000E+00 0. -1.
</event>
<event>
 7    1  0.1302069E-013  0.7246159E+02  0.7816164E-02  0.1226708E+00
        -11   -1    0    0    0    0  0.00000000000E+00  0.00000000000E+00  0.45593999997E+02  0.45594000000E+02  0.51100000000E-03 0. -1.
         11   -1    0    0    0    0 -0.00000000000E+00 -0.00000000000E+00 -0.45593999997E+02  0.45594000000E+02  0.51100000000E-03 0.  1.
    9900012    2    1    2    0    0  0.88760450682E+01 -0.13546183972E+01 -0.16433477323E+02  0.72461592336E+02  0.70000028714E+02 0.  0.
         12    1    1    2    0    0 -0.88760450682E+01  0.13546183972E+01  0.16433477323E+02  0.18726407664E+02  0.00000000000E+00 0. -1.
         11    1    3    3    0    0  0.26802303795E+02 -0.13968704239E+02 -0.11329108608E+02  0.32277498183E+02  0.51100000000E-03 0. -1.
        -11    1    3    3    0    0 -0.15873436448E+02 -0.82415850635E+01 -0.68561614649E+01  0.19154546701E+02  0.51100000000E-03 0.  1.
        -12    1    3    3    0    0 -0.20528222791E+01  0.20855670906E+02  0.17517927492E+01  0.21029547453E+02  0.00000000000E+00 0.  1.
</event>
<event>
 7    1  0.1302069E-013  0.7246158E+02  0.7816164E-02  0.1226708E+00
        -11   -1    0    0    0    0  0.00000000000E+00  0.00000000000E+00  0.45593999997E+02  0.45594000000E+02  0.51100000000E-03 0.  1.
         11   -1    0    0    0    0 -0.00000000000E+00 -0.00000000000E+00 -0.45593999997E+02  0.45594000000E+02  0.51100000000E-03 0. -1.
    9900012    2    1    2    0    0  0.18111047655E+02  0.21198479696E+01  0.42631970177E+01  0.72461584129E+02  0.70000018022E+02 0.  0.
         12    1    1    2    0    0 -0.18111047655E+02 -0.21198479696E+01 -0.42631970177E+01  0.18726415871E+02  0.00000000000E+00 0. -1.
         11    1    3    3    0    0  0.12499452597E+02 -0.15224759841E+01  0.18888502313E+02  0.22700875936E+02  0.51100000000E-03 0.  1.
        -11    1    3    3    0    0 -0.25135421198E+01 -0.72405253823E+01 -0.28993559809E+02  0.29989491701E+02  0.51100000000E-03 0. -1.
         12    1    3    3    0    0  0.81251371777E+01  0.10882849336E+02  0.14368254513E+02  0.19771216492E+02  0.00000000000E+00 0. -1.
</event>
<event>
 7    1  0.1302069E-013  0.7246149E+02  0.7816164E-02  0.1226708E+00
        -11   -1    0    0    0    0  0.00000000000E+00  0.00000000000E+00  0.45593999997E+02  0.45594000000E+02  0.51100000000E-03 0.  1.
         11   -1    0    0    0    0 -0.00000000000E+00 -0.00000000000E+00 -0.45593999997E+02  0.45594000000E+02  0.51100000000E-03 0. -1.
    9900012    2    1    2    0    0  0.11875684437E+02  0.90302426242E+01  0.11318354394E+02  0.72461486473E+02  0.69999890807E+02 0.  0.
         12    1    1    2    0    0 -0.11875684437E+02 -0.90302426242E+01 -0.11318354394E+02  0.18726513527E+02  0.00000000000E+00 0. -1.
         11    1    3    3    0    0  0.33287092422E+01  0.12688648366E+02 -0.18109732388E+02  0.22361675027E+02  0.51100000000E-03 0. -1.
        -11    1    3    3    0    0 -0.56293252812E+01  0.17703951600E+00  0.34197961102E+02  0.34658638028E+02  0.51100000000E-03 0.  1.
        -12    1    3    3    0    0  0.14176300476E+02 -0.38354452576E+01 -0.47698743204E+01  0.15441173418E+02  0.00000000000E+00 0.  1.
</event>
<event>
 7    1  0.1302069E-013  0.7246156E+02  0.7816164E-02  0.1226708E+00
        -11   -1    0    0    0    0  0.00000000000E+00  0.00000000000E+00  0.45593999997E+02  0.45594000000E+02  0.51100000000E-03 0. -1.
         11   -1    0    0    0    0 -0.00000000000E+00 -0.00000000000E+00 -0.45593999997E+02  0.45594000000E+02  0.51100000000E-03 0.  1.
    9900012    2    1    2    0    0  0.57245744442E+01  0.34381073297E+01 -0.17495373268E+02  0.72461563597E+02  0.69999991275E+02 0.  0.
         12    1    1    2    0    0 -0.57245744442E+01 -0.34381073297E+01  0.17495373268E+02  0.18726436403E+02  0.00000000000E+00 0. -1.
         11    1    3    3    0    0  0.20548155418E+02  0.18581494345E+02 -0.22758290057E+02  0.35853010888E+02  0.51100000000E-03 0. -1.
        -11    1    3    3    0    0 -0.17772046246E+02 -0.42934079692E+01 -0.73557216054E+01  0.19707501626E+02  0.51100000000E-03 0.  1.
         12    1    3    3    0    0  0.29484652719E+01 -0.10849979046E+02  0.12618638394E+02  0.16901051082E+02  0.00000000000E+00 0. -1.
</event>
<event>
 7    1  0.1302069E-013  0.7246171E+02  0.7816164E-02  0.1226708E+00
        -11   -1    0    0    0    0  0.00000000000E+00  0.00000000000E+00  0.45593999997E+02  0.45594000000E+02  0.51100000000E-03 0.  1.
         11   -1    0    0    0    0 -0.00000000000E+00 -0.00000000000E+00 -0.45593999997E+02  0.45594000000E+02  0.51100000000E-03 0. -1.
    9900012    2    1    2    0    0  0.62830301609E+01  0.15977709120E+02 -0.74773130472E+01  0.72461711869E+02  0.70000184428E+02 0.  0.
         12    1    1    2    0    0 -0.62830301609E+01 -0.15977709120E+02  0.74773130472E+01  0.18726288131E+02  0.00000000000E+00 0. -1.
         11    1    3    3    0    0 -0.53333419884E+01 -0.26690405597E+02 -0.56327599941E+01  0.27794788596E+02  0.51100000000E-03 0.  1.
        -11    1    3    3    0    0  0.98049220697E+01  0.39656646015E+02 -0.36114901643E+00  0.40852374458E+02  0.51100000000E-03 0. -1.
        -12    1    3    3    0    0  0.18114500796E+01  0.30114687019E+01 -0.14834040367E+01  0.38145488160E+01  0.00000000000E+00 0.  1.
</event>
<event>
 7    1  0.1302069E-013  0.7246157E+02  0.7816164E-02  0.1226708E+00
        -11   -1    0    0    0    0  0.00000000000E+00  0.00000000000E+00  0.45593999997E+02  0.45594000000E+02  0.51100000000E-03 0.  1.
         11   -1    0    0    0    0 -0.00000000000E+00 -0.00000000000E+00 -0.45593999997E+02  0.45594000000E+02  0.51100000000E-03 0. -1.
    9900012    2    1    2    0    0  0.70952146542E+01  0.55526474489E+01  0.16416614404E+02  0.72461569663E+02  0.69999999178E+02 0.  0.
         12    1    1    2    0    0 -0.70952146542E+01 -0.55526474489E+01 -0.16416614404E+02  0.18726430337E+02  0.00000000000E+00 0. -1.
         11    1    3    3    0    0  0.28904862038E+02  0.59071512608E+00  0.55082313040E+01  0.29430946402E+02  0.51100000000E-03 0. -1.
        -11    1    3    3    0    0 -0.78499252312E+01  0.19181936951E+02  0.10178160758E+02  0.23090322389E+02  0.51100000000E-03 0.  1.
         12    1    3    3    0    0 -0.13959722152E+02 -0.14220004628E+02  0.73022234201E+00  0.19940300872E+02  0.00000000000E+00 0. -1.
</event>
<event>
 7    1  0.1302069E-013  0.7246154E+02  0.7816164E-02  0.1226708E+00
        -11   -1    0    0    0    0  0.00000000000E+00  0.00000000000E+00  0.45593999997E+02  0.45594000000E+02  0.51100000000E-03 0.  1.
         11   -1    0    0    0    0 -0.00000000000E+00 -0.00000000000E+00 -0.45593999997E+02  0.45594000000E+02  0.51100000000E-03 0. -1.
    9900012    2    1    2    0    0 -0.15060019561E+02  0.10088362900E+02  0.47011608991E+01  0.72461543608E+02  0.69999965237E+02 0.  0.
         12    1    1    2    0    0  0.15060019561E+02 -0.10088362900E+02 -0.47011608991E+01  0.18726456392E+02  0.00000000000E+00 0. -1.
         11    1    3    3    0    0  0.80804586193E+01  0.11517743099E+02 -0.45018192577E+01  0.14772223749E+02  0.51100000000E-03 0. -1.
        -11    1    3    3    0    0 -0.29629211557E+02  0.85848084863E+01 -0.12209673206E+02  0.33176275172E+02  0.51100000000E-03 0.  1.
        -12    1    3    3    0    0  0.64887333764E+01 -0.10014188685E+02  0.21412653363E+02  0.24513044688E+02  0.00000000000E+00 0.  1.
</event>
<event>
 7    1  0.1302069E-013  0.7246152E+02  0.7816164E-02  0.1226708E+00
        -11   -1    0    0    0    0  0.00000000000E+00  0.00000000000E+00  0.45593999997E+02  0.45594000000E+02  0.51100000000E-03 0.  1.
         11   -1    0    0    0    0 -0.00000000000E+00 -0.00000000000E+00 -0.45593999997E+02  0.45594000000E+02  0.51100000000E-03 0. -1.
    9900012    2    1    2    0    0  0.14931646911E+02  0.11151303797E+02 -0.18371997615E+01  0.72461522519E+02  0.69999937764E+02 0.  0.
         12    1    1    2    0    0 -0.14931646911E+02 -0.11151303797E+02  0.18371997615E+01  0.18726477481E+02  0.00000000000E+00 0. -1.
         11    1    3    3    0    0 -0.30978435280E+01  0.66372758272E+01  0.90055440283E+01  0.11608181961E+02  0.51100000000E-03 0. -1.
        -11    1    3    3    0    0 -0.81085566627E+01  0.83749343824E+01 -0.27328166623E+02  0.29710552138E+02  0.51100000000E-03 0.  1.
        -12    1    3    3    0    0  0.26138047102E+02 -0.38609064121E+01  0.16485422834E+02  0.31142788421E+02  0.00000000000E+00 0.  1.
</event>
<event>
 7    1  0.1302069E-013  0.7246165E+02  0.7816164E-02  0.1226708E+00
        -11   -1    0    0    0    0  0.00000000000E+00  0.00000000000E+00  0.45593999997E+02  0.45594000000E+02  0.51100000000E-03 0. -1.
         11   -1    0    0    0    0 -0.00000000000E+00 -0.00000000000E+00 -0.45593999997E+02  0.45594000000E+02  0.51100000000E-03 0.  1.
    9900012    2    1    2    0    0  0.14948159703E+02 -0.86660086557E+01 -0.72200310039E+01  0.72461654061E+02  0.70000109121E+02 0.  0.
         12    1    1    2    0    0 -0.14948159703E+02  0.86660086557E+01  0.72200310039E+01  0.18726345939E+02  0.00000000000E+00 0. -1.
         11    1    3    3    0    0 -0.92210124612E+01 -0.80868164659E+01 -0.21567034464E+02  0.24810494698E+02  0.51100000000E-03 0. -1.
        -11    1    3    3    0    0  0.32986176067E+02  0.30045453249E+01  0.36346272404E+01  0.33321548877E+02  0.51100000000E-03 0.  1.
        -12    1    3    3    0    0 -0.88170039027E+01 -0.35837375147E+01  0.10712376219E+02  0.14329610485E+02  0.00000000000E+00 0.  1.
</event>
<event>
 7    1  0.1302069E-013  0.7246157E+02  0.7816164E-02  0.1226708E+00
        -11   -1    0    0    0    0  0.00000000000E+00  0.00000000000E+00  0.45593999997E+02  0.45594000000E+02  0.51100000000E-03 0.  1.
         11   -1    0    0    0    0 -0.00000000000E+00 -0.00000000000E+00 -0.45593999997E+02  0.45594000000E+02  0.51100000000E-03 0. -1.
    9900012    2    1    2    0    0  0.15481014996E+02 -0.25522472908E+01  0.10222682113E+02  0.72461574257E+02  0.70000005162E+02 0.  0.
         12    1    1    2    0    0 -0.15481014996E+02  0.25522472908E+01 -0.10222682113E+02  0.18726425743E+02  0.00000000000E+00 0. -1.
         11    1    3    3    0    0  0.12543865643E+02  0.13697559590E+02  0.30203221094E+02  0.35457104629E+02  0.51100000000E-03 0. -1.
        -11    1    3    3    0    0  0.30657308337E+01  0.65571991204E+01 -0.93955593096E+01  0.11860527006E+02  0.51100000000E-03 0.  1.
         12    1    3    3    0    0 -0.12858148102E+00 -0.22807006001E+02 -0.10584979671E+02  0.25143942622E+02  0.00000000000E+00 0. -1.
</event>
<event>
 7    1  0.1302069E-013  0.7246159E+02  0.7816164E-02  0.1226708E+00
        -11   -1    0    0    0    0  0.00000000000E+00  0.00000000000E+00  0.45593999997E+02  0.45594000000E+02  0.51100000000E-03 0.  1.
         11   -1    0    0    0    0 -0.00000000000E+00 -0.00000000000E+00 -0.45593999997E+02  0.45594000000E+02  0.51100000000E-03 0. -1.
    9900012    2    1    2    0    0  0.67145286623E+01  0.45536502002E+01  0.16877731989E+02  0.72461589175E+02  0.70000024595E+02 0.  0.
         12    1    1    2    0    0 -0.67145286623E+01 -0.45536502002E+01 -0.16877731989E+02  0.18726410825E+02  0.00000000000E+00 0. -1.
         11    1    3    3    0    0 -0.14848630708E+02 -0.40474938812E+01 -0.13273432655E+02  0.20323583723E+02  0.51100000000E-03 0. -1.
        -11    1    3    3    0    0  0.49842354899E+01  0.14328984775E+02  0.31067217738E+02  0.34573608812E+02  0.51100000000E-03 0.  1.
         12    1    3    3    0    0  0.16578923880E+02 -0.57278406936E+01 -0.91605309327E+00  0.17564396640E+02  0.00000000000E+00 0. -1.
</event>
<event>
 7    1  0.1302069E-013  0.7246158E+02  0.7816164E-02  0.1226708E+00
        -11   -1    0    0    0    0  0.00000000000E+00  0.00000000000E+00  0.45593999997E+02  0.45594000000E+02  0.51100000000E-03 0.  1.
         11   -1    0    0    0    0 -0.00000000000E+00 -0.00000000000E+00 -0.45593999997E+02  0.45594000000E+02  0.51100000000E-03 0. -1.
    9900012    2    1    2    0    0  0.18853514156E+00 -0.18272773514E+02 -0.40925441127E+01  0.72461582438E+02  0.70000015819E+02 0.  0.
         12    1    1    2    0    0 -0.18853514156E+00  0.18272773514E+02  0.40925441127E+01  0.18726417562E+02  0.00000000000E+00 0. -1.
         11    1    3    3    0    0 -0.17506088014E+02  0.54407677288E+01 -0.10155876475E+02  0.20957263616E+02  0.51100000000E-03 0. -1.
        -11    1    3    3    0    0  0.28080352330E+02 -0.28180133992E+02  0.57401608164E+01  0.40194223282E+02  0.51100000000E-03 0.  1.
         12    1    3    3    0    0 -0.10385729174E+02  0.44665927490E+01  0.32317154616E+00  0.11310095539E+02  0.00000000000E+00 0. -1.
</event>
<event>
 7    1  0.1302069E-013  0.7246155E+02  0.7816164E-02  0.1226708E+00
        -11   -1    0    0    0    0  0.00000000000E+00  0.00000000000E+00  0.45593999997E+02  0.45594000000E+02  0.51100000000E-03 0. -1.
         11   -1    0    0    0    0 -0.00000000000E+00 -0.00000000000E+00 -0.45593999997E+02  0.45594000000E+02  0.51100000000E-03 0.  1.
    9900012    2    1    2    0    0  0.21099592921E+01 -0.16386747111E+02 -0.88149034894E+01  0.72461549919E+02  0.69999973458E+02 0.  0.
         12    1    1    2    0    0 -0.21099592921E+01  0.16386747111E+02  0.88149034894E+01  0.18726450081E+02  0.00000000000E+00 0. -1.
         11    1    3    3    0    0 -0.19212927459E+02  0.37585543352E+00  0.57796299991E+01  0.20066937286E+02  0.51100000000E-03 0. -1.
        -11    1    3    3    0    0  0.25391796816E+02  0.68188247507E+01 -0.92845992086E+01  0.27882673818E+02  0.51100000000E-03 0.  1.
        -12    1    3    3    0    0 -0.40689100643E+01 -0.23581427295E+02 -0.53099342799E+01  0.24511938815E+02  0.00000000000E+00 0.  1.
</event>
<event>
 7    1  0.1302069E-013  0.7246160E+02  0.7816164E-02  0.1226708E+00
        -11   -1    0    0    0    0  0.00000000000E+00  0.00000000000E+00  0.45593999997E+02  0.45594000000E+02  0.51100000000E-03 0. -1.
         11   -1    0    0    0    0 -0.00000000000E+00 -0.00000000000E+00 -0.45593999997E+02  0.45594000000E+02  0.51100000000E-03 0.  1.
    9900012    2    1    2    0    0  0.19243763166E+01  0.15288496721E+02 -0.10641276854E+02  0.72461598069E+02  0.70000036181E+02 0.  0.
         12    1    1    2    0    0 -0.19243763166E+01 -0.15288496721E+02  0.10641276854E+02  0.18726401931E+02  0.00000000000E+00 0. -1.
         11    1    3    3    0    0  0.26492113424E+02 -0.33336233781E+01 -0.17503329463E+02  0.31926660662E+02  0.51100000000E-03 0. -1.
        -11    1    3    3    0    0 -0.19034810727E+02  0.17214414851E+02 -0.60929435268E+01  0.26377718990E+02  0.51100000000E-03 0.  1.
         12    1    3    3    0    0 -0.55329263804E+01  0.14077052488E+01  0.12954996136E+02  0.14157218416E+02  0.00000000000E+00 0. -1.
</event>
<event>
 7    1  0.1302069E-013  0.7246165E+02  0.7816164E-02  0.1226708E+00
        -11   -1    0    0    0    0  0.00000000000E+00  0.00000000000E+00  0.45593999997E+02  0.45594000000E+02  0.51100000000E-03 0.  1.
         11   -1    0    0    0    0 -0.00000000000E+00 -0.00000000000E+00 -0.45593999997E+02  0.45594000000E+02  0.51100000000E-03 0. -1.
    9900012    2    1    2    0    0 -0.11292525842E+02  0.46667697594E+01  0.14190715094E+02  0.72461647585E+02  0.70000100686E+02 0.  0.
         12    1    1    2    0    0  0.11292525842E+02 -0.46667697594E+01 -0.14190715094E+02  0.18726352415E+02  0.00000000000E+00 0. -1.
         11    1    3    3    0    0  0.84597678339E+01  0.98456913392E+01 -0.70795062703E+01  0.14785963582E+02  0.51100000000E-03 0. -1.
        -11    1    3    3    0    0 -0.31752444231E+02 -0.16848357361E+02  0.19362385517E+02  0.40828750086E+02  0.51100000000E-03 0.  1.
        -12    1    3    3    0    0  0.12000150555E+02  0.11669435781E+02  0.19078358473E+01  0.16846933917E+02  0.00000000000E+00 0.  1.
</event>
<event>
 7    1  0.1302069E-013  0.7246197E+02  0.7816164E-02  0.1226707E+00
        -11   -1    0    0    0    0  0.00000000000E+00  0.00000000000E+00  0.45593999997E+02  0.45594000000E+02  0.51100000000E-03 0. -1.
         11   -1    0    0    0    0 -0.00000000000E+00 -0.00000000000E+00 -0.45593999997E+02  0.45594000000E+02  0.51100000000E-03 0.  1.
    9900012    2    1    2    0    0  0.40030712633E+01 -0.25712438771E+01 -0.18111554145E+02  0.72461968169E+02  0.70000518303E+02 0.  0.
         12    1    1    2    0    0 -0.40030712633E+01  0.25712438771E+01  0.18111554145E+02  0.18726031831E+02  0.00000000000E+00 0. -1.
         11    1    3    3    0    0 -0.65358391171E+01 -0.36955763292E+01  0.13908020391E+02  0.15805300024E+02  0.51100000000E-03 0. -1.
        -11    1    3    3    0    0 -0.11526984377E+02  0.16152391700E+02 -0.16262247530E+02  0.25656028949E+02  0.51100000000E-03 0.  1.
        -12    1    3    3    0    0  0.22065894757E+02 -0.15028059247E+02 -0.15757327006E+02  0.31000639196E+02  0.00000000000E+00 0.  1.
</event>
<event>
 7    1  0.1302069E-013  0.7246161E+02  0.7816164E-02  0.1226708E+00
        -11   -1    0    0    0    0  0.00000000000E+00  0.00000000000E+00  0.45593999997E+02  0.45594000000E+02  0.51100000000E-03 0.  1.
         11   -1    0    0    0    0 -0.00000000000E+00 -0.00000000000E+00 -0.45593999997E+02  0.45594000000E+02  0.51100000000E-03 0. -1.
    9900012    2    1    2    0    0 -0.15965144764E+02 -0.17686335623E+01  0.96261983925E+01  0.72461612000E+02  0.70000054330E+02 0.  0.
         12    1    1    2    0    0  0.15965144764E+02  0.17686335623E+01 -0.96261983925E+01  0.18726388000E+02  0.00000000000E+00 0. -1.
         11    1    3    3    0    0 -0.42033490809E+01 -0.19777946767E+02 -0.81941175534E+01  0.21816940312E+02  0.51100000000E-03 0. -1.
        -11    1    3    3    0    0 -0.35296347955E+01  0.22951069106E+02 -0.68183818210E+01  0.24201244303E+02  0.51100000000E-03 0.  1.
        -12    1    3    3    0    0 -0.82321608880E+01 -0.49417559007E+01  0.24638697767E+02  0.26443427386E+02  0.00000000000E+00 0.  1.
</event>
<event>
 7    1  0.1302069E-013  0.7246157E+02  0.7816164E-02  0.1226708E+00
        -11   -1    0    0    0    0  0.00000000000E+00  0.00000000000E+00  0.45593999997E+02  0.45594000000E+02  0.51100000000E-03 0.  1.
         11   -1    0    0    0    0 -0.00000000000E+00 -0.00000000000E+00 -0.45593999997E+02  0.45594000000E+02  0.51100000000E-03 0. -1.
    9900012    2    1    2    0    0 -0.33517803759E+01 -0.72839990649E+01  0.16923002296E+02  0.72461572664E+02  0.70000003087E+02 0.  0.
         12    1    1    2    0    0  0.33517803759E+01  0.72839990649E+01 -0.16923002296E+02  0.18726427336E+02  0.00000000000E+00 0. -1.
         11    1    3    3    0    0 -0.58242909462E+01  0.83240474690E+01 -0.13521754311E+02  0.16913011890E+02  0.51100000000E-03 0.  1.
        -11    1    3    3    0    0  0.16478439140E+02 -0.23588652300E+02  0.12344144619E+02  0.31310403710E+02  0.51100000000E-03 0. -1.
        -12    1    3    3    0    0 -0.14005928569E+02  0.79806057665E+01  0.18100611988E+02  0.24238157063E+02  0.00000000000E+00 0.  1.
</event>
<event>
 7    1  0.1302069E-013  0.7246156E+02  0.7816164E-02  0.1226708E+00
        -11   -1    0    0    0    0  0.00000000000E+00  0.00000000000E+00  0.45593999997E+02  0.45594000000E+02  0.51100000000E-03 0. -1.
         11   -1    0    0    0    0 -0.00000000000E+00 -0.00000000000E+00 -0.45593999997E+02  0.45594000000E+02  0.51100000000E-03 0.  1.
    9900012    2    1    2    0    0  0.12669425859E+02  0.13316026821E+02  0.35844855830E+01  0.72461562571E+02  0.69999989939E+02 0.  0.
         12    1    1    2    0    0 -0.12669425859E+02 -0.13316026821E+02 -0.35844855830E+01  0.18726437429E+02  0.00000000000E+00 0. -1.
         11    1    3    3    0    0 -0.14816685120E+01  0.13724409897E+02  0.26296542963E+02  0.29699544453E+02  0.51100000000E-03 0. -1.
        -11    1    3    3    0    0  0.14900995219E+02 -0.66623249410E+01 -0.29367375474E+02  0.33598645429E+02  0.51100000000E-03 0.  1.
        -12    1    3    3    0    0 -0.74990084873E+00  0.62539418645E+01  0.66553180935E+01  0.91633726899E+01  0.00000000000E+00 0.  1.
</event>
<event>
 7    1  0.1302069E-013  0.7246158E+02  0.7816164E-02  0.1226708E+00
        -11   -1    0    0    0    0  0.00000000000E+00  0.00000000000E+00  0.45593999997E+02  0.45594000000E+02  0.51100000000E-03 0.  1.
         11   -1    0    0    0    0 -0.00000000000E+00 -0.00000000000E+00 -0.45593999997E+02  0.45594000000E+02  0.51100000000E-03 0. -1.
    9900012    2    1    2    0    0  0.32170571485E+01  0.11822841007E+01  0.18410098344E+02  0.72461575530E+02  0.70000006820E+02 0.  0.
         12    1    1    2    0    0 -0.32170571485E+01 -0.11822841007E+01 -0.18410098344E+02  0.18726424470E+02  0.00000000000E+00 0. -1.
         11    1    3    3    0    0 -0.12352613522E+02 -0.24762580647E+02  0.21775361081E+02  0.35212764896E+02  0.51100000000E-03 0. -1.
        -11    1    3    3    0    0  0.12337947253E+02  0.20328786131E+02  0.72077719090E+01  0.24848268836E+02  0.51100000000E-03 0.  1.
         12    1    3    3    0    0  0.32317234177E+01  0.56160786172E+01 -0.10573034645E+02  0.12400541799E+02  0.00000000000E+00 0. -1.
</event>
<event>
 7    1  0.1302069E-013  0.7246157E+02  0.7816164E-02  0.1226708E+00
        -11   -1    0    0    0    0  0.00000000000E+00  0.00000000000E+00  0.45593999997E+02  0.45594000000E+02  0.51100000000E-03 0.  1.
         11   -1    0    0    0    0 -0.00000000000E+00 -0.00000000000E+00 -0.45593999997E+02  0.45594000000E+02  0.51100000000E-03 0. -1.
    9900012    2    1    2    0    0 -0.41963428299E+01 -0.62079159617E+01  0.17161929212E+02  0.72461566063E+02  0.69999994488E+02 0.  0.
         12    1    1    2    0    0  0.41963428299E+01  0.62079159617E+01 -0.17161929212E+02  0.18726433937E+02  0.00000000000E+00 0. -1.
         11    1    3    3    0    0 -0.10087105133E+02 -0.87872811618E+00 -0.22075169297E+02  0.24286517923E+02  0.51100000000E-03 0. -1.
        -11    1    3    3    0    0  0.12667978272E+02 -0.12542929699E+02  0.28073536698E+02  0.33255469053E+02  0.51100000000E-03 0.  1.
         12    1    3    3    0    0 -0.67772159690E+01  0.72137418538E+01  0.11163561811E+02  0.14919579087E+02  0.00000000000E+00 0. -1.
</event>
<event>
 7    1  0.1498158E-013  0.7246150E+02  0.7816164E-02  0.1226708E+00
        -11   -1    0    0    0    0  0.00000000000E+00  0.00000000000E+00  0.45593999997E+02  0.45594000000E+02  0.51100000000E-03 0. -1.
         11   -1    0    0    0    0 -0.00000000000E+00 -0.00000000000E+00 -0.45593999997E+02  0.45594000000E+02  0.51100000000E-03 0.  1.
    9900012    2    1    2    0    0  0.98786811222E+01 -0.97981822279E+01 -0.12533514799E+02  0.72461502492E+02  0.69999911675E+02 0.  0.
         12    1    1    2    0    0 -0.98786811222E+01  0.97981822279E+01  0.12533514799E+02  0.18726497508E+02  0.00000000000E+00 0. -1.
         11    1    3    3    0    0 -0.92198929748E+01  0.37394637429E+01  0.16557153509E+02  0.19316556322E+02  0.51100000000E-03 0. -1.
        -11    1    3    3    0    0  0.54053812784E+00 -0.21312781832E+02 -0.24555479290E+02  0.32519200702E+02  0.51100000000E-03 0.  1.
        -12    1    3    3    0    0  0.18558035969E+02  0.77751358612E+01 -0.45351890185E+01  0.20625745468E+02  0.00000000000E+00 0.  1.
</event>
<event>
 7    1  0.1302069E-013  0.7246159E+02  0.7816164E-02  0.1226708E+00
        -11   -1    0    0    0    0  0.00000000000E+00  0.00000000000E+00  0.45593999997E+02  0.45594000000E+02  0.51100000000E-03 0. -1.
         11   -1    0    0    0    0 -0.00000000000E+00 -0.00000000000E+00 -0.45593999997E+02  0.45594000000E+02  0.51100000000E-03 0.  1.
    9900012    2    1    2    0    0  0.13732678354E+02 -0.10832338278E+02 -0.66897207070E+01  0.72461591629E+02  0.70000027792E+02 0.  0.
         12    1    1    2    0    0 -0.13732678354E+02  0.10832338278E+02  0.66897207070E+01  0.18726408371E+02  0.00000000000E+00 0. -1.
         11    1    3    3    0    0  0.30337596411E+02 -0.25420081954E+02  0.82399922144E+00  0.39588246962E+02  0.51100000000E-03 0. -1.
        -11    1    3    3    0    0 -0.45604776394E+01  0.18701612521E+02 -0.38748298363E+01  0.19635747342E+02  0.51100000000E-03 0.  1.
        -12    1    3    3    0    0 -0.12044440417E+02 -0.41138688449E+01 -0.36388900921E+01  0.13237597325E+02  0.00000000000E+00 0.  1.
</event>
<event>
 7    1  0.1302069E-013  0.7246157E+02  0.7816164E-02  0.1226708E+00
        -11   -1    0    0    0    0  0.00000000000E+00  0.00000000000E+00  0.45593999997E+02  0.45594000000E+02  0.51100000000E-03 0.  1.
         11   -1    0    0    0    0 -0.00000000000E+00 -0.00000000000E+00 -0.45593999997E+02  0.45594000000E+02  0.51100000000E-03 0. -1.
    9900012    2    1    2    0    0  0.17951453861E+02 -0.53271735695E+01  0.21399803449E+00  0.72461567635E+02  0.69999996536E+02 0.  0.
         12    1    1    2    0    0 -0.17951453861E+02  0.53271735695E+01 -0.21399803449E+00  0.18726432365E+02  0.00000000000E+00 0. -1.
         11    1    3    3    0    0  0.28209050152E+02 -0.60283248069E+01 -0.24321974740E+02  0.37731282326E+02  0.51100000000E-03 0. -1.
        -11    1    3    3    0    0  0.21150168730E+01 -0.45020687657E+01  0.19927598994E+02  0.20539014618E+02  0.51100000000E-03 0.  1.
         12    1    3    3    0    0 -0.12372613165E+02  0.52032200030E+01  0.46083737801E+01  0.14191270691E+02  0.00000000000E+00 0. -1.
</event>
<event>
 7    1  0.1302069E-013  0.7246160E+02  0.7816164E-02  0.1226708E+00
        -11   -1    0    0    0    0  0.00000000000E+00  0.00000000000E+00  0.45593999997E+02  0.45594000000E+02  0.51100000000E-03 0.  1.
         11   -1    0    0    0    0 -0.00000000000E+00 -0.00000000000E+00 -0.45593999997E+02  0.45594000000E+02  0.51100000000E-03 0. -1.
    9900012    2    1    2    0    0 -0.34103433812E+01  0.18400035075E+02 -0.69741529200E+00  0.72461598294E+02  0.70000036475E+02 0.  0.
         12    1    1    2    0    0  0.34103433812E+01 -0.18400035075E+02  0.69741529200E+00  0.18726401706E+02  0.00000000000E+00 0. -1.
         11    1    3    3    0    0  0.34398539485E+01  0.21170408345E+02 -0.23587231340E+02  0.31880656631E+02  0.51100000000E-03 0. -1.
        -11    1    3    3    0    0 -0.20011936487E+02  0.17524587217E+00  0.13206502883E+02  0.23977490105E+02  0.51100000000E-03 0.  1.
         12    1    3    3    0    0  0.13161739158E+02 -0.29456191413E+01  0.96833131653E+01  0.16603451558E+02  0.00000000000E+00 0. -1.
</event>
<event>
 7    1  0.1302069E-013  0.7246160E+02  0.7816164E-02  0.1226708E+00
        -11   -1    0    0    0    0  0.00000000000E+00  0.00000000000E+00  0.45593999997E+02  0.45594000000E+02  0.51100000000E-03 0.  1.
         11   -1    0    0    0    0 -0.00000000000E+00 -0.00000000000E+00 -0.45593999997E+02  0.45594000000E+02  0.51100000000E-03 0. -1.
    9900012    2    1    2    0    0  0.11151827949E+02  0.71592622030E+01  0.13231008920E+02  0.72461604219E+02  0.70000044193E+02 0.  0.
         12    1    1    2    0    0 -0.11151827949E+02 -0.71592622030E+01 -0.13231008920E+02  0.18726395781E+02  0.00000000000E+00 0. -1.
         11    1    3    3    0    0 -0.10939931039E+02  0.71293359861E+01 -0.17511177101E+02  0.21843782788E+02  0.51100000000E-03 0. -1.
        -11    1    3    3    0    0  0.15667828252E+02 -0.10862471702E+02  0.32670158240E+02  0.37826093815E+02  0.51100000000E-03 0.  1.
         12    1    3    3    0    0  0.64239307364E+01  0.10892397919E+02 -0.19279722183E+01  0.12791727616E+02  0.00000000000E+00 0. -1.
</event>
<event>
 7    1  0.1302069E-013  0.7246158E+02  0.7816164E-02  0.1226708E+00
        -11   -1    0    0    0    0  0.00000000000E+00  0.00000000000E+00  0.45593999997E+02  0.45594000000E+02  0.51100000000E-03 0.  1.
         11   -1    0    0    0    0 -0.00000000000E+00 -0.00000000000E+00 -0.45593999997E+02  0.45594000000E+02  0.51100000000E-03 0. -1.
    9900012    2    1    2    0    0 -0.69924187978E+01 -0.91306797806E+01  0.14778888322E+02  0.72461580857E+02  0.70000013759E+02 0.  0.
         12    1    1    2    0    0  0.69924187978E+01  0.91306797806E+01 -0.14778888322E+02  0.18726419143E+02  0.00000000000E+00 0. -1.
         11    1    3    3    0    0 -0.16156971099E+02 -0.12771153762E+02 -0.18479574981E+02  0.27670286866E+02  0.51100000000E-03 0. -1.
        -11    1    3    3    0    0  0.34861235707E+01 -0.97971270762E+01  0.26970331096E+02  0.28905631220E+02  0.51100000000E-03 0.  1.
         12    1    3    3    0    0  0.56784287304E+01  0.13437601057E+02  0.62881322070E+01  0.15885662771E+02  0.00000000000E+00 0. -1.
</event>
<event>
 7    1  0.1302069E-013  0.7246160E+02  0.7816164E-02  0.1226708E+00
        -11   -1    0    0    0    0  0.00000000000E+00  0.00000000000E+00  0.45593999997E+02  0.45594000000E+02  0.51100000000E-03 0.  1.
         11   -1    0    0    0    0 -0.00000000000E+00 -0.00000000000E+00 -0.45593999997E+02  0.45594000000E+02  0.51100000000E-03 0. -1.
    9900012    2    1    2    0    0 -0.12793384652E+02 -0.13086007732E+02  0.39703669566E+01  0.72461598772E+02  0.70000037097E+02 0.  0.
         12    1    1    2    0    0  0.12793384652E+02  0.13086007732E+02 -0.39703669566E+01  0.18726401228E+02  0.00000000000E+00 0. -1.
         11    1    3    3    0    0  0.60047177075E+01  0.17795701598E+02 -0.12791166064E+02  0.22723502363E+02  0.51100000000E-03 0. -1.
        -11    1    3    3    0    0 -0.13956666367E+01 -0.14197585840E+02  0.20872393617E+02  0.25281933166E+02  0.51100000000E-03 0.  1.
         12    1    3    3    0    0 -0.17402435722E+02 -0.16684123490E+02 -0.41108605961E+01  0.24456163243E+02  0.00000000000E+00 0. -1.
</event>
<event>
 7    1  0.1302069E-013  0.7246156E+02  0.7816164E-02  0.1226708E+00
        -11   -1    0    0    0    0  0.00000000000E+00  0.00000000000E+00  0.45593999997E+02  0.45594000000E+02  0.51100000000E-03 0. -1.
         11   -1    0    0    0    0 -0.00000000000E+00 -0.00000000000E+00 -0.45593999997E+02  0.45594000000E+02  0.51100000000E-03 0.  1.
    9900012    2    1    2    0    0 -0.14756084295E+02  0.83475382314E+01 -0.79533615745E+01  0.72461564712E+02  0.69999992728E+02 0.  0.
         12    1    1    2    0    0  0.14756084295E+02 -0.83475382314E+01  0.79533615745E+01  0.18726435288E+02  0.00000000000E+00 0. -1.
         11    1    3    3    0    0 -0.20988813576E+02  0.67001956026E+01  0.12129435780E+02  0.25150469758E+02  0.51100000000E-03 0. -1.
        -11    1    3    3    0    0  0.12817163745E+02  0.13344776055E+02 -0.26589527622E+02  0.32393914766E+02  0.51100000000E-03 0.  1.
        -12    1    3    3    0    0 -0.65844344645E+01 -0.11697433426E+02  0.65067302682E+01  0.14917180188E+02  0.00000000000E+00 0.  1.
</event>
<event>
 7    1  0.1302069E-013  0.7246158E+02  0.7816164E-02  0.1226708E+00
        -11   -1    0    0    0    0  0.00000000000E+00  0.00000000000E+00  0.45593999997E+02  0.45594000000E+02  0.51100000000E-03 0. -1.
         11   -1    0    0    0    0 -0.00000000000E+00 -0.00000000000E+00 -0.45593999997E+02  0.45594000000E+02  0.51100000000E-03 0.  1.
    9900012    2    1    2    0    0  0.84763755629E+01  0.17853297815E+01  0.16602482218E+02  0.72461581204E+02  0.70000014212E+02 0.  0.
         12    1    1    2    0    0 -0.84763755629E+01 -0.17853297815E+01 -0.16602482218E+02  0.18726418796E+02  0.00000000000E+00 0. -1.
         11    1    3    3    0    0  0.25267488515E+02 -0.60022935060E+01  0.59151506425E+01  0.26635737470E+02  0.51100000000E-03 0. -1.
        -11    1    3    3    0    0 -0.27880550928E+02 -0.42092314639E+01  0.59735618805E+01  0.28822321061E+02  0.51100000000E-03 0.  1.
         12    1    3    3    0    0  0.11089437976E+02  0.11996854751E+02  0.47137696953E+01  0.17003522673E+02  0.00000000000E+00 0. -1.
</event>
<event>
 7    1  0.1302069E-013  0.7246158E+02  0.7816164E-02  0.1226708E+00
        -11   -1    0    0    0    0  0.00000000000E+00  0.00000000000E+00  0.45593999997E+02  0.45594000000E+02  0.51100000000E-03 0. -1.
         11   -1    0    0    0    0 -0.00000000000E+00 -0.00000000000E+00 -0.45593999997E+02  0.45594000000E+02  0.51100000000E-03 0.  1.
    9900012    2    1    2    0    0 -0.53162926805E+01  0.43215353783E+01 -0.17428145715E+02  0.72461577518E+02  0.70000009410E+02 0.  0.
         12    1    1    2    0    0  0.53162926805E+01 -0.43215353783E+01  0.17428145715E+02  0.18726422482E+02  0.00000000000E+00 0. -1.
         11    1    3    3    0    0 -0.14307943793E+02 -0.51669644676E+01  0.20590656178E+02  0.25600583968E+02  0.51100000000E-03 0. -1.
        -11    1    3    3    0    0  0.77081263479E+01 -0.71496350410E+01 -0.12039202921E+02  0.15983582210E+02  0.51100000000E-03 0.  1.
         12    1    3    3    0    0  0.12835247646E+01  0.16638134887E+02 -0.25979598972E+02  0.30877411340E+02  0.00000000000E+00 0. -1.
</event>
<event>
 7    1  0.1302069E-013  0.7246145E+02  0.7816164E-02  0.1226708E+00
        -11   -1    0    0    0    0  0.00000000000E+00  0.00000000000E+00  0.45593999997E+02  0.45594000000E+02  0.51100000000E-03 0. -1.
         11   -1    0    0    0    0 -0.00000000000E+00 -0.00000000000E+00 -0.45593999997E+02  0.45594000000E+02  0.51100000000E-03 0.  1.
    9900012    2    1    2    0    0 -0.96609642712E+01  0.94272681554E+01 -0.12979836254E+02  0.72461447602E+02  0.69999840171E+02 0.  0.
         12    1    1    2    0    0  0.96609642712E+01 -0.94272681554E+01  0.12979836254E+02  0.18726552398E+02  0.00000000000E+00 0. -1.
         11    1    3    3    0    0  0.10515910560E+02 -0.19907894884E+02 -0.69305086457E+00  0.22525296300E+02  0.51100000000E-03 0. -1.
        -11    1    3    3    0    0 -0.67298265440E+01  0.31532089795E+02 -0.15741351230E+02  0.35879707230E+02  0.51100000000E-03 0.  1.
         12    1    3    3    0    0 -0.13447048288E+02 -0.21969267556E+01  0.34545658402E+01  0.14056444073E+02  0.00000000000E+00 0. -1.
</event>
<event>
 7    1  0.1302069E-013  0.7246159E+02  0.7816164E-02  0.1226708E+00
        -11   -1    0    0    0    0  0.00000000000E+00  0.00000000000E+00  0.45593999997E+02  0.45594000000E+02  0.51100000000E-03 0.  1.
         11   -1    0    0    0    0 -0.00000000000E+00 -0.00000000000E+00 -0.45593999997E+02  0.45594000000E+02  0.51100000000E-03 0. -1.
    9900012    2    1    2    0    0  0.51647998871E+01 -0.15117811992E+02  0.97701005631E+01  0.72461594517E+02  0.70000031555E+02 0.  0.
         12    1    1    2    0    0 -0.51647998871E+01  0.15117811992E+02 -0.97701005631E+01  0.18726405483E+02  0.00000000000E+00 0. -1.
         11    1    3    3    0    0  0.33305029667E+02 -0.42317301475E+01  0.21307788833E+02  0.39763732299E+02  0.51100000000E-03 0.  1.
        -11    1    3    3    0    0 -0.25823455156E+02 -0.10898788302E+02 -0.94503766786E+01  0.29579453042E+02  0.51100000000E-03 0. -1.
        -12    1    3    3    0    0 -0.23167746231E+01  0.12706457381E-01 -0.20873115912E+01  0.31184091757E+01  0.00000000000E+00 0.  1.
</event>
<event>
 7    1  0.1302069E-013  0.7246161E+02  0.7816164E-02  0.1226708E+00
        -11   -1    0    0    0    0  0.00000000000E+00  0.00000000000E+00  0.45593999997E+02  0.45594000000E+02  0.51100000000E-03 0.  1.
         11   -1    0    0    0    0 -0.00000000000E+00 -0.00000000000E+00 -0.45593999997E+02  0.45594000000E+02  0.51100000000E-03 0. -1.
    9900012    2    1    2    0    0  0.77863241741E+01 -0.32951238763E+01  0.16709064100E+02  0.72461614641E+02  0.70000057770E+02 0.  0.
         12    1    1    2    0    0 -0.77863241741E+01  0.32951238763E+01 -0.16709064100E+02  0.18726385359E+02  0.00000000000E+00 0. -1.
         11    1    3    3    0    0  0.34060665029E+02  0.10484785804E+02  0.11741022384E+02  0.37522143362E+02  0.51100000000E-03 0. -1.
        -11    1    3    3    0    0 -0.12659738110E+02 -0.32373849135E+01  0.10596527573E+02  0.16823674598E+02  0.51100000000E-03 0.  1.
         12    1    3    3    0    0 -0.13614602745E+02 -0.10542524766E+02 -0.56284858574E+01  0.18115796682E+02  0.00000000000E+00 0. -1.
</event>
<event>
 7    1  0.1302069E-013  0.7246148E+02  0.7816164E-02  0.1226708E+00
        -11   -1    0    0    0    0  0.00000000000E+00  0.00000000000E+00  0.45593999997E+02  0.45594000000E+02  0.51100000000E-03 0.  1.
         11   -1    0    0    0    0 -0.00000000000E+00 -0.00000000000E+00 -0.45593999997E+02  0.45594000000E+02  0.51100000000E-03 0. -1.
    9900012    2    1    2    0    0  0.10112370216E+02  0.14057873840E+02 -0.71273313261E+01  0.72461476027E+02  0.69999877199E+02 0.  0.
         12    1    1    2    0    0 -0.10112370216E+02 -0.14057873840E+02  0.71273313261E+01  0.18726523973E+02  0.00000000000E+00 0. -1.
         11    1    3    3    0    0  0.35809394594E+01 -0.12572855203E+02 -0.17411345047E+02  0.21772798442E+02  0.51100000000E-03 0. -1.
        -11    1    3    3    0    0 -0.13330814903E+01  0.12324989059E+02  0.25511614661E+02  0.28364148928E+02  0.51100000000E-03 0.  1.
        -12    1    3    3    0    0  0.78645122470E+01  0.14305739984E+02 -0.15227600940E+02  0.22324528657E+02  0.00000000000E+00 0.  1.
</event>
<event>
 7    1  0.1417813E-013  0.7246151E+02  0.7816164E-02  0.1226708E+00
        -11   -1    0    0    0    0  0.00000000000E+00  0.00000000000E+00  0.45593999997E+02  0.45594000000E+02  0.51100000000E-03 0. -1.
         11   -1    0    0    0    0 -0.00000000000E+00 -0.00000000000E+00 -0.45593999997E+02  0.45594000000E+02  0.51100000000E-03 0.  1.
    9900012    2    1    2    0    0  0.26957434925E+01  0.80878476011E+01 -0.16673367065E+02  0.72461508576E+02  0.69999919600E+02 0.  0.
         12    1    1    2    0    0 -0.26957434925E+01 -0.80878476011E+01  0.16673367065E+02  0.18726491424E+02  0.00000000000E+00 0. -1.
         11    1    3    3    0    0 -0.14280327511E+01  0.43713640091E+01  0.24652831311E+02  0.25078081919E+02  0.51100000000E-03 0. -1.
        -11    1    3    3    0    0 -0.12987794941E+00  0.12897655585E+02 -0.25912027449E+02  0.28944767310E+02  0.51100000000E-03 0.  1.
        -12    1    3    3    0    0  0.42536541931E+01 -0.91811719927E+01 -0.15414170927E+02  0.18438659347E+02  0.00000000000E+00 0.  1.
</event>
<event>
 7    1  0.1443658E-013  0.7246173E+02  0.7816164E-02  0.1226708E+00
        -11   -1    0    0    0    0  0.00000000000E+00  0.00000000000E+00  0.45593999997E+02  0.45594000000E+02  0.51100000000E-03 0. -1.
         11   -1    0    0    0    0 -0.00000000000E+00 -0.00000000000E+00 -0.45593999997E+02  0.45594000000E+02  0.51100000000E-03 0.  1.
    9900012    2    1    2    0    0 -0.38608985071E+01 -0.98249477634E+01 -0.15467284045E+02  0.72461734714E+02  0.70000214187E+02 0.  0.
         12    1    1    2    0    0  0.38608985071E+01  0.98249477634E+01  0.15467284045E+02  0.18726265286E+02  0.00000000000E+00 0. -1.
         11    1    3    3    0    0  0.56629795650E+01 -0.15954791537E+02  0.10704651951E+02  0.20030334101E+02  0.51100000000E-03 0. -1.
        -11    1    3    3    0    0  0.77209984168E+01  0.21168931775E+02 -0.12253947020E+02  0.25649497205E+02  0.51100000000E-03 0.  1.
        -12    1    3    3    0    0 -0.17244876489E+02 -0.15039088002E+02 -0.13917988975E+02  0.26781903408E+02  0.00000000000E+00 0.  1.
</event>
<event>
 7    1  0.1302069E-013  0.7246166E+02  0.7816164E-02  0.1226708E+00
        -11   -1    0    0    0    0  0.00000000000E+00  0.00000000000E+00  0.45593999997E+02  0.45594000000E+02  0.51100000000E-03 0.  1.
         11   -1    0    0    0    0 -0.00000000000E+00 -0.00000000000E+00 -0.45593999997E+02  0.45594000000E+02  0.51100000000E-03 0. -1.
    9900012    2    1    2    0    0  0.12992833674E+02 -0.10150352178E+02  0.88787669134E+01  0.72461658176E+02  0.70000114482E+02 0.  0.
         12    1    1    2    0    0 -0.12992833674E+02  0.10150352178E+02 -0.88787669134E+01  0.18726341824E+02  0.00000000000E+00 0. -1.
         11    1    3    3    0    0  0.19375600523E+00 -0.11950441706E+02 -0.13031538444E+02  0.17682522242E+02  0.51100000000E-03 0. -1.
        -11    1    3    3    0    0  0.78883096518E+00  0.12060917779E+02  0.33220556022E+02  0.35351001891E+02  0.51100000000E-03 0.  1.
        -12    1    3    3    0    0  0.12010246704E+02 -0.10260828251E+02 -0.11310250665E+02  0.19428134043E+02  0.00000000000E+00 0.  1.
</event>
<event>
 7    1  0.1519645E-013  0.7246159E+02  0.7816164E-02  0.1226708E+00
        -11   -1    0    0    0    0  0.00000000000E+00  0.00000000000E+00  0.45593999997E+02  0.45594000000E+02  0.51100000000E-03 0. -1.
         11   -1    0    0    0    0 -0.00000000000E+00 -0.00000000000E+00 -0.45593999997E+02  0.45594000000E+02  0.51100000000E-03 0.  1.
    9900012    2    1    2    0    0 -0.41221748476E+01 -0.10501750258E+02 -0.14946550911E+02  0.72461589022E+02  0.70000024397E+02 0.  0.
         12    1    1    2    0    0  0.41221748476E+01  0.10501750258E+02  0.14946550911E+02  0.18726410978E+02  0.00000000000E+00 0. -1.
         11    1    3    3    0    0 -0.42999457838E+01 -0.68536241953E+01  0.20868591178E+02  0.22382131185E+02  0.51100000000E-03 0. -1.
        -11    1    3    3    0    0 -0.68917492254E+01  0.12821103057E+02 -0.25603739717E+02  0.29452137082E+02  0.51100000000E-03 0.  1.
        -12    1    3    3    0    0  0.70695201616E+01 -0.16469229120E+02 -0.10211402373E+02  0.20627320755E+02  0.00000000000E+00 0.  1.
</event>
<event>
 7    1  0.1302069E-013  0.7246139E+02  0.7816164E-02  0.1226708E+00
        -11   -1    0    0    0    0  0.00000000000E+00  0.00000000000E+00  0.45593999997E+02  0.45594000000E+02  0.51100000000E-03 0.  1.
         11   -1    0    0    0    0 -0.00000000000E+00 -0.00000000000E+00 -0.45593999997E+02  0.45594000000E+02  0.51100000000E-03 0. -1.
    9900012    2    1    2    0    0 -0.75611706680E+01  0.16642450774E+02 -0.40673645044E+01  0.72461389959E+02  0.69999765079E+02 0.  0.
         12    1    1    2    0    0  0.75611706680E+01 -0.16642450774E+02  0.40673645044E+01  0.18726610041E+02  0.00000000000E+00 0. -1.
         11    1    3    3    0    0 -0.22282033771E+02 -0.16444244859E+02  0.99313202215E+01  0.29419947987E+02  0.51100000000E-03 0. -1.
        -11    1    3    3    0    0  0.29148487393E+01  0.11575564269E+02  0.40229275742E+01  0.12596585960E+02  0.51100000000E-03 0.  1.
         12    1    3    3    0    0  0.11806014363E+02  0.21511131364E+02 -0.18021612300E+02  0.30444856012E+02  0.00000000000E+00 0. -1.
</event>
<event>
 7    1  0.1302069E-013  0.7246158E+02  0.7816164E-02  0.1226708E+00
        -11   -1    0    0    0    0  0.00000000000E+00  0.00000000000E+00  0.45593999997E+02  0.45594000000E+02  0.51100000000E-03 0. -1.
         11   -1    0    0    0    0 -0.00000000000E+00 -0.00000000000E+00 -0.45593999997E+02  0.45594000000E+02  0.51100000000E-03 0.  1.
    9900012    2    1    2    0    0  0.12827727813E+02 -0.13044795079E+02 -0.39951872413E+01  0.72461580145E+02  0.70000012833E+02 0.  0.
         12    1    1    2    0    0 -0.12827727813E+02  0.13044795079E+02  0.39951872413E+01  0.18726419855E+02  0.00000000000E+00 0. -1.
         11    1    3    3    0    0  0.89404691645E+01 -0.53325278967E+01  0.26396146374E+02  0.28374713854E+02  0.51100000000E-03 0. -1.
        -11    1    3    3    0    0  0.15846191358E+02 -0.14151885083E+01 -0.76983303992E+01  0.17673959100E+02  0.51100000000E-03 0.  1.
         12    1    3    3    0    0 -0.11958932709E+02 -0.62970786738E+01 -0.22693003216E+02  0.26412907192E+02  0.00000000000E+00 0. -1.
</event>
<event>
 7    1  0.1302069E-013  0.7246155E+02  0.7816164E-02  0.1226708E+00
        -11   -1    0    0    0    0  0.00000000000E+00  0.00000000000E+00  0.45593999997E+02  0.45594000000E+02  0.51100000000E-03 0. -1.
         11   -1    0    0    0    0 -0.00000000000E+00 -0.00000000000E+00 -0.45593999997E+02  0.45594000000E+02  0.51100000000E-03 0.  1.
    9900012    2    1    2    0    0 -0.18193141569E+02  0.41274790301E+01 -0.16288875067E+01  0.72461554587E+02  0.69999979539E+02 0.  0.
         12    1    1    2    0    0  0.18193141569E+02 -0.41274790301E+01  0.16288875067E+01  0.18726445413E+02  0.00000000000E+00 0. -1.
         11    1    3    3    0    0  0.17378940113E+02 -0.11118977479E+02 -0.36615596447E+01  0.20953907486E+02  0.51100000000E-03 0. -1.
        -11    1    3    3    0    0 -0.30127693969E+02  0.53586579716E+01  0.15197236441E+02  0.34166491696E+02  0.51100000000E-03 0.  1.
         12    1    3    3    0    0 -0.54443877129E+01  0.98877985379E+01 -0.13164564303E+02  0.17341155405E+02  0.00000000000E+00 0. -1.
</event>
<event>
 7    1  0.1302069E-013  0.7246156E+02  0.7816164E-02  0.1226708E+00
        -11   -1    0    0    0    0  0.00000000000E+00  0.00000000000E+00  0.45593999997E+02  0.45594000000E+02  0.51100000000E-03 0. -1.
         11   -1    0    0    0    0 -0.00000000000E+00 -0.00000000000E+00 -0.45593999997E+02  0.45594000000E+02  0.51100000000E-03 0.  1.
    9900012    2    1    2    0    0  0.11352427315E+02 -0.14628396294E+02  0.27949846618E+01  0.72461560847E+02  0.69999987693E+02 0.  0.
         12    1    1    2    0    0 -0.11352427315E+02  0.14628396294E+02 -0.27949846618E+01  0.18726439153E+02  0.00000000000E+00 0. -1.
         11    1    3    3    0    0 -0.68748116717E+01  0.40764434239E+01  0.84660969374E+01  0.11642818564E+02  0.51100000000E-03 0. -1.
        -11    1    3    3    0    0  0.28734413849E+02 -0.31263198216E+02 -0.10511565905E+02  0.43744109546E+02  0.51100000000E-03 0.  1.
        -12    1    3    3    0    0 -0.10507174862E+02  0.12558358498E+02  0.48404536299E+01  0.17074632736E+02  0.00000000000E+00 0.  1.
</event>
<event>
 7    1  0.1302069E-013  0.7246156E+02  0.7816164E-02  0.1226708E+00
        -11   -1    0    0    0    0  0.00000000000E+00  0.00000000000E+00  0.45593999997E+02  0.45594000000E+02  0.51100000000E-03 0. -1.
         11   -1    0    0    0    0 -0.00000000000E+00 -0.00000000000E+00 -0.45593999997E+02  0.45594000000E+02  0.51100000000E-03 0.  1.
    9900012    2    1    2    0    0 -0.17003792951E+02 -0.10052194932E+01 -0.77807597135E+01  0.72461557127E+02  0.69999982847E+02 0.  0.
         12    1    1    2    0    0  0.17003792951E+02  0.10052194932E+01  0.77807597135E+01  0.18726442873E+02  0.00000000000E+00 0. -1.
         11    1    3    3    0    0 -0.30723093672E+00  0.14771491843E+01 -0.21982592209E+02  0.22034307819E+02  0.51100000000E-03 0. -1.
        -11    1    3    3    0    0  0.62317734430E+01 -0.16698039796E+02  0.15209907380E+02  0.23430766442E+02  0.51100000000E-03 0.  1.
         12    1    3    3    0    0 -0.22928335457E+02  0.14215671119E+02 -0.10080748848E+01  0.26996482867E+02  0.00000000000E+00 0. -1.
</event>
<event>
 8    1  0.1302069E-013  0.7246163E+02  0.7816164E-02  0.1226708E+00
        -11   -1    0    0    0    0  0.00000000000E+00  0.00000000000E+00  0.45593999997E+02  0.45594000000E+02  0.51100000000E-03 0.  1.
         11   -1    0    0    0    0 -0.00000000000E+00 -0.00000000000E+00 -0.45593999997E+02  0.45594000000E+02  0.51100000000E-03 0. -1.
    9900012    2    1    2    0    0  0.13944964357E+02 -0.12308538814E+02  0.21713159545E+01  0.72461634318E+02  0.70000083403E+02 0.  0.
        -24    2    3    3    0    0  0.63223109759E+01 -0.53676635379E+01 -0.97219955260E+01  0.56722147274E+02  0.55263924638E+02 0.  0.
         12    1    1    2    0    0 -0.13944964357E+02  0.12308538814E+02 -0.21713159545E+01  0.18726365682E+02  0.00000000000E+00 0. -1.
         11    1    4    4    0    0 -0.24556995544E+02 -0.73780285707E+00 -0.26833244019E+01  0.24714178387E+02  0.51100000000E-03 0. -1.
        -11    1    3    3    0    0  0.76226533814E+01 -0.69408752766E+01  0.11893311480E+02  0.15739487044E+02  0.51100000000E-03 0.  1.
        -12    1    4    4    0    0  0.30879306520E+02 -0.46298606808E+01 -0.70386711241E+01  0.32007968887E+02  0.00000000000E+00 0.  1.
</event>
<event>
 7    1  0.1302069E-013  0.7246154E+02  0.7816164E-02  0.1226708E+00
        -11   -1    0    0    0    0  0.00000000000E+00  0.00000000000E+00  0.45593999997E+02  0.45594000000E+02  0.51100000000E-03 0.  1.
         11   -1    0    0    0    0 -0.00000000000E+00 -0.00000000000E+00 -0.45593999997E+02  0.45594000000E+02  0.51100000000E-03 0. -1.
    9900012    2    1    2    0    0 -0.16257546240E+02 -0.38420454877E+01 -0.84623406967E+01  0.72461539220E+02  0.69999959520E+02 0.  0.
         12    1    1    2    0    0  0.16257546240E+02  0.38420454877E+01  0.84623406967E+01  0.18726460780E+02  0.00000000000E+00 0. -1.
         11    1    3    3    0    0 -0.98455797156E+01 -0.11884246010E+02 -0.12433508843E+02  0.19818246279E+02  0.51100000000E-03 0. -1.
        -11    1    3    3    0    0 -0.26168790849E+02 -0.44034406252E+01  0.10276240161E+02  0.28456932652E+02  0.51100000000E-03 0.  1.
        -12    1    3    3    0    0  0.19756824324E+02  0.12445641147E+02 -0.63050720149E+01  0.24186360290E+02  0.00000000000E+00 0.  1.
</event>
<event>
 7    1  0.1302069E-013  0.7246158E+02  0.7816164E-02  0.1226708E+00
        -11   -1    0    0    0    0  0.00000000000E+00  0.00000000000E+00  0.45593999997E+02  0.45594000000E+02  0.51100000000E-03 0. -1.
         11   -1    0    0    0    0 -0.00000000000E+00 -0.00000000000E+00 -0.45593999997E+02  0.45594000000E+02  0.51100000000E-03 0.  1.
    9900012    2    1    2    0    0 -0.87081869932E+01  0.81501172329E+01 -0.14436827177E+02  0.72461577208E+02  0.70000009007E+02 0.  0.
         12    1    1    2    0    0  0.87081869932E+01 -0.81501172329E+01  0.14436827177E+02  0.18726422792E+02  0.00000000000E+00 0. -1.
         11    1    3    3    0    0 -0.20840491890E+02 -0.19825834482E+02  0.11903967730E+02  0.31130278879E+02  0.51100000000E-03 0. -1.
        -11    1    3    3    0    0  0.69800380074E+01  0.57970835606E+01 -0.79096673474E+01  0.12037023976E+02  0.51100000000E-03 0.  1.
         12    1    3    3    0    0  0.51522668892E+01  0.22178868155E+02 -0.18431127560E+02  0.29294274353E+02  0.00000000000E+00 0. -1.
</event>
<event>
 7    1  0.1302069E-013  0.7246163E+02  0.7816164E-02  0.1226708E+00
        -11   -1    0    0    0    0  0.00000000000E+00  0.00000000000E+00  0.45593999997E+02  0.45594000000E+02  0.51100000000E-03 0. -1.
         11   -1    0    0    0    0 -0.00000000000E+00 -0.00000000000E+00 -0.45593999997E+02  0.45594000000E+02  0.51100000000E-03 0.  1.
    9900012    2    1    2    0    0 -0.10212860661E+02  0.88296049582E+01 -0.12977387553E+02  0.72461627306E+02  0.70000074268E+02 0.  0.
         12    1    1    2    0    0  0.10212860661E+02 -0.88296049582E+01  0.12977387553E+02  0.18726372694E+02  0.00000000000E+00 0. -1.
         11    1    3    3    0    0 -0.11857016274E+02  0.19923767835E+01  0.73484519804E+00  0.12045679636E+02  0.51100000000E-03 0. -1.
        -11    1    3    3    0    0 -0.18843489397E+01  0.30509058274E+02 -0.18884351573E+02  0.35930100783E+02  0.51100000000E-03 0.  1.
        -12    1    3    3    0    0  0.35285045530E+01 -0.23671830100E+02  0.51721188222E+01  0.24485846887E+02  0.00000000000E+00 0.  1.
</event>
<event>
 7    1  0.1302069E-013  0.7246158E+02  0.7816164E-02  0.1226708E+00
        -11   -1    0    0    0    0  0.00000000000E+00  0.00000000000E+00  0.45593999997E+02  0.45594000000E+02  0.51100000000E-03 0. -1.
         11   -1    0    0    0    0 -0.00000000000E+00 -0.00000000000E+00 -0.45593999997E+02  0.45594000000E+02  0.51100000000E-03 0.  1.
    9900012    2    1    2    0    0 -0.16799757034E+02 -0.82571685604E+01 -0.51604513601E+00  0.72461575579E+02  0.70000006884E+02 0.  0.
         12    1    1    2    0    0  0.16799757034E+02  0.82571685604E+01  0.51604513601E+00  0.18726424421E+02  0.00000000000E+00 0. -1.
         11    1    3    3    0    0 -0.15159956669E+02 -0.20504767902E+02  0.16239422010E+02  0.30232244714E+02  0.51100000000E-03 0. -1.
        -11    1    3    3    0    0 -0.92814324333E+01  0.22994867208E+02 -0.14854031266E+02  0.28905901664E+02  0.51100000000E-03 0.  1.
         12    1    3    3    0    0  0.76416320689E+01 -0.10747267866E+02 -0.19014358806E+01  0.13323429201E+02  0.00000000000E+00 0. -1.
</event>
<event>
 7    1  0.1302069E-013  0.7246150E+02  0.7816164E-02  0.1226708E+00
        -11   -1    0    0    0    0  0.00000000000E+00  0.00000000000E+00  0.45593999997E+02  0.45594000000E+02  0.51100000000E-03 0. -1.
         11   -1    0    0    0    0 -0.00000000000E+00 -0.00000000000E+00 -0.45593999997E+02  0.45594000000E+02  0.51100000000E-03 0.  1.
    9900012    2    1    2    0    0 -0.10174887645E+02  0.12768332396E+02 -0.91718714263E+01  0.72461498025E+02  0.69999905856E+02 0.  0.
         12    1    1    2    0    0  0.10174887645E+02 -0.12768332396E+02  0.91718714263E+01  0.18726501975E+02  0.00000000000E+00 0. -1.
         11    1    3    3    0    0  0.17629962447E+02  0.60951468220E+01  0.30700759718E+01  0.18904807786E+02  0.51100000000E-03 0. -1.
        -11    1    3    3    0    0 -0.15793527043E+02 -0.35457945905E+00 -0.28236712751E+02  0.32355419488E+02  0.51100000000E-03 0.  1.
        -12    1    3    3    0    0 -0.12011323050E+02  0.70277650329E+01  0.15994765353E+02  0.21201270751E+02  0.00000000000E+00 0.  1.
</event>
<event>
 7    1  0.1302069E-013  0.7246160E+02  0.7816164E-02  0.1226708E+00
        -11   -1    0    0    0    0  0.00000000000E+00  0.00000000000E+00  0.45593999997E+02  0.45594000000E+02  0.51100000000E-03 0. -1.
         11   -1    0    0    0    0 -0.00000000000E+00 -0.00000000000E+00 -0.45593999997E+02  0.45594000000E+02  0.51100000000E-03 0.  1.
    9900012    2    1    2    0    0 -0.52859606360E+01 -0.30114626305E+01 -0.17710668345E+02  0.72461599912E+02  0.70000038583E+02 0.  0.
         12    1    1    2    0    0  0.52859606360E+01  0.30114626305E+01  0.17710668345E+02  0.18726400088E+02  0.00000000000E+00 0. -1.
         11    1    3    3    0    0 -0.28233265386E+02 -0.50691625333E+01 -0.12602774937E+02  0.31331192437E+02  0.51100000000E-03 0. -1.
        -11    1    3    3    0    0  0.14852036573E+02  0.24484736990E+01 -0.19487551088E+02  0.24624026102E+02  0.51100000000E-03 0.  1.
         12    1    3    3    0    0  0.80952681775E+01 -0.39077379625E+00  0.14379657680E+02  0.16506381373E+02  0.00000000000E+00 0. -1.
</event>
<event>
 7    1  0.1302069E-013  0.7246157E+02  0.7816164E-02  0.1226708E+00
        -11   -1    0    0    0    0  0.00000000000E+00  0.00000000000E+00  0.45593999997E+02  0.45594000000E+02  0.51100000000E-03 0.  1.
         11   -1    0    0    0    0 -0.00000000000E+00 -0.00000000000E+00 -0.45593999997E+02  0.45594000000E+02  0.51100000000E-03 0. -1.
    9900012    2    1    2    0    0  0.75740441283E+01 -0.91048761744E+01  0.14505669659E+02  0.72461565025E+02  0.69999993136E+02 0.  0.
         12    1    1    2    0    0 -0.75740441283E+01  0.91048761744E+01 -0.14505669659E+02  0.18726434975E+02  0.00000000000E+00 0. -1.
         11    1    3    3    0    0 -0.78837829760E+01 -0.34312153458E+02  0.13788390023E+02  0.37810019950E+02  0.51100000000E-03 0. -1.
        -11    1    3    3    0    0  0.20079121613E+01  0.13566192330E+02  0.74800752001E+01  0.15621293507E+02  0.51100000000E-03 0.  1.
         12    1    3    3    0    0  0.13449914943E+02  0.11641084954E+02 -0.67627955632E+01  0.19030251567E+02  0.00000000000E+00 0. -1.
</event>
<event>
 7    1  0.1302069E-013  0.7246159E+02  0.7816164E-02  0.1226708E+00
        -11   -1    0    0    0    0  0.00000000000E+00  0.00000000000E+00  0.45593999997E+02  0.45594000000E+02  0.51100000000E-03 0. -1.
         11   -1    0    0    0    0 -0.00000000000E+00 -0.00000000000E+00 -0.45593999997E+02  0.45594000000E+02  0.51100000000E-03 0.  1.
    9900012    2    1    2    0    0  0.17217376651E+02  0.73500521081E+01 -0.46597470546E+00  0.72461589314E+02  0.70000024777E+02 0.  0.
         12    1    1    2    0    0 -0.17217376651E+02 -0.73500521081E+01  0.46597470546E+00  0.18726410686E+02  0.00000000000E+00 0. -1.
         11    1    3    3    0    0 -0.81670070695E+01 -0.10625417644E+01  0.10429349638E+02  0.13289105824E+02  0.51100000000E-03 0. -1.
        -11    1    3    3    0    0  0.35294798762E+02  0.14519196285E+02 -0.21172624679E+02  0.43644128087E+02  0.51100000000E-03 0.  1.
        -12    1    3    3    0    0 -0.99104150417E+01 -0.61066024126E+01  0.10277300336E+02  0.15528355403E+02  0.00000000000E+00 0.  1.
</event>
<event>
 7    1  0.1302069E-013  0.7246155E+02  0.7816164E-02  0.1226708E+00
        -11   -1    0    0    0    0  0.00000000000E+00  0.00000000000E+00  0.45593999997E+02  0.45594000000E+02  0.51100000000E-03 0.  1.
         11   -1    0    0    0    0 -0.00000000000E+00 -0.00000000000E+00 -0.45593999997E+02  0.45594000000E+02  0.51100000000E-03 0. -1.
    9900012    2    1    2    0    0 -0.78163312091E+01  0.34934833900E+01  0.16654744409E+02  0.72461548892E+02  0.69999972120E+02 0.  0.
         12    1    1    2    0    0  0.78163312091E+01 -0.34934833900E+01 -0.16654744409E+02  0.18726451108E+02  0.00000000000E+00 0. -1.
         11    1    3    3    0    0  0.18875044968E+02  0.19350233543E+02  0.81536939440E+01  0.28234404295E+02  0.51100000000E-03 0. -1.
        -11    1    3    3    0    0 -0.28148302111E+02 -0.22147820591E+02  0.10739882566E+02  0.37392485161E+02  0.51100000000E-03 0.  1.
        -12    1    3    3    0    0  0.14569259346E+01  0.62910704380E+01 -0.22388321010E+01  0.68346594363E+01  0.00000000000E+00 0.  1.
</event>
<event>
 7    1  0.1302069E-013  0.7246156E+02  0.7816164E-02  0.1226708E+00
        -11   -1    0    0    0    0  0.00000000000E+00  0.00000000000E+00  0.45593999997E+02  0.45594000000E+02  0.51100000000E-03 0.  1.
         11   -1    0    0    0    0 -0.00000000000E+00 -0.00000000000E+00 -0.45593999997E+02  0.45594000000E+02  0.51100000000E-03 0. -1.
    9900012    2    1    2    0    0 -0.10145923729E+02 -0.15738921584E+02  0.16152226845E+00  0.72461561193E+02  0.69999988144E+02 0.  0.
         12    1    1    2    0    0  0.10145923729E+02  0.15738921584E+02 -0.16152226845E+00  0.18726438807E+02  0.00000000000E+00 0. -1.
         11    1    3    3    0    0  0.19412416972E+02 -0.18379943317E+02  0.86822218854E+01  0.28107743171E+02  0.51100000000E-03 0. -1.
        -11    1    3    3    0    0 -0.25349599888E+02  0.15615308280E+02 -0.73294515226E+01  0.30662043752E+02  0.51100000000E-03 0.  1.
         12    1    3    3    0    0 -0.42087408127E+01 -0.12974286547E+02 -0.11912480944E+01  0.13691774270E+02  0.00000000000E+00 0. -1.
</event>
<event>
 7    1  0.1302069E-013  0.7246207E+02  0.7816164E-02  0.1226707E+00
        -11   -1    0    0    0    0  0.00000000000E+00  0.00000000000E+00  0.45593999997E+02  0.45594000000E+02  0.51100000000E-03 0. -1.
         11   -1    0    0    0    0 -0.00000000000E+00 -0.00000000000E+00 -0.45593999997E+02  0.45594000000E+02  0.51100000000E-03 0.  1.
    9900012    2    1    2    0    0 -0.10344465510E+02  0.15333097055E+02 -0.29237896890E+01  0.72462072035E+02  0.70000653608E+02 0.  0.
         12    1    1    2    0    0  0.10344465510E+02 -0.15333097055E+02  0.29237896890E+01  0.18725927965E+02  0.00000000000E+00 0. -1.
         11    1    3    3    0    0 -0.79876558984E+01 -0.23959396239E+02 -0.67430499334E+01  0.26140467432E+02  0.51100000000E-03 0. -1.
        -11    1    3    3    0    0 -0.89459661772E+01  0.15234412407E+02 -0.71670718087E+01  0.19065270803E+02  0.51100000000E-03 0.  1.
         12    1    3    3    0    0  0.65891565658E+01  0.24058080888E+02  0.10986332053E+02  0.27256333800E+02  0.00000000000E+00 0. -1.
</event>
<event>
 7    1  0.1302069E-013  0.7246163E+02  0.7816164E-02  0.1226708E+00
        -11   -1    0    0    0    0  0.00000000000E+00  0.00000000000E+00  0.45593999997E+02  0.45594000000E+02  0.51100000000E-03 0.  1.
         11   -1    0    0    0    0 -0.00000000000E+00 -0.00000000000E+00 -0.45593999997E+02  0.45594000000E+02  0.51100000000E-03 0. -1.
    9900012    2    1    2    0    0 -0.51756773646E+01  0.17996921906E+02 -0.56606234740E-02  0.72461631790E+02  0.70000080110E+02 0.  0.
         12    1    1    2    0    0  0.51756773646E+01 -0.17996921906E+02  0.56606234740E-02  0.18726368210E+02  0.00000000000E+00 0. -1.
         11    1    3    3    0    0  0.31750993885E+01  0.29289974439E+01 -0.27267567664E+02  0.27607617223E+02  0.51100000000E-03 0. -1.
        -11    1    3    3    0    0 -0.60850987911E+01  0.24809167168E+02  0.18279245375E+02  0.31411049244E+02  0.51100000000E-03 0.  1.
         12    1    3    3    0    0 -0.22656779620E+01 -0.97412427057E+01  0.89826616660E+01  0.13442965323E+02  0.00000000000E+00 0. -1.
</event>
<event>
 7    1  0.1302069E-013  0.7246152E+02  0.7816164E-02  0.1226708E+00
        -11   -1    0    0    0    0  0.00000000000E+00  0.00000000000E+00  0.45593999997E+02  0.45594000000E+02  0.51100000000E-03 0.  1.
         11   -1    0    0    0    0 -0.00000000000E+00 -0.00000000000E+00 -0.45593999997E+02  0.45594000000E+02  0.51100000000E-03 0. -1.
    9900012    2    1    2    0    0 -0.71049651511E+01  0.20985131621E+01  0.17198742157E+02  0.72461520911E+02  0.69999935669E+02 0.  0.
         12    1    1    2    0    0  0.71049651511E+01 -0.20985131621E+01 -0.17198742157E+02  0.18726479089E+02  0.00000000000E+00 0. -1.
         11    1    3    3    0    0  0.89569666180E+01 -0.44503207281E+01 -0.22265606082E+02  0.24408806199E+02  0.51100000000E-03 0. -1.
        -11    1    3    3    0    0 -0.84799138150E+01  0.95665084543E+01  0.37555881639E+02  0.39672046434E+02  0.51100000000E-03 0.  1.
         12    1    3    3    0    0 -0.75820179540E+01 -0.30176745640E+01  0.19084666001E+01  0.83806682784E+01  0.00000000000E+00 0. -1.
</event>
<event>
 7    1  0.1302069E-013  0.7246153E+02  0.7816164E-02  0.1226708E+00
        -11   -1    0    0    0    0  0.00000000000E+00  0.00000000000E+00  0.45593999997E+02  0.45594000000E+02  0.51100000000E-03 0.  1.
         11   -1    0    0    0    0 -0.00000000000E+00 -0.00000000000E+00 -0.45593999997E+02  0.45594000000E+02  0.51100000000E-03 0. -1.
    9900012    2    1    2    0    0  0.56137615234E+01  0.80261950162E+01  0.15960786917E+02  0.72461525588E+02  0.69999941762E+02 0.  0.
         12    1    1    2    0    0 -0.56137615234E+01 -0.80261950162E+01 -0.15960786917E+02  0.18726474412E+02  0.00000000000E+00 0. -1.
         11    1    3    3    0    0  0.28711876424E+02  0.20924985023E+02  0.17458640551E+02  0.39585742082E+02  0.51100000000E-03 0.  1.
        -11    1    3    3    0    0 -0.15360425671E+02 -0.19733842157E+01 -0.86066820951E+01  0.17717559059E+02  0.51100000000E-03 0. -1.
         12    1    3    3    0    0 -0.77376892301E+01 -0.10925405791E+02  0.71088284610E+01  0.15158224448E+02  0.00000000000E+00 0. -1.
</event>
<event>
 7    1  0.1302069E-013  0.7246145E+02  0.7816164E-02  0.1226708E+00
        -11   -1    0    0    0    0  0.00000000000E+00  0.00000000000E+00  0.45593999997E+02  0.45594000000E+02  0.51100000000E-03 0.  1.
         11   -1    0    0    0    0 -0.00000000000E+00 -0.00000000000E+00 -0.45593999997E+02  0.45594000000E+02  0.51100000000E-03 0. -1.
    9900012    2    1    2    0    0  0.12146286019E+02 -0.14210814197E+02  0.10974032607E+01  0.72461446711E+02  0.69999839009E+02 0.  0.
         12    1    1    2    0    0 -0.12146286019E+02  0.14210814197E+02 -0.10974032607E+01  0.18726553289E+02  0.00000000000E+00 0. -1.
         11    1    3    3    0    0  0.17539544797E+02 -0.61967738754E+01 -0.12990576834E+02  0.22689000086E+02  0.51100000000E-03 0. -1.
        -11    1    3    3    0    0 -0.20162430513E+02  0.43591711315E+01 -0.64484843140E+01  0.21612702916E+02  0.51100000000E-03 0.  1.
        -12    1    3    3    0    0  0.14769171734E+02 -0.12373211453E+02  0.20536464409E+02  0.28159743709E+02  0.00000000000E+00 0.  1.
</event>
<event>
 7    1  0.1302069E-013  0.7246153E+02  0.7816164E-02  0.1226708E+00
        -11   -1    0    0    0    0  0.00000000000E+00  0.00000000000E+00  0.45593999997E+02  0.45594000000E+02  0.51100000000E-03 0. -1.
         11   -1    0    0    0    0 -0.00000000000E+00 -0.00000000000E+00 -0.45593999997E+02  0.45594000000E+02  0.51100000000E-03 0.  1.
    9900012    2    1    2    0    0 -0.32273069976E+00 -0.18296150226E+02 -0.39783736764E+01  0.72461528754E+02  0.69999945886E+02 0.  0.
         12    1    1    2    0    0  0.32273069976E+00  0.18296150226E+02  0.39783736764E+01  0.18726471246E+02  0.00000000000E+00 0. -1.
         11    1    3    3    0    0  0.19557875646E+02  0.31502495011E+01  0.15801558553E+02  0.25340162286E+02  0.51100000000E-03 0. -1.
        -11    1    3    3    0    0 -0.10742474228E+02 -0.24738270047E+02 -0.24396411417E+02  0.36367123171E+02  0.51100000000E-03 0.  1.
        -12    1    3    3    0    0 -0.91381321179E+01  0.32918703197E+01  0.46164791879E+01  0.10754243297E+02  0.00000000000E+00 0.  1.
</event>
<event>
 7    1  0.1302069E-013  0.7246159E+02  0.7816164E-02  0.1226708E+00
        -11   -1    0    0    0    0  0.00000000000E+00  0.00000000000E+00  0.45593999997E+02  0.45594000000E+02  0.51100000000E-03 0. -1.
         11   -1    0    0    0    0 -0.00000000000E+00 -0.00000000000E+00 -0.45593999997E+02  0.45594000000E+02  0.51100000000E-03 0.  1.
    9900012    2    1    2    0    0  0.14213694994E+02  0.31445385619E+01  0.11779694570E+02  0.72461589444E+02  0.70000024946E+02 0.  0.
         12    1    1    2    0    0 -0.14213694994E+02 -0.31445385619E+01 -0.11779694570E+02  0.18726410556E+02  0.00000000000E+00 0. -1.
         11    1    3    3    0    0  0.29469258314E+01  0.30797392014E+02  0.90177660735E+01  0.32225515232E+02  0.51100000000E-03 0. -1.
        -11    1    3    3    0    0 -0.29591254596E+01 -0.19014597273E+02 -0.75339022841E+01  0.20665696621E+02  0.51100000000E-03 0.  1.
         12    1    3    3    0    0  0.14225894622E+02 -0.86382561792E+01  0.10295830780E+02  0.19570377592E+02  0.00000000000E+00 0. -1.
</event>
<event>
 7    1  0.1302069E-013  0.7246149E+02  0.7816164E-02  0.1226708E+00
        -11   -1    0    0    0    0  0.00000000000E+00  0.00000000000E+00  0.45593999997E+02  0.45594000000E+02  0.51100000000E-03 0.  1.
         11   -1    0    0    0    0 -0.00000000000E+00 -0.00000000000E+00 -0.45593999997E+02  0.45594000000E+02  0.51100000000E-03 0. -1.
    9900012    2    1    2    0    0 -0.17070835603E+01 -0.14884314209E+02  0.11234997532E+02  0.72461491695E+02  0.69999897609E+02 0.  0.
         12    1    1    2    0    0  0.17070835603E+01  0.14884314209E+02 -0.11234997532E+02  0.18726508305E+02  0.00000000000E+00 0. -1.
         11    1    3    3    0    0  0.18333112001E+02 -0.12104330804E+02 -0.12030319432E+02  0.25046884152E+02  0.51100000000E-03 0. -1.
        -11    1    3    3    0    0 -0.64748431146E+01  0.16238820320E+02  0.13530500150E+02  0.22106499345E+02  0.51100000000E-03 0.  1.
        -12    1    3    3    0    0 -0.13565352446E+02 -0.19018803725E+02  0.97348168142E+01  0.25308108197E+02  0.00000000000E+00 0.  1.
</event>
<event>
 7    1  0.1302069E-013  0.7246161E+02  0.7816164E-02  0.1226708E+00
        -11   -1    0    0    0    0  0.00000000000E+00  0.00000000000E+00  0.45593999997E+02  0.45594000000E+02  0.51100000000E-03 0. -1.
         11   -1    0    0    0    0 -0.00000000000E+00 -0.00000000000E+00 -0.45593999997E+02  0.45594000000E+02  0.51100000000E-03 0.  1.
    9900012    2    1    2    0    0 -0.17855568953E+02 -0.39341344345E+01 -0.40471049410E+01  0.72461606466E+02  0.70000047120E+02 0.  0.
         12    1    1    2    0    0  0.17855568953E+02  0.39341344345E+01  0.40471049410E+01  0.18726393534E+02  0.00000000000E+00 0. -1.
         11    1    3    3    0    0 -0.11726602548E+02 -0.15767766764E+01  0.17186261169E+02  0.20865450036E+02  0.51100000000E-03 0. -1.
        -11    1    3    3    0    0 -0.18146795331E+02 -0.49624363051E+00 -0.31049985009E+02  0.35967402017E+02  0.51100000000E-03 0.  1.
        -12    1    3    3    0    0  0.12017828925E+02 -0.18611141277E+01  0.98166188994E+01  0.15628754413E+02  0.00000000000E+00 0.  1.
</event>
<event>
 7    1  0.1302069E-013  0.7246148E+02  0.7816164E-02  0.1226708E+00
        -11   -1    0    0    0    0  0.00000000000E+00  0.00000000000E+00  0.45593999997E+02  0.45594000000E+02  0.51100000000E-03 0. -1.
         11   -1    0    0    0    0 -0.00000000000E+00 -0.00000000000E+00 -0.45593999997E+02  0.45594000000E+02  0.51100000000E-03 0.  1.
    9900012    2    1    2    0    0 -0.10000093127E+02 -0.15769251132E+02 -0.14182857427E+01  0.72461476610E+02  0.69999877959E+02 0.  0.
         12    1    1    2    0    0  0.10000093127E+02  0.15769251132E+02  0.14182857427E+01  0.18726523390E+02  0.00000000000E+00 0. -1.
         11    1    3    3    0    0 -0.27628922247E+01  0.18954647187E+02 -0.12810350463E+02  0.23043812677E+02  0.51100000000E-03 0. -1.
        -11    1    3    3    0    0  0.45049459442E+01 -0.34985451806E+02  0.39064251826E+01  0.35489949761E+02  0.51100000000E-03 0.  1.
        -12    1    3    3    0    0 -0.11742146847E+02  0.26155348682E+00  0.74856395374E+01  0.13927714173E+02  0.00000000000E+00 0.  1.
</event>
<event>
 7    1  0.1302069E-013  0.7246160E+02  0.7816164E-02  0.1226708E+00
        -11   -1    0    0    0    0  0.00000000000E+00  0.00000000000E+00  0.45593999997E+02  0.45594000000E+02  0.51100000000E-03 0. -1.
         11   -1    0    0    0    0 -0.00000000000E+00 -0.00000000000E+00 -0.45593999997E+02  0.45594000000E+02  0.51100000000E-03 0.  1.
    9900012    2    1    2    0    0 -0.39664743137E+01 -0.59241689903E+01 -0.17316156432E+02  0.72461602314E+02  0.70000041712E+02 0.  0.
         12    1    1    2    0    0  0.39664743137E+01  0.59241689903E+01  0.17316156432E+02  0.18726397686E+02  0.00000000000E+00 0. -1.
         11    1    3    3    0    0 -0.26471840993E+02 -0.37325005351E+01  0.17193887898E+01  0.26788919796E+02  0.51100000000E-03 0. -1.
        -11    1    3    3    0    0  0.10680179023E+02  0.15863081469E+02 -0.13448189524E+02  0.23378566667E+02  0.51100000000E-03 0.  1.
         12    1    3    3    0    0  0.11825187656E+02 -0.18054749924E+02 -0.55873556973E+01  0.22294115851E+02  0.00000000000E+00 0. -1.
</event>
<event>
 7    1  0.1302069E-013  0.7246148E+02  0.7816164E-02  0.1226708E+00
        -11   -1    0    0    0    0  0.00000000000E+00  0.00000000000E+00  0.45593999997E+02  0.45594000000E+02  0.51100000000E-03 0. -1.
         11   -1    0    0    0    0 -0.00000000000E+00 -0.00000000000E+00 -0.45593999997E+02  0.45594000000E+02  0.51100000000E-03 0.  1.
    9900012    2    1    2    0    0  0.10170489732E+01  0.73947598969E-01 -0.18698737618E+02  0.72461477489E+02  0.69999879104E+02 0.  0.
         12    1    1    2    0    0 -0.10170489732E+01 -0.73947598969E-01  0.18698737618E+02  0.18726522511E+02  0.00000000000E+00 0. -1.
         11    1    3    3    0    0  0.79535813957E+00  0.18624425764E+02 -0.26714249479E+01  0.18831843806E+02  0.51100000000E-03 0. -1.
        -11    1    3    3    0    0 -0.46940505059E+01 -0.32942528672E+02 -0.18727642102E+02  0.38183358736E+02  0.51100000000E-03 0.  1.
        -12    1    3    3    0    0  0.49157413395E+01  0.14392050506E+02  0.27003294318E+01  0.15446274947E+02  0.00000000000E+00 0.  1.
</event>
<event>
 7    1  0.1302069E-013  0.7246156E+02  0.7816164E-02  0.1226708E+00
        -11   -1    0    0    0    0  0.00000000000E+00  0.00000000000E+00  0.45593999997E+02  0.45594000000E+02  0.51100000000E-03 0.  1.
         11   -1    0    0    0    0 -0.00000000000E+00 -0.00000000000E+00 -0.45593999997E+02  0.45594000000E+02  0.51100000000E-03 0. -1.
    9900012    2    1    2    0    0 -0.10886219389E+02  0.14983361700E+02  0.27692333691E+01  0.72461560032E+02  0.69999986631E+02 0.  0.
         12    1    1    2    0    0  0.10886219389E+02 -0.14983361700E+02 -0.27692333691E+01  0.18726439968E+02  0.00000000000E+00 0. -1.
         11    1    3    3    0    0 -0.20163354460E+02 -0.13079758964E+01 -0.69786724952E+01  0.21376939306E+02  0.51100000000E-03 0. -1.
        -11    1    3    3    0    0  0.11065129994E+02  0.32165628118E+02  0.84981754086E+01  0.35061142588E+02  0.51100000000E-03 0.  1.
         12    1    3    3    0    0 -0.17879949235E+01 -0.15874290522E+02  0.12497304557E+01  0.16023478138E+02  0.00000000000E+00 0. -1.
</event>
<event>
 7    1  0.1302069E-013  0.7246137E+02  0.7816164E-02  0.1226709E+00
        -11   -1    0    0    0    0  0.00000000000E+00  0.00000000000E+00  0.45593999997E+02  0.45594000000E+02  0.51100000000E-03 0.  1.
         11   -1    0    0    0    0 -0.00000000000E+00 -0.00000000000E+00 -0.45593999997E+02  0.45594000000E+02  0.51100000000E-03 0. -1.
    9900012    2    1    2    0    0  0.16599255450E+02 -0.27708613430E+01  0.82142376719E+01  0.72461370442E+02  0.69999739655E+02 0.  0.
         12    1    1    2    0    0 -0.16599255450E+02  0.27708613430E+01 -0.82142376719E+01  0.18726629558E+02  0.00000000000E+00 0. -1.
         11    1    3    3    0    0  0.11425717420E+02  0.13581499230E+02  0.23978070671E+02  0.29832063510E+02  0.51100000000E-03 0. -1.
        -11    1    3    3    0    0  0.19781974468E+02 -0.15068492612E+02 -0.86377061486E+01  0.26324816262E+02  0.51100000000E-03 0.  1.
         12    1    3    3    0    0 -0.14608436438E+02 -0.12838679617E+01 -0.71261268506E+01  0.16304490670E+02  0.00000000000E+00 0. -1.
</event>
<event>
 7    1  0.1302069E-013  0.7246158E+02  0.7816164E-02  0.1226708E+00
        -11   -1    0    0    0    0  0.00000000000E+00  0.00000000000E+00  0.45593999997E+02  0.45594000000E+02  0.51100000000E-03 0.  1.
         11   -1    0    0    0    0 -0.00000000000E+00 -0.00000000000E+00 -0.45593999997E+02  0.45594000000E+02  0.51100000000E-03 0. -1.
    9900012    2    1    2    0    0 -0.12892704384E+02  0.11284994721E+02  0.75568398698E+01  0.72461581202E+02  0.70000014209E+02 0.  0.
         12    1    1    2    0    0  0.12892704384E+02 -0.11284994721E+02 -0.75568398698E+01  0.18726418798E+02  0.00000000000E+00 0. -1.
         11    1    3    3    0    0  0.79182756941E+01 -0.44743530772E+01 -0.31264459454E+01  0.96173587818E+01  0.51100000000E-03 0. -1.
        -11    1    3    3    0    0 -0.34842561540E+02  0.41984816582E+01 -0.88151121756E+01  0.36184769529E+02  0.51100000000E-03 0.  1.
        -12    1    3    3    0    0  0.14031581462E+02  0.11560866140E+02  0.19498397991E+02  0.26659452891E+02  0.00000000000E+00 0.  1.
</event>
<event>
 7    1  0.1302069E-013  0.7246158E+02  0.7816164E-02  0.1226708E+00
        -11   -1    0    0    0    0  0.00000000000E+00  0.00000000000E+00  0.45593999997E+02  0.45594000000E+02  0.51100000000E-03 0.  1.
         11   -1    0    0    0    0 -0.00000000000E+00 -0.00000000000E+00 -0.45593999997E+02  0.45594000000E+02  0.51100000000E-03 0. -1.
    9900012    2    1    2    0    0 -0.43050726383E+01 -0.86309492031E+01  0.16051537144E+02  0.72461580715E+02  0.70000013574E+02 0.  0.
         12    1    1    2    0    0  0.43050726383E+01  0.86309492031E+01 -0.16051537144E+02  0.18726419285E+02  0.00000000000E+00 0. -1.
         11    1    3    3    0    0  0.24125415977E+02 -0.15376134116E+02 -0.62286104854E+01  0.29278947817E+02  0.51100000000E-03 0. -1.
        -11    1    3    3    0    0 -0.18534690065E+02  0.13233357436E+01  0.25403871870E+02  0.31474476319E+02  0.51100000000E-03 0.  1.
        -12    1    3    3    0    0 -0.98957985495E+01  0.54218491694E+01 -0.31237242405E+01  0.11708156579E+02  0.00000000000E+00 0.  1.
</event>
<event>
 7    1  0.1302069E-013  0.7246155E+02  0.7816164E-02  0.1226708E+00
        -11   -1    0    0    0    0  0.00000000000E+00  0.00000000000E+00  0.45593999997E+02  0.45594000000E+02  0.51100000000E-03 0. -1.
         11   -1    0    0    0    0 -0.00000000000E+00 -0.00000000000E+00 -0.45593999997E+02  0.45594000000E+02  0.51100000000E-03 0.  1.
    9900012    2    1    2    0    0  0.11310814732E+02  0.12842294911E+01 -0.14869298374E+02  0.72461553209E+02  0.69999977743E+02 0.  0.
         12    1    1    2    0    0 -0.11310814732E+02 -0.12842294911E+01  0.14869298374E+02  0.18726446791E+02  0.00000000000E+00 0. -1.
         11    1    3    3    0    0  0.19775738732E+02 -0.29682549158E+01  0.70304673192E+01  0.21197118923E+02  0.51100000000E-03 0. -1.
        -11    1    3    3    0    0  0.20544386445E+01 -0.13410807682E+02 -0.26881331409E+02  0.30111068719E+02  0.51100000000E-03 0.  1.
         12    1    3    3    0    0 -0.10519362644E+02  0.17663292088E+02  0.49815657155E+01  0.21153365567E+02  0.00000000000E+00 0. -1.
</event>
<event>
 7    1  0.1302069E-013  0.7246154E+02  0.7816164E-02  0.1226708E+00
        -11   -1    0    0    0    0  0.00000000000E+00  0.00000000000E+00  0.45593999997E+02  0.45594000000E+02  0.51100000000E-03 0.  1.
         11   -1    0    0    0    0 -0.00000000000E+00 -0.00000000000E+00 -0.45593999997E+02  0.45594000000E+02  0.51100000000E-03 0. -1.
    9900012    2    1    2    0    0 -0.11583584516E+02  0.10273967105E+02  0.10533113099E+02  0.72461540061E+02  0.69999960615E+02 0.  0.
         12    1    1    2    0    0  0.11583584516E+02 -0.10273967105E+02 -0.10533113099E+02  0.18726459939E+02  0.00000000000E+00 0. -1.
         11    1    3    3    0    0  0.91168920619E+01 -0.24266753167E+02 -0.23458582264E+01  0.26028754891E+02  0.51100000000E-03 0. -1.
        -11    1    3    3    0    0 -0.70809118621E+01  0.19580329919E+02  0.15603042469E+02  0.26018907876E+02  0.51100000000E-03 0.  1.
         12    1    3    3    0    0 -0.13619564715E+02  0.14960390353E+02 -0.27240711433E+01  0.20413877293E+02  0.00000000000E+00 0. -1.
</event>
<event>
 7    1  0.1302069E-013  0.7246157E+02  0.7816164E-02  0.1226708E+00
        -11   -1    0    0    0    0  0.00000000000E+00  0.00000000000E+00  0.45593999997E+02  0.45594000000E+02  0.51100000000E-03 0.  1.
         11   -1    0    0    0    0 -0.00000000000E+00 -0.00000000000E+00 -0.45593999997E+02  0.45594000000E+02  0.51100000000E-03 0. -1.
    9900012    2    1    2    0    0  0.82279826167E+01 -0.16806538320E+02  0.72097259822E+00  0.72461568686E+02  0.69999997905E+02 0.  0.
         12    1    1    2    0    0 -0.82279826167E+01  0.16806538320E+02 -0.72097259822E+00  0.18726431314E+02  0.00000000000E+00 0. -1.
         11    1    3    3    0    0  0.86378127787E+01 -0.16663869937E+02 -0.16511271040E+02  0.24998368797E+02  0.51100000000E-03 0. -1.
        -11    1    3    3    0    0  0.15820015327E+01  0.16579320784E+02 -0.69071978186E+01  0.18030141111E+02  0.51100000000E-03 0.  1.
        -12    1    3    3    0    0 -0.19918316948E+01 -0.16721989167E+02  0.24139441457E+02  0.29433058779E+02  0.00000000000E+00 0.  1.
</event>
<event>
 7    1  0.1302069E-013  0.7246178E+02  0.7816164E-02  0.1226707E+00
        -11   -1    0    0    0    0  0.00000000000E+00  0.00000000000E+00  0.45593999997E+02  0.45594000000E+02  0.51100000000E-03 0. -1.
         11   -1    0    0    0    0 -0.00000000000E+00 -0.00000000000E+00 -0.45593999997E+02  0.45594000000E+02  0.51100000000E-03 0.  1.
    9900012    2    1    2    0    0  0.96754036791E+01  0.14472504811E+02  0.68995963186E+01  0.72461781449E+02  0.70000275068E+02 0.  0.
         12    1    1    2    0    0 -0.96754036791E+01 -0.14472504811E+02 -0.68995963186E+01  0.18726218551E+02  0.00000000000E+00 0. -1.
         11    1    3    3    0    0 -0.62176804451E+01 -0.10107573391E+01  0.82828074643E+01  0.10406059786E+02  0.51100000000E-03 0. -1.
        -11    1    3    3    0    0  0.11883385888E+02 -0.10209737437E+02 -0.23279732394E+02  0.28060640394E+02  0.51100000000E-03 0.  1.
        -12    1    3    3    0    0  0.40096982365E+01  0.25692999587E+02  0.21896521249E+02  0.33995081270E+02  0.00000000000E+00 0.  1.
</event>
<event>
 7    1  0.1302069E-013  0.7246156E+02  0.7816164E-02  0.1226708E+00
        -11   -1    0    0    0    0  0.00000000000E+00  0.00000000000E+00  0.45593999997E+02  0.45594000000E+02  0.51100000000E-03 0.  1.
         11   -1    0    0    0    0 -0.00000000000E+00 -0.00000000000E+00 -0.45593999997E+02  0.45594000000E+02  0.51100000000E-03 0. -1.
    9900012    2    1    2    0    0 -0.22401143272E+00  0.18018120080E+02  0.50967451978E+01  0.72461557627E+02  0.69999983499E+02 0.  0.
         12    1    1    2    0    0  0.22401143272E+00 -0.18018120080E+02 -0.50967451978E+01  0.18726442373E+02  0.00000000000E+00 0. -1.
         11    1    3    3    0    0  0.43778345416E+01 -0.39804412922E+01  0.89371939549E+01  0.10718338687E+02  0.51100000000E-03 0. -1.
        -11    1    3    3    0    0  0.17546845214E+02  0.30507960997E+02 -0.11145946950E+02  0.36916928296E+02  0.51100000000E-03 0.  1.
        -12    1    3    3    0    0 -0.22148691188E+02 -0.85093996249E+01  0.73054981931E+01  0.24826290645E+02  0.00000000000E+00 0.  1.
</event>
<event>
 7    1  0.1302069E-013  0.7246156E+02  0.7816164E-02  0.1226708E+00
        -11   -1    0    0    0    0  0.00000000000E+00  0.00000000000E+00  0.45593999997E+02  0.45594000000E+02  0.51100000000E-03 0. -1.
         11   -1    0    0    0    0 -0.00000000000E+00 -0.00000000000E+00 -0.45593999997E+02  0.45594000000E+02  0.51100000000E-03 0.  1.
    9900012    2    1    2    0    0 -0.83968200424E+01 -0.14449732024E+02 -0.84485517679E+01  0.72461564959E+02  0.69999993049E+02 0.  0.
         12    1    1    2    0    0  0.83968200424E+01  0.14449732024E+02  0.84485517679E+01  0.18726435041E+02  0.00000000000E+00 0. -1.
         11    1    3    3    0    0  0.15750349638E+02  0.39898570684E+01  0.73032049946E+01  0.17813738423E+02  0.51100000000E-03 0. -1.
        -11    1    3    3    0    0 -0.24794703240E+02 -0.24763275151E+01 -0.25724575612E+02  0.35814289012E+02  0.51100000000E-03 0.  1.
        -12    1    3    3    0    0  0.64753356030E+00 -0.15963261577E+02  0.99728188493E+01  0.18833537524E+02  0.00000000000E+00 0.  1.
</event>
<event>
 7    1  0.1302069E-013  0.7246149E+02  0.7816164E-02  0.1226708E+00
        -11   -1    0    0    0    0  0.00000000000E+00  0.00000000000E+00  0.45593999997E+02  0.45594000000E+02  0.51100000000E-03 0.  1.
         11   -1    0    0    0    0 -0.00000000000E+00 -0.00000000000E+00 -0.45593999997E+02  0.45594000000E+02  0.51100000000E-03 0. -1.
    9900012    2    1    2    0    0 -0.13627010040E+02  0.12839043095E+02 -0.38190837376E+00  0.72461487131E+02  0.69999891664E+02 0.  0.
         12    1    1    2    0    0  0.13627010040E+02 -0.12839043095E+02  0.38190837376E+00  0.18726512869E+02  0.00000000000E+00 0. -1.
         11    1    3    3    0    0  0.64088584215E+01  0.35147198140E+02 -0.84506908440E+01  0.36712575221E+02  0.51100000000E-03 0. -1.
        -11    1    3    3    0    0 -0.63345973572E+01 -0.17027857293E+02  0.10319014617E+02  0.20893949138E+02  0.51100000000E-03 0.  1.
        -12    1    3    3    0    0 -0.13701271105E+02 -0.52802977517E+01 -0.22502321466E+01  0.14854962771E+02  0.00000000000E+00 0.  1.
</event>
<event>
 7    1  0.1302069E-013  0.7246156E+02  0.7816164E-02  0.1226708E+00
        -11   -1    0    0    0    0  0.00000000000E+00  0.00000000000E+00  0.45593999997E+02  0.45594000000E+02  0.51100000000E-03 0.  1.
         11   -1    0    0    0    0 -0.00000000000E+00 -0.00000000000E+00 -0.45593999997E+02  0.45594000000E+02  0.51100000000E-03 0. -1.
    9900012    2    1    2    0    0  0.13885962731E+02  0.74272050994E+01  0.10133916576E+02  0.72461558755E+02  0.69999984967E+02 0.  0.
         12    1    1    2    0    0 -0.13885962731E+02 -0.74272050994E+01 -0.10133916576E+02  0.18726441245E+02  0.00000000000E+00 0. -1.
         11    1    3    3    0    0  0.39050521695E+01 -0.16939813616E+02  0.48204958553E+00  0.17390775999E+02  0.51100000000E-03 0. -1.
        -11    1    3    3    0    0  0.12418582117E+02  0.14947557678E+02  0.28128631631E+02  0.34188749320E+02  0.51100000000E-03 0.  1.
        -12    1    3    3    0    0 -0.24376715559E+01  0.94194610368E+01 -0.18476764641E+02  0.20882033436E+02  0.00000000000E+00 0.  1.
</event>
<event>
 7    1  0.1302069E-013  0.7246153E+02  0.7816164E-02  0.1226708E+00
        -11   -1    0    0    0    0  0.00000000000E+00  0.00000000000E+00  0.45593999997E+02  0.45594000000E+02  0.51100000000E-03 0.  1.
         11   -1    0    0    0    0 -0.00000000000E+00 -0.00000000000E+00 -0.45593999997E+02  0.45594000000E+02  0.51100000000E-03 0. -1.
    9900012    2    1    2    0    0 -0.11033780934E+02 -0.29620477842E+01  0.14837881462E+02  0.72461527426E+02  0.69999944156E+02 0.  0.
         12    1    1    2    0    0  0.11033780934E+02  0.29620477842E+01 -0.14837881462E+02  0.18726472574E+02  0.00000000000E+00 0. -1.
         11    1    3    3    0    0 -0.37495495589E+02 -0.27357135859E+00  0.29556501912E+01  0.37612802329E+02  0.51100000000E-03 0. -1.
        -11    1    3    3    0    0  0.50345561483E+01 -0.54916369500E+01  0.10917725933E+02  0.13217472217E+02  0.51100000000E-03 0.  1.
         12    1    3    3    0    0  0.21427158506E+02  0.28031605244E+01  0.96450533772E+00  0.21631252879E+02  0.00000000000E+00 0. -1.
</event>
<event>
 7    1  0.1302069E-013  0.7246159E+02  0.7816164E-02  0.1226708E+00
        -11   -1    0    0    0    0  0.00000000000E+00  0.00000000000E+00  0.45593999997E+02  0.45594000000E+02  0.51100000000E-03 0. -1.
         11   -1    0    0    0    0 -0.00000000000E+00 -0.00000000000E+00 -0.45593999997E+02  0.45594000000E+02  0.51100000000E-03 0.  1.
    9900012    2    1    2    0    0  0.89482473906E+01 -0.15692492508E+02 -0.49348604205E+01  0.72461593515E+02  0.70000030249E+02 0.  0.
         12    1    1    2    0    0 -0.89482473906E+01  0.15692492508E+02  0.49348604205E+01  0.18726406485E+02  0.00000000000E+00 0. -1.
         11    1    3    3    0    0  0.18364316428E+02 -0.12324923881E+02  0.15291436863E+02  0.26888285705E+02  0.51100000000E-03 0. -1.
        -11    1    3    3    0    0 -0.15528635512E+02  0.14453737127E+02 -0.15126197964E+02  0.26054767374E+02  0.51100000000E-03 0.  1.
        -12    1    3    3    0    0  0.61125664753E+01 -0.17821305753E+02 -0.51000993202E+01  0.19518540436E+02  0.00000000000E+00 0.  1.
</event>
<event>
 7    1  0.1302069E-013  0.7246154E+02  0.7816164E-02  0.1226708E+00
        -11   -1    0    0    0    0  0.00000000000E+00  0.00000000000E+00  0.45593999997E+02  0.45594000000E+02  0.51100000000E-03 0.  1.
         11   -1    0    0    0    0 -0.00000000000E+00 -0.00000000000E+00 -0.45593999997E+02  0.45594000000E+02  0.51100000000E-03 0. -1.
    9900012    2    1    2    0    0 -0.50832679826E+01  0.13992471176E+02 -0.11360088626E+02  0.72461535396E+02  0.69999954538E+02 0.  0.
         12    1    1    2    0    0  0.50832679826E+01 -0.13992471176E+02  0.11360088626E+02  0.18726464604E+02  0.00000000000E+00 0. -1.
         11    1    3    3    0    0  0.18796514693E+02  0.72642879332E+01 -0.12063276867E+02  0.23486197922E+02  0.51100000000E-03 0. -1.
        -11    1    3    3    0    0 -0.15300321868E+02 -0.69625530245E+01  0.18460773002E+02  0.24967521583E+02  0.51100000000E-03 0.  1.
        -12    1    3    3    0    0 -0.85794608082E+01  0.13690736268E+02 -0.17757584761E+02  0.24007815891E+02  0.00000000000E+00 0.  1.
</event>
<event>
 7    1  0.1302069E-013  0.7246154E+02  0.7816164E-02  0.1226708E+00
        -11   -1    0    0    0    0  0.00000000000E+00  0.00000000000E+00  0.45593999997E+02  0.45594000000E+02  0.51100000000E-03 0.  1.
         11   -1    0    0    0    0 -0.00000000000E+00 -0.00000000000E+00 -0.45593999997E+02  0.45594000000E+02  0.51100000000E-03 0. -1.
    9900012    2    1    2    0    0 -0.89523618911E+01 -0.15703477394E+02  0.48924601184E+01  0.72461544070E+02  0.69999965838E+02 0.  0.
         12    1    1    2    0    0  0.89523618911E+01  0.15703477394E+02 -0.48924601184E+01  0.18726455930E+02  0.00000000000E+00 0. -1.
         11    1    3    3    0    0 -0.23986264857E+01 -0.21929756139E+02  0.23346050500E+02  0.32120175708E+02  0.51100000000E-03 0.  1.
        -11    1    3    3    0    0 -0.18830808200E+02  0.10618556859E+02 -0.63029506709E+01  0.22518442989E+02  0.51100000000E-03 0. -1.
        -12    1    3    3    0    0  0.12277072795E+02 -0.43922781143E+01 -0.12150639711E+02  0.17822925372E+02  0.00000000000E+00 0.  1.
</event>
<event>
 7    1  0.1302069E-013  0.7246158E+02  0.7816164E-02  0.1226708E+00
        -11   -1    0    0    0    0  0.00000000000E+00  0.00000000000E+00  0.45593999997E+02  0.45594000000E+02  0.51100000000E-03 0. -1.
         11   -1    0    0    0    0 -0.00000000000E+00 -0.00000000000E+00 -0.45593999997E+02  0.45594000000E+02  0.51100000000E-03 0.  1.
    9900012    2    1    2    0    0  0.14524100040E+02 -0.51035836774E+01 -0.10662214067E+02  0.72461578635E+02  0.70000010866E+02 0.  0.
         12    1    1    2    0    0 -0.14524100040E+02  0.51035836774E+01  0.10662214067E+02  0.18726421365E+02  0.00000000000E+00 0. -1.
         11    1    3    3    0    0  0.41028305352E+02 -0.96701465292E+01 -0.67629396340E+01  0.42691579108E+02  0.51100000000E-03 0.  1.
        -11    1    3    3    0    0 -0.23801454538E+02  0.60930084524E+01 -0.68304097081E+01  0.25500754639E+02  0.51100000000E-03 0. -1.
        -12    1    3    3    0    0 -0.27027507744E+01 -0.15264456006E+01  0.29311352753E+01  0.42692448890E+01  0.00000000000E+00 0.  1.
</event>
<event>
 7    1  0.1957602E-013  0.7246158E+02  0.7816164E-02  0.1226708E+00
        -11   -1    0    0    0    0  0.00000000000E+00  0.00000000000E+00  0.45593999997E+02  0.45594000000E+02  0.51100000000E-03 0. -1.
         11   -1    0    0    0    0 -0.00000000000E+00 -0.00000000000E+00 -0.45593999997E+02  0.45594000000E+02  0.51100000000E-03 0.  1.
    9900012    2    1    2    0    0  0.56475022007E+01  0.10576557218E+02 -0.14384743314E+02  0.72461583261E+02  0.70000016891E+02 0.  0.
         12    1    1    2    0    0 -0.56475022007E+01 -0.10576557218E+02  0.14384743314E+02  0.18726416739E+02  0.00000000000E+00 0. -1.
         11    1    3    3    0    0 -0.10468776402E+02  0.27057473188E+02  0.11693945367E+02  0.31280193305E+02  0.51100000000E-03 0. -1.
        -11    1    3    3    0    0  0.18521651063E+02 -0.44623360875E+01 -0.19535323791E+02  0.27287229198E+02  0.51100000000E-03 0.  1.
        -12    1    3    3    0    0 -0.24053724606E+01 -0.12018579883E+02 -0.65433648896E+01  0.13894160757E+02  0.00000000000E+00 0.  1.
</event>
<event>
 7    1  0.1302069E-013  0.7246149E+02  0.7816164E-02  0.1226708E+00
        -11   -1    0    0    0    0  0.00000000000E+00  0.00000000000E+00  0.45593999997E+02  0.45594000000E+02  0.51100000000E-03 0. -1.
         11   -1    0    0    0    0 -0.00000000000E+00 -0.00000000000E+00 -0.45593999997E+02  0.45594000000E+02  0.51100000000E-03 0.  1.
    9900012    2    1    2    0    0 -0.67197128051E+01  0.14780870672E+02 -0.93302514099E+01  0.72461487527E+02  0.69999892180E+02 0.  0.
         12    1    1    2    0    0  0.67197128051E+01 -0.14780870672E+02  0.93302514099E+01  0.18726512473E+02  0.00000000000E+00 0. -1.
         11    1    3    3    0    0 -0.15241292282E+02  0.71447896912E+01  0.16439628172E+02  0.23528841554E+02  0.51100000000E-03 0.  1.
        -11    1    3    3    0    0  0.12142571103E+02  0.21528429720E+02 -0.24027509524E+02  0.34470806973E+02  0.51100000000E-03 0. -1.
        -12    1    3    3    0    0 -0.36209916258E+01 -0.13892348739E+02 -0.17423700583E+01  0.14461839000E+02  0.00000000000E+00 0.  1.
</event>
<event>
 7    1  0.1302069E-013  0.7246154E+02  0.7816164E-02  0.1226708E+00
        -11   -1    0    0    0    0  0.00000000000E+00  0.00000000000E+00  0.45593999997E+02  0.45594000000E+02  0.51100000000E-03 0. -1.
         11   -1    0    0    0    0 -0.00000000000E+00 -0.00000000000E+00 -0.45593999997E+02  0.45594000000E+02  0.51100000000E-03 0.  1.
    9900012    2    1    2    0    0  0.57707508045E+01 -0.17573016669E+02 -0.29270812114E+01  0.72461540534E+02  0.69999961232E+02 0.  0.
         12    1    1    2    0    0 -0.57707508045E+01  0.17573016669E+02  0.29270812114E+01  0.18726459466E+02  0.00000000000E+00 0. -1.
         11    1    3    3    0    0 -0.21920757409E+02 -0.15754695080E+02  0.39226904456E+01  0.27278517610E+02  0.51100000000E-03 0. -1.
        -11    1    3    3    0    0  0.34523323949E+02 -0.42235803783E+01  0.60931115777E+00  0.34786057380E+02  0.51100000000E-03 0.  1.
        -12    1    3    3    0    0 -0.68318157356E+01  0.24052587890E+01 -0.74590828147E+01  0.10396965544E+02  0.00000000000E+00 0.  1.
</event>
<event>
 7    1  0.1302069E-013  0.7246164E+02  0.7816164E-02  0.1226708E+00
        -11   -1    0    0    0    0  0.00000000000E+00  0.00000000000E+00  0.45593999997E+02  0.45594000000E+02  0.51100000000E-03 0.  1.
         11   -1    0    0    0    0 -0.00000000000E+00 -0.00000000000E+00 -0.45593999997E+02  0.45594000000E+02  0.51100000000E-03 0. -1.
    9900012    2    1    2    0    0 -0.13806834345E+02  0.90732821930E+01  0.88160955879E+01  0.72461637144E+02  0.70000087084E+02 0.  0.
         12    1    1    2    0    0  0.13806834345E+02 -0.90732821930E+01 -0.88160955879E+01  0.18726362856E+02  0.00000000000E+00 0. -1.
         11    1    3    3    0    0  0.10049389319E+02  0.49514535365E+01  0.18149476226E+02  0.21328633462E+02  0.51100000000E-03 0. -1.
        -11    1    3    3    0    0  0.18869946535E+01 -0.29730152472E+01 -0.21501741718E+02  0.21788172609E+02  0.51100000000E-03 0.  1.
        -12    1    3    3    0    0 -0.25743218318E+02  0.70948439037E+01  0.12168361080E+02  0.29344831074E+02  0.00000000000E+00 0.  1.
</event>
<event>
 7    1  0.1302069E-013  0.7246155E+02  0.7816164E-02  0.1226708E+00
        -11   -1    0    0    0    0  0.00000000000E+00  0.00000000000E+00  0.45593999997E+02  0.45594000000E+02  0.51100000000E-03 0.  1.
         11   -1    0    0    0    0 -0.00000000000E+00 -0.00000000000E+00 -0.45593999997E+02  0.45594000000E+02  0.51100000000E-03 0. -1.
    9900012    2    1    2    0    0  0.75247743567E+01  0.39836210453E+01  0.16678982181E+02  0.72461550461E+02  0.69999974163E+02 0.  0.
         12    1    1    2    0    0 -0.75247743567E+01 -0.39836210453E+01 -0.16678982181E+02  0.18726449539E+02  0.00000000000E+00 0. -1.
         11    1    3    3    0    0 -0.28312190782E+01  0.14889252510E+02 -0.20002456219E+02  0.25095894023E+02  0.51100000000E-03 0. -1.
        -11    1    3    3    0    0  0.18556229338E+01  0.40219705892E+01  0.27564432137E+02  0.27918049774E+02  0.51100000000E-03 0.  1.
        -12    1    3    3    0    0  0.85003705011E+01 -0.14927602053E+02  0.91170062631E+01  0.19447606663E+02  0.00000000000E+00 0.  1.
</event>
<event>
 7    1  0.1302069E-013  0.7246156E+02  0.7816164E-02  0.1226708E+00
        -11   -1    0    0    0    0  0.00000000000E+00  0.00000000000E+00  0.45593999997E+02  0.45594000000E+02  0.51100000000E-03 0. -1.
         11   -1    0    0    0    0 -0.00000000000E+00 -0.00000000000E+00 -0.45593999997E+02  0.45594000000E+02  0.51100000000E-03 0.  1.
    9900012    2    1    2    0    0  0.88264610420E+01 -0.12028555003E+02 -0.11317557935E+02  0.72461556995E+02  0.69999982676E+02 0.  0.
         12    1    1    2    0    0 -0.88264610420E+01  0.12028555003E+02  0.11317557935E+02  0.18726443005E+02  0.00000000000E+00 0. -1.
         11    1    3    3    0    0  0.19202191153E+02 -0.11130169235E+02  0.38204065402E+00  0.22197990170E+02  0.51100000000E-03 0. -1.
        -11    1    3    3    0    0 -0.18141113490E+02  0.22354003135E+01 -0.27126778015E+02  0.32710229271E+02  0.51100000000E-03 0.  1.
        -12    1    3    3    0    0  0.77653833794E+01 -0.31337860813E+01  0.15427179426E+02  0.17553337554E+02  0.00000000000E+00 0.  1.
</event>
<event>
 7    1  0.1302069E-013  0.7246164E+02  0.7816164E-02  0.1226708E+00
        -11   -1    0    0    0    0  0.00000000000E+00  0.00000000000E+00  0.45593999997E+02  0.45594000000E+02  0.51100000000E-03 0. -1.
         11   -1    0    0    0    0 -0.00000000000E+00 -0.00000000000E+00 -0.45593999997E+02  0.45594000000E+02  0.51100000000E-03 0.  1.
    9900012    2    1    2    0    0  0.14817688655E+02 -0.10189369030E+02  0.52239220279E+01  0.72461641580E+02  0.70000092863E+02 0.  0.
         12    1    1    2    0    0 -0.14817688655E+02  0.10189369030E+02 -0.52239220279E+01  0.18726358420E+02  0.00000000000E+00 0. -1.
         11    1    3    3    0    0  0.50423363566E+01  0.17083870887E+02  0.14652019146E+02  0.23064376552E+02  0.51100000000E-03 0. -1.
        -11    1    3    3    0    0  0.12994596973E+02 -0.18487739310E+02 -0.23433199480E+02  0.32554122526E+02  0.51100000000E-03 0.  1.
         12    1    3    3    0    0 -0.32192446737E+01 -0.87855006070E+01  0.14005102362E+02  0.16843142502E+02  0.00000000000E+00 0. -1.
</event>
<event>
 7    1  0.1302069E-013  0.7246155E+02  0.7816164E-02  0.1226708E+00
        -11   -1    0    0    0    0  0.00000000000E+00  0.00000000000E+00  0.45593999997E+02  0.45594000000E+02  0.51100000000E-03 0. -1.
         11   -1    0    0    0    0 -0.00000000000E+00 -0.00000000000E+00 -0.45593999997E+02  0.45594000000E+02  0.51100000000E-03 0.  1.
    9900012    2    1    2    0    0 -0.12701438532E+02 -0.13746248152E+02 -0.62775022165E+00  0.72461549471E+02  0.69999972874E+02 0.  0.
         12    1    1    2    0    0  0.12701438532E+02  0.13746248152E+02  0.62775022165E+00  0.18726450529E+02  0.00000000000E+00 0. -1.
         11    1    3    3    0    0 -0.36371383216E+01 -0.10711344741E+02  0.28279975094E+02  0.30458474566E+02  0.51100000000E-03 0. -1.
        -11    1    3    3    0    0 -0.18203134924E+02 -0.72046718845E+01 -0.14168247276E+02  0.24166105378E+02  0.51100000000E-03 0.  1.
         12    1    3    3    0    0  0.91388347133E+01  0.41697684731E+01 -0.14739478040E+02  0.17836969527E+02  0.00000000000E+00 0. -1.
</event>
<event>
 7    1  0.1302069E-013  0.7246151E+02  0.7816164E-02  0.1226708E+00
        -11   -1    0    0    0    0  0.00000000000E+00  0.00000000000E+00  0.45593999997E+02  0.45594000000E+02  0.51100000000E-03 0.  1.
         11   -1    0    0    0    0 -0.00000000000E+00 -0.00000000000E+00 -0.45593999997E+02  0.45594000000E+02  0.51100000000E-03 0. -1.
    9900012    2    1    2    0    0 -0.71471031060E+01 -0.57907814590E+01  0.16311570887E+02  0.72461506000E+02  0.69999916245E+02 0.  0.
         12    1    1    2    0    0  0.71471031060E+01  0.57907814590E+01 -0.16311570887E+02  0.18726494000E+02  0.00000000000E+00 0. -1.
         11    1    3    3    0    0 -0.89738899571E+01  0.18352601286E+02 -0.12087940515E+02  0.23737459449E+02  0.51100000000E-03 0. -1.
        -11    1    3    3    0    0  0.14957969868E+02 -0.68480857959E+01  0.59592802566E+01  0.17497147284E+02  0.51100000000E-03 0.  1.
         12    1    3    3    0    0 -0.13131183017E+02 -0.17295296949E+02  0.22440231145E+02  0.31226899267E+02  0.00000000000E+00 0. -1.
</event>
<event>
 7    1  0.1302069E-013  0.7246161E+02  0.7816164E-02  0.1226708E+00
        -11   -1    0    0    0    0  0.00000000000E+00  0.00000000000E+00  0.45593999997E+02  0.45594000000E+02  0.51100000000E-03 0.  1.
         11   -1    0    0    0    0 -0.00000000000E+00 -0.00000000000E+00 -0.45593999997E+02  0.45594000000E+02  0.51100000000E-03 0. -1.
    9900012    2    1    2    0    0  0.14539230089E+02 -0.64696741551E+01 -0.98707586021E+01  0.72461607645E+02  0.70000048656E+02 0.  0.
         12    1    1    2    0    0 -0.14539230089E+02  0.64696741551E+01  0.98707586021E+01  0.18726392355E+02  0.00000000000E+00 0. -1.
         11    1    3    3    0    0  0.28003303565E+02 -0.19657149355E+02 -0.15458039570E+02  0.37543834633E+02  0.51100000000E-03 0. -1.
        -11    1    3    3    0    0  0.37492219135E+01  0.49416008083E+00  0.12006429596E+02  0.12587899390E+02  0.51100000000E-03 0.  1.
         12    1    3    3    0    0 -0.17213295389E+02  0.12693315119E+02 -0.64191486281E+01  0.22329873622E+02  0.00000000000E+00 0. -1.
</event>
<event>
 7    1  0.1302069E-013  0.7246156E+02  0.7816164E-02  0.1226708E+00
        -11   -1    0    0    0    0  0.00000000000E+00  0.00000000000E+00  0.45593999997E+02  0.45594000000E+02  0.51100000000E-03 0.  1.
         11   -1    0    0    0    0 -0.00000000000E+00 -0.00000000000E+00 -0.45593999997E+02  0.45594000000E+02  0.51100000000E-03 0. -1.
    9900012    2    1    2    0    0  0.38909281188E+01  0.17204481530E+02 -0.62885523868E+01  0.72461564208E+02  0.69999992072E+02 0.  0.
         12    1    1    2    0    0 -0.38909281188E+01 -0.17204481530E+02  0.62885523868E+01  0.18726435792E+02  0.00000000000E+00 0. -1.
         11    1    3    3    0    0  0.76765645285E+00  0.14416793658E+01 -0.10210229068E+02  0.10340044183E+02  0.51100000000E-03 0. -1.
        -11    1    3    3    0    0  0.73228514620E+01  0.18661442480E+02  0.29705836809E+02  0.35837275702E+02  0.51100000000E-03 0.  1.
        -12    1    3    3    0    0 -0.41995797960E+01 -0.28986403160E+01 -0.25784160128E+02  0.26284244323E+02  0.00000000000E+00 0.  1.
</event>
<event>
 7    1  0.1302069E-013  0.7246151E+02  0.7816164E-02  0.1226708E+00
        -11   -1    0    0    0    0  0.00000000000E+00  0.00000000000E+00  0.45593999997E+02  0.45594000000E+02  0.51100000000E-03 0. -1.
         11   -1    0    0    0    0 -0.00000000000E+00 -0.00000000000E+00 -0.45593999997E+02  0.45594000000E+02  0.51100000000E-03 0.  1.
    9900012    2    1    2    0    0  0.86912801520E+01 -0.96061837996E+01 -0.13522739338E+02  0.72461505478E+02  0.69999915565E+02 0.  0.
         12    1    1    2    0    0 -0.86912801520E+01  0.96061837996E+01  0.13522739338E+02  0.18726494522E+02  0.00000000000E+00 0. -1.
         11    1    3    3    0    0  0.81680659661E+01 -0.29924361472E+01  0.12163301405E+02  0.14953858266E+02  0.51100000000E-03 0. -1.
        -11    1    3    3    0    0 -0.24900595572E+02  0.69977491810E-01 -0.95900783360E+01  0.26683593451E+02  0.51100000000E-03 0.  1.
        -12    1    3    3    0    0  0.25423809758E+02 -0.66837251442E+01 -0.16095962407E+02  0.30824053761E+02  0.00000000000E+00 0.  1.
</event>
<event>
 7    1  0.1302069E-013  0.7246148E+02  0.7816164E-02  0.1226708E+00
        -11   -1    0    0    0    0  0.00000000000E+00  0.00000000000E+00  0.45593999997E+02  0.45594000000E+02  0.51100000000E-03 0.  1.
         11   -1    0    0    0    0 -0.00000000000E+00 -0.00000000000E+00 -0.45593999997E+02  0.45594000000E+02  0.51100000000E-03 0. -1.
    9900012    2    1    2    0    0  0.17287880291E+02  0.60673643531E+01  0.38728161746E+01  0.72461483499E+02  0.69999886933E+02 0.  0.
         12    1    1    2    0    0 -0.17287880291E+02 -0.60673643531E+01 -0.38728161746E+01  0.18726516501E+02  0.00000000000E+00 0. -1.
         11    1    3    3    0    0  0.10969410642E+02 -0.12609018191E+02  0.29830342008E+01  0.16976860808E+02  0.51100000000E-03 0. -1.
        -11    1    3    3    0    0 -0.22995072486E+01  0.15554072031E+02 -0.24151420739E+02  0.28818535950E+02  0.51100000000E-03 0.  1.
        -12    1    3    3    0    0  0.86179768981E+01  0.31223105139E+01  0.25041202713E+02  0.26666086741E+02  0.00000000000E+00 0.  1.
</event>
<event>
 7    1  0.1302069E-013  0.7246164E+02  0.7816164E-02  0.1226708E+00
        -11   -1    0    0    0    0  0.00000000000E+00  0.00000000000E+00  0.45593999997E+02  0.45594000000E+02  0.51100000000E-03 0.  1.
         11   -1    0    0    0    0 -0.00000000000E+00 -0.00000000000E+00 -0.45593999997E+02  0.45594000000E+02  0.51100000000E-03 0. -1.
    9900012    2    1    2    0    0 -0.12420295405E+02  0.12835394272E+02 -0.56271985754E+01  0.72461642964E+02  0.70000094665E+02 0.  0.
         12    1    1    2    0    0  0.12420295405E+02 -0.12835394272E+02  0.56271985754E+01  0.18726357036E+02  0.00000000000E+00 0. -1.
         11    1    3    3    0    0  0.99039941345E+00  0.58246729108E+01 -0.20225189138E+02  0.21070500265E+02  0.51100000000E-03 0. -1.
        -11    1    3    3    0    0  0.42549014981E+01  0.23016063157E+02  0.14537365357E+02  0.27553191137E+02  0.51100000000E-03 0.  1.
        -12    1    3    3    0    0 -0.17665596316E+02 -0.16005341796E+02  0.60625205170E-01  0.23837951561E+02  0.00000000000E+00 0.  1.
</event>
<event>
 7    1  0.1302069E-013  0.7246157E+02  0.7816164E-02  0.1226708E+00
        -11   -1    0    0    0    0  0.00000000000E+00  0.00000000000E+00  0.45593999997E+02  0.45594000000E+02  0.51100000000E-03 0.  1.
         11   -1    0    0    0    0 -0.00000000000E+00 -0.00000000000E+00 -0.45593999997E+02  0.45594000000E+02  0.51100000000E-03 0. -1.
    9900012    2    1    2    0    0 -0.59438625192E+01  0.16688709450E+02  0.60693139956E+01  0.72461572227E+02  0.70000002518E+02 0.  0.
         12    1    1    2    0    0  0.59438625192E+01 -0.16688709450E+02 -0.60693139956E+01  0.18726427773E+02  0.00000000000E+00 0. -1.
         11    1    3    3    0    0 -0.21866199560E+02  0.83770627946E+01 -0.20203113719E+02  0.30926876151E+02  0.51100000000E-03 0. -1.
        -11    1    3    3    0    0  0.14588934665E+02  0.48514997440E+01  0.38111227485E+00  0.15379184349E+02  0.51100000000E-03 0.  1.
         12    1    3    3    0    0  0.13334023757E+01  0.34601469115E+01  0.25891315439E+02  0.26155511727E+02  0.00000000000E+00 0. -1.
</event>
<event>
 7    1  0.1916410E-013  0.7246142E+02  0.7816164E-02  0.1226708E+00
        -11   -1    0    0    0    0  0.00000000000E+00  0.00000000000E+00  0.45593999997E+02  0.45594000000E+02  0.51100000000E-03 0. -1.
         11   -1    0    0    0    0 -0.00000000000E+00 -0.00000000000E+00 -0.45593999997E+02  0.45594000000E+02  0.51100000000E-03 0.  1.
    9900012    2    1    2    0    0 -0.16511448728E+02  0.50554329914E+01 -0.72456455535E+01  0.72461422061E+02  0.69999806898E+02 0.  0.
         12    1    1    2    0    0  0.16511448728E+02 -0.50554329914E+01  0.72456455535E+01  0.18726577939E+02  0.00000000000E+00 0. -1.
         11    1    3    3    0    0 -0.21180946608E+02 -0.55690650827E+01  0.17562566240E+02  0.28072953502E+02  0.51100000000E-03 0. -1.
        -11    1    3    3    0    0  0.18588411698E+02  0.83868143525E+01 -0.67540033297E+01  0.21482184844E+02  0.51100000000E-03 0.  1.
        -12    1    3    3    0    0 -0.13918913818E+02  0.22376837216E+01 -0.18054208464E+02  0.22906283714E+02  0.00000000000E+00 0.  1.
</event>
<event>
 7    1  0.1302069E-013  0.7246157E+02  0.7816164E-02  0.1226708E+00
        -11   -1    0    0    0    0  0.00000000000E+00  0.00000000000E+00  0.45593999997E+02  0.45594000000E+02  0.51100000000E-03 0.  1.
         11   -1    0    0    0    0 -0.00000000000E+00 -0.00000000000E+00 -0.45593999997E+02  0.45594000000E+02  0.51100000000E-03 0. -1.
    9900012    2    1    2    0    0 -0.44193310552E+00 -0.17405475289E+02 -0.68944406771E+01  0.72461569824E+02  0.69999999387E+02 0.  0.
         12    1    1    2    0    0  0.44193310552E+00  0.17405475289E+02  0.68944406771E+01  0.18726430176E+02  0.00000000000E+00 0. -1.
         11    1    3    3    0    0  0.18247746703E+02  0.68469127180E+00 -0.26740375338E+02  0.32380499306E+02  0.51100000000E-03 0. -1.
        -11    1    3    3    0    0 -0.12196762684E+02 -0.66012466316E+01  0.22679311369E+02  0.26583616035E+02  0.51100000000E-03 0.  1.
        -12    1    3    3    0    0 -0.64929171250E+01 -0.11488919929E+02 -0.28333767085E+01  0.13497454482E+02  0.00000000000E+00 0.  1.
</event>
<event>
 7    1  0.1302069E-013  0.7246158E+02  0.7816164E-02  0.1226708E+00
        -11   -1    0    0    0    0  0.00000000000E+00  0.00000000000E+00  0.45593999997E+02  0.45594000000E+02  0.51100000000E-03 0. -1.
         11   -1    0    0    0    0 -0.00000000000E+00 -0.00000000000E+00 -0.45593999997E+02  0.45594000000E+02  0.51100000000E-03 0.  1.
    9900012    2    1    2    0    0  0.80347514873E+01  0.45322349134E+01 -0.16296640745E+02  0.72461577908E+02  0.70000009919E+02 0.  0.
         12    1    1    2    0    0 -0.80347514873E+01 -0.45322349134E+01  0.16296640745E+02  0.18726422092E+02  0.00000000000E+00 0. -1.
         11    1    3    3    0    0  0.20980864917E+02 -0.16996947225E+02  0.71896339534E+01  0.27942507838E+02  0.51100000000E-03 0. -1.
        -11    1    3    3    0    0  0.23638591828E+01  0.10839719373E+02 -0.23343800804E+02  0.25846090276E+02  0.51100000000E-03 0.  1.
         12    1    3    3    0    0 -0.15309972612E+02  0.10689462765E+02 -0.14247389494E+00  0.18672979794E+02  0.00000000000E+00 0. -1.
</event>
<event>
 7    1  0.1302069E-013  0.7246172E+02  0.7816164E-02  0.1226708E+00
        -11   -1    0    0    0    0  0.00000000000E+00  0.00000000000E+00  0.45593999997E+02  0.45594000000E+02  0.51100000000E-03 0. -1.
         11   -1    0    0    0    0 -0.00000000000E+00 -0.00000000000E+00 -0.45593999997E+02  0.45594000000E+02  0.51100000000E-03 0.  1.
    9900012    2    1    2    0    0  0.15531277679E+02 -0.68642297444E+01 -0.78952805192E+01  0.72461716578E+02  0.70000190561E+02 0.  0.
         12    1    1    2    0    0 -0.15531277679E+02  0.68642297444E+01  0.78952805192E+01  0.18726283422E+02  0.00000000000E+00 0. -1.
         11    1    3    3    0    0  0.14237003506E+02  0.21511649863E+02 -0.54430259946E+01  0.26364177986E+02  0.51100000000E-03 0.  1.
        -11    1    3    3    0    0 -0.14523272471E+02 -0.12150684268E+02  0.87041605082E+01  0.20840512994E+02  0.51100000000E-03 0. -1.
         12    1    3    3    0    0  0.15817546644E+02 -0.16225195339E+02 -0.11156415033E+02  0.25257025597E+02  0.00000000000E+00 0. -1.
</event>
<event>
 7    1  0.1302069E-013  0.7246160E+02  0.7816164E-02  0.1226708E+00
        -11   -1    0    0    0    0  0.00000000000E+00  0.00000000000E+00  0.45593999997E+02  0.45594000000E+02  0.51100000000E-03 0.  1.
         11   -1    0    0    0    0 -0.00000000000E+00 -0.00000000000E+00 -0.45593999997E+02  0.45594000000E+02  0.51100000000E-03 0. -1.
    9900012    2    1    2    0    0 -0.21882978909E+01 -0.19602591367E+01  0.18494503467E+02  0.72461603602E+02  0.70000043390E+02 0.  0.
         12    1    1    2    0    0  0.21882978909E+01  0.19602591367E+01 -0.18494503467E+02  0.18726396398E+02  0.00000000000E+00 0. -1.
         11    1    3    3    0    0  0.65563868351E+01  0.56652331801E+01 -0.18809791371E+02  0.20709643333E+02  0.51100000000E-03 0. -1.
        -11    1    3    3    0    0 -0.11635261536E+02  0.88823405157E+01  0.30177858304E+02  0.33540697908E+02  0.51100000000E-03 0.  1.
         12    1    3    3    0    0  0.28905768100E+01 -0.16507832833E+02  0.71264365342E+01  0.18211262361E+02  0.00000000000E+00 0. -1.
</event>
<event>
 7    1  0.1302069E-013  0.7246158E+02  0.7816164E-02  0.1226708E+00
        -11   -1    0    0    0    0  0.00000000000E+00  0.00000000000E+00  0.45593999997E+02  0.45594000000E+02  0.51100000000E-03 0. -1.
         11   -1    0    0    0    0 -0.00000000000E+00 -0.00000000000E+00 -0.45593999997E+02  0.45594000000E+02  0.51100000000E-03 0.  1.
    9900012    2    1    2    0    0  0.11401656457E+02  0.93647875834E+01 -0.11531771319E+02  0.72461581063E+02  0.70000014029E+02 0.  0.
         12    1    1    2    0    0 -0.11401656457E+02 -0.93647875834E+01  0.11531771319E+02  0.18726418937E+02  0.00000000000E+00 0. -1.
         11    1    3    3    0    0 -0.62584057774E+01  0.83756309506E+01  0.24611223807E+02  0.26740066833E+02  0.51100000000E-03 0. -1.
        -11    1    3    3    0    0  0.13061635585E+02 -0.97398009374E+01 -0.19900359112E+02  0.25719532257E+02  0.51100000000E-03 0.  1.
         12    1    3    3    0    0  0.45984266493E+01  0.10728957570E+02 -0.16242636014E+02  0.20001981974E+02  0.00000000000E+00 0. -1.
</event>
<event>
 7    1  0.1302069E-013  0.7246161E+02  0.7816164E-02  0.1226708E+00
        -11   -1    0    0    0    0  0.00000000000E+00  0.00000000000E+00  0.45593999997E+02  0.45594000000E+02  0.51100000000E-03 0.  1.
         11   -1    0    0    0    0 -0.00000000000E+00 -0.00000000000E+00 -0.45593999997E+02  0.45594000000E+02  0.51100000000E-03 0. -1.
    9900012    2    1    2    0    0 -0.12159525704E+01 -0.18676116119E+02  0.63390794281E+00  0.72461609712E+02  0.70000051349E+02 0.  0.
         12    1    1    2    0    0  0.12159525704E+01  0.18676116119E+02 -0.63390794281E+00  0.18726390288E+02  0.00000000000E+00 0. -1.
         11    1    3    3    0    0  0.10095112434E+02  0.78883061595E+01 -0.22163056188E+02  0.25599565015E+02  0.51100000000E-03 0. -1.
        -11    1    3    3    0    0 -0.11626927129E+02  0.15079377752E+01  0.12018323930E+02  0.16789860665E+02  0.51100000000E-03 0.  1.
         12    1    3    3    0    0  0.31586212467E+00 -0.28072360053E+02  0.10778640201E+02  0.30072184032E+02  0.00000000000E+00 0. -1.
</event>
<event>
 7    1  0.1302069E-013  0.7246158E+02  0.7816164E-02  0.1226708E+00
        -11   -1    0    0    0    0  0.00000000000E+00  0.00000000000E+00  0.45593999997E+02  0.45594000000E+02  0.51100000000E-03 0.  1.
         11   -1    0    0    0    0 -0.00000000000E+00 -0.00000000000E+00 -0.45593999997E+02  0.45594000000E+02  0.51100000000E-03 0. -1.
    9900012    2    1    2    0    0 -0.90285169998E+01  0.12712558158E+02  0.10370898829E+02  0.72461580250E+02  0.70000012969E+02 0.  0.
         12    1    1    2    0    0  0.90285169998E+01 -0.12712558158E+02 -0.10370898829E+02  0.18726419750E+02  0.00000000000E+00 0. -1.
         11    1    3    3    0    0  0.13186008328E+02 -0.91490171199E+01 -0.29890983030E+01  0.16325135185E+02  0.51100000000E-03 0.  1.
        -11    1    3    3    0    0 -0.11619725135E+02  0.34761765509E+02  0.36726513891E+01  0.36835943344E+02  0.51100000000E-03 0. -1.
        -12    1    3    3    0    0 -0.10594800193E+02 -0.12900190231E+02  0.96873457433E+01  0.19300501721E+02  0.00000000000E+00 0.  1.
</event>
<event>
 7    1  0.1302069E-013  0.7246153E+02  0.7816164E-02  0.1226708E+00
        -11   -1    0    0    0    0  0.00000000000E+00  0.00000000000E+00  0.45593999997E+02  0.45594000000E+02  0.51100000000E-03 0. -1.
         11   -1    0    0    0    0 -0.00000000000E+00 -0.00000000000E+00 -0.45593999997E+02  0.45594000000E+02  0.51100000000E-03 0.  1.
    9900012    2    1    2    0    0  0.64923776964E+01 -0.16766881730E+02 -0.52346209880E+01  0.72461533489E+02  0.69999952054E+02 0.  0.
         12    1    1    2    0    0 -0.64923776964E+01  0.16766881730E+02  0.52346209880E+01  0.18726466511E+02  0.00000000000E+00 0. -1.
         11    1    3    3    0    0  0.27851296910E+02 -0.28679912176E+01 -0.13279455232E+02  0.30988127480E+02  0.51100000000E-03 0. -1.
        -11    1    3    3    0    0 -0.14430257659E+02 -0.23527072759E+02  0.10186201347E+02  0.29419622480E+02  0.51100000000E-03 0.  1.
        -12    1    3    3    0    0 -0.69286615546E+01  0.96281822460E+01 -0.21413671032E+01  0.12053783529E+02  0.00000000000E+00 0.  1.
</event>
<event>
 7    1  0.1302069E-013  0.7246164E+02  0.7816164E-02  0.1226708E+00
        -11   -1    0    0    0    0  0.00000000000E+00  0.00000000000E+00  0.45593999997E+02  0.45594000000E+02  0.51100000000E-03 0.  1.
         11   -1    0    0    0    0 -0.00000000000E+00 -0.00000000000E+00 -0.45593999997E+02  0.45594000000E+02  0.51100000000E-03 0. -1.
    9900012    2    1    2    0    0 -0.17790854896E+01  0.40851866400E+01  0.18188535833E+02  0.72461635409E+02  0.70000084824E+02 0.  0.
         12    1    1    2    0    0  0.17790854896E+01 -0.40851866400E+01 -0.18188535833E+02  0.18726364591E+02  0.00000000000E+00 0. -1.
         11    1    3    3    0    0 -0.29362627788E+02  0.10881516570E+02  0.14700916248E+02  0.34593182165E+02  0.51100000000E-03 0.  1.
        -11    1    3    3    0    0  0.12606022974E+02  0.17136488449E+01 -0.98441195084E+01  0.16085866366E+02  0.51100000000E-03 0. -1.
        -12    1    3    3    0    0  0.14977519325E+02 -0.85099787743E+01  0.13331739093E+02  0.21782586879E+02  0.00000000000E+00 0.  1.
</event>
<event>
 7    1  0.1302069E-013  0.7246158E+02  0.7816164E-02  0.1226708E+00
        -11   -1    0    0    0    0  0.00000000000E+00  0.00000000000E+00  0.45593999997E+02  0.45594000000E+02  0.51100000000E-03 0.  1.
         11   -1    0    0    0    0 -0.00000000000E+00 -0.00000000000E+00 -0.45593999997E+02  0.45594000000E+02  0.51100000000E-03 0. -1.
    9900012    2    1    2    0    0 -0.23051578446E+01  0.15850766295E+02  0.97014480248E+01  0.72461584470E+02  0.70000018466E+02 0.  0.
         12    1    1    2    0    0  0.23051578446E+01 -0.15850766295E+02 -0.97014480248E+01  0.18726415530E+02  0.00000000000E+00 0. -1.
         11    1    3    3    0    0 -0.10800760363E+02  0.30429908322E+01 -0.15495751345E+02  0.19132028843E+02  0.51100000000E-03 0. -1.
        -11    1    3    3    0    0  0.17055963553E+02 -0.99582168306E+01  0.20671424488E+02  0.28589854246E+02  0.51100000000E-03 0.  1.
         12    1    3    3    0    0 -0.85603610341E+01  0.22765992294E+02  0.45257748819E+01  0.24739701381E+02  0.00000000000E+00 0. -1.
</event>
<event>
 7    1  0.1302069E-013  0.7246138E+02  0.7816164E-02  0.1226709E+00
        -11   -1    0    0    0    0  0.00000000000E+00  0.00000000000E+00  0.45593999997E+02  0.45594000000E+02  0.51100000000E-03 0.  1.
         11   -1    0    0    0    0 -0.00000000000E+00 -0.00000000000E+00 -0.45593999997E+02  0.45594000000E+02  0.51100000000E-03 0. -1.
    9900012    2    1    2    0    0  0.89376207021E+00  0.11764513772E+02  0.14542481505E+02  0.72461378221E+02  0.69999749788E+02 0.  0.
         12    1    1    2    0    0 -0.89376207021E+00 -0.11764513772E+02 -0.14542481505E+02  0.18726621779E+02  0.00000000000E+00 0. -1.
         11    1    3    3    0    0  0.10108810233E+02  0.18767490779E+01 -0.13934291667E+02  0.17316891059E+02  0.51100000000E-03 0. -1.
        -11    1    3    3    0    0  0.38199705053E+01  0.21948882795E+02  0.29946497570E+02  0.37324768553E+02  0.51100000000E-03 0.  1.
         12    1    3    3    0    0 -0.13035018668E+02 -0.12061118101E+02 -0.14697243974E+01  0.17819718609E+02  0.00000000000E+00 0. -1.
</event>
<event>
 7    1  0.1302069E-013  0.7246105E+02  0.7816164E-02  0.1226709E+00
        -11   -1    0    0    0    0  0.00000000000E+00  0.00000000000E+00  0.45593999997E+02  0.45594000000E+02  0.51100000000E-03 0.  1.
         11   -1    0    0    0    0 -0.00000000000E+00 -0.00000000000E+00 -0.45593999997E+02  0.45594000000E+02  0.51100000000E-03 0. -1.
    9900012    2    1    2    0    0  0.79319125774E+01 -0.76529636854E+01  0.15139864678E+02  0.72461051696E+02  0.69999324427E+02 0.  0.
         12    1    1    2    0    0 -0.79319125774E+01  0.76529636854E+01 -0.15139864678E+02  0.18726948304E+02  0.00000000000E+00 0. -1.
         11    1    3    3    0    0 -0.10211099930E+02  0.83055187702E+01 -0.12327405808E+02  0.18033666794E+02  0.51100000000E-03 0. -1.
        -11    1    3    3    0    0  0.28231088936E+02 -0.11688947981E+02  0.30384623671E+02  0.43091196819E+02  0.51100000000E-03 0.  1.
        -12    1    3    3    0    0 -0.10088076429E+02 -0.42695344742E+01 -0.29173531852E+01  0.11336188084E+02  0.00000000000E+00 0.  1.
</event>
<event>
 7    1  0.1302069E-013  0.7246159E+02  0.7816164E-02  0.1226708E+00
        -11   -1    0    0    0    0  0.00000000000E+00  0.00000000000E+00  0.45593999997E+02  0.45594000000E+02  0.51100000000E-03 0. -1.
         11   -1    0    0    0    0 -0.00000000000E+00 -0.00000000000E+00 -0.45593999997E+02  0.45594000000E+02  0.51100000000E-03 0.  1.
    9900012    2    1    2    0    0  0.22490785092E+01  0.17698638262E+02 -0.56902060537E+01  0.72461585624E+02  0.70000019969E+02 0.  0.
         12    1    1    2    0    0 -0.22490785092E+01 -0.17698638262E+02  0.56902060537E+01  0.18726414376E+02  0.00000000000E+00 0. -1.
         11    1    3    3    0    0 -0.21715138709E+02  0.31543820036E+02  0.76513613454E+01  0.39052569215E+02  0.51100000000E-03 0. -1.
        -11    1    3    3    0    0  0.20883129381E+02 -0.54327054913E+01 -0.82300357257E+01  0.23094433745E+02  0.51100000000E-03 0.  1.
        -12    1    3    3    0    0  0.30810878376E+01 -0.84124762830E+01 -0.51115316734E+01  0.10314582664E+02  0.00000000000E+00 0.  1.
</event>
<event>
 7    1  0.1302069E-013  0.7246183E+02  0.7816164E-02  0.1226707E+00
        -11   -1    0    0    0    0  0.00000000000E+00  0.00000000000E+00  0.45593999997E+02  0.45594000000E+02  0.51100000000E-03 0. -1.
         11   -1    0    0    0    0 -0.00000000000E+00 -0.00000000000E+00 -0.45593999997E+02  0.45594000000E+02  0.51100000000E-03 0.  1.
    9900012    2    1    2    0    0  0.14548837305E+02 -0.59058700573E+01 -0.10203989133E+02  0.72461832151E+02  0.70000341117E+02 0.  0.
         12    1    1    2    0    0 -0.14548837305E+02  0.59058700573E+01  0.10203989133E+02  0.18726167849E+02  0.00000000000E+00 0. -1.
         11    1    3    3    0    0  0.38309467028E+02 -0.47852152305E+01 -0.16292227273E+02  0.41904059691E+02  0.51100000000E-03 0.  1.
        -11    1    3    3    0    0 -0.19859470746E+02 -0.84954639104E+01  0.45416040081E+01  0.22072554283E+02  0.51100000000E-03 0. -1.
        -12    1    3    3    0    0 -0.39011589771E+01  0.73748090836E+01  0.15466341319E+01  0.84852181776E+01  0.00000000000E+00 0.  1.
</event>
<event>
 7    1  0.1302069E-013  0.7246159E+02  0.7816164E-02  0.1226708E+00
        -11   -1    0    0    0    0  0.00000000000E+00  0.00000000000E+00  0.45593999997E+02  0.45594000000E+02  0.51100000000E-03 0.  1.
         11   -1    0    0    0    0 -0.00000000000E+00 -0.00000000000E+00 -0.45593999997E+02  0.45594000000E+02  0.51100000000E-03 0. -1.
    9900012    2    1    2    0    0  0.11981389595E+02  0.14384341316E+02  0.46421070213E+00  0.72461589151E+02  0.70000024564E+02 0.  0.
         12    1    1    2    0    0 -0.11981389595E+02 -0.14384341316E+02 -0.46421070213E+00  0.18726410849E+02  0.00000000000E+00 0. -1.
         11    1    3    3    0    0  0.62355551343E+01 -0.20184276792E+02  0.10396200247E+02  0.23545024045E+02  0.51100000000E-03 0. -1.
        -11    1    3    3    0    0  0.18167274112E+02  0.14985673898E+02  0.34100322137E+00  0.23552845991E+02  0.51100000000E-03 0.  1.
         12    1    3    3    0    0 -0.12421439651E+02  0.19582944210E+02 -0.10272992767E+02  0.25363719114E+02  0.00000000000E+00 0. -1.
</event>
<event>
 7    1  0.1302069E-013  0.7246154E+02  0.7816164E-02  0.1226708E+00
        -11   -1    0    0    0    0  0.00000000000E+00  0.00000000000E+00  0.45593999997E+02  0.45594000000E+02  0.51100000000E-03 0. -1.
         11   -1    0    0    0    0 -0.00000000000E+00 -0.00000000000E+00 -0.45593999997E+02  0.45594000000E+02  0.51100000000E-03 0.  1.
    9900012    2    1    2    0    0  0.24389741561E+01  0.18389891498E+02 -0.25580483217E+01  0.72461539698E+02  0.69999960143E+02 0.  0.
         12    1    1    2    0    0 -0.24389741561E+01 -0.18389891498E+02  0.25580483217E+01  0.18726460302E+02  0.00000000000E+00 0. -1.
         11    1    3    3    0    0  0.23579554953E+02  0.19784983174E+02  0.23408133176E+01  0.30869408452E+02  0.51100000000E-03 0. -1.
        -11    1    3    3    0    0 -0.22458023397E+02  0.12722945862E+02  0.18715202510E+01  0.25879311325E+02  0.51100000000E-03 0.  1.
         12    1    3    3    0    0  0.13174426007E+01 -0.14118037538E+02 -0.67703818904E+01  0.15712819921E+02  0.00000000000E+00 0. -1.
</event>
<event>
 7    1  0.1302069E-013  0.7246159E+02  0.7816164E-02  0.1226708E+00
        -11   -1    0    0    0    0  0.00000000000E+00  0.00000000000E+00  0.45593999997E+02  0.45594000000E+02  0.51100000000E-03 0.  1.
         11   -1    0    0    0    0 -0.00000000000E+00 -0.00000000000E+00 -0.45593999997E+02  0.45594000000E+02  0.51100000000E-03 0. -1.
    9900012    2    1    2    0    0 -0.50419437849E+01 -0.13524517477E+02 -0.11930822459E+02  0.72461593653E+02  0.70000030429E+02 0.  0.
         12    1    1    2    0    0  0.50419437849E+01  0.13524517477E+02  0.11930822459E+02  0.18726406347E+02  0.00000000000E+00 0. -1.
         11    1    3    3    0    0 -0.14008323892E+02  0.81316734432E+01 -0.23760593495E+02  0.28756269834E+02  0.51100000000E-03 0. -1.
        -11    1    3    3    0    0  0.87353091510E+01 -0.22039643588E+02 -0.71173277374E+01  0.24752936590E+02  0.51100000000E-03 0.  1.
        -12    1    3    3    0    0  0.23107095633E+00  0.38345266808E+00  0.18947098773E+02  0.18952387229E+02  0.00000000000E+00 0.  1.
</event>
<event>
 7    1  0.1302069E-013  0.7246163E+02  0.7816164E-02  0.1226708E+00
        -11   -1    0    0    0    0  0.00000000000E+00  0.00000000000E+00  0.45593999997E+02  0.45594000000E+02  0.51100000000E-03 0.  1.
         11   -1    0    0    0    0 -0.00000000000E+00 -0.00000000000E+00 -0.45593999997E+02  0.45594000000E+02  0.51100000000E-03 0. -1.
    9900012    2    1    2    0    0  0.30848062308E+00  0.30453189143E+01  0.18474515580E+02  0.72461632132E+02  0.70000080556E+02 0.  0.
         12    1    1    2    0    0 -0.30848062308E+00 -0.30453189143E+01 -0.18474515580E+02  0.18726367868E+02  0.00000000000E+00 0. -1.
         11    1    3    3    0    0 -0.10679507222E+02  0.11126305529E+02  0.28034816895E+01  0.15675013846E+02  0.51100000000E-03 0.  1.
        -11    1    3    3    0    0  0.26310376433E+02  0.11426481179E+02  0.27458811150E+01  0.28815624989E+02  0.51100000000E-03 0. -1.
        -12    1    3    3    0    0 -0.15322388587E+02 -0.19507467794E+02  0.12925152776E+02  0.27970993297E+02  0.00000000000E+00 0.  1.
</event>
<event>
 7    1  0.1302069E-013  0.7246160E+02  0.7816164E-02  0.1226708E+00
        -11   -1    0    0    0    0  0.00000000000E+00  0.00000000000E+00  0.45593999997E+02  0.45594000000E+02  0.51100000000E-03 0. -1.
         11   -1    0    0    0    0 -0.00000000000E+00 -0.00000000000E+00 -0.45593999997E+02  0.45594000000E+02  0.51100000000E-03 0.  1.
    9900012    2    1    2    0    0 -0.16658034171E+02 -0.29682592571E+01 -0.80235588561E+01  0.72461597191E+02  0.70000035037E+02 0.  0.
         12    1    1    2    0    0  0.16658034171E+02  0.29682592571E+01  0.80235588561E+01  0.18726402809E+02  0.00000000000E+00 0. -1.
         11    1    3    3    0    0  0.11676624249E+02  0.13701948789E+02 -0.17680260875E+02  0.25232490549E+02  0.51100000000E-03 0. -1.
        -11    1    3    3    0    0 -0.28371760596E+02  0.87921707368E+00  0.85485598245E+01  0.29644690879E+02  0.51100000000E-03 0.  1.
         12    1    3    3    0    0  0.37102175694E-01 -0.17549425119E+02  0.11081421944E+01  0.17584415763E+02  0.00000000000E+00 0. -1.
</event>
<event>
 7    1  0.1302069E-013  0.7246158E+02  0.7816164E-02  0.1226708E+00
        -11   -1    0    0    0    0  0.00000000000E+00  0.00000000000E+00  0.45593999997E+02  0.45594000000E+02  0.51100000000E-03 0. -1.
         11   -1    0    0    0    0 -0.00000000000E+00 -0.00000000000E+00 -0.45593999997E+02  0.45594000000E+02  0.51100000000E-03 0.  1.
    9900012    2    1    2    0    0 -0.13754754400E+02 -0.12629305137E+02  0.14093715554E+01  0.72461576288E+02  0.70000007808E+02 0.  0.
         12    1    1    2    0    0  0.13754754400E+02  0.12629305137E+02 -0.14093715554E+01  0.18726423712E+02  0.00000000000E+00 0. -1.
         11    1    3    3    0    0 -0.31826575822E+02 -0.12917422682E+02  0.10420703876E+02  0.35894035812E+02  0.51100000000E-03 0. -1.
        -11    1    3    3    0    0  0.12472287962E+02 -0.14422049379E+02 -0.14964371669E+01  0.19125710438E+02  0.51100000000E-03 0.  1.
         12    1    3    3    0    0  0.55995334603E+01  0.14710166924E+02 -0.75148951537E+01  0.17441830038E+02  0.00000000000E+00 0. -1.
</event>
<event>
 7    1  0.1302069E-013  0.7246150E+02  0.7816164E-02  0.1226708E+00
        -11   -1    0    0    0    0  0.00000000000E+00  0.00000000000E+00  0.45593999997E+02  0.45594000000E+02  0.51100000000E-03 0.  1.
         11   -1    0    0    0    0 -0.00000000000E+00 -0.00000000000E+00 -0.45593999997E+02  0.45594000000E+02  0.51100000000E-03 0. -1.
    9900012    2    1    2    0    0 -0.87339988208E+01  0.16151496898E+02  0.36780597097E+01  0.72461502445E+02  0.69999911614E+02 0.  0.
         12    1    1    2    0    0  0.87339988208E+01 -0.16151496898E+02 -0.36780597097E+01  0.18726497555E+02  0.00000000000E+00 0. -1.
         11    1    3    3    0    0 -0.21792843548E+01 -0.16892792722E+02 -0.82280150681E+01  0.18916023854E+02  0.51100000000E-03 0. -1.
        -11    1    3    3    0    0 -0.16212642914E+02  0.16615926053E+02  0.21997363614E+02  0.31981600884E+02  0.51100000000E-03 0.  1.
         12    1    3    3    0    0  0.96579284484E+01  0.16428363566E+02 -0.10091288837E+02  0.21563877707E+02  0.00000000000E+00 0. -1.
</event>
<event>
 7    1  0.1302069E-013  0.7246158E+02  0.7816164E-02  0.1226708E+00
        -11   -1    0    0    0    0  0.00000000000E+00  0.00000000000E+00  0.45593999997E+02  0.45594000000E+02  0.51100000000E-03 0. -1.
         11   -1    0    0    0    0 -0.00000000000E+00 -0.00000000000E+00 -0.45593999997E+02  0.45594000000E+02  0.51100000000E-03 0.  1.
    9900012    2    1    2    0    0  0.17269780079E+02  0.62129626231E+01 -0.37191976941E+01  0.72461584432E+02  0.70000018417E+02 0.  0.
         12    1    1    2    0    0 -0.17269780079E+02 -0.62129626231E+01  0.37191976941E+01  0.18726415568E+02  0.00000000000E+00 0. -1.
         11    1    3    3    0    0  0.18823676736E+02  0.26566092700E+02 -0.11773563543E+02  0.34622317744E+02  0.51100000000E-03 0. -1.
        -11    1    3    3    0    0 -0.15266712135E+02 -0.79745326376E+01  0.88179228062E+01  0.19349972431E+02  0.51100000000E-03 0.  1.
         12    1    3    3    0    0  0.13712815478E+02 -0.12378597439E+02 -0.76355695750E+00  0.18489294257E+02  0.00000000000E+00 0. -1.
</event>
<event>
 7    1  0.1302069E-013  0.7246159E+02  0.7816164E-02  0.1226708E+00
        -11   -1    0    0    0    0  0.00000000000E+00  0.00000000000E+00  0.45593999997E+02  0.45594000000E+02  0.51100000000E-03 0.  1.
         11   -1    0    0    0    0 -0.00000000000E+00 -0.00000000000E+00 -0.45593999997E+02  0.45594000000E+02  0.51100000000E-03 0. -1.
    9900012    2    1    2    0    0 -0.97168233189E+01 -0.15872153184E+02  0.20824560930E+01  0.72461587490E+02  0.70000022400E+02 0.  0.
         12    1    1    2    0    0  0.97168233189E+01  0.15872153184E+02 -0.20824560930E+01  0.18726412510E+02  0.00000000000E+00 0. -1.
         11    1    3    3    0    0  0.41667268519E+01  0.11846627285E+02  0.16629719893E+02  0.20838708566E+02  0.51100000000E-03 0. -1.
        -11    1    3    3    0    0 -0.15633594137E+02 -0.30631487631E+02  0.22705285680E+01  0.34465237564E+02  0.51100000000E-03 0.  1.
         12    1    3    3    0    0  0.17500439662E+01  0.29127071609E+01 -0.16817792368E+02  0.17157641360E+02  0.00000000000E+00 0. -1.
</event>
<event>
 7    1  0.1302069E-013  0.7246153E+02  0.7816164E-02  0.1226708E+00
        -11   -1    0    0    0    0  0.00000000000E+00  0.00000000000E+00  0.45593999997E+02  0.45594000000E+02  0.51100000000E-03 0. -1.
         11   -1    0    0    0    0 -0.00000000000E+00 -0.00000000000E+00 -0.45593999997E+02  0.45594000000E+02  0.51100000000E-03 0.  1.
    9900012    2    1    2    0    0 -0.33207199332E+01  0.11846853063E+02 -0.14117565437E+02  0.72461527768E+02  0.69999944602E+02 0.  0.
         12    1    1    2    0    0  0.33207199332E+01 -0.11846853063E+02  0.14117565437E+02  0.18726472232E+02  0.00000000000E+00 0. -1.
         11    1    3    3    0    0  0.22487866046E+02  0.77349446737E+01 -0.98881319255E+01  0.25754779006E+02  0.51100000000E-03 0.  1.
        -11    1    3    3    0    0 -0.20379209637E+02  0.20599683705E+02 -0.65741963252E+00  0.28984329473E+02  0.51100000000E-03 0. -1.
         12    1    3    3    0    0 -0.54293763418E+01 -0.16487775315E+02 -0.35720138794E+01  0.17722419289E+02  0.00000000000E+00 0. -1.
</event>
<event>
 7    1  0.1302069E-013  0.7246158E+02  0.7816164E-02  0.1226708E+00
        -11   -1    0    0    0    0  0.00000000000E+00  0.00000000000E+00  0.45593999997E+02  0.45594000000E+02  0.51100000000E-03 0.  1.
         11   -1    0    0    0    0 -0.00000000000E+00 -0.00000000000E+00 -0.45593999997E+02  0.45594000000E+02  0.51100000000E-03 0. -1.
    9900012    2    1    2    0    0 -0.13915070846E+02 -0.12507713213E+02 -0.77899987878E+00  0.72461576762E+02  0.70000008426E+02 0.  0.
         12    1    1    2    0    0  0.13915070846E+02  0.12507713213E+02  0.77899987878E+00  0.18726423238E+02  0.00000000000E+00 0. -1.
         11    1    3    3    0    0 -0.73444430352E+01  0.14921861615E+02 -0.17364867737E+02  0.24044571723E+02  0.51100000000E-03 0. -1.
        -11    1    3    3    0    0 -0.24078363741E+01 -0.28924454710E+02 -0.22092473464E+01  0.29108461491E+02  0.51100000000E-03 0.  1.
         12    1    3    3    0    0 -0.41627914366E+01  0.14948798813E+01  0.18795115205E+02  0.19308543549E+02  0.00000000000E+00 0. -1.
</event>
<event>
 7    1  0.1302069E-013  0.7246159E+02  0.7816164E-02  0.1226708E+00
        -11   -1    0    0    0    0  0.00000000000E+00  0.00000000000E+00  0.45593999997E+02  0.45594000000E+02  0.51100000000E-03 0. -1.
         11   -1    0    0    0    0 -0.00000000000E+00 -0.00000000000E+00 -0.45593999997E+02  0.45594000000E+02  0.51100000000E-03 0.  1.
    9900012    2    1    2    0    0  0.11380457615E+02  0.11634134428E+02 -0.92634007428E+01  0.72461588364E+02  0.70000023540E+02 0.  0.
         12    1    1    2    0    0 -0.11380457615E+02 -0.11634134428E+02  0.92634007428E+01  0.18726411636E+02  0.00000000000E+00 0. -1.
         11    1    3    3    0    0  0.16718174199E+02  0.19744187625E+02 -0.24028087714E+02  0.35308345939E+02  0.51100000000E-03 0.  1.
        -11    1    3    3    0    0 -0.16205748378E+02 -0.14157030002E+02  0.77318788381E+01  0.22865470247E+02  0.51100000000E-03 0. -1.
         12    1    3    3    0    0  0.10868031794E+02  0.60469768057E+01  0.70328081335E+01  0.14287772178E+02  0.00000000000E+00 0. -1.
</event>
<event>
 7    1  0.1302069E-013  0.7246151E+02  0.7816164E-02  0.1226708E+00
        -11   -1    0    0    0    0  0.00000000000E+00  0.00000000000E+00  0.45593999997E+02  0.45594000000E+02  0.51100000000E-03 0.  1.
         11   -1    0    0    0    0 -0.00000000000E+00 -0.00000000000E+00 -0.45593999997E+02  0.45594000000E+02  0.51100000000E-03 0. -1.
    9900012    2    1    2    0    0 -0.63740156572E+01 -0.70187330362E+01  0.16149016584E+02  0.72461510055E+02  0.69999921527E+02 0.  0.
         12    1    1    2    0    0  0.63740156572E+01  0.70187330362E+01 -0.16149016584E+02  0.18726489945E+02  0.00000000000E+00 0. -1.
         11    1    3    3    0    0 -0.13498248809E+02  0.11472690572E+02 -0.31614904993E+01  0.17995009650E+02  0.51100000000E-03 0.  1.
        -11    1    3    3    0    0  0.13073005361E+01 -0.22722058542E+02 -0.95803091407E+01  0.24693790769E+02  0.51100000000E-03 0. -1.
         12    1    3    3    0    0  0.58169326154E+01  0.42306349332E+01  0.28890816224E+02  0.29772709636E+02  0.00000000000E+00 0. -1.
</event>
<event>
 7    1  0.1302069E-013  0.7246191E+02  0.7816164E-02  0.1226707E+00
        -11   -1    0    0    0    0  0.00000000000E+00  0.00000000000E+00  0.45593999997E+02  0.45594000000E+02  0.51100000000E-03 0. -1.
         11   -1    0    0    0    0 -0.00000000000E+00 -0.00000000000E+00 -0.45593999997E+02  0.45594000000E+02  0.51100000000E-03 0.  1.
    9900012    2    1    2    0    0 -0.47705555312E+01 -0.17356631014E+02 -0.51628928354E+01  0.72461913846E+02  0.70000447538E+02 0.  0.
         12    1    1    2    0    0  0.47705555312E+01  0.17356631014E+02  0.51628928354E+01  0.18726086154E+02  0.00000000000E+00 0. -1.
         11    1    3    3    0    0 -0.46786002857E+01 -0.91618429830E+01 -0.32613432974E+02  0.34197436718E+02  0.51100000000E-03 0.  1.
        -11    1    3    3    0    0 -0.43176441936E+01  0.84387921354E+01  0.91247941514E+01  0.13157398400E+02  0.51100000000E-03 0. -1.
         12    1    3    3    0    0  0.42256889481E+01 -0.16633580166E+02  0.18325745988E+02  0.25107078728E+02  0.00000000000E+00 0. -1.
</event>
<event>
 7    1  0.1302069E-013  0.7246152E+02  0.7816164E-02  0.1226708E+00
        -11   -1    0    0    0    0  0.00000000000E+00  0.00000000000E+00  0.45593999997E+02  0.45594000000E+02  0.51100000000E-03 0. -1.
         11   -1    0    0    0    0 -0.00000000000E+00 -0.00000000000E+00 -0.45593999997E+02  0.45594000000E+02  0.51100000000E-03 0.  1.
    9900012    2    1    2    0    0 -0.27431799609E+01 -0.17501067837E+02  0.60719699869E+01  0.72461515246E+02  0.69999928289E+02 0.  0.
         12    1    1    2    0    0  0.27431799609E+01  0.17501067837E+02 -0.60719699869E+01  0.18726484754E+02  0.00000000000E+00 0. -1.
         11    1    3    3    0    0  0.56470442070E+01 -0.36209132719E+02 -0.11370170919E+01  0.36664467931E+02  0.51100000000E-03 0. -1.
        -11    1    3    3    0    0 -0.44501520094E+01  0.14760316681E+02 -0.95496196805E+01  0.18134663982E+02  0.51100000000E-03 0.  1.
         12    1    3    3    0    0 -0.39400721585E+01  0.39477482008E+01  0.16758606759E+02  0.17662383332E+02  0.00000000000E+00 0. -1.
</event>
<event>
 7    1  0.1302069E-013  0.7246117E+02  0.7816164E-02  0.1226709E+00
        -11   -1    0    0    0    0  0.00000000000E+00  0.00000000000E+00  0.45593999997E+02  0.45594000000E+02  0.51100000000E-03 0.  1.
         11   -1    0    0    0    0 -0.00000000000E+00 -0.00000000000E+00 -0.45593999997E+02  0.45594000000E+02  0.51100000000E-03 0. -1.
    9900012    2    1    2    0    0 -0.15286239304E+02  0.53672314946E+01  0.93924294037E+01  0.72461173892E+02  0.69999483610E+02 0.  0.
         12    1    1    2    0    0  0.15286239304E+02 -0.53672314946E+01 -0.93924294037E+01  0.18726826108E+02  0.00000000000E+00 0. -1.
         11    1    3    3    0    0 -0.30763246486E+02  0.18725751468E+02  0.48449861063E+00  0.36017576842E+02  0.51100000000E-03 0.  1.
        -11    1    3    3    0    0  0.23563749306E+02 -0.11104227816E+02  0.10150876670E+02  0.27957010824E+02  0.51100000000E-03 0. -1.
        -12    1    3    3    0    0 -0.80867421242E+01 -0.22542921571E+01 -0.12429458774E+01  0.84865862257E+01  0.00000000000E+00 0.  1.
</event>
<event>
 7    1  0.1302069E-013  0.7246158E+02  0.7816164E-02  0.1226708E+00
        -11   -1    0    0    0    0  0.00000000000E+00  0.00000000000E+00  0.45593999997E+02  0.45594000000E+02  0.51100000000E-03 0. -1.
         11   -1    0    0    0    0 -0.00000000000E+00 -0.00000000000E+00 -0.45593999997E+02  0.45594000000E+02  0.51100000000E-03 0.  1.
    9900012    2    1    2    0    0  0.17096717148E+02  0.66408904694E+01  0.37788173072E+01  0.72461584868E+02  0.70000018984E+02 0.  0.
         12    1    1    2    0    0 -0.17096717148E+02 -0.66408904694E+01 -0.37788173072E+01  0.18726415132E+02  0.00000000000E+00 0. -1.
         11    1    3    3    0    0  0.20205664928E+02  0.32121804307E+01  0.11319953651E+02  0.23382222932E+02  0.51100000000E-03 0. -1.
        -11    1    3    3    0    0 -0.17801952955E+02  0.73939796375E+01 -0.21183406390E+02  0.28641179627E+02  0.51100000000E-03 0.  1.
        -12    1    3    3    0    0  0.14693005176E+02 -0.39652695988E+01  0.13642270046E+02  0.20438182309E+02  0.00000000000E+00 0.  1.
</event>
<event>
 7    1  0.1302069E-013  0.7246164E+02  0.7816164E-02  0.1226708E+00
        -11   -1    0    0    0    0  0.00000000000E+00  0.00000000000E+00  0.45593999997E+02  0.45594000000E+02  0.51100000000E-03 0. -1.
         11   -1    0    0    0    0 -0.00000000000E+00 -0.00000000000E+00 -0.45593999997E+02  0.45594000000E+02  0.51100000000E-03 0.  1.
    9900012    2    1    2    0    0  0.94569598858E+01  0.15955197860E+02 -0.25834432499E+01  0.72461638686E+02  0.70000089093E+02 0.  0.
         12    1    1    2    0    0 -0.94569598858E+01 -0.15955197860E+02  0.25834432499E+01  0.18726361314E+02  0.00000000000E+00 0. -1.
         11    1    3    3    0    0 -0.14105857461E+01  0.20875138982E+02  0.20109524200E+02  0.29019892203E+02  0.51100000000E-03 0. -1.
        -11    1    3    3    0    0 -0.25842190856E+01 -0.39833550706E+00 -0.28125006116E+02  0.28246288760E+02  0.51100000000E-03 0.  1.
         12    1    3    3    0    0  0.13451764718E+02 -0.45216056148E+01  0.54320386656E+01  0.15195457723E+02  0.00000000000E+00 0. -1.
</event>
<event>
 7    1  0.1302069E-013  0.7246153E+02  0.7816164E-02  0.1226708E+00
        -11   -1    0    0    0    0  0.00000000000E+00  0.00000000000E+00  0.45593999997E+02  0.45594000000E+02  0.51100000000E-03 0.  1.
         11   -1    0    0    0    0 -0.00000000000E+00 -0.00000000000E+00 -0.45593999997E+02  0.45594000000E+02  0.51100000000E-03 0. -1.
    9900012    2    1    2    0    0 -0.16133412722E+02 -0.93650560080E+01  0.16399875198E+01  0.72461525715E+02  0.69999941927E+02 0.  0.
         12    1    1    2    0    0  0.16133412722E+02  0.93650560080E+01 -0.16399875198E+01  0.18726474285E+02  0.00000000000E+00 0. -1.
         11    1    3    3    0    0  0.24767502828E+01  0.19104961819E+02 -0.10460614847E+02  0.21921640479E+02  0.51100000000E-03 0. -1.
        -11    1    3    3    0    0 -0.24893299525E+02 -0.61509820391E+01  0.88516783052E+01  0.27126797643E+02  0.51100000000E-03 0.  1.
         12    1    3    3    0    0  0.62831365204E+01 -0.22319035788E+02  0.32489240621E+01  0.23413087592E+02  0.00000000000E+00 0. -1.
</event>
<event>
 7    1  0.1302069E-013  0.7246157E+02  0.7816164E-02  0.1226708E+00
        -11   -1    0    0    0    0  0.00000000000E+00  0.00000000000E+00  0.45593999997E+02  0.45594000000E+02  0.51100000000E-03 0.  1.
         11   -1    0    0    0    0 -0.00000000000E+00 -0.00000000000E+00 -0.45593999997E+02  0.45594000000E+02  0.51100000000E-03 0. -1.
    9900012    2    1    2    0    0  0.13385699603E+02  0.57155343962E+01  0.11782823334E+02  0.72461569133E+02  0.69999998487E+02 0.  0.
         12    1    1    2    0    0 -0.13385699603E+02 -0.57155343962E+01 -0.11782823334E+02  0.18726430867E+02  0.00000000000E+00 0. -1.
         11    1    3    3    0    0  0.12740810864E+02  0.17535448607E+01 -0.27572225163E+02  0.30424180872E+02  0.51100000000E-03 0. -1.
        -11    1    3    3    0    0  0.41951928433E+01 -0.41543629069E+01  0.16601124142E+02  0.17619753040E+02  0.51100000000E-03 0.  1.
         12    1    3    3    0    0 -0.35503041037E+01  0.81163524425E+01  0.22753924355E+02  0.24417635220E+02  0.00000000000E+00 0. -1.
</event>
<event>
 7    1  0.1302069E-013  0.7246132E+02  0.7816164E-02  0.1226709E+00
        -11   -1    0    0    0    0  0.00000000000E+00  0.00000000000E+00  0.45593999997E+02  0.45594000000E+02  0.51100000000E-03 0. -1.
         11   -1    0    0    0    0 -0.00000000000E+00 -0.00000000000E+00 -0.45593999997E+02  0.45594000000E+02  0.51100000000E-03 0.  1.
    9900012    2    1    2    0    0 -0.11963911615E+02 -0.10162790713E+02  0.10211322113E+02  0.72461318620E+02  0.69999672147E+02 0.  0.
         12    1    1    2    0    0  0.11963911615E+02  0.10162790713E+02 -0.10211322113E+02  0.18726681380E+02  0.00000000000E+00 0. -1.
         11    1    3    3    0    0 -0.29496572755E+02  0.17102442853E+02  0.12551316942E+01  0.34119154615E+02  0.51100000000E-03 0. -1.
        -11    1    3    3    0    0  0.60225630767E+01 -0.22762153962E+02  0.10695451385E+02  0.25860773375E+02  0.51100000000E-03 0.  1.
         12    1    3    3    0    0  0.11510098063E+02 -0.45030796043E+01 -0.17392609657E+01  0.12481390629E+02  0.00000000000E+00 0. -1.
</event>
<event>
 7    1  0.1302069E-013  0.7246157E+02  0.7816164E-02  0.1226708E+00
        -11   -1    0    0    0    0  0.00000000000E+00  0.00000000000E+00  0.45593999997E+02  0.45594000000E+02  0.51100000000E-03 0. -1.
         11   -1    0    0    0    0 -0.00000000000E+00 -0.00000000000E+00 -0.45593999997E+02  0.45594000000E+02  0.51100000000E-03 0.  1.
    9900012    2    1    2    0    0  0.13948231024E+02 -0.90393209817E+00 -0.12462298442E+02  0.72461571499E+02  0.70000001569E+02 0.  0.
         12    1    1    2    0    0 -0.13948231024E+02  0.90393209817E+00  0.12462298442E+02  0.18726428501E+02  0.00000000000E+00 0. -1.
         11    1    3    3    0    0 -0.15573287829E+02  0.21209645740E+02  0.61484788888E+01  0.27021845961E+02  0.51100000000E-03 0. -1.
        -11    1    3    3    0    0  0.16434939736E+02 -0.33811119633E+01 -0.14095673071E+01  0.16838231572E+02  0.51100000000E-03 0.  1.
         12    1    3    3    0    0  0.13086579118E+02 -0.18732465875E+02 -0.17201210024E+02  0.28601493966E+02  0.00000000000E+00 0. -1.
</event>
<event>
 7    1  0.1302069E-013  0.7246156E+02  0.7816164E-02  0.1226708E+00
        -11   -1    0    0    0    0  0.00000000000E+00  0.00000000000E+00  0.45593999997E+02  0.45594000000E+02  0.51100000000E-03 0.  1.
         11   -1    0    0    0    0 -0.00000000000E+00 -0.00000000000E+00 -0.45593999997E+02  0.45594000000E+02  0.51100000000E-03 0. -1.
    9900012    2    1    2    0    0  0.19578902915E+01  0.97135391679E+00  0.18598464035E+02  0.72461555402E+02  0.69999980600E+02 0.  0.
         12    1    1    2    0    0 -0.19578902915E+01 -0.97135391679E+00 -0.18598464035E+02  0.18726444598E+02  0.00000000000E+00 0. -1.
         11    1    3    3    0    0 -0.88781557840E+01  0.83687069250E+01  0.44601703894E+01  0.12990382053E+02  0.51100000000E-03 0. -1.
        -11    1    3    3    0    0 -0.17544434032E+01 -0.15676514039E+02 -0.18025166655E+02  0.23952824412E+02  0.51100000000E-03 0.  1.
        -12    1    3    3    0    0  0.12590489479E+02  0.82791610311E+01  0.32163460301E+02  0.35518348937E+02  0.00000000000E+00 0.  1.
</event>
<event>
 7    1  0.1302069E-013  0.7246128E+02  0.7816164E-02  0.1226709E+00
        -11   -1    0    0    0    0  0.00000000000E+00  0.00000000000E+00  0.45593999997E+02  0.45594000000E+02  0.51100000000E-03 0.  1.
         11   -1    0    0    0    0 -0.00000000000E+00 -0.00000000000E+00 -0.45593999997E+02  0.45594000000E+02  0.51100000000E-03 0. -1.
    9900012    2    1    2    0    0  0.19880522200E+01  0.12729924145E+02  0.13589944168E+02  0.72461283714E+02  0.69999626675E+02 0.  0.
         12    1    1    2    0    0 -0.19880522200E+01 -0.12729924145E+02 -0.13589944168E+02  0.18726716286E+02  0.00000000000E+00 0. -1.
         11    1    3    3    0    0  0.71901033619E+01 -0.10994105588E+02  0.12947004600E+02  0.18444318161E+02  0.51100000000E-03 0. -1.
        -11    1    3    3    0    0 -0.71747394456E+01  0.22422536820E+02 -0.21419490809E+02  0.31828314916E+02  0.51100000000E-03 0.  1.
        -12    1    3    3    0    0  0.19726883036E+01  0.13014929132E+01  0.22062430377E+02  0.22188650637E+02  0.00000000000E+00 0.  1.
</event>
<event>
 7    1  0.1302069E-013  0.7246156E+02  0.7816164E-02  0.1226708E+00
        -11   -1    0    0    0    0  0.00000000000E+00  0.00000000000E+00  0.45593999997E+02  0.45594000000E+02  0.51100000000E-03 0.  1.
         11   -1    0    0    0    0 -0.00000000000E+00 -0.00000000000E+00 -0.45593999997E+02  0.45594000000E+02  0.51100000000E-03 0. -1.
    9900012    2    1    2    0    0  0.77639687613E+01  0.43675936722E+01  0.16471934055E+02  0.72461556212E+02  0.69999981656E+02 0.  0.
         12    1    1    2    0    0 -0.77639687613E+01 -0.43675936722E+01 -0.16471934055E+02  0.18726443788E+02  0.00000000000E+00 0. -1.
         11    1    3    3    0    0 -0.21515059758E+02  0.10531606689E+02 -0.14011123119E+02  0.27751110017E+02  0.51100000000E-03 0. -1.
        -11    1    3    3    0    0  0.12684204840E+02 -0.20107073419E+01  0.45129192264E+01  0.13612436837E+02  0.51100000000E-03 0.  1.
         12    1    3    3    0    0  0.16594823679E+02 -0.41533056751E+01  0.25970137948E+02  0.31098009358E+02  0.00000000000E+00 0. -1.
</event>
<event>
 7    1  0.1302069E-013  0.7246155E+02  0.7816164E-02  0.1226708E+00
        -11   -1    0    0    0    0  0.00000000000E+00  0.00000000000E+00  0.45593999997E+02  0.45594000000E+02  0.51100000000E-03 0.  1.
         11   -1    0    0    0    0 -0.00000000000E+00 -0.00000000000E+00 -0.45593999997E+02  0.45594000000E+02  0.51100000000E-03 0. -1.
    9900012    2    1    2    0    0  0.76835538568E+01 -0.80683358194E+01  0.15051403593E+02  0.72461553650E+02  0.69999978318E+02 0.  0.
         12    1    1    2    0    0 -0.76835538568E+01  0.80683358194E+01 -0.15051403593E+02  0.18726446350E+02  0.00000000000E+00 0. -1.
         11    1    3    3    0    0  0.30612355247E+02 -0.75114046236E+01  0.23188088260E+02  0.39130869280E+02  0.51100000000E-03 0. -1.
        -11    1    3    3    0    0 -0.62568817441E+01  0.10241912230E+02 -0.58003694669E+01  0.13330027063E+02  0.51100000000E-03 0.  1.
         12    1    3    3    0    0 -0.16671919646E+02 -0.10798843426E+02 -0.23363151994E+01  0.20000657308E+02  0.00000000000E+00 0. -1.
</event>
<event>
 7    1  0.1302069E-013  0.7246158E+02  0.7816164E-02  0.1226708E+00
        -11   -1    0    0    0    0  0.00000000000E+00  0.00000000000E+00  0.45593999997E+02  0.45594000000E+02  0.51100000000E-03 0. -1.
         11   -1    0    0    0    0 -0.00000000000E+00 -0.00000000000E+00 -0.45593999997E+02  0.45594000000E+02  0.51100000000E-03 0.  1.
    9900012    2    1    2    0    0  0.18548122321E+01 -0.13820796978E+02 -0.12498968359E+02  0.72461575686E+02  0.70000007024E+02 0.  0.
         12    1    1    2    0    0 -0.18548122321E+01  0.13820796978E+02  0.12498968359E+02  0.18726424314E+02  0.00000000000E+00 0. -1.
         11    1    3    3    0    0  0.15566919608E+02  0.96209663655E+01 -0.14548737906E+02  0.23378574696E+02  0.51100000000E-03 0.  1.
        -11    1    3    3    0    0 -0.15561945584E+02 -0.66351104540E+01  0.18794187233E+02  0.25286761657E+02  0.51100000000E-03 0. -1.
         12    1    3    3    0    0  0.18498382078E+01 -0.16806652890E+02 -0.16744417686E+02  0.23796239333E+02  0.00000000000E+00 0. -1.
</event>
<event>
 7    1  0.1302069E-013  0.7246161E+02  0.7816164E-02  0.1226708E+00
        -11   -1    0    0    0    0  0.00000000000E+00  0.00000000000E+00  0.45593999997E+02  0.45594000000E+02  0.51100000000E-03 0. -1.
         11   -1    0    0    0    0 -0.00000000000E+00 -0.00000000000E+00 -0.45593999997E+02  0.45594000000E+02  0.51100000000E-03 0.  1.
    9900012    2    1    2    0    0 -0.32247060014E+01  0.18033631198E+02 -0.38816275702E+01  0.72461611785E+02  0.70000054050E+02 0.  0.
         12    1    1    2    0    0  0.32247060014E+01 -0.18033631198E+02  0.38816275702E+01  0.18726388215E+02  0.00000000000E+00 0. -1.
         11    1    3    3    0    0  0.28284739422E+02  0.22096251808E+02  0.57230159748E+01  0.36345890280E+02  0.51100000000E-03 0. -1.
        -11    1    3    3    0    0 -0.17383576320E+02 -0.90071327103E+01 -0.32069683226E+01  0.19839400481E+02  0.51100000000E-03 0.  1.
         12    1    3    3    0    0 -0.14125869104E+02  0.49445121003E+01 -0.63976752224E+01  0.16276321024E+02  0.00000000000E+00 0. -1.
</event>
<event>
 7    1  0.1302069E-013  0.7246160E+02  0.7816164E-02  0.1226708E+00
        -11   -1    0    0    0    0  0.00000000000E+00  0.00000000000E+00  0.45593999997E+02  0.45594000000E+02  0.51100000000E-03 0. -1.
         11   -1    0    0    0    0 -0.00000000000E+00 -0.00000000000E+00 -0.45593999997E+02  0.45594000000E+02  0.51100000000E-03 0.  1.
    9900012    2    1    2    0    0 -0.16699922916E+02 -0.73500869626E+01  0.42150792849E+01  0.72461598928E+02  0.70000037300E+02 0.  0.
         12    1    1    2    0    0  0.16699922916E+02  0.73500869626E+01 -0.42150792849E+01  0.18726401072E+02  0.00000000000E+00 0. -1.
         11    1    3    3    0    0 -0.99549015038E+01  0.23946583945E+02 -0.34839564205E+01  0.26166331405E+02  0.51100000000E-03 0. -1.
        -11    1    3    3    0    0 -0.16792434595E+02 -0.11975229543E+02 -0.48129740268E+01  0.21179157242E+02  0.51100000000E-03 0.  1.
         12    1    3    3    0    0  0.10047413184E+02 -0.19321441365E+02  0.12512009732E+02  0.25116110281E+02  0.00000000000E+00 0. -1.
</event>
<event>
 7    1  0.1302069E-013  0.7246158E+02  0.7816164E-02  0.1226708E+00
        -11   -1    0    0    0    0  0.00000000000E+00  0.00000000000E+00  0.45593999997E+02  0.45594000000E+02  0.51100000000E-03 0. -1.
         11   -1    0    0    0    0 -0.00000000000E+00 -0.00000000000E+00 -0.45593999997E+02  0.45594000000E+02  0.51100000000E-03 0.  1.
    9900012    2    1    2    0    0  0.27674464874E+00 -0.18685163894E+02 -0.12112142701E+01  0.72461575425E+02  0.70000006684E+02 0.  0.
         12    1    1    2    0    0 -0.27674464874E+00  0.18685163894E+02  0.12112142701E+01  0.18726424575E+02  0.00000000000E+00 0. -1.
         11    1    3    3    0    0 -0.18991630808E+02 -0.23979098203E+01  0.77071840729E+01  0.20635714158E+02  0.51100000000E-03 0. -1.
        -11    1    3    3    0    0  0.22235527655E+02  0.10143377438E+02 -0.49234044311E+01  0.24930838481E+02  0.51100000000E-03 0.  1.
        -12    1    3    3    0    0 -0.29671521982E+01 -0.26430631512E+02 -0.39949939119E+01  0.26895022785E+02  0.00000000000E+00 0.  1.
</event>
<event>
 7    1  0.1302069E-013  0.7246158E+02  0.7816164E-02  0.1226708E+00
        -11   -1    0    0    0    0  0.00000000000E+00  0.00000000000E+00  0.45593999997E+02  0.45594000000E+02  0.51100000000E-03 0.  1.
         11   -1    0    0    0    0 -0.00000000000E+00 -0.00000000000E+00 -0.45593999997E+02  0.45594000000E+02  0.51100000000E-03 0. -1.
    9900012    2    1    2    0    0  0.90313735295E+01 -0.13364687090E+02 -0.95130509694E+01  0.72461582628E+02  0.70000016067E+02 0.  0.
         12    1    1    2    0    0 -0.90313735295E+01  0.13364687090E+02  0.95130509694E+01  0.18726417372E+02  0.00000000000E+00 0. -1.
         11    1    3    3    0    0  0.76700948139E+01  0.13709445829E+02 -0.25851670675E+02  0.30250423738E+02  0.51100000000E-03 0. -1.
        -11    1    3    3    0    0  0.56553705645E+01 -0.22177862353E+02  0.23312156377E+02  0.32669518362E+02  0.51100000000E-03 0.  1.
        -12    1    3    3    0    0 -0.42940918489E+01 -0.48962705656E+01 -0.69735366714E+01  0.95416405280E+01  0.00000000000E+00 0.  1.
</event>
<event>
 7    1  0.1302069E-013  0.7246155E+02  0.7816164E-02  0.1226708E+00
        -11   -1    0    0    0    0  0.00000000000E+00  0.00000000000E+00  0.45593999997E+02  0.45594000000E+02  0.51100000000E-03 0. -1.
         11   -1    0    0    0    0 -0.00000000000E+00 -0.00000000000E+00 -0.45593999997E+02  0.45594000000E+02  0.51100000000E-03 0.  1.
    9900012    2    1    2    0    0  0.16625785996E+02  0.48854947867E+01  0.70989472572E+01  0.72461551552E+02  0.69999975585E+02 0.  0.
         12    1    1    2    0    0 -0.16625785996E+02 -0.48854947867E+01 -0.70989472572E+01  0.18726448448E+02  0.00000000000E+00 0. -1.
         11    1    3    3    0    0  0.17309218657E+01  0.44375612686E+01  0.14392157715E+02  0.15159889329E+02  0.51100000000E-03 0. -1.
        -11    1    3    3    0    0  0.27566952223E+02 -0.15979787425E+02 -0.14937097536E+02  0.35191012263E+02  0.51100000000E-03 0.  1.
        -12    1    3    3    0    0 -0.12672088092E+02  0.16427720943E+02  0.76438870786E+01  0.22110649961E+02  0.00000000000E+00 0.  1.
</event>
<event>
 7    1  0.1302069E-013  0.7246084E+02  0.7816164E-02  0.1226710E+00
        -11   -1    0    0    0    0  0.00000000000E+00  0.00000000000E+00  0.45593999997E+02  0.45594000000E+02  0.51100000000E-03 0.  1.
         11   -1    0    0    0    0 -0.00000000000E+00 -0.00000000000E+00 -0.45593999997E+02  0.45594000000E+02  0.51100000000E-03 0. -1.
    9900012    2    1    2    0    0 -0.15159796691E+02 -0.10947946012E+02 -0.10147126367E+01  0.72460837927E+02  0.69999045949E+02 0.  0.
         12    1    1    2    0    0  0.15159796691E+02  0.10947946012E+02  0.10147126367E+01  0.18727162073E+02  0.00000000000E+00 0. -1.
         11    1    3    3    0    0  0.34566463029E+01  0.44132050976E+01  0.26306098179E+02  0.26896757882E+02  0.51100000000E-03 0.  1.
        -11    1    3    3    0    0 -0.10088642587E+02 -0.22932504207E+02 -0.19188011002E+02  0.31557253127E+02  0.51100000000E-03 0. -1.
        -12    1    3    3    0    0 -0.85278004065E+01  0.75713530976E+01 -0.81327998134E+01  0.14006826918E+02  0.00000000000E+00 0.  1.
</event>
<event>
 7    1  0.1302069E-013  0.7246154E+02  0.7816164E-02  0.1226708E+00
        -11   -1    0    0    0    0  0.00000000000E+00  0.00000000000E+00  0.45593999997E+02  0.45594000000E+02  0.51100000000E-03 0.  1.
         11   -1    0    0    0    0 -0.00000000000E+00 -0.00000000000E+00 -0.45593999997E+02  0.45594000000E+02  0.51100000000E-03 0. -1.
    9900012    2    1    2    0    0  0.15777156151E+01 -0.12421700484E+02  0.13924524679E+02  0.72461542326E+02  0.69999963566E+02 0.  0.
         12    1    1    2    0    0 -0.15777156151E+01  0.12421700484E+02 -0.13924524679E+02  0.18726457674E+02  0.00000000000E+00 0. -1.
         11    1    3    3    0    0  0.26363181638E+02 -0.17784937792E+02  0.24240009767E+02  0.39986240535E+02  0.51100000000E-03 0. -1.
        -11    1    3    3    0    0 -0.11135478554E+01  0.54647481990E+01  0.18295065922E+01  0.58694596290E+01  0.51100000000E-03 0.  1.
         12    1    3    3    0    0 -0.23671918168E+02 -0.10151089118E+00 -0.12144991680E+02  0.26605842161E+02  0.00000000000E+00 0. -1.
</event>
<event>
 7    1  0.1302069E-013  0.7246158E+02  0.7816164E-02  0.1226708E+00
        -11   -1    0    0    0    0  0.00000000000E+00  0.00000000000E+00  0.45593999997E+02  0.45594000000E+02  0.51100000000E-03 0.  1.
         11   -1    0    0    0    0 -0.00000000000E+00 -0.00000000000E+00 -0.45593999997E+02  0.45594000000E+02  0.51100000000E-03 0. -1.
    9900012    2    1    2    0    0 -0.80523210723E+01  0.14960422584E+02 -0.78755808710E+01  0.72461577688E+02  0.70000009632E+02 0.  0.
         12    1    1    2    0    0  0.80523210723E+01 -0.14960422584E+02  0.78755808710E+01  0.18726422312E+02  0.00000000000E+00 0. -1.
         11    1    3    3    0    0 -0.87598261045E+01  0.51389344129E+01  0.42863841077E+01  0.11023442714E+02  0.51100000000E-03 0.  1.
        -11    1    3    3    0    0  0.29704908808E+02  0.95459984290E+01 -0.71432881048E+01  0.32008346700E+02  0.51100000000E-03 0. -1.
        -12    1    3    3    0    0 -0.28997403775E+02  0.27548974206E+00 -0.50186768739E+01  0.29429788274E+02  0.00000000000E+00 0.  1.
</event>
<event>
 7    1  0.1302069E-013  0.7246156E+02  0.7816164E-02  0.1226708E+00
        -11   -1    0    0    0    0  0.00000000000E+00  0.00000000000E+00  0.45593999997E+02  0.45594000000E+02  0.51100000000E-03 0.  1.
         11   -1    0    0    0    0 -0.00000000000E+00 -0.00000000000E+00 -0.45593999997E+02  0.45594000000E+02  0.51100000000E-03 0. -1.
    9900012    2    1    2    0    0 -0.36132772404E+01 -0.83657202211E+01  0.16359655630E+02  0.72461564686E+02  0.69999992694E+02 0.  0.
         12    1    1    2    0    0  0.36132772404E+01  0.83657202211E+01 -0.16359655630E+02  0.18726435314E+02  0.00000000000E+00 0. -1.
         11    1    3    3    0    0 -0.24332164481E+01 -0.11142276695E+02 -0.18753929153E+02  0.21949504121E+02  0.51100000000E-03 0. -1.
        -11    1    3    3    0    0  0.50435344333E+01  0.18338439159E+02  0.14335463272E+02  0.23816823840E+02  0.51100000000E-03 0.  1.
        -12    1    3    3    0    0 -0.62235952256E+01 -0.15561882685E+02  0.20778121511E+02  0.26695236725E+02  0.00000000000E+00 0.  1.
</event>
<event>
 7    1  0.1302069E-013  0.7246162E+02  0.7816164E-02  0.1226708E+00
        -11   -1    0    0    0    0  0.00000000000E+00  0.00000000000E+00  0.45593999997E+02  0.45594000000E+02  0.51100000000E-03 0.  1.
         11   -1    0    0    0    0 -0.00000000000E+00 -0.00000000000E+00 -0.45593999997E+02  0.45594000000E+02  0.51100000000E-03 0. -1.
    9900012    2    1    2    0    0 -0.44944663465E+01 -0.95756181592E+01  0.15452660062E+02  0.72461617705E+02  0.70000061761E+02 0.  0.
         12    1    1    2    0    0  0.44944663465E+01  0.95756181592E+01 -0.15452660062E+02  0.18726382295E+02  0.00000000000E+00 0. -1.
         11    1    3    3    0    0  0.52354711286E+01  0.18981281812E+01 -0.11456467986E+02  0.12738277258E+02  0.51100000000E-03 0. -1.
        -11    1    3    3    0    0 -0.55801331193E+01  0.18835213005E+02  0.20643384397E+02  0.28496534074E+02  0.51100000000E-03 0.  1.
        -12    1    3    3    0    0 -0.41498043558E+01 -0.30308959345E+02  0.62657436501E+01  0.31226806373E+02  0.00000000000E+00 0.  1.
</event>
<event>
 7    1  0.1302069E-013  0.7246157E+02  0.7816164E-02  0.1226708E+00
        -11   -1    0    0    0    0  0.00000000000E+00  0.00000000000E+00  0.45593999997E+02  0.45594000000E+02  0.51100000000E-03 0. -1.
         11   -1    0    0    0    0 -0.00000000000E+00 -0.00000000000E+00 -0.45593999997E+02  0.45594000000E+02  0.51100000000E-03 0.  1.
    9900012    2    1    2    0    0  0.16276648519E+02 -0.76977276757E+01 -0.51473027735E+01  0.72461574174E+02  0.70000005054E+02 0.  0.
         12    1    1    2    0    0 -0.16276648519E+02  0.76977276757E+01  0.51473027735E+01  0.18726425826E+02  0.00000000000E+00 0. -1.
         11    1    3    3    0    0  0.87283518310E+01 -0.19054340952E+02 -0.14217122200E+02  0.25325453573E+02  0.51100000000E-03 0.  1.
        -11    1    3    3    0    0 -0.16586475489E+02  0.12242000621E+02  0.10114360987E+02  0.22962535722E+02  0.51100000000E-03 0. -1.
        -12    1    3    3    0    0  0.24134772177E+02 -0.88538734464E+00 -0.10445415604E+01  0.24173584878E+02  0.00000000000E+00 0.  1.
</event>
<event>
 7    1  0.1302069E-013  0.7246156E+02  0.7816164E-02  0.1226708E+00
        -11   -1    0    0    0    0  0.00000000000E+00  0.00000000000E+00  0.45593999997E+02  0.45594000000E+02  0.51100000000E-03 0.  1.
         11   -1    0    0    0    0 -0.00000000000E+00 -0.00000000000E+00 -0.45593999997E+02  0.45594000000E+02  0.51100000000E-03 0. -1.
    9900012    2    1    2    0    0  0.77440777725E+01  0.21842134884E+01  0.16909700168E+02  0.72461561767E+02  0.69999988892E+02 0.  0.
         12    1    1    2    0    0 -0.77440777725E+01 -0.21842134884E+01 -0.16909700168E+02  0.18726438233E+02  0.00000000000E+00 0. -1.
         11    1    3    3    0    0 -0.30112346259E+01 -0.21494866977E+02 -0.12630671034E+02  0.25112361326E+02  0.51100000000E-03 0. -1.
        -11    1    3    3    0    0  0.89175615683E+01 -0.28603051359E+01  0.13005278246E+02  0.16026275685E+02  0.51100000000E-03 0.  1.
         12    1    3    3    0    0  0.18377508301E+01  0.26539385601E+02  0.16535092956E+02  0.31322924756E+02  0.00000000000E+00 0. -1.
</event>
<event>
 7    1  0.1302069E-013  0.7246140E+02  0.7816164E-02  0.1226708E+00
        -11   -1    0    0    0    0  0.00000000000E+00  0.00000000000E+00  0.45593999997E+02  0.45594000000E+02  0.51100000000E-03 0. -1.
         11   -1    0    0    0    0 -0.00000000000E+00 -0.00000000000E+00 -0.45593999997E+02  0.45594000000E+02  0.51100000000E-03 0.  1.
    9900012    2    1    2    0    0 -0.12609397783E+02  0.12657163599E+02  0.56111452349E+01  0.72461397166E+02  0.69999774468E+02 0.  0.
         12    1    1    2    0    0  0.12609397783E+02 -0.12657163599E+02 -0.56111452349E+01  0.18726602834E+02  0.00000000000E+00 0. -1.
         11    1    3    3    0    0 -0.27130553511E+02  0.17416949669E+02 -0.10596855450E+01  0.32257402302E+02  0.51100000000E-03 0.  1.
        -11    1    3    3    0    0  0.16722457477E+02  0.61417517213E+01  0.17290981664E+02  0.24826190716E+02  0.51100000000E-03 0. -1.
         12    1    3    3    0    0 -0.22013017499E+01 -0.10901537791E+02 -0.10620150885E+02  0.15377804148E+02  0.00000000000E+00 0. -1.
</event>
<event>
 7    1  0.1302069E-013  0.7246156E+02  0.7816164E-02  0.1226708E+00
        -11   -1    0    0    0    0  0.00000000000E+00  0.00000000000E+00  0.45593999997E+02  0.45594000000E+02  0.51100000000E-03 0.  1.
         11   -1    0    0    0    0 -0.00000000000E+00 -0.00000000000E+00 -0.45593999997E+02  0.45594000000E+02  0.51100000000E-03 0. -1.
    9900012    2    1    2    0    0  0.43361384179E+01 -0.18165694497E+02  0.13730213278E+01  0.72461555049E+02  0.69999980140E+02 0.  0.
         12    1    1    2    0    0 -0.43361384179E+01  0.18165694497E+02 -0.13730213278E+01  0.18726444951E+02  0.00000000000E+00 0. -1.
         11    1    3    3    0    0  0.15899264562E+01  0.93252034731E+01  0.17592959409E+02  0.19974972015E+02  0.51100000000E-03 0. -1.
        -11    1    3    3    0    0  0.13667307056E+02 -0.42626841070E+00 -0.18733963171E+02  0.23193498297E+02  0.51100000000E-03 0.  1.
        -12    1    3    3    0    0 -0.10921095094E+02 -0.27064629560E+02  0.25140250895E+01  0.29293084737E+02  0.00000000000E+00 0.  1.
</event>
<event>
 7    1  0.1302069E-013  0.7246160E+02  0.7816164E-02  0.1226708E+00
        -11   -1    0    0    0    0  0.00000000000E+00  0.00000000000E+00  0.45593999997E+02  0.45594000000E+02  0.51100000000E-03 0. -1.
         11   -1    0    0    0    0 -0.00000000000E+00 -0.00000000000E+00 -0.45593999997E+02  0.45594000000E+02  0.51100000000E-03 0.  1.
    9900012    2    1    2    0    0  0.12695807350E+02 -0.81030798759E+01 -0.11128105342E+02  0.72461597349E+02  0.70000035244E+02 0.  0.
         12    1    1    2    0    0 -0.12695807350E+02  0.81030798759E+01  0.11128105342E+02  0.18726402651E+02  0.00000000000E+00 0. -1.
         11    1    3    3    0    0 -0.52712089858E+00  0.20023156607E+02 -0.11228085581E+02  0.22962459864E+02  0.51100000000E-03 0. -1.
        -11    1    3    3    0    0 -0.43991492757E+01 -0.30466510711E+02 -0.45682778731E+01  0.31119607199E+02  0.51100000000E-03 0.  1.
         12    1    3    3    0    0  0.17622077524E+02  0.23402742275E+01  0.46682581117E+01  0.18379530286E+02  0.00000000000E+00 0. -1.
</event>
<event>
 7    1  0.1302069E-013  0.7246154E+02  0.7816164E-02  0.1226708E+00
        -11   -1    0    0    0    0  0.00000000000E+00  0.00000000000E+00  0.45593999997E+02  0.45594000000E+02  0.51100000000E-03 0. -1.
         11   -1    0    0    0    0 -0.00000000000E+00 -0.00000000000E+00 -0.45593999997E+02  0.45594000000E+02  0.51100000000E-03 0.  1.
    9900012    2    1    2    0    0  0.17016866948E+02  0.55889926633E+01 -0.54653016736E+01  0.72461544861E+02  0.69999966868E+02 0.  0.
         12    1    1    2    0    0 -0.17016866948E+02 -0.55889926633E+01  0.54653016736E+01  0.18726455139E+02  0.00000000000E+00 0. -1.
         11    1    3    3    0    0  0.27406253438E+02  0.99768146985E+01  0.17355673013E+02  0.33939047498E+02  0.51100000000E-03 0. -1.
        -11    1    3    3    0    0 -0.16182451186E+02  0.71884364487E+01 -0.16121390286E+02  0.23946702696E+02  0.51100000000E-03 0.  1.
        -12    1    3    3    0    0  0.57930646955E+01 -0.11576258484E+02 -0.66995844001E+01  0.14575794667E+02  0.00000000000E+00 0.  1.
</event>
<event>
 7    1  0.1302069E-013  0.7246141E+02  0.7816164E-02  0.1226708E+00
        -11   -1    0    0    0    0  0.00000000000E+00  0.00000000000E+00  0.45593999997E+02  0.45594000000E+02  0.51100000000E-03 0. -1.
         11   -1    0    0    0    0 -0.00000000000E+00 -0.00000000000E+00 -0.45593999997E+02  0.45594000000E+02  0.51100000000E-03 0.  1.
    9900012    2    1    2    0    0  0.96186800971E+01  0.11845259451E+02 -0.10856146798E+02  0.72461411908E+02  0.69999793672E+02 0.  0.
         12    1    1    2    0    0 -0.96186800971E+01 -0.11845259451E+02  0.10856146798E+02  0.18726588092E+02  0.00000000000E+00 0. -1.
         11    1    3    3    0    0  0.66754880064E+01  0.21898507310E+02  0.43974650216E+01  0.23311895277E+02  0.51100000000E-03 0. -1.
        -11    1    3    3    0    0  0.10143145596E+02 -0.21970148868E+01 -0.29549390805E+02  0.31318952316E+02  0.51100000000E-03 0.  1.
        -12    1    3    3    0    0 -0.71999535057E+01 -0.78562329722E+01  0.14295778985E+02  0.17830564315E+02  0.00000000000E+00 0.  1.
</event>
<event>
 7    1  0.1302069E-013  0.7246159E+02  0.7816164E-02  0.1226708E+00
        -11   -1    0    0    0    0  0.00000000000E+00  0.00000000000E+00  0.45593999997E+02  0.45594000000E+02  0.51100000000E-03 0. -1.
         11   -1    0    0    0    0 -0.00000000000E+00 -0.00000000000E+00 -0.45593999997E+02  0.45594000000E+02  0.51100000000E-03 0.  1.
    9900012    2    1    2    0    0 -0.37586348800E+01  0.62999044805E+01 -0.17229689357E+02  0.72461592764E+02  0.70000029271E+02 0.  0.
         12    1    1    2    0    0  0.37586348800E+01 -0.62999044805E+01  0.17229689357E+02  0.18726407236E+02  0.00000000000E+00 0. -1.
         11    1    3    3    0    0  0.80978351724E+01  0.97528725072E+01  0.94561087503E+01  0.15814912253E+02  0.51100000000E-03 0. -1.
        -11    1    3    3    0    0 -0.20754670952E+02  0.54925004943E+01  0.54266716390E+01  0.22144360306E+02  0.51100000000E-03 0.  1.
        -12    1    3    3    0    0  0.88982008999E+01 -0.89454685209E+01 -0.32112469746E+02  0.34502320205E+02  0.00000000000E+00 0.  1.
</event>
<event>
 7    1  0.1302069E-013  0.7246155E+02  0.7816164E-02  0.1226708E+00
        -11   -1    0    0    0    0  0.00000000000E+00  0.00000000000E+00  0.45593999997E+02  0.45594000000E+02  0.51100000000E-03 0.  1.
         11   -1    0    0    0    0 -0.00000000000E+00 -0.00000000000E+00 -0.45593999997E+02  0.45594000000E+02  0.51100000000E-03 0. -1.
    9900012    2    1    2    0    0  0.14901813283E+02  0.54864049944E+01  0.99254804245E+01  0.72461552378E+02  0.69999976660E+02 0.  0.
         12    1    1    2    0    0 -0.14901813283E+02 -0.54864049944E+01 -0.99254804245E+01  0.18726447622E+02  0.00000000000E+00 0. -1.
         11    1    3    3    0    0  0.25110064580E+01  0.60865961716E+01 -0.20164938456E+02  0.21212650697E+02  0.51100000000E-03 0. -1.
        -11    1    3    3    0    0  0.76139016870E+01  0.19172263772E+02  0.19173296504E+02  0.28163140736E+02  0.51100000000E-03 0.  1.
        -12    1    3    3    0    0  0.47769051385E+01 -0.19772454949E+02  0.10917122377E+02  0.23085760945E+02  0.00000000000E+00 0.  1.
</event>
<event>
 7    1  0.1302069E-013  0.7246158E+02  0.7816164E-02  0.1226708E+00
        -11   -1    0    0    0    0  0.00000000000E+00  0.00000000000E+00  0.45593999997E+02  0.45594000000E+02  0.51100000000E-03 0.  1.
         11   -1    0    0    0    0 -0.00000000000E+00 -0.00000000000E+00 -0.45593999997E+02  0.45594000000E+02  0.51100000000E-03 0. -1.
    9900012    2    1    2    0    0  0.17049041120E+02  0.77462078353E+01 -0.72126171629E-01  0.72461581733E+02  0.70000014901E+02 0.  0.
         12    1    1    2    0    0 -0.17049041120E+02 -0.77462078353E+01  0.72126171629E-01  0.18726418267E+02  0.00000000000E+00 0. -1.
         11    1    3    3    0    0  0.47903263782E+01 -0.13004180296E+02  0.28518873395E+02  0.31707760437E+02  0.51100000000E-03 0. -1.
        -11    1    3    3    0    0  0.98905181733E+01  0.34974742355E+01 -0.55388591179E+01  0.11863120852E+02  0.51100000000E-03 0.  1.
         12    1    3    3    0    0  0.23681965685E+01  0.17252913895E+02 -0.23052140448E+02  0.28890700444E+02  0.00000000000E+00 0. -1.
</event>
<event>
 7    1  0.1302069E-013  0.7246159E+02  0.7816164E-02  0.1226708E+00
        -11   -1    0    0    0    0  0.00000000000E+00  0.00000000000E+00  0.45593999997E+02  0.45594000000E+02  0.51100000000E-03 0.  1.
         11   -1    0    0    0    0 -0.00000000000E+00 -0.00000000000E+00 -0.45593999997E+02  0.45594000000E+02  0.51100000000E-03 0. -1.
    9900012    2    1    2    0    0 -0.28816264662E+01  0.12509568993E+01  0.18461032806E+02  0.72461590933E+02  0.70000026886E+02 0.  0.
         12    1    1    2    0    0  0.28816264662E+01 -0.12509568993E+01 -0.18461032806E+02  0.18726409067E+02  0.00000000000E+00 0. -1.
         11    1    3    3    0    0  0.17695121835E+02 -0.38912907610E+01  0.83801356216E+01  0.19962117970E+02  0.51100000000E-03 0. -1.
        -11    1    3    3    0    0 -0.27752530428E+02  0.13666934119E+01  0.23785225256E+02  0.36576054144E+02  0.51100000000E-03 0.  1.
        -12    1    3    3    0    0  0.71757821263E+01  0.37755542484E+01 -0.13704328071E+02  0.15923418819E+02  0.00000000000E+00 0.  1.
</event>
<event>
 7    1  0.1302069E-013  0.7246226E+02  0.7816164E-02  0.1226706E+00
        -11   -1    0    0    0    0  0.00000000000E+00  0.00000000000E+00  0.45593999997E+02  0.45594000000E+02  0.51100000000E-03 0.  1.
         11   -1    0    0    0    0 -0.00000000000E+00 -0.00000000000E+00 -0.45593999997E+02  0.45594000000E+02  0.51100000000E-03 0. -1.
    9900012    2    1    2    0    0  0.16318059984E+02  0.43389405203E+00  0.91753015957E+01  0.72462255554E+02  0.70000892672E+02 0.  0.
         12    1    1    2    0    0 -0.16318059984E+02 -0.43389405203E+00 -0.91753015957E+01  0.18725744446E+02  0.00000000000E+00 0. -1.
         11    1    3    3    0    0  0.11021522721E+02 -0.26510655516E+02 -0.14405783942E+02  0.32121883977E+02  0.51100000000E-03 0. -1.
        -11    1    3    3    0    0  0.47852287214E+01  0.23632033893E+01  0.12060182320E+02  0.13188295646E+02  0.51100000000E-03 0.  1.
         12    1    3    3    0    0  0.51130854156E+00  0.24581346179E+02  0.11520903217E+02  0.27152075931E+02  0.00000000000E+00 0. -1.
</event>
<event>
 7    1  0.1302069E-013  0.7246158E+02  0.7816164E-02  0.1226708E+00
        -11   -1    0    0    0    0  0.00000000000E+00  0.00000000000E+00  0.45593999997E+02  0.45594000000E+02  0.51100000000E-03 0.  1.
         11   -1    0    0    0    0 -0.00000000000E+00 -0.00000000000E+00 -0.45593999997E+02  0.45594000000E+02  0.51100000000E-03 0. -1.
    9900012    2    1    2    0    0 -0.11693704279E+02 -0.10579782776E+02  0.10099713096E+02  0.72461582084E+02  0.70000015358E+02 0.  0.
         12    1    1    2    0    0  0.11693704279E+02  0.10579782776E+02 -0.10099713096E+02  0.18726417916E+02  0.00000000000E+00 0. -1.
         11    1    3    3    0    0  0.52486042727E+01 -0.75141193139E+00 -0.93549567149E+01  0.10753031298E+02  0.51100000000E-03 0. -1.
        -11    1    3    3    0    0 -0.27557272541E+02  0.71243985319E+00  0.31963249917E+02  0.42208532147E+02  0.51100000000E-03 0.  1.
        -12    1    3    3    0    0  0.10614963989E+02 -0.10540810697E+02 -0.12508580106E+02  0.19500018639E+02  0.00000000000E+00 0.  1.
</event>
<event>
 7    1  0.1302069E-013  0.7246162E+02  0.7816164E-02  0.1226708E+00
        -11   -1    0    0    0    0  0.00000000000E+00  0.00000000000E+00  0.45593999997E+02  0.45594000000E+02  0.51100000000E-03 0.  1.
         11   -1    0    0    0    0 -0.00000000000E+00 -0.00000000000E+00 -0.45593999997E+02  0.45594000000E+02  0.51100000000E-03 0. -1.
    9900012    2    1    2    0    0 -0.57078566401E+01 -0.11530202091E+02 -0.13607058088E+02  0.72461622414E+02  0.70000067896E+02 0.  0.
         12    1    1    2    0    0  0.57078566401E+01  0.11530202091E+02  0.13607058088E+02  0.18726377586E+02  0.00000000000E+00 0. -1.
         11    1    3    3    0    0 -0.15330777402E+02 -0.25238866335E+02 -0.57421423581E+01  0.30083306147E+02  0.51100000000E-03 0. -1.
        -11    1    3    3    0    0  0.27159182099E+01  0.70304813152E+01  0.15434179351E+02  0.17176081385E+02  0.51100000000E-03 0.  1.
         12    1    3    3    0    0  0.69070025518E+01  0.66781829291E+01 -0.23299095080E+02  0.25202234882E+02  0.00000000000E+00 0. -1.
</event>
<event>
 7    1  0.1302069E-013  0.7246161E+02  0.7816164E-02  0.1226708E+00
        -11   -1    0    0    0    0  0.00000000000E+00  0.00000000000E+00  0.45593999997E+02  0.45594000000E+02  0.51100000000E-03 0.  1.
         11   -1    0    0    0    0 -0.00000000000E+00 -0.00000000000E+00 -0.45593999997E+02  0.45594000000E+02  0.51100000000E-03 0. -1.
    9900012    2    1    2    0    0  0.10012765434E+02 -0.10331598284E+02 -0.11986678212E+02  0.72461605544E+02  0.70000045920E+02 0.  0.
         12    1    1    2    0    0 -0.10012765434E+02  0.10331598284E+02  0.11986678212E+02  0.18726394456E+02  0.00000000000E+00 0. -1.
         11    1    3    3    0    0  0.33220447757E+02  0.66551595471E+00 -0.91745095585E+01  0.34470461072E+02  0.51100000000E-03 0. -1.
        -11    1    3    3    0    0 -0.45624462158E+01 -0.17484438895E+02 -0.14728619636E+00  0.18070506701E+02  0.51100000000E-03 0.  1.
         12    1    3    3    0    0 -0.18645236107E+02  0.64873246562E+01 -0.26648824575E+01  0.19920637771E+02  0.00000000000E+00 0. -1.
</event>
<event>
 7    1  0.1302069E-013  0.7246154E+02  0.7816164E-02  0.1226708E+00
        -11   -1    0    0    0    0  0.00000000000E+00  0.00000000000E+00  0.45593999997E+02  0.45594000000E+02  0.51100000000E-03 0.  1.
         11   -1    0    0    0    0 -0.00000000000E+00 -0.00000000000E+00 -0.45593999997E+02  0.45594000000E+02  0.51100000000E-03 0. -1.
    9900012    2    1    2    0    0 -0.34339137014E+01 -0.17407982194E+02  0.59875503074E+01  0.72461538346E+02  0.69999958382E+02 0.  0.
         12    1    1    2    0    0  0.34339137014E+01  0.17407982194E+02 -0.59875503074E+01  0.18726461654E+02  0.00000000000E+00 0. -1.
         11    1    3    3    0    0  0.15809435812E+02  0.13385230091E+01  0.90401888210E+01  0.18260748033E+02  0.51100000000E-03 0. -1.
        -11    1    3    3    0    0 -0.21374880683E+02  0.10733646135E+02 -0.54992796893E+01  0.24542590754E+02  0.51100000000E-03 0.  1.
         12    1    3    3    0    0  0.21315311700E+01 -0.29480151338E+02  0.24466411757E+01  0.29658199559E+02  0.00000000000E+00 0. -1.
</event>
<event>
 7    1  0.1302069E-013  0.7246170E+02  0.7816164E-02  0.1226708E+00
        -11   -1    0    0    0    0  0.00000000000E+00  0.00000000000E+00  0.45593999997E+02  0.45594000000E+02  0.51100000000E-03 0.  1.
         11   -1    0    0    0    0 -0.00000000000E+00 -0.00000000000E+00 -0.45593999997E+02  0.45594000000E+02  0.51100000000E-03 0. -1.
    9900012    2    1    2    0    0  0.85010658542E+01 -0.47802155556E+01  0.15986111401E+02  0.72461699267E+02  0.70000168010E+02 0.  0.
         12    1    1    2    0    0 -0.85010658542E+01  0.47802155556E+01 -0.15986111401E+02  0.18726300733E+02  0.00000000000E+00 0. -1.
         11    1    3    3    0    0 -0.15929804771E+02 -0.20436846916E+02  0.73554635792E+01  0.26935594232E+02  0.51100000000E-03 0. -1.
        -11    1    3    3    0    0  0.20364198398E+02  0.18821475600E+02  0.19226776189E+02  0.33743405920E+02  0.51100000000E-03 0.  1.
         12    1    3    3    0    0  0.40666722270E+01 -0.31648442391E+01 -0.10596128367E+02  0.11782699115E+02  0.00000000000E+00 0. -1.
</event>
<event>
 7    1  0.1302069E-013  0.7246154E+02  0.7816164E-02  0.1226708E+00
        -11   -1    0    0    0    0  0.00000000000E+00  0.00000000000E+00  0.45593999997E+02  0.45594000000E+02  0.51100000000E-03 0.  1.
         11   -1    0    0    0    0 -0.00000000000E+00 -0.00000000000E+00 -0.45593999997E+02  0.45594000000E+02  0.51100000000E-03 0. -1.
    9900012    2    1    2    0    0  0.13611269442E+02 -0.10674812064E+02  0.71737167615E+01  0.72461535288E+02  0.69999954398E+02 0.  0.
         12    1    1    2    0    0 -0.13611269442E+02  0.10674812064E+02 -0.71737167615E+01  0.18726464712E+02  0.00000000000E+00 0. -1.
         11    1    3    3    0    0  0.27646973237E+02 -0.26679437793E+02 -0.53133027736E+00  0.38424339190E+02  0.51100000000E-03 0. -1.
        -11    1    3    3    0    0 -0.17768622315E+02  0.65253875548E+01 -0.31062027271E+01  0.19182104091E+02  0.51100000000E-03 0.  1.
        -12    1    3    3    0    0  0.37329185200E+01  0.94792381735E+01  0.10811249766E+02  0.14855092007E+02  0.00000000000E+00 0.  1.
</event>
<event>
 7    1  0.1302069E-013  0.7246192E+02  0.7816164E-02  0.1226707E+00
        -11   -1    0    0    0    0  0.00000000000E+00  0.00000000000E+00  0.45593999997E+02  0.45594000000E+02  0.51100000000E-03 0. -1.
         11   -1    0    0    0    0 -0.00000000000E+00 -0.00000000000E+00 -0.45593999997E+02  0.45594000000E+02  0.51100000000E-03 0.  1.
    9900012    2    1    2    0    0 -0.31485248238E+01 -0.17494135270E+02  0.58913577380E+01  0.72461919967E+02  0.70000455512E+02 0.  0.
         12    1    1    2    0    0  0.31485248238E+01  0.17494135270E+02 -0.58913577380E+01  0.18726080033E+02  0.00000000000E+00 0. -1.
         11    1    3    3    0    0 -0.10007494442E+00 -0.21108169720E+02  0.30458158906E+02  0.37057580711E+02  0.51100000000E-03 0. -1.
        -11    1    3    3    0    0 -0.90341658285E+01 -0.15123695792E+01  0.45461236322E+00  0.91711551412E+01  0.51100000000E-03 0.  1.
         12    1    3    3    0    0  0.59857159492E+01  0.51264040290E+01 -0.25021413531E+02  0.26233184115E+02  0.00000000000E+00 0. -1.
</event>
<event>
 7    1  0.1302069E-013  0.7246153E+02  0.7816164E-02  0.1226708E+00
        -11   -1    0    0    0    0  0.00000000000E+00  0.00000000000E+00  0.45593999997E+02  0.45594000000E+02  0.51100000000E-03 0. -1.
         11   -1    0    0    0    0 -0.00000000000E+00 -0.00000000000E+00 -0.45593999997E+02  0.45594000000E+02  0.51100000000E-03 0.  1.
    9900012    2    1    2    0    0  0.68264773340E+01  0.17178819166E+02 -0.29946832473E+01  0.72461528136E+02  0.69999945080E+02 0.  0.
         12    1    1    2    0    0 -0.68264773340E+01 -0.17178819166E+02  0.29946832473E+01  0.18726471864E+02  0.00000000000E+00 0. -1.
         11    1    3    3    0    0 -0.19139897653E+02  0.12259669063E+02  0.19513594747E+02  0.29956894831E+02  0.51100000000E-03 0. -1.
        -11    1    3    3    0    0  0.27957454255E+01  0.11456817295E+02 -0.94756359846E+01  0.15128203218E+02  0.51100000000E-03 0.  1.
         12    1    3    3    0    0  0.23170629561E+02 -0.65376671918E+01 -0.13032642010E+02  0.27376430087E+02  0.00000000000E+00 0. -1.
</event>
<event>
 7    1  0.1302069E-013  0.7246157E+02  0.7816164E-02  0.1226708E+00
        -11   -1    0    0    0    0  0.00000000000E+00  0.00000000000E+00  0.45593999997E+02  0.45594000000E+02  0.51100000000E-03 0. -1.
         11   -1    0    0    0    0 -0.00000000000E+00 -0.00000000000E+00 -0.45593999997E+02  0.45594000000E+02  0.51100000000E-03 0.  1.
    9900012    2    1    2    0    0  0.16704228101E+02 -0.32229759758E+01 -0.78269052091E+01  0.72461567992E+02  0.69999997001E+02 0.  0.
         12    1    1    2    0    0 -0.16704228101E+02  0.32229759758E+01  0.78269052091E+01  0.18726432008E+02  0.00000000000E+00 0. -1.
         11    1    3    3    0    0  0.31634248389E+02  0.17907733792E+02  0.10251766789E+02  0.37769184837E+02  0.51100000000E-03 0. -1.
        -11    1    3    3    0    0  0.16736139684E+01 -0.79116377258E+01 -0.28637441239E+01  0.85788126153E+01  0.51100000000E-03 0.  1.
         12    1    3    3    0    0 -0.16603634256E+02 -0.13219072042E+02 -0.15214927874E+02  0.26113570540E+02  0.00000000000E+00 0. -1.
</event>
<event>
 7    1  0.1302069E-013  0.7246158E+02  0.7816164E-02  0.1226708E+00
        -11   -1    0    0    0    0  0.00000000000E+00  0.00000000000E+00  0.45593999997E+02  0.45594000000E+02  0.51100000000E-03 0. -1.
         11   -1    0    0    0    0 -0.00000000000E+00 -0.00000000000E+00 -0.45593999997E+02  0.45594000000E+02  0.51100000000E-03 0.  1.
    9900012    2    1    2    0    0  0.64230761456E+01  0.14800560783E+02 -0.95061100528E+01  0.72461584566E+02  0.70000018591E+02 0.  0.
         12    1    1    2    0    0 -0.64230761456E+01 -0.14800560783E+02  0.95061100528E+01  0.18726415434E+02  0.00000000000E+00 0. -1.
         11    1    3    3    0    0  0.24755968956E+02 -0.14922367941E+02  0.73532138324E+01  0.29826243777E+02  0.51100000000E-03 0. -1.
        -11    1    3    3    0    0 -0.93964695108E+01  0.18402205291E+02 -0.28508977687E+00  0.20664367285E+02  0.51100000000E-03 0.  1.
        -12    1    3    3    0    0 -0.89364232997E+01  0.11320723433E+02 -0.16574234108E+02  0.21970973504E+02  0.00000000000E+00 0.  1.
</event>
<event>
 7    1  0.1302069E-013  0.7246157E+02  0.7816164E-02  0.1226708E+00
        -11   -1    0    0    0    0  0.00000000000E+00  0.00000000000E+00  0.45593999997E+02  0.45594000000E+02  0.51100000000E-03 0.  1.
         11   -1    0    0    0    0 -0.00000000000E+00 -0.00000000000E+00 -0.45593999997E+02  0.45594000000E+02  0.51100000000E-03 0. -1.
    9900012    2    1    2    0    0  0.52914607090E+01 -0.34274892308E+01  0.17633259986E+02  0.72461572241E+02  0.70000002536E+02 0.  0.
         12    1    1    2    0    0 -0.52914607090E+01  0.34274892308E+01 -0.17633259986E+02  0.18726427759E+02  0.00000000000E+00 0. -1.
         11    1    3    3    0    0 -0.60113132798E+01 -0.79378759628E+01 -0.19493734396E+01  0.10146221918E+02  0.51100000000E-03 0. -1.
        -11    1    3    3    0    0  0.15238342256E+02 -0.17352906872E+02  0.29934210667E+02  0.37807240314E+02  0.51100000000E-03 0.  1.
        -12    1    3    3    0    0 -0.39355682677E+01  0.21863293604E+02 -0.10351577241E+02  0.24508110009E+02  0.00000000000E+00 0.  1.
</event>
<event>
 7    1  0.1302069E-013  0.7246158E+02  0.7816164E-02  0.1226708E+00
        -11   -1    0    0    0    0  0.00000000000E+00  0.00000000000E+00  0.45593999997E+02  0.45594000000E+02  0.51100000000E-03 0.  1.
         11   -1    0    0    0    0 -0.00000000000E+00 -0.00000000000E+00 -0.45593999997E+02  0.45594000000E+02  0.51100000000E-03 0. -1.
    9900012    2    1    2    0    0 -0.35651894632E+01  0.16470034107E+02  0.81673901182E+01  0.72461578539E+02  0.70000010740E+02 0.  0.
         12    1    1    2    0    0  0.35651894632E+01 -0.16470034107E+02 -0.81673901182E+01  0.18726421461E+02  0.00000000000E+00 0. -1.
         11    1    3    3    0    0  0.83174377891E+01  0.27278636310E+02 -0.14190503854E+02  0.31853950622E+02  0.51100000000E-03 0. -1.
        -11    1    3    3    0    0  0.19785505023E+01 -0.20456659633E+01  0.23962115176E+02  0.24130527871E+02  0.51100000000E-03 0.  1.
         12    1    3    3    0    0 -0.13861177755E+02 -0.87629362399E+01 -0.16042212042E+01  0.16477100047E+02  0.00000000000E+00 0. -1.
</event>
<event>
 7    1  0.1302069E-013  0.7246159E+02  0.7816164E-02  0.1226708E+00
        -11   -1    0    0    0    0  0.00000000000E+00  0.00000000000E+00  0.45593999997E+02  0.45594000000E+02  0.51100000000E-03 0. -1.
         11   -1    0    0    0    0 -0.00000000000E+00 -0.00000000000E+00 -0.45593999997E+02  0.45594000000E+02  0.51100000000E-03 0.  1.
    9900012    2    1    2    0    0 -0.15551879976E+02  0.71597671847E+01 -0.75865167360E+01  0.72461588889E+02  0.70000024223E+02 0.  0.
         12    1    1    2    0    0  0.15551879976E+02 -0.71597671847E+01  0.75865167360E+01  0.18726411111E+02  0.00000000000E+00 0. -1.
         11    1    3    3    0    0 -0.35355467764E+01  0.64340721615E+01 -0.23558307815E+01  0.77102084615E+01  0.51100000000E-03 0. -1.
        -11    1    3    3    0    0 -0.35144540875E+02 -0.13180734468E+02 -0.37918152152E+01  0.37725964233E+02  0.51100000000E-03 0.  1.
        -12    1    3    3    0    0  0.23128207676E+02  0.13906429491E+02 -0.14388707393E+01  0.27025416194E+02  0.00000000000E+00 0.  1.
</event>
<event>
 7    1  0.1302069E-013  0.7246160E+02  0.7816164E-02  0.1226708E+00
        -11   -1    0    0    0    0  0.00000000000E+00  0.00000000000E+00  0.45593999997E+02  0.45594000000E+02  0.51100000000E-03 0.  1.
         11   -1    0    0    0    0 -0.00000000000E+00 -0.00000000000E+00 -0.45593999997E+02  0.45594000000E+02  0.51100000000E-03 0. -1.
    9900012    2    1    2    0    0  0.17701232876E+02  0.28364070813E+01 -0.54128852304E+01  0.72461596796E+02  0.70000034523E+02 0.  0.
         12    1    1    2    0    0 -0.17701232876E+02 -0.28364070813E+01  0.54128852304E+01  0.18726403204E+02  0.00000000000E+00 0. -1.
         11    1    3    3    0    0  0.26558552591E+02 -0.80005642810E+01 -0.22298964920E+02  0.35589458851E+02  0.51100000000E-03 0.  1.
        -11    1    3    3    0    0 -0.14515118178E+02  0.17878975638E+02  0.85046784773E+01  0.24549459910E+02  0.51100000000E-03 0. -1.
        -12    1    3    3    0    0  0.56577984629E+01 -0.70420042762E+01  0.83814012124E+01  0.12322678035E+02  0.00000000000E+00 0.  1.
</event>
<event>
 7    1  0.1302069E-013  0.7246147E+02  0.7816164E-02  0.1226708E+00
        -11   -1    0    0    0    0  0.00000000000E+00  0.00000000000E+00  0.45593999997E+02  0.45594000000E+02  0.51100000000E-03 0.  1.
         11   -1    0    0    0    0 -0.00000000000E+00 -0.00000000000E+00 -0.45593999997E+02  0.45594000000E+02  0.51100000000E-03 0. -1.
    9900012    2    1    2    0    0  0.12352619130E+02 -0.14074099737E+02 -0.12478075699E+00  0.72461466604E+02  0.69999864924E+02 0.  0.
         12    1    1    2    0    0 -0.12352619130E+02  0.14074099737E+02  0.12478075699E+00  0.18726533396E+02  0.00000000000E+00 0. -1.
         11    1    3    3    0    0  0.65368394038E+01  0.21736157684E+02 -0.17072140082E+02  0.28401563117E+02  0.51100000000E-03 0. -1.
        -11    1    3    3    0    0  0.10221137803E+02 -0.10670000862E+02  0.91187740764E+01  0.17362966835E+02  0.51100000000E-03 0.  1.
         12    1    3    3    0    0 -0.44053580767E+01 -0.25140256559E+02  0.78285852486E+01  0.26696936653E+02  0.00000000000E+00 0. -1.
</event>
<event>
 7    1  0.1302069E-013  0.7246152E+02  0.7816164E-02  0.1226708E+00
        -11   -1    0    0    0    0  0.00000000000E+00  0.00000000000E+00  0.45593999997E+02  0.45594000000E+02  0.51100000000E-03 0.  1.
         11   -1    0    0    0    0 -0.00000000000E+00 -0.00000000000E+00 -0.45593999997E+02  0.45594000000E+02  0.51100000000E-03 0. -1.
    9900012    2    1    2    0    0  0.40684818045E+01  0.68920858989E+01  0.16930081347E+02  0.72461520175E+02  0.69999934710E+02 0.  0.
         12    1    1    2    0    0 -0.40684818045E+01 -0.68920858989E+01 -0.16930081347E+02  0.18726479825E+02  0.00000000000E+00 0. -1.
         11    1    3    3    0    0  0.13793871070E+02 -0.13545201064E+02 -0.88003981798E+01  0.21241241944E+02  0.51100000000E-03 0. -1.
        -11    1    3    3    0    0 -0.12489954044E+02  0.29475621139E+02  0.11257462364E+02  0.33934372732E+02  0.51100000000E-03 0.  1.
        -12    1    3    3    0    0  0.27645647784E+01 -0.90383341765E+01  0.14473017163E+02  0.17285905498E+02  0.00000000000E+00 0.  1.
</event>
<event>
 7    1  0.1302069E-013  0.7246159E+02  0.7816164E-02  0.1226708E+00
        -11   -1    0    0    0    0  0.00000000000E+00  0.00000000000E+00  0.45593999997E+02  0.45594000000E+02  0.51100000000E-03 0.  1.
         11   -1    0    0    0    0 -0.00000000000E+00 -0.00000000000E+00 -0.45593999997E+02  0.45594000000E+02  0.51100000000E-03 0. -1.
    9900012    2    1    2    0    0  0.13311602515E+02  0.13169014278E+02  0.23842742096E+00  0.72461586937E+02  0.70000021680E+02 0.  0.
         12    1    1    2    0    0 -0.13311602515E+02 -0.13169014278E+02 -0.23842742096E+00  0.18726413063E+02  0.00000000000E+00 0. -1.
         11    1    3    3    0    0  0.30339772058E+02  0.78901196334E+01 -0.51949045476E+01  0.31776450241E+02  0.51100000000E-03 0. -1.
        -11    1    3    3    0    0 -0.13679349245E+02 -0.86207252922E+01 -0.10498634366E+02  0.19278558664E+02  0.51100000000E-03 0.  1.
        -12    1    3    3    0    0 -0.33488202979E+01  0.13899619937E+02  0.15931966335E+02  0.21406578033E+02  0.00000000000E+00 0.  1.
</event>
<event>
 7    1  0.1302069E-013  0.7246157E+02  0.7816164E-02  0.1226708E+00
        -11   -1    0    0    0    0  0.00000000000E+00  0.00000000000E+00  0.45593999997E+02  0.45594000000E+02  0.51100000000E-03 0. -1.
         11   -1    0    0    0    0 -0.00000000000E+00 -0.00000000000E+00 -0.45593999997E+02  0.45594000000E+02  0.51100000000E-03 0.  1.
    9900012    2    1    2    0    0  0.39866269450E+01 -0.48420187440E+01 -0.17644852709E+02  0.72461570361E+02  0.70000000087E+02 0.  0.
         12    1    1    2    0    0 -0.39866269450E+01  0.48420187440E+01  0.17644852709E+02  0.18726429639E+02  0.00000000000E+00 0. -1.
         11    1    3    3    0    0  0.85469429122E+01  0.47705349108E+01  0.12286723986E+02  0.15708972692E+02  0.51100000000E-03 0. -1.
        -11    1    3    3    0    0 -0.17224513343E+02 -0.10455137744E+02 -0.37068929087E+02  0.42191222655E+02  0.51100000000E-03 0.  1.
        -12    1    3    3    0    0  0.12664197376E+02  0.84258408929E+00  0.71373523927E+01  0.14561375014E+02  0.00000000000E+00 0.  1.
</event>
<event>
 7    1  0.1302069E-013  0.7246158E+02  0.7816164E-02  0.1226708E+00
        -11   -1    0    0    0    0  0.00000000000E+00  0.00000000000E+00  0.45593999997E+02  0.45594000000E+02  0.51100000000E-03 0. -1.
         11   -1    0    0    0    0 -0.00000000000E+00 -0.00000000000E+00 -0.45593999997E+02  0.45594000000E+02  0.51100000000E-03 0.  1.
    9900012    2    1    2    0    0  0.11132061030E+01  0.13858634011E+02 -0.12545038603E+02  0.72461575941E+02  0.70000007356E+02 0.  0.
         12    1    1    2    0    0 -0.11132061030E+01 -0.13858634011E+02  0.12545038603E+02  0.18726424059E+02  0.00000000000E+00 0. -1.
         11    1    3    3    0    0 -0.88238198912E+01 -0.20219960524E+02  0.66541829154E+01  0.23043106379E+02  0.51100000000E-03 0.  1.
        -11    1    3    3    0    0  0.18258817933E+02  0.12857752379E+02 -0.12813442317E+02  0.25746660615E+02  0.51100000000E-03 0. -1.
        -12    1    3    3    0    0 -0.83217919387E+01  0.21220842155E+02 -0.63857792020E+01  0.23671808948E+02  0.00000000000E+00 0.  1.
</event>
