<event>
 7    1  0.9406864E-013  0.5052884E+02  0.7816164E-02  0.1300439E+00
        -11   -1    0    0    0    0  0.00000000000E+00  0.00000000000E+00  0.45593999997E+02  0.45594000000E+02  0.51100000000E-03 0.  1.
         11   -1    0    0    0    0 -0.00000000000E+00 -0.00000000000E+00 -0.45593999997E+02  0.45594000000E+02  0.51100000000E-03 0. -1.
    9900012    2    1    2    0    0 -0.32324847439E+02  0.17014280284E+01 -0.24604402462E+02  0.50528840641E+02  0.29999941611E+02 0.  0.
        -12    1    1    2    0    0  0.32324847439E+02 -0.17014280284E+01  0.24604402462E+02  0.40659159359E+02  0.00000000000E+00 0.  1.
         11    1    3    3    0    0 -0.21816524682E+02  0.46210294298E+01 -0.23293339445E+02  0.32247392529E+02  0.51100000000E-03 0. -1.
        -11    1    3    3    0    0 -0.30623562753E+01 -0.52826052653E+01  0.52708762913E+01  0.80663549070E+01  0.51100000000E-03 0.  1.
        -12    1    3    3    0    0 -0.74459664821E+01  0.23630038639E+01 -0.65819393086E+01  0.10215093204E+02  0.00000000000E+00 0.  1.
</event>
<event>
 7    1  0.9406864E-013  0.5052887E+02  0.7816164E-02  0.1300439E+00
        -11   -1    0    0    0    0  0.00000000000E+00  0.00000000000E+00  0.45593999997E+02  0.45594000000E+02  0.51100000000E-03 0. -1.
         11   -1    0    0    0    0 -0.00000000000E+00 -0.00000000000E+00 -0.45593999997E+02  0.45594000000E+02  0.51100000000E-03 0.  1.
    9900012    2    1    2    0    0  0.27298915097E+02  0.26565327669E+02  0.14220319182E+02  0.50528869694E+02  0.30000029921E+02 0.  0.
        -12    1    1    2    0    0 -0.27298915097E+02 -0.26565327669E+02 -0.14220319182E+02  0.40659130306E+02  0.00000000000E+00 0.  1.
         11    1    3    3    0    0 -0.57282371580E+01  0.91905524598E+01  0.56437997405E+01  0.12211938062E+02  0.51100000000E-03 0. -1.
        -11    1    3    3    0    0  0.16551879830E+02  0.88828231205E+01  0.36175207403E+01  0.19129969395E+02  0.51100000000E-03 0.  1.
         12    1    3    3    0    0  0.16475272425E+02  0.84919520886E+01  0.49589987017E+01  0.19186962237E+02  0.00000000000E+00 0. -1.
</event>
<event>
 7    1  0.9406864E-013  0.5052888E+02  0.7816164E-02  0.1300439E+00
        -11   -1    0    0    0    0  0.00000000000E+00  0.00000000000E+00  0.45593999997E+02  0.45594000000E+02  0.51100000000E-03 0.  1.
         11   -1    0    0    0    0 -0.00000000000E+00 -0.00000000000E+00 -0.45593999997E+02  0.45594000000E+02  0.51100000000E-03 0. -1.
    9900012    2    1    2    0    0 -0.35010096516E+02 -0.13669701717E+02 -0.15511171602E+02  0.50528879897E+02  0.30000060935E+02 0.  0.
        -12    1    1    2    0    0  0.35010096516E+02  0.13669701717E+02  0.15511171602E+02  0.40659120103E+02  0.00000000000E+00 0.  1.
         11    1    3    3    0    0 -0.11921369501E+02  0.39274912456E+00 -0.58906573045E+01  0.13303125437E+02  0.51100000000E-03 0. -1.
        -11    1    3    3    0    0 -0.17203876028E+02 -0.17753683774E+02  0.76211656913E+00  0.24733529061E+02  0.51100000000E-03 0.  1.
        -12    1    3    3    0    0 -0.58848509873E+01  0.36912329319E+01 -0.10382630867E+02  0.12492225399E+02  0.00000000000E+00 0.  1.
</event>
<event>
 7    1  0.9406864E-013  0.5052886E+02  0.7816164E-02  0.1300439E+00
        -11   -1    0    0    0    0  0.00000000000E+00  0.00000000000E+00  0.45593999997E+02  0.45594000000E+02  0.51100000000E-03 0. -1.
         11   -1    0    0    0    0 -0.00000000000E+00 -0.00000000000E+00 -0.45593999997E+02  0.45594000000E+02  0.51100000000E-03 0.  1.
    9900012    2    1    2    0    0  0.16958961807E+02  0.22888985560E+02  0.29011266780E+02  0.50528860244E+02  0.30000001197E+02 0.  0.
        -12    1    1    2    0    0 -0.16958961807E+02 -0.22888985560E+02 -0.29011266780E+02  0.40659139756E+02  0.00000000000E+00 0.  1.
         11    1    3    3    0    0  0.74885779314E+01 -0.39913097158E+01  0.12233380495E+02  0.14888416681E+02  0.51100000000E-03 0.  1.
        -11    1    3    3    0    0  0.25152578504E+01  0.14411141906E+02  0.15487958644E+02  0.21304562805E+02  0.51100000000E-03 0. -1.
        -12    1    3    3    0    0  0.69551260252E+01  0.12469153370E+02  0.12899276411E+01  0.14335880758E+02  0.00000000000E+00 0.  1.
</event>
<event>
 7    1  0.9406864E-013  0.5052886E+02  0.7816164E-02  0.1300439E+00
        -11   -1    0    0    0    0  0.00000000000E+00  0.00000000000E+00  0.45593999997E+02  0.45594000000E+02  0.51100000000E-03 0.  1.
         11   -1    0    0    0    0 -0.00000000000E+00 -0.00000000000E+00 -0.45593999997E+02  0.45594000000E+02  0.51100000000E-03 0. -1.
    9900012    2    1    2    0    0  0.28198137579E+02 -0.13012810785E+02 -0.26243045788E+02  0.50528860072E+02  0.30000000675E+02 0.  0.
        -12    1    1    2    0    0 -0.28198137579E+02  0.13012810785E+02  0.26243045788E+02  0.40659139928E+02  0.00000000000E+00 0.  1.
         11    1    3    3    0    0  0.14615103810E+02 -0.53645400887E+01 -0.18571767986E+02  0.24234069326E+02  0.51100000000E-03 0. -1.
        -11    1    3    3    0    0  0.68092699999E+01 -0.12802499491E+01  0.63982887717E+01  0.94309754178E+01  0.51100000000E-03 0.  1.
        -12    1    3    3    0    0  0.67737637691E+01 -0.63680207469E+01 -0.14069566574E+02  0.16863815328E+02  0.00000000000E+00 0.  1.
</event>
<event>
 7    1  0.9406864E-013  0.5052886E+02  0.7816164E-02  0.1300439E+00
        -11   -1    0    0    0    0  0.00000000000E+00  0.00000000000E+00  0.45593999997E+02  0.45594000000E+02  0.51100000000E-03 0. -1.
         11   -1    0    0    0    0 -0.00000000000E+00 -0.00000000000E+00 -0.45593999997E+02  0.45594000000E+02  0.51100000000E-03 0.  1.
    9900012    2    1    2    0    0  0.17025893788E+02 -0.36869955082E+02  0.19726437772E+01  0.50528856250E+02  0.29999989058E+02 0.  0.
        -12    1    1    2    0    0 -0.17025893788E+02  0.36869955082E+02 -0.19726437772E+01  0.40659143750E+02  0.00000000000E+00 0.  1.
         11    1    3    3    0    0  0.20027620837E+02 -0.11805465397E+02  0.17442010759E+01  0.23313447778E+02  0.51100000000E-03 0. -1.
        -11    1    3    3    0    0 -0.24186186241E+01 -0.16736170886E+02  0.49557134719E+01  0.17621243663E+02  0.51100000000E-03 0.  1.
         12    1    3    3    0    0 -0.58310842488E+00 -0.83283187983E+01 -0.47272707706E+01  0.95941648089E+01  0.00000000000E+00 0. -1.
</event>
<event>
 7    1  0.1061639E-012  0.5052886E+02  0.7816164E-02  0.1300439E+00
        -11   -1    0    0    0    0  0.00000000000E+00  0.00000000000E+00  0.45593999997E+02  0.45594000000E+02  0.51100000000E-03 0. -1.
         11   -1    0    0    0    0 -0.00000000000E+00 -0.00000000000E+00 -0.45593999997E+02  0.45594000000E+02  0.51100000000E-03 0.  1.
    9900012    2    1    2    0    0  0.47558673839E+01 -0.39985668845E+02  0.56297239234E+01  0.50528858605E+02  0.29999996214E+02 0.  0.
        -12    1    1    2    0    0 -0.47558673839E+01  0.39985668845E+02 -0.56297239234E+01  0.40659141395E+02  0.00000000000E+00 0.  1.
         11    1    3    3    0    0  0.34802568079E+00 -0.20757970631E+02 -0.61433230324E+01  0.21650747903E+02  0.51100000000E-03 0. -1.
        -11    1    3    3    0    0 -0.39831864431E+01 -0.16504534699E+01  0.79283532209E+01  0.90248853706E+01  0.51100000000E-03 0.  1.
         12    1    3    3    0    0  0.83910281462E+01 -0.17577244744E+02  0.38446937349E+01  0.19853225331E+02  0.00000000000E+00 0. -1.
</event>
<event>
 7    1  0.9406864E-013  0.5052884E+02  0.7816164E-02  0.1300439E+00
        -11   -1    0    0    0    0  0.00000000000E+00  0.00000000000E+00  0.45593999997E+02  0.45594000000E+02  0.51100000000E-03 0.  1.
         11   -1    0    0    0    0 -0.00000000000E+00 -0.00000000000E+00 -0.45593999997E+02  0.45594000000E+02  0.51100000000E-03 0. -1.
    9900012    2    1    2    0    0  0.16602508549E+02 -0.37046291736E+02  0.22575142834E+01  0.50528838766E+02  0.29999935914E+02 0.  0.
        -12    1    1    2    0    0 -0.16602508549E+02  0.37046291736E+02 -0.22575142834E+01  0.40659161234E+02  0.00000000000E+00 0.  1.
         11    1    3    3    0    0 -0.43105493220E+00 -0.26785567627E+01  0.45525504699E+01  0.52996406225E+01  0.51100000000E-03 0. -1.
        -11    1    3    3    0    0  0.22081659460E+02 -0.33264616767E+02 -0.28725169805E+01  0.40029810982E+02  0.51100000000E-03 0.  1.
        -12    1    3    3    0    0 -0.50480959792E+01 -0.11031182059E+01  0.57748079402E+00  0.51993871619E+01  0.00000000000E+00 0.  1.
</event>
<event>
 7    1  0.9406864E-013  0.5052886E+02  0.7816164E-02  0.1300439E+00
        -11   -1    0    0    0    0  0.00000000000E+00  0.00000000000E+00  0.45593999997E+02  0.45594000000E+02  0.51100000000E-03 0. -1.
         11   -1    0    0    0    0 -0.00000000000E+00 -0.00000000000E+00 -0.45593999997E+02  0.45594000000E+02  0.51100000000E-03 0.  1.
    9900012    2    1    2    0    0 -0.33698959255E+02 -0.19904040506E+02  0.11017031405E+02  0.50528860015E+02  0.30000000503E+02 0.  0.
        -12    1    1    2    0    0  0.33698959255E+02  0.19904040506E+02 -0.11017031405E+02  0.40659139985E+02  0.00000000000E+00 0.  1.
         11    1    3    3    0    0 -0.21212442544E+02  0.30464404837E+00  0.36911042634E+01  0.21533341070E+02  0.51100000000E-03 0. -1.
        -11    1    3    3    0    0 -0.15535774216E+02 -0.18397384974E+02  0.80231158271E+01  0.25380985840E+02  0.51100000000E-03 0.  1.
         12    1    3    3    0    0  0.30492575058E+01 -0.18112995801E+01 -0.69718868531E+00  0.36145331052E+01  0.00000000000E+00 0. -1.
</event>
<event>
 7    1  0.1182341E-012  0.5052885E+02  0.7816164E-02  0.1300439E+00
        -11   -1    0    0    0    0  0.00000000000E+00  0.00000000000E+00  0.45593999997E+02  0.45594000000E+02  0.51100000000E-03 0.  1.
         11   -1    0    0    0    0 -0.00000000000E+00 -0.00000000000E+00 -0.45593999997E+02  0.45594000000E+02  0.51100000000E-03 0. -1.
    9900012    2    1    2    0    0  0.24677808812E+02  0.23648136956E+02 -0.22021298513E+02  0.50528853213E+02  0.29999979826E+02 0.  0.
        -12    1    1    2    0    0 -0.24677808812E+02 -0.23648136956E+02  0.22021298513E+02  0.40659146787E+02  0.00000000000E+00 0.  1.
         11    1    3    3    0    0  0.25211062457E+02  0.10497696506E+02 -0.17029191624E+02  0.32183732999E+02  0.51100000000E-03 0. -1.
        -11    1    3    3    0    0 -0.15499474343E+01 -0.16302714267E+01  0.87007238273E+00  0.24118764865E+01  0.51100000000E-03 0.  1.
         12    1    3    3    0    0  0.10166937895E+01  0.14780711877E+02 -0.58621792716E+01  0.15933243727E+02  0.00000000000E+00 0. -1.
</event>
<event>
 7    1  0.9406864E-013  0.5052886E+02  0.7816164E-02  0.1300439E+00
        -11   -1    0    0    0    0  0.00000000000E+00  0.00000000000E+00  0.45593999997E+02  0.45594000000E+02  0.51100000000E-03 0. -1.
         11   -1    0    0    0    0 -0.00000000000E+00 -0.00000000000E+00 -0.45593999997E+02  0.45594000000E+02  0.51100000000E-03 0.  1.
    9900012    2    1    2    0    0  0.38371685451E+02 -0.11119588345E+02  0.75587368780E+01  0.50528855979E+02  0.29999988235E+02 0.  0.
        -12    1    1    2    0    0 -0.38371685451E+02  0.11119588345E+02 -0.75587368780E+01  0.40659144021E+02  0.00000000000E+00 0.  1.
         11    1    3    3    0    0  0.17903161754E+02 -0.33459527642E+01  0.23313735844E+01  0.18361751108E+02  0.51100000000E-03 0. -1.
        -11    1    3    3    0    0  0.50797423534E+01 -0.10969305754E+02 -0.53529822665E+01  0.13220585105E+02  0.51100000000E-03 0.  1.
        -12    1    3    3    0    0  0.15388781343E+02  0.31956701740E+01  0.10580345560E+02  0.18946519767E+02  0.00000000000E+00 0.  1.
</event>
<event>
 7    1  0.9406864E-013  0.5052885E+02  0.7816164E-02  0.1300439E+00
        -11   -1    0    0    0    0  0.00000000000E+00  0.00000000000E+00  0.45593999997E+02  0.45594000000E+02  0.51100000000E-03 0.  1.
         11   -1    0    0    0    0 -0.00000000000E+00 -0.00000000000E+00 -0.45593999997E+02  0.45594000000E+02  0.51100000000E-03 0. -1.
    9900012    2    1    2    0    0  0.10650664151E+01 -0.26027993439E+02 -0.31218189554E+02  0.50528853821E+02  0.29999981676E+02 0.  0.
        -12    1    1    2    0    0 -0.10650664151E+01  0.26027993439E+02  0.31218189554E+02  0.40659146179E+02  0.00000000000E+00 0.  1.
         11    1    3    3    0    0 -0.22333841170E+01 -0.30449732457E+02 -0.32702508449E+02  0.44739560463E+02  0.51100000000E-03 0. -1.
        -11    1    3    3    0    0  0.53631158835E+00  0.10253491481E+01  0.66784822764E+00  0.13360361191E+01  0.51100000000E-03 0.  1.
         12    1    3    3    0    0  0.27621389437E+01  0.33963898691E+01  0.81647066777E+00  0.44532572393E+01  0.00000000000E+00 0. -1.
</event>
<event>
 7    1  0.9406864E-013  0.5052885E+02  0.7816164E-02  0.1300439E+00
        -11   -1    0    0    0    0  0.00000000000E+00  0.00000000000E+00  0.45593999997E+02  0.45594000000E+02  0.51100000000E-03 0.  1.
         11   -1    0    0    0    0 -0.00000000000E+00 -0.00000000000E+00 -0.45593999997E+02  0.45594000000E+02  0.51100000000E-03 0. -1.
    9900012    2    1    2    0    0  0.30303817188E+02 -0.65000767489E+01 -0.26317178411E+02  0.50528853263E+02  0.29999979977E+02 0.  0.
        -12    1    1    2    0    0 -0.30303817188E+02  0.65000767489E+01  0.26317178411E+02  0.40659146737E+02  0.00000000000E+00 0.  1.
         11    1    3    3    0    0  0.37597061215E+01 -0.49493503818E+01  0.27445382694E+01  0.67944057794E+01  0.51100000000E-03 0. -1.
        -11    1    3    3    0    0  0.78210954390E+01  0.39261949379E+01 -0.20768834411E+02  0.22537280751E+02  0.51100000000E-03 0.  1.
        -12    1    3    3    0    0  0.18723015627E+02 -0.54769213050E+01 -0.82928822692E+01  0.21197166733E+02  0.00000000000E+00 0.  1.
</event>
<event>
 7    1  0.9406864E-013  0.5052886E+02  0.7816164E-02  0.1300439E+00
        -11   -1    0    0    0    0  0.00000000000E+00  0.00000000000E+00  0.45593999997E+02  0.45594000000E+02  0.51100000000E-03 0.  1.
         11   -1    0    0    0    0 -0.00000000000E+00 -0.00000000000E+00 -0.45593999997E+02  0.45594000000E+02  0.51100000000E-03 0. -1.
    9900012    2    1    2    0    0 -0.20950798532E+02  0.33370079434E+02  0.10033338732E+02  0.50528855313E+02  0.29999986209E+02 0.  0.
        -12    1    1    2    0    0  0.20950798532E+02 -0.33370079434E+02 -0.10033338732E+02  0.40659144687E+02  0.00000000000E+00 0.  1.
         11    1    3    3    0    0 -0.22021934723E+02  0.13817388263E+02 -0.59169378079E+00  0.26004536704E+02  0.51100000000E-03 0.  1.
        -11    1    3    3    0    0 -0.78564602070E+00  0.19970612884E+02  0.10595298651E+02  0.22620852601E+02  0.51100000000E-03 0. -1.
        -12    1    3    3    0    0  0.18567822117E+01 -0.41792171393E+00  0.29733862047E-01  0.19034660079E+01  0.00000000000E+00 0.  1.
</event>
<event>
 7    1  0.9406864E-013  0.5052886E+02  0.7816164E-02  0.1300439E+00
        -11   -1    0    0    0    0  0.00000000000E+00  0.00000000000E+00  0.45593999997E+02  0.45594000000E+02  0.51100000000E-03 0. -1.
         11   -1    0    0    0    0 -0.00000000000E+00 -0.00000000000E+00 -0.45593999997E+02  0.45594000000E+02  0.51100000000E-03 0.  1.
    9900012    2    1    2    0    0 -0.27772452147E+02  0.29577668558E+02 -0.26492286367E+01  0.50528856035E+02  0.29999988405E+02 0.  0.
        -12    1    1    2    0    0  0.27772452147E+02 -0.29577668558E+02  0.26492286367E+01  0.40659143965E+02  0.00000000000E+00 0.  1.
         11    1    3    3    0    0 -0.25949010003E+02  0.22716729168E+02  0.88364201372E+01  0.35601730651E+02  0.51100000000E-03 0. -1.
        -11    1    3    3    0    0  0.22369527417E+01  0.29913705769E+01 -0.60898797849E+01  0.71441508630E+01  0.51100000000E-03 0.  1.
         12    1    3    3    0    0 -0.40603948856E+01  0.38695688131E+01 -0.53957689890E+01  0.77829745219E+01  0.00000000000E+00 0. -1.
</event>
<event>
 7    1  0.9406864E-013  0.5052885E+02  0.7816164E-02  0.1300439E+00
        -11   -1    0    0    0    0  0.00000000000E+00  0.00000000000E+00  0.45593999997E+02  0.45594000000E+02  0.51100000000E-03 0. -1.
         11   -1    0    0    0    0 -0.00000000000E+00 -0.00000000000E+00 -0.45593999997E+02  0.45594000000E+02  0.51100000000E-03 0.  1.
    9900012    2    1    2    0    0  0.40481018406E+02  0.43760601386E+00  0.37764789139E+01  0.50528854126E+02  0.29999982603E+02 0.  0.
        -12    1    1    2    0    0 -0.40481018406E+02 -0.43760601386E+00 -0.37764789139E+01  0.40659145874E+02  0.00000000000E+00 0.  1.
         11    1    3    3    0    0  0.31776937577E+02  0.79441356898E+01 -0.59107846522E+01  0.33283936503E+02  0.51100000000E-03 0. -1.
        -11    1    3    3    0    0 -0.78518152945E+00  0.47511569519E+00 -0.63088997933E+00  0.11136729256E+01  0.51100000000E-03 0.  1.
         12    1    3    3    0    0  0.94892623578E+01 -0.79816453711E+01  0.10318153545E+02  0.16131244698E+02  0.00000000000E+00 0. -1.
</event>
<event>
 7    1  0.9406864E-013  0.5052888E+02  0.7816164E-02  0.1300439E+00
        -11   -1    0    0    0    0  0.00000000000E+00  0.00000000000E+00  0.45593999997E+02  0.45594000000E+02  0.51100000000E-03 0. -1.
         11   -1    0    0    0    0 -0.00000000000E+00 -0.00000000000E+00 -0.45593999997E+02  0.45594000000E+02  0.51100000000E-03 0.  1.
    9900012    2    1    2    0    0 -0.39970384784E+02  0.29120459327E+01 -0.68594481497E+01  0.50528884168E+02  0.30000073918E+02 0.  0.
        -12    1    1    2    0    0  0.39970384784E+02 -0.29120459327E+01  0.68594481497E+01  0.40659115832E+02  0.00000000000E+00 0.  1.
         11    1    3    3    0    0 -0.32735215238E+02  0.38723664685E+00 -0.96408735378E+01  0.34127565277E+02  0.51100000000E-03 0. -1.
        -11    1    3    3    0    0  0.18182461096E+01  0.41872378359E+00  0.62174756637E+01  0.64914060427E+01  0.51100000000E-03 0.  1.
        -12    1    3    3    0    0 -0.90534156550E+01  0.21060855022E+01 -0.34360502755E+01  0.99099128483E+01  0.00000000000E+00 0.  1.
</event>
<event>
 7    1  0.9406864E-013  0.5052886E+02  0.7816164E-02  0.1300439E+00
        -11   -1    0    0    0    0  0.00000000000E+00  0.00000000000E+00  0.45593999997E+02  0.45594000000E+02  0.51100000000E-03 0. -1.
         11   -1    0    0    0    0 -0.00000000000E+00 -0.00000000000E+00 -0.45593999997E+02  0.45594000000E+02  0.51100000000E-03 0.  1.
    9900012    2    1    2    0    0  0.93404981989E+01 -0.28642173458E+02  0.27304700465E+02  0.50528859890E+02  0.30000000121E+02 0.  0.
        -12    1    1    2    0    0 -0.93404981989E+01  0.28642173458E+02 -0.27304700465E+02  0.40659140110E+02  0.00000000000E+00 0.  1.
         11    1    3    3    0    0 -0.59227405905E+00 -0.17589476950E+01  0.96324313824E+01  0.98096085626E+01  0.51100000000E-03 0. -1.
        -11    1    3    3    0    0  0.13747338317E+02 -0.71736902474E+01  0.28530323234E+01  0.15766766830E+02  0.51100000000E-03 0.  1.
        -12    1    3    3    0    0 -0.38145660586E+01 -0.19709535516E+02  0.14819236759E+02  0.24952484498E+02  0.00000000000E+00 0.  1.
</event>
<event>
 7    1  0.9406864E-013  0.5052886E+02  0.7816164E-02  0.1300439E+00
        -11   -1    0    0    0    0  0.00000000000E+00  0.00000000000E+00  0.45593999997E+02  0.45594000000E+02  0.51100000000E-03 0. -1.
         11   -1    0    0    0    0 -0.00000000000E+00 -0.00000000000E+00 -0.45593999997E+02  0.45594000000E+02  0.51100000000E-03 0.  1.
    9900012    2    1    2    0    0 -0.77716836949E+01 -0.36705954230E+02  0.15666504174E+02  0.50528862080E+02  0.30000006777E+02 0.  0.
        -12    1    1    2    0    0  0.77716836949E+01  0.36705954230E+02 -0.15666504174E+02  0.40659137920E+02  0.00000000000E+00 0.  1.
         11    1    3    3    0    0 -0.74885707607E+01 -0.23092906593E+02  0.24254656179E+01  0.24397621004E+02  0.51100000000E-03 0. -1.
        -11    1    3    3    0    0  0.63681732674E+01 -0.11784563247E+02  0.13773114239E+02  0.19212710319E+02  0.51100000000E-03 0.  1.
        -12    1    3    3    0    0 -0.66512862016E+01 -0.18284843898E+01 -0.53207568252E+00  0.69185307567E+01  0.00000000000E+00 0.  1.
</event>
<event>
 7    1  0.9406864E-013  0.5052887E+02  0.7816164E-02  0.1300439E+00
        -11   -1    0    0    0    0  0.00000000000E+00  0.00000000000E+00  0.45593999997E+02  0.45594000000E+02  0.51100000000E-03 0.  1.
         11   -1    0    0    0    0 -0.00000000000E+00 -0.00000000000E+00 -0.45593999997E+02  0.45594000000E+02  0.51100000000E-03 0. -1.
    9900012    2    1    2    0    0 -0.40332172066E+01  0.39634215959E+02 -0.81257179710E+01  0.50528865624E+02  0.30000017550E+02 0.  0.
        -12    1    1    2    0    0  0.40332172066E+01 -0.39634215959E+02  0.81257179710E+01  0.40659134376E+02  0.00000000000E+00 0.  1.
         11    1    3    3    0    0 -0.23174573118E+01  0.26311987990E+02  0.67821413423E+00  0.26422552773E+02  0.51100000000E-03 0. -1.
        -11    1    3    3    0    0  0.23942550113E+00  0.53428311659E+00 -0.10973492325E+02  0.10989099922E+02  0.51100000000E-03 0.  1.
         12    1    3    3    0    0 -0.19551853960E+01  0.12787944852E+02  0.21695602200E+01  0.13117212929E+02  0.00000000000E+00 0. -1.
</event>
<event>
 7    1  0.9406864E-013  0.5052885E+02  0.7816164E-02  0.1300439E+00
        -11   -1    0    0    0    0  0.00000000000E+00  0.00000000000E+00  0.45593999997E+02  0.45594000000E+02  0.51100000000E-03 0.  1.
         11   -1    0    0    0    0 -0.00000000000E+00 -0.00000000000E+00 -0.45593999997E+02  0.45594000000E+02  0.51100000000E-03 0. -1.
    9900012    2    1    2    0    0 -0.27282865972E+02  0.12644420838E+02 -0.27366587389E+02  0.50528852698E+02  0.29999978262E+02 0.  0.
        -12    1    1    2    0    0  0.27282865972E+02 -0.12644420838E+02  0.27366587389E+02  0.40659147302E+02  0.00000000000E+00 0.  1.
         11    1    3    3    0    0 -0.12825845683E+02  0.18096429661E+02 -0.22631614865E+02  0.31688690027E+02  0.51100000000E-03 0. -1.
        -11    1    3    3    0    0 -0.12441039595E+02 -0.39432738486E+01 -0.75385699640E+01  0.15071791938E+02  0.51100000000E-03 0.  1.
        -12    1    3    3    0    0 -0.20159806940E+01 -0.15087349747E+01  0.28035974397E+01  0.37683707336E+01  0.00000000000E+00 0.  1.
</event>
<event>
 7    1  0.9406864E-013  0.5052885E+02  0.7816164E-02  0.1300439E+00
        -11   -1    0    0    0    0  0.00000000000E+00  0.00000000000E+00  0.45593999997E+02  0.45594000000E+02  0.51100000000E-03 0.  1.
         11   -1    0    0    0    0 -0.00000000000E+00 -0.00000000000E+00 -0.45593999997E+02  0.45594000000E+02  0.51100000000E-03 0. -1.
    9900012    2    1    2    0    0  0.13049083301E+01 -0.41986592584E+01 -0.40420725914E+02  0.50528848401E+02  0.29999965199E+02 0.  0.
        -12    1    1    2    0    0 -0.13049083301E+01  0.41986592584E+01  0.40420725914E+02  0.40659151599E+02  0.00000000000E+00 0.  1.
         11    1    3    3    0    0 -0.49608724902E+01 -0.11027811382E+02 -0.31378452084E+02  0.33627817877E+02  0.51100000000E-03 0. -1.
        -11    1    3    3    0    0  0.35450751747E+01  0.41759230589E+01 -0.11245227201E+02  0.12508438210E+02  0.51100000000E-03 0.  1.
         12    1    3    3    0    0  0.27207056455E+01  0.26532290643E+01  0.22029533709E+01  0.43925923134E+01  0.00000000000E+00 0. -1.
</event>
<event>
 7    1  0.9406864E-013  0.5052886E+02  0.7816164E-02  0.1300439E+00
        -11   -1    0    0    0    0  0.00000000000E+00  0.00000000000E+00  0.45593999997E+02  0.45594000000E+02  0.51100000000E-03 0.  1.
         11   -1    0    0    0    0 -0.00000000000E+00 -0.00000000000E+00 -0.45593999997E+02  0.45594000000E+02  0.51100000000E-03 0. -1.
    9900012    2    1    2    0    0 -0.29504613869E+02 -0.23053500682E+02 -0.15848643495E+02  0.50528860389E+02  0.30000001639E+02 0.  0.
        -12    1    1    2    0    0  0.29504613869E+02  0.23053500682E+02  0.15848643495E+02  0.40659139611E+02  0.00000000000E+00 0.  1.
         11    1    3    3    0    0 -0.20836465298E+02 -0.25388512574E+02 -0.33312334882E+01  0.33012603255E+02  0.51100000000E-03 0. -1.
        -11    1    3    3    0    0 -0.34533620259E+01  0.16819545678E+01  0.10587384347E+00  0.38426410165E+01  0.51100000000E-03 0.  1.
         12    1    3    3    0    0 -0.52147865449E+01  0.65305732409E+00 -0.12623283850E+02  0.13673616118E+02  0.00000000000E+00 0. -1.
</event>
<event>
 7    1  0.9406864E-013  0.5052886E+02  0.7816164E-02  0.1300439E+00
        -11   -1    0    0    0    0  0.00000000000E+00  0.00000000000E+00  0.45593999997E+02  0.45594000000E+02  0.51100000000E-03 0. -1.
         11   -1    0    0    0    0 -0.00000000000E+00 -0.00000000000E+00 -0.45593999997E+02  0.45594000000E+02  0.51100000000E-03 0.  1.
    9900012    2    1    2    0    0 -0.30268295615E+02  0.25229215613E+02 -0.10024121725E+02  0.50528855195E+02  0.29999985852E+02 0.  0.
        -12    1    1    2    0    0  0.30268295615E+02 -0.25229215613E+02  0.10024121725E+02  0.40659144805E+02  0.00000000000E+00 0.  1.
         11    1    3    3    0    0 -0.17951406120E+02  0.10936639027E+02  0.50983206110E+01  0.21629977536E+02  0.51100000000E-03 0. -1.
        -11    1    3    3    0    0  0.86360893190E-01  0.10624525990E+00 -0.91215035698E+01  0.91225311123E+01  0.51100000000E-03 0.  1.
        -12    1    3    3    0    0 -0.12403250388E+02  0.14186331326E+02 -0.60009387660E+01  0.19776346548E+02  0.00000000000E+00 0.  1.
</event>
<event>
 7    1  0.9406864E-013  0.5052887E+02  0.7816164E-02  0.1300439E+00
        -11   -1    0    0    0    0  0.00000000000E+00  0.00000000000E+00  0.45593999997E+02  0.45594000000E+02  0.51100000000E-03 0. -1.
         11   -1    0    0    0    0 -0.00000000000E+00 -0.00000000000E+00 -0.45593999997E+02  0.45594000000E+02  0.51100000000E-03 0.  1.
    9900012    2    1    2    0    0  0.26926408330E+02 -0.27173893825E+02 -0.13773631630E+02  0.50528869421E+02  0.30000029091E+02 0.  0.
        -12    1    1    2    0    0 -0.26926408330E+02  0.27173893825E+02  0.13773631630E+02  0.40659130579E+02  0.00000000000E+00 0.  1.
         11    1    3    3    0    0  0.60718520372E+01 -0.25213936603E+02 -0.87492906418E+01  0.27370788684E+02  0.51100000000E-03 0. -1.
        -11    1    3    3    0    0  0.77564877354E+01 -0.23552315199E+01 -0.58982402323E+01  0.10024941676E+02  0.51100000000E-03 0.  1.
         12    1    3    3    0    0  0.13098068558E+02  0.39527429723E+00  0.87389924458E+00  0.13133139061E+02  0.00000000000E+00 0. -1.
</event>
<event>
 7    1  0.9406864E-013  0.5052885E+02  0.7816164E-02  0.1300439E+00
        -11   -1    0    0    0    0  0.00000000000E+00  0.00000000000E+00  0.45593999997E+02  0.45594000000E+02  0.51100000000E-03 0.  1.
         11   -1    0    0    0    0 -0.00000000000E+00 -0.00000000000E+00 -0.45593999997E+02  0.45594000000E+02  0.51100000000E-03 0. -1.
    9900012    2    1    2    0    0 -0.37954562492E+02 -0.13859158483E+02  0.45322415492E+01  0.50528852183E+02  0.29999976694E+02 0.  0.
        -12    1    1    2    0    0  0.37954562492E+02  0.13859158483E+02 -0.45322415492E+01  0.40659147817E+02  0.00000000000E+00 0.  1.
         11    1    3    3    0    0 -0.19703281646E+02 -0.10046042212E+02  0.15726532699E+02  0.27137908960E+02  0.51100000000E-03 0. -1.
        -11    1    3    3    0    0 -0.39465649621E+01  0.26402298445E+01 -0.16675577411E+01  0.50325875763E+01  0.51100000000E-03 0.  1.
         12    1    3    3    0    0 -0.14304715884E+02 -0.64533461146E+01 -0.95267334085E+01  0.18358355646E+02  0.00000000000E+00 0. -1.
</event>
<event>
 7    1  0.9406864E-013  0.5052886E+02  0.7816164E-02  0.1300439E+00
        -11   -1    0    0    0    0  0.00000000000E+00  0.00000000000E+00  0.45593999997E+02  0.45594000000E+02  0.51100000000E-03 0.  1.
         11   -1    0    0    0    0 -0.00000000000E+00 -0.00000000000E+00 -0.45593999997E+02  0.45594000000E+02  0.51100000000E-03 0. -1.
    9900012    2    1    2    0    0 -0.27786475183E+01 -0.33735295032E+02  0.22524982341E+02  0.50528857825E+02  0.29999993846E+02 0.  0.
        -12    1    1    2    0    0  0.27786475183E+01  0.33735295032E+02 -0.22524982341E+02  0.40659142175E+02  0.00000000000E+00 0.  1.
         11    1    3    3    0    0 -0.10488994265E+02 -0.24588985169E+01  0.92279431463E+01  0.14185207703E+02  0.51100000000E-03 0. -1.
        -11    1    3    3    0    0  0.98316009663E+01 -0.19658603277E+02  0.94216323966E+01  0.23914184445E+02  0.51100000000E-03 0.  1.
        -12    1    3    3    0    0 -0.21212542193E+01 -0.11617793238E+02  0.38754067983E+01  0.12429465677E+02  0.00000000000E+00 0.  1.
</event>
<event>
 7    1  0.9406864E-013  0.5052886E+02  0.7816164E-02  0.1300439E+00
        -11   -1    0    0    0    0  0.00000000000E+00  0.00000000000E+00  0.45593999997E+02  0.45594000000E+02  0.51100000000E-03 0.  1.
         11   -1    0    0    0    0 -0.00000000000E+00 -0.00000000000E+00 -0.45593999997E+02  0.45594000000E+02  0.51100000000E-03 0. -1.
    9900012    2    1    2    0    0  0.71189637689E+01  0.38731250575E+02 -0.10118107410E+02  0.50528861866E+02  0.30000006127E+02 0.  0.
        -12    1    1    2    0    0 -0.71189637689E+01 -0.38731250575E+02  0.10118107410E+02  0.40659138134E+02  0.00000000000E+00 0.  1.
         11    1    3    3    0    0 -0.44073025522E+01  0.85676812418E+01 -0.70745982200E+01  0.11953217888E+02  0.51100000000E-03 0. -1.
        -11    1    3    3    0    0  0.11562914011E+02  0.31603861295E+02 -0.69929688496E+01  0.34371596453E+02  0.51100000000E-03 0.  1.
        -12    1    3    3    0    0 -0.36647689649E-01 -0.14402919613E+01  0.39494596592E+01  0.42040475243E+01  0.00000000000E+00 0.  1.
</event>
<event>
 7    1  0.9406864E-013  0.5052887E+02  0.7816164E-02  0.1300439E+00
        -11   -1    0    0    0    0  0.00000000000E+00  0.00000000000E+00  0.45593999997E+02  0.45594000000E+02  0.51100000000E-03 0. -1.
         11   -1    0    0    0    0 -0.00000000000E+00 -0.00000000000E+00 -0.45593999997E+02  0.45594000000E+02  0.51100000000E-03 0.  1.
    9900012    2    1    2    0    0 -0.22742924848E+01  0.40433509839E+02 -0.36226871712E+01  0.50528868350E+02  0.30000025836E+02 0.  0.
        -12    1    1    2    0    0  0.22742924848E+01 -0.40433509839E+02  0.36226871712E+01  0.40659131650E+02  0.00000000000E+00 0.  1.
         11    1    3    3    0    0 -0.36799275283E+01  0.83125395407E+01 -0.38570765841E+01  0.98750807726E+01  0.51100000000E-03 0. -1.
        -11    1    3    3    0    0  0.94895909292E+01  0.16621030478E+02  0.89404743951E+01  0.21124466214E+02  0.51100000000E-03 0.  1.
        -12    1    3    3    0    0 -0.80839558857E+01  0.15499939821E+02 -0.87060849822E+01  0.19529321363E+02  0.00000000000E+00 0.  1.
</event>
<event>
 7    1  0.9406864E-013  0.5052888E+02  0.7816164E-02  0.1300439E+00
        -11   -1    0    0    0    0  0.00000000000E+00  0.00000000000E+00  0.45593999997E+02  0.45594000000E+02  0.51100000000E-03 0.  1.
         11   -1    0    0    0    0 -0.00000000000E+00 -0.00000000000E+00 -0.45593999997E+02  0.45594000000E+02  0.51100000000E-03 0. -1.
    9900012    2    1    2    0    0  0.28522523831E+00  0.40642115439E+02  0.11407762447E+01  0.50528877146E+02  0.30000052574E+02 0.  0.
        -12    1    1    2    0    0 -0.28522523831E+00 -0.40642115439E+02 -0.11407762447E+01  0.40659122854E+02  0.00000000000E+00 0.  1.
         11    1    3    3    0    0 -0.91470905888E+00  0.17430106641E+02  0.47517613798E+01  0.18089348984E+02  0.51100000000E-03 0. -1.
        -11    1    3    3    0    0 -0.37383923188E+01  0.17007485410E+02 -0.11804136990E+02  0.21037295155E+02  0.51100000000E-03 0.  1.
        -12    1    3    3    0    0  0.49383266160E+01  0.62045233884E+01  0.81931518550E+01  0.11402233008E+02  0.00000000000E+00 0.  1.
</event>
<event>
 7    1  0.9406864E-013  0.5052886E+02  0.7816164E-02  0.1300439E+00
        -11   -1    0    0    0    0  0.00000000000E+00  0.00000000000E+00  0.45593999997E+02  0.45594000000E+02  0.51100000000E-03 0.  1.
         11   -1    0    0    0    0 -0.00000000000E+00 -0.00000000000E+00 -0.45593999997E+02  0.45594000000E+02  0.51100000000E-03 0. -1.
    9900012    2    1    2    0    0 -0.51466288697E+01 -0.24353596442E+02 -0.32149342784E+02  0.50528859701E+02  0.29999999548E+02 0.  0.
        -12    1    1    2    0    0  0.51466288697E+01  0.24353596442E+02  0.32149342784E+02  0.40659140299E+02  0.00000000000E+00 0.  1.
         11    1    3    3    0    0 -0.11429510520E+02 -0.24003360770E+02 -0.33573503659E+02  0.42824936511E+02  0.51100000000E-03 0. -1.
        -11    1    3    3    0    0  0.37591421140E+01  0.73244267936E+00 -0.10886998845E+01  0.39815687124E+01  0.51100000000E-03 0.  1.
         12    1    3    3    0    0  0.25237395362E+01 -0.10826783513E+01  0.25128607596E+01  0.37223544775E+01  0.00000000000E+00 0. -1.
</event>
<event>
 7    1  0.9406864E-013  0.5052880E+02  0.7816164E-02  0.1300439E+00
        -11   -1    0    0    0    0  0.00000000000E+00  0.00000000000E+00  0.45593999997E+02  0.45594000000E+02  0.51100000000E-03 0.  1.
         11   -1    0    0    0    0 -0.00000000000E+00 -0.00000000000E+00 -0.45593999997E+02  0.45594000000E+02  0.51100000000E-03 0. -1.
    9900012    2    1    2    0    0  0.28807337404E+02  0.22725164663E+02 -0.17517840141E+02  0.50528800297E+02  0.29999818983E+02 0.  0.
        -12    1    1    2    0    0 -0.28807337404E+02 -0.22725164663E+02  0.17517840141E+02  0.40659199703E+02  0.00000000000E+00 0.  1.
         11    1    3    3    0    0  0.26955519979E+02  0.15908575910E+02 -0.24541811738E+02  0.39774154529E+02  0.51100000000E-03 0. -1.
        -11    1    3    3    0    0 -0.64242554836E+00  0.10500577198E+01  0.31289731067E+01  0.33624105585E+01  0.51100000000E-03 0.  1.
         12    1    3    3    0    0  0.24942429730E+01  0.57665310328E+01  0.38949984901E+01  0.73922352099E+01  0.00000000000E+00 0. -1.
</event>
<event>
 7    1  0.9406864E-013  0.5052882E+02  0.7816164E-02  0.1300439E+00
        -11   -1    0    0    0    0  0.00000000000E+00  0.00000000000E+00  0.45593999997E+02  0.45594000000E+02  0.51100000000E-03 0.  1.
         11   -1    0    0    0    0 -0.00000000000E+00 -0.00000000000E+00 -0.45593999997E+02  0.45594000000E+02  0.51100000000E-03 0. -1.
    9900012    2    1    2    0    0  0.21367148914E+02  0.30326009784E+02 -0.16641716863E+02  0.50528823148E+02  0.29999888440E+02 0.  0.
        -12    1    1    2    0    0 -0.21367148914E+02 -0.30326009784E+02  0.16641716863E+02  0.40659176852E+02  0.00000000000E+00 0.  1.
         11    1    3    3    0    0  0.19210238013E+02  0.83878662703E+01 -0.17388906184E+02  0.27235337406E+02  0.51100000000E-03 0. -1.
        -11    1    3    3    0    0  0.46407326027E+01  0.17831056417E+02 -0.66944803668E-01  0.18425185316E+02  0.51100000000E-03 0.  1.
         12    1    3    3    0    0 -0.24838217018E+01  0.41070870966E+01  0.81413412506E+00  0.48683004261E+01  0.00000000000E+00 0. -1.
</event>
<event>
 7    1  0.9406864E-013  0.5052885E+02  0.7816164E-02  0.1300439E+00
        -11   -1    0    0    0    0  0.00000000000E+00  0.00000000000E+00  0.45593999997E+02  0.45594000000E+02  0.51100000000E-03 0.  1.
         11   -1    0    0    0    0 -0.00000000000E+00 -0.00000000000E+00 -0.45593999997E+02  0.45594000000E+02  0.51100000000E-03 0. -1.
    9900012    2    1    2    0    0  0.21235696161E+00  0.34438258494E+02  0.21613143038E+02  0.50528847334E+02  0.29999961956E+02 0.  0.
        -12    1    1    2    0    0 -0.21235696161E+00 -0.34438258494E+02 -0.21613143038E+02  0.40659152666E+02  0.00000000000E+00 0.  1.
         11    1    3    3    0    0  0.32133272663E+01  0.12744908918E+02 -0.20021843713E+01  0.13295372051E+02  0.51100000000E-03 0. -1.
        -11    1    3    3    0    0 -0.74318326697E+01  0.18170272101E+02  0.24615358705E+02  0.31485025163E+02  0.51100000000E-03 0.  1.
        -12    1    3    3    0    0  0.44308623649E+01  0.35230774742E+01 -0.10000312962E+01  0.57484501198E+01  0.00000000000E+00 0.  1.
</event>
<event>
 7    1  0.9406864E-013  0.5052889E+02  0.7816164E-02  0.1300439E+00
        -11   -1    0    0    0    0  0.00000000000E+00  0.00000000000E+00  0.45593999997E+02  0.45594000000E+02  0.51100000000E-03 0. -1.
         11   -1    0    0    0    0 -0.00000000000E+00 -0.00000000000E+00 -0.45593999997E+02  0.45594000000E+02  0.51100000000E-03 0.  1.
    9900012    2    1    2    0    0 -0.21934618774E+02 -0.28216206322E+02  0.19387660277E+02  0.50528890676E+02  0.30000093699E+02 0.  0.
        -12    1    1    2    0    0  0.21934618774E+02  0.28216206322E+02 -0.19387660277E+02  0.40659109324E+02  0.00000000000E+00 0.  1.
         11    1    3    3    0    0 -0.37486389904E+01 -0.21811595421E+02  0.16092074271E+02  0.27363348547E+02  0.51100000000E-03 0. -1.
        -11    1    3    3    0    0 -0.17321730873E+02 -0.40745668000E+01 -0.14034998774E+01  0.17849769388E+02  0.51100000000E-03 0.  1.
        -12    1    3    3    0    0 -0.86424891057E+00 -0.23300441010E+01  0.46990858842E+01  0.53157727415E+01  0.00000000000E+00 0.  1.
</event>
<event>
 7    1  0.9406864E-013  0.5052886E+02  0.7816164E-02  0.1300439E+00
        -11   -1    0    0    0    0  0.00000000000E+00  0.00000000000E+00  0.45593999997E+02  0.45594000000E+02  0.51100000000E-03 0.  1.
         11   -1    0    0    0    0 -0.00000000000E+00 -0.00000000000E+00 -0.45593999997E+02  0.45594000000E+02  0.51100000000E-03 0. -1.
    9900012    2    1    2    0    0  0.38441327703E+02  0.12165790790E+02 -0.52367206970E+01  0.50528863452E+02  0.30000010950E+02 0.  0.
        -12    1    1    2    0    0 -0.38441327703E+02 -0.12165790790E+02  0.52367206970E+01  0.40659136548E+02  0.00000000000E+00 0.  1.
         11    1    3    3    0    0  0.28162051402E+01  0.12003714703E+02  0.23917342962E+00  0.12331965871E+02  0.51100000000E-03 0.  1.
        -11    1    3    3    0    0  0.30530655680E+02 -0.45161831551E+01 -0.39575104392E+01  0.31115570630E+02  0.51100000000E-03 0. -1.
         12    1    3    3    0    0  0.50944668837E+01  0.46782592421E+01 -0.15183836875E+01  0.70813269511E+01  0.00000000000E+00 0. -1.
</event>
<event>
 7    1  0.9406864E-013  0.5052885E+02  0.7816164E-02  0.1300439E+00
        -11   -1    0    0    0    0  0.00000000000E+00  0.00000000000E+00  0.45593999997E+02  0.45594000000E+02  0.51100000000E-03 0. -1.
         11   -1    0    0    0    0 -0.00000000000E+00 -0.00000000000E+00 -0.45593999997E+02  0.45594000000E+02  0.51100000000E-03 0.  1.
    9900012    2    1    2    0    0 -0.37652849685E+02 -0.14263047702E+02 -0.56564093245E+01  0.50528848686E+02  0.29999966066E+02 0.  0.
        -12    1    1    2    0    0  0.37652849685E+02  0.14263047702E+02  0.56564093245E+01  0.40659151314E+02  0.00000000000E+00 0.  1.
         11    1    3    3    0    0 -0.47451622300E+00 -0.18230350849E+01  0.38935167595E+00  0.19235949561E+01  0.51100000000E-03 0. -1.
        -11    1    3    3    0    0 -0.26789536132E+01 -0.13147621241E+02  0.73825123745E+00  0.13438070989E+02  0.51100000000E-03 0.  1.
        -12    1    3    3    0    0 -0.34499379848E+02  0.70760862326E+00 -0.67840122379E+01  0.35167182741E+02  0.00000000000E+00 0.  1.
</event>
<event>
 7    1  0.9406864E-013  0.5052886E+02  0.7816164E-02  0.1300439E+00
        -11   -1    0    0    0    0  0.00000000000E+00  0.00000000000E+00  0.45593999997E+02  0.45594000000E+02  0.51100000000E-03 0.  1.
         11   -1    0    0    0    0 -0.00000000000E+00 -0.00000000000E+00 -0.45593999997E+02  0.45594000000E+02  0.51100000000E-03 0. -1.
    9900012    2    1    2    0    0 -0.38812051119E+02  0.12059102880E+02  0.11696228933E+01  0.50528864593E+02  0.30000014416E+02 0.  0.
        -12    1    1    2    0    0  0.38812051119E+02 -0.12059102880E+02 -0.11696228933E+01  0.40659135407E+02  0.00000000000E+00 0.  1.
         11    1    3    3    0    0 -0.16084049971E+02  0.74467422374E+01 -0.90006774031E+01  0.19878702860E+02  0.51100000000E-03 0. -1.
        -11    1    3    3    0    0 -0.82013018293E+01 -0.65805558486E+01  0.46617440921E+01  0.11502040046E+02  0.51100000000E-03 0.  1.
        -12    1    3    3    0    0 -0.14526699320E+02  0.11192916491E+02  0.55085562043E+01  0.19148121687E+02  0.00000000000E+00 0.  1.
</event>
<event>
 7    1  0.9406864E-013  0.5052886E+02  0.7816164E-02  0.1300439E+00
        -11   -1    0    0    0    0  0.00000000000E+00  0.00000000000E+00  0.45593999997E+02  0.45594000000E+02  0.51100000000E-03 0.  1.
         11   -1    0    0    0    0 -0.00000000000E+00 -0.00000000000E+00 -0.45593999997E+02  0.45594000000E+02  0.51100000000E-03 0. -1.
    9900012    2    1    2    0    0  0.77654603949E+01 -0.15849296323E+02 -0.36628715899E+02  0.50528863296E+02  0.30000010475E+02 0.  0.
        -12    1    1    2    0    0 -0.77654603949E+01  0.15849296323E+02  0.36628715899E+02  0.40659136704E+02  0.00000000000E+00 0.  1.
         11    1    3    3    0    0  0.19843708863E+01 -0.21248794904E+02 -0.31162026801E+02  0.37769311978E+02  0.51100000000E-03 0. -1.
        -11    1    3    3    0    0  0.53292878202E+01  0.38500601647E+01  0.48550680837E+00  0.65924190601E+01  0.51100000000E-03 0.  1.
        -12    1    3    3    0    0  0.45180168835E+00  0.15494384167E+01 -0.59521959070E+01  0.61671322580E+01  0.00000000000E+00 0.  1.
</event>
<event>
 7    1  0.9406864E-013  0.5052886E+02  0.7816164E-02  0.1300439E+00
        -11   -1    0    0    0    0  0.00000000000E+00  0.00000000000E+00  0.45593999997E+02  0.45594000000E+02  0.51100000000E-03 0.  1.
         11   -1    0    0    0    0 -0.00000000000E+00 -0.00000000000E+00 -0.45593999997E+02  0.45594000000E+02  0.51100000000E-03 0. -1.
    9900012    2    1    2    0    0  0.23849617644E+02  0.39459099126E+01 -0.32692374275E+02  0.50528858315E+02  0.29999995335E+02 0.  0.
        -12    1    1    2    0    0 -0.23849617644E+02 -0.39459099126E+01  0.32692374275E+02  0.40659141685E+02  0.00000000000E+00 0.  1.
         11    1    3    3    0    0  0.58539395534E+01  0.23392040246E+01 -0.31748993883E+01  0.70583617186E+01  0.51100000000E-03 0. -1.
        -11    1    3    3    0    0 -0.28716077184E+01  0.92486167111E+01 -0.85835346269E+01  0.12940637887E+02  0.51100000000E-03 0.  1.
        -12    1    3    3    0    0  0.20867285809E+02 -0.76419108231E+01 -0.20933940259E+02  0.30529858710E+02  0.00000000000E+00 0.  1.
</event>
<event>
 7    1  0.9406864E-013  0.5052887E+02  0.7816164E-02  0.1300439E+00
        -11   -1    0    0    0    0  0.00000000000E+00  0.00000000000E+00  0.45593999997E+02  0.45594000000E+02  0.51100000000E-03 0.  1.
         11   -1    0    0    0    0 -0.00000000000E+00 -0.00000000000E+00 -0.45593999997E+02  0.45594000000E+02  0.51100000000E-03 0. -1.
    9900012    2    1    2    0    0  0.29919820999E+02  0.24417314634E+02  0.12718641579E+02  0.50528870814E+02  0.30000033325E+02 0.  0.
        -12    1    1    2    0    0 -0.29919820999E+02 -0.24417314634E+02 -0.12718641579E+02  0.40659129186E+02  0.00000000000E+00 0.  1.
         11    1    3    3    0    0  0.76315324973E+01  0.28665669306E+00 -0.77276084294E+01  0.10864547511E+02  0.51100000000E-03 0. -1.
        -11    1    3    3    0    0  0.12894008370E+02  0.10989819251E+02  0.14968843908E+02  0.22607473703E+02  0.51100000000E-03 0.  1.
         12    1    3    3    0    0  0.93942801318E+01  0.13140838691E+02  0.54774061003E+01  0.17056849600E+02  0.00000000000E+00 0. -1.
</event>
<event>
 7    1  0.9406864E-013  0.5052886E+02  0.7816164E-02  0.1300439E+00
        -11   -1    0    0    0    0  0.00000000000E+00  0.00000000000E+00  0.45593999997E+02  0.45594000000E+02  0.51100000000E-03 0.  1.
         11   -1    0    0    0    0 -0.00000000000E+00 -0.00000000000E+00 -0.45593999997E+02  0.45594000000E+02  0.51100000000E-03 0. -1.
    9900012    2    1    2    0    0 -0.59952977786E+01  0.31967595946E+02 -0.24398673368E+02  0.50528855295E+02  0.29999986154E+02 0.  0.
        -12    1    1    2    0    0  0.59952977786E+01 -0.31967595946E+02  0.24398673368E+02  0.40659144705E+02  0.00000000000E+00 0.  1.
         11    1    3    3    0    0 -0.78159809820E+01  0.41606616270E+01 -0.78193082832E+01  0.11812800099E+02  0.51100000000E-03 0.  1.
        -11    1    3    3    0    0  0.31572248768E+01  0.30034945685E+02 -0.18561196334E+02  0.35448329168E+02  0.51100000000E-03 0. -1.
        -12    1    3    3    0    0 -0.13365416735E+01 -0.22280113658E+01  0.19818312493E+01  0.32677260276E+01  0.00000000000E+00 0.  1.
</event>
<event>
 7    1  0.9406864E-013  0.5052886E+02  0.7816164E-02  0.1300439E+00
        -11   -1    0    0    0    0  0.00000000000E+00  0.00000000000E+00  0.45593999997E+02  0.45594000000E+02  0.51100000000E-03 0.  1.
         11   -1    0    0    0    0 -0.00000000000E+00 -0.00000000000E+00 -0.45593999997E+02  0.45594000000E+02  0.51100000000E-03 0. -1.
    9900012    2    1    2    0    0 -0.34257792256E+02 -0.14539466944E+02 -0.16376000115E+02  0.50528858235E+02  0.29999995091E+02 0.  0.
        -12    1    1    2    0    0  0.34257792256E+02  0.14539466944E+02  0.16376000115E+02  0.40659141765E+02  0.00000000000E+00 0.  1.
         11    1    3    3    0    0 -0.13020230985E+02 -0.11355124553E+02 -0.41793415179E+01  0.17774480704E+02  0.51100000000E-03 0. -1.
        -11    1    3    3    0    0 -0.39653551935E+01  0.61911326160E+01  0.29704974556E+01  0.79295662097E+01  0.51100000000E-03 0.  1.
        -12    1    3    3    0    0 -0.17272206078E+02 -0.93754750067E+01 -0.15167156052E+02  0.24824811321E+02  0.00000000000E+00 0.  1.
</event>
<event>
 7    1  0.9406864E-013  0.5052886E+02  0.7816164E-02  0.1300439E+00
        -11   -1    0    0    0    0  0.00000000000E+00  0.00000000000E+00  0.45593999997E+02  0.45594000000E+02  0.51100000000E-03 0.  1.
         11   -1    0    0    0    0 -0.00000000000E+00 -0.00000000000E+00 -0.45593999997E+02  0.45594000000E+02  0.51100000000E-03 0. -1.
    9900012    2    1    2    0    0  0.24861900851E+02  0.11122689914E+02 -0.30188357816E+02  0.50528864588E+02  0.30000014401E+02 0.  0.
        -12    1    1    2    0    0 -0.24861900851E+02 -0.11122689914E+02  0.30188357816E+02  0.40659135412E+02  0.00000000000E+00 0.  1.
         11    1    3    3    0    0  0.86320711849E+01  0.10138616898E+02 -0.69575509820E+00  0.13333727197E+02  0.51100000000E-03 0. -1.
        -11    1    3    3    0    0 -0.15097992844E+01 -0.38161922436E+01 -0.37042544372E+01  0.55285005486E+01  0.51100000000E-03 0.  1.
         12    1    3    3    0    0  0.17739628950E+02  0.48002652593E+01 -0.25788348281E+02  0.31666636842E+02  0.00000000000E+00 0. -1.
</event>
<event>
 7    1  0.9406864E-013  0.5052892E+02  0.7816164E-02  0.1300439E+00
        -11   -1    0    0    0    0  0.00000000000E+00  0.00000000000E+00  0.45593999997E+02  0.45594000000E+02  0.51100000000E-03 0.  1.
         11   -1    0    0    0    0 -0.00000000000E+00 -0.00000000000E+00 -0.45593999997E+02  0.45594000000E+02  0.51100000000E-03 0. -1.
    9900012    2    1    2    0    0 -0.31988370809E+02 -0.15358250566E+02 -0.19850159041E+02  0.50528923013E+02  0.30000191990E+02 0.  0.
        -12    1    1    2    0    0  0.31988370809E+02  0.15358250566E+02  0.19850159041E+02  0.40659076987E+02  0.00000000000E+00 0.  1.
         11    1    3    3    0    0 -0.26491266073E+02 -0.38652077170E+01 -0.50310167790E+01  0.27240376997E+02  0.51100000000E-03 0. -1.
        -11    1    3    3    0    0  0.25253720813E+01 -0.24245832925E+01 -0.93860590915E+01  0.10017695035E+02  0.51100000000E-03 0.  1.
         12    1    3    3    0    0 -0.80224768180E+01 -0.90684595564E+01 -0.54330831704E+01  0.13270850981E+02  0.00000000000E+00 0. -1.
</event>
<event>
 7    1  0.9406864E-013  0.5052886E+02  0.7816164E-02  0.1300439E+00
        -11   -1    0    0    0    0  0.00000000000E+00  0.00000000000E+00  0.45593999997E+02  0.45594000000E+02  0.51100000000E-03 0.  1.
         11   -1    0    0    0    0 -0.00000000000E+00 -0.00000000000E+00 -0.45593999997E+02  0.45594000000E+02  0.51100000000E-03 0. -1.
    9900012    2    1    2    0    0  0.18273427189E+02 -0.18867472213E+02 -0.31036524725E+02  0.50528861840E+02  0.30000006049E+02 0.  0.
        -12    1    1    2    0    0 -0.18273427189E+02  0.18867472213E+02  0.31036524725E+02  0.40659138160E+02  0.00000000000E+00 0.  1.
         11    1    3    3    0    0 -0.36597167477E+01 -0.47531812359E+01 -0.11510824768E+02  0.12980190508E+02  0.51100000000E-03 0. -1.
        -11    1    3    3    0    0  0.11941296415E+02 -0.72918171663E+01  0.66837144352E+00  0.14007565038E+02  0.51100000000E-03 0.  1.
        -12    1    3    3    0    0  0.99918475212E+01 -0.68224738109E+01 -0.20194071401E+02  0.23541106294E+02  0.00000000000E+00 0.  1.
</event>
<event>
 7    1  0.9406864E-013  0.5052886E+02  0.7816164E-02  0.1300439E+00
        -11   -1    0    0    0    0  0.00000000000E+00  0.00000000000E+00  0.45593999997E+02  0.45594000000E+02  0.51100000000E-03 0.  1.
         11   -1    0    0    0    0 -0.00000000000E+00 -0.00000000000E+00 -0.45593999997E+02  0.45594000000E+02  0.51100000000E-03 0. -1.
    9900012    2    1    2    0    0 -0.56227823680E+01  0.96928202547E+01 -0.39084511461E+02  0.50528862255E+02  0.30000007310E+02 0.  0.
        -12    1    1    2    0    0  0.56227823680E+01 -0.96928202547E+01  0.39084511461E+02  0.40659137745E+02  0.00000000000E+00 0.  1.
         11    1    3    3    0    0 -0.99963748371E+01  0.10500787750E+02 -0.39898927961E+02  0.42451366361E+02  0.51100000000E-03 0. -1.
        -11    1    3    3    0    0  0.57222426073E+01  0.61961983743E-02 -0.85084601874E+00  0.57851567013E+01  0.51100000000E-03 0.  1.
         12    1    3    3    0    0 -0.13486501382E+01 -0.81416369350E+00  0.16652625189E+01  0.22923391922E+01  0.00000000000E+00 0. -1.
</event>
<event>
 7    1  0.9406864E-013  0.5052886E+02  0.7816164E-02  0.1300439E+00
        -11   -1    0    0    0    0  0.00000000000E+00  0.00000000000E+00  0.45593999997E+02  0.45594000000E+02  0.51100000000E-03 0.  1.
         11   -1    0    0    0    0 -0.00000000000E+00 -0.00000000000E+00 -0.45593999997E+02  0.45594000000E+02  0.51100000000E-03 0. -1.
    9900012    2    1    2    0    0  0.16953512752E+01  0.56095228929E+00 -0.40619905028E+02  0.50528861200E+02  0.30000004105E+02 0.  0.
        -12    1    1    2    0    0 -0.16953512752E+01 -0.56095228929E+00  0.40619905028E+02  0.40659138800E+02  0.00000000000E+00 0.  1.
         11    1    3    3    0    0  0.11878897065E+01 -0.63989180716E+01 -0.15954595382E+02  0.17230970620E+02  0.51100000000E-03 0. -1.
        -11    1    3    3    0    0 -0.94756060883E+01  0.61510049656E+01 -0.79584155405E+01  0.13818768071E+02  0.51100000000E-03 0.  1.
        -12    1    3    3    0    0  0.99830676571E+01  0.80886539527E+00 -0.16706894105E+02  0.19479122509E+02  0.00000000000E+00 0.  1.
</event>
<event>
 7    1  0.9406864E-013  0.5052886E+02  0.7816164E-02  0.1300439E+00
        -11   -1    0    0    0    0  0.00000000000E+00  0.00000000000E+00  0.45593999997E+02  0.45594000000E+02  0.51100000000E-03 0.  1.
         11   -1    0    0    0    0 -0.00000000000E+00 -0.00000000000E+00 -0.45593999997E+02  0.45594000000E+02  0.51100000000E-03 0. -1.
    9900012    2    1    2    0    0 -0.32946800862E+01  0.84096288341E+01 -0.39643268940E+02  0.50528861467E+02  0.30000004915E+02 0.  0.
        -12    1    1    2    0    0  0.32946800862E+01 -0.84096288341E+01  0.39643268940E+02  0.40659138533E+02  0.00000000000E+00 0.  1.
         11    1    3    3    0    0  0.93152225762E+00 -0.21123856412E-01 -0.16059252237E+02  0.16086260057E+02  0.51100000000E-03 0. -1.
        -11    1    3    3    0    0 -0.82683562682E+01 -0.42810822678E+01 -0.27576925332E+01  0.97107285582E+01  0.51100000000E-03 0.  1.
        -12    1    3    3    0    0  0.40421539244E+01  0.12711834958E+02 -0.20826324169E+02  0.24731872852E+02  0.00000000000E+00 0.  1.
</event>
<event>
 7    1  0.9406864E-013  0.5052886E+02  0.7816164E-02  0.1300439E+00
        -11   -1    0    0    0    0  0.00000000000E+00  0.00000000000E+00  0.45593999997E+02  0.45594000000E+02  0.51100000000E-03 0.  1.
         11   -1    0    0    0    0 -0.00000000000E+00 -0.00000000000E+00 -0.45593999997E+02  0.45594000000E+02  0.51100000000E-03 0. -1.
    9900012    2    1    2    0    0 -0.24919692018E+02 -0.86638596126E+01 -0.30937227809E+02  0.50528861075E+02  0.30000003724E+02 0.  0.
        -12    1    1    2    0    0  0.24919692018E+02  0.86638596126E+01  0.30937227809E+02  0.40659138925E+02  0.00000000000E+00 0.  1.
         11    1    3    3    0    0 -0.16096461579E+02 -0.70965509035E+01 -0.24230247972E+02  0.29942645627E+02  0.51100000000E-03 0. -1.
        -11    1    3    3    0    0  0.29585125131E+01 -0.53719433425E+01  0.67808145290E+00  0.61701188224E+01  0.51100000000E-03 0.  1.
        -12    1    3    3    0    0 -0.11781742952E+02  0.38046346334E+01 -0.73850612898E+01  0.14416096626E+02  0.00000000000E+00 0.  1.
</event>
<event>
 7    1  0.9406864E-013  0.5052886E+02  0.7816164E-02  0.1300439E+00
        -11   -1    0    0    0    0  0.00000000000E+00  0.00000000000E+00  0.45593999997E+02  0.45594000000E+02  0.51100000000E-03 0. -1.
         11   -1    0    0    0    0 -0.00000000000E+00 -0.00000000000E+00 -0.45593999997E+02  0.45594000000E+02  0.51100000000E-03 0.  1.
    9900012    2    1    2    0    0  0.48434540914E+00 -0.17524880278E+02  0.36685281818E+02  0.50528856855E+02  0.29999990896E+02 0.  0.
        -12    1    1    2    0    0 -0.48434540914E+00  0.17524880278E+02 -0.36685281818E+02  0.40659143145E+02  0.00000000000E+00 0.  1.
         11    1    3    3    0    0 -0.89784042201E+01  0.18359002131E+01  0.96108688922E+01  0.13279724133E+02  0.51100000000E-03 0.  1.
        -11    1    3    3    0    0  0.26597186637E+01 -0.13380092116E+02  0.24139235359E+02  0.27727308783E+02  0.51100000000E-03 0. -1.
        -12    1    3    3    0    0  0.68030309655E+01 -0.59806883752E+01  0.29351775673E+01  0.95218239382E+01  0.00000000000E+00 0.  1.
</event>
<event>
 7    1  0.9406864E-013  0.5052887E+02  0.7816164E-02  0.1300439E+00
        -11   -1    0    0    0    0  0.00000000000E+00  0.00000000000E+00  0.45593999997E+02  0.45594000000E+02  0.51100000000E-03 0.  1.
         11   -1    0    0    0    0 -0.00000000000E+00 -0.00000000000E+00 -0.45593999997E+02  0.45594000000E+02  0.51100000000E-03 0. -1.
    9900012    2    1    2    0    0  0.25924425560E+02 -0.30622342767E+02 -0.65849196020E+01  0.50528869619E+02  0.30000029695E+02 0.  0.
        -12    1    1    2    0    0 -0.25924425560E+02  0.30622342767E+02  0.65849196020E+01  0.40659130381E+02  0.00000000000E+00 0.  1.
         11    1    3    3    0    0  0.20930275934E+02 -0.19379135151E+02  0.90687468792E+01  0.29931079167E+02  0.51100000000E-03 0. -1.
        -11    1    3    3    0    0  0.34652383763E+01 -0.20584508624E+01 -0.55348369171E+01  0.68468618299E+01  0.51100000000E-03 0.  1.
         12    1    3    3    0    0  0.15289112495E+01 -0.91847567537E+01 -0.10118829564E+02  0.13750928622E+02  0.00000000000E+00 0. -1.
</event>
<event>
 7    1  0.9406864E-013  0.5052886E+02  0.7816164E-02  0.1300439E+00
        -11   -1    0    0    0    0  0.00000000000E+00  0.00000000000E+00  0.45593999997E+02  0.45594000000E+02  0.51100000000E-03 0. -1.
         11   -1    0    0    0    0 -0.00000000000E+00 -0.00000000000E+00 -0.45593999997E+02  0.45594000000E+02  0.51100000000E-03 0.  1.
    9900012    2    1    2    0    0  0.28948171184E+02  0.57527285514E+01  0.27965604724E+02  0.50528861442E+02  0.30000004840E+02 0.  0.
        -12    1    1    2    0    0 -0.28948171184E+02 -0.57527285514E+01 -0.27965604724E+02  0.40659138558E+02  0.00000000000E+00 0.  1.
         11    1    3    3    0    0  0.18433434916E+02 -0.36366537100E+01  0.28078347152E+02  0.33784765088E+02  0.51100000000E-03 0. -1.
        -11    1    3    3    0    0  0.26873476137E+01  0.81326202229E+01  0.13845236974E+01  0.86763042257E+01  0.51100000000E-03 0.  1.
         12    1    3    3    0    0  0.78273886546E+01  0.12567620385E+01 -0.14972661258E+01  0.80677921282E+01  0.00000000000E+00 0. -1.
</event>
<event>
 7    1  0.9406864E-013  0.5052887E+02  0.7816164E-02  0.1300439E+00
        -11   -1    0    0    0    0  0.00000000000E+00  0.00000000000E+00  0.45593999997E+02  0.45594000000E+02  0.51100000000E-03 0. -1.
         11   -1    0    0    0    0 -0.00000000000E+00 -0.00000000000E+00 -0.45593999997E+02  0.45594000000E+02  0.51100000000E-03 0.  1.
    9900012    2    1    2    0    0 -0.13371403325E+02  0.46852643015E+01  0.38110613844E+02  0.50528867987E+02  0.30000024735E+02 0.  0.
        -12    1    1    2    0    0  0.13371403325E+02 -0.46852643015E+01 -0.38110613844E+02  0.40659132013E+02  0.00000000000E+00 0.  1.
         11    1    3    3    0    0  0.85939880385E+01  0.26114095972E+01  0.18902946776E+02  0.20928389512E+02  0.51100000000E-03 0. -1.
        -11    1    3    3    0    0 -0.67155743768E+01  0.20920062328E+01  0.41370260259E+01  0.81602949633E+01  0.51100000000E-03 0.  1.
         12    1    3    3    0    0 -0.15249816987E+02 -0.18151528507E-01  0.15070641042E+02  0.21440183512E+02  0.00000000000E+00 0. -1.
</event>
<event>
 7    1  0.9406864E-013  0.5052886E+02  0.7816164E-02  0.1300439E+00
        -11   -1    0    0    0    0  0.00000000000E+00  0.00000000000E+00  0.45593999997E+02  0.45594000000E+02  0.51100000000E-03 0.  1.
         11   -1    0    0    0    0 -0.00000000000E+00 -0.00000000000E+00 -0.45593999997E+02  0.45594000000E+02  0.51100000000E-03 0. -1.
    9900012    2    1    2    0    0  0.87635911777E+01  0.72262997068E+01 -0.39040310125E+02  0.50528858931E+02  0.29999997207E+02 0.  0.
        -12    1    1    2    0    0 -0.87635911777E+01 -0.72262997068E+01  0.39040310125E+02  0.40659141069E+02  0.00000000000E+00 0.  1.
         11    1    3    3    0    0  0.57988681188E+01  0.52288961983E+00 -0.14727726628E+02  0.15836862596E+02  0.51100000000E-03 0. -1.
        -11    1    3    3    0    0  0.80767077910E+01  0.29915981963E+01  0.93730968520E+00  0.86637992945E+01  0.51100000000E-03 0.  1.
        -12    1    3    3    0    0 -0.51119847320E+01  0.37118118907E+01 -0.25249893183E+02  0.26028197040E+02  0.00000000000E+00 0.  1.
</event>
<event>
 7    1  0.9406864E-013  0.5052886E+02  0.7816164E-02  0.1300439E+00
        -11   -1    0    0    0    0  0.00000000000E+00  0.00000000000E+00  0.45593999997E+02  0.45594000000E+02  0.51100000000E-03 0.  1.
         11   -1    0    0    0    0 -0.00000000000E+00 -0.00000000000E+00 -0.45593999997E+02  0.45594000000E+02  0.51100000000E-03 0. -1.
    9900012    2    1    2    0    0  0.30090474332E+02  0.14220584452E+02 -0.23356032773E+02  0.50528856692E+02  0.29999990400E+02 0.  0.
        -12    1    1    2    0    0 -0.30090474332E+02 -0.14220584452E+02  0.23356032773E+02  0.40659143308E+02  0.00000000000E+00 0.  1.
         11    1    3    3    0    0  0.24052339191E+02  0.11432669931E+02 -0.23821529131E+02  0.35730746041E+02  0.51100000000E-03 0. -1.
        -11    1    3    3    0    0  0.89794708590E+01 -0.10625455139E+01  0.27362382814E+01  0.94470577468E+01  0.51100000000E-03 0.  1.
        -12    1    3    3    0    0 -0.29413357180E+01  0.38504600357E+01 -0.22707419237E+01  0.53510529036E+01  0.00000000000E+00 0.  1.
</event>
<event>
 7    1  0.9406864E-013  0.5052887E+02  0.7816164E-02  0.1300439E+00
        -11   -1    0    0    0    0  0.00000000000E+00  0.00000000000E+00  0.45593999997E+02  0.45594000000E+02  0.51100000000E-03 0.  1.
         11   -1    0    0    0    0 -0.00000000000E+00 -0.00000000000E+00 -0.45593999997E+02  0.45594000000E+02  0.51100000000E-03 0. -1.
    9900012    2    1    2    0    0  0.79228204907E+01 -0.33860543272E+02 -0.21067921446E+02  0.50528870776E+02  0.30000033210E+02 0.  0.
        -12    1    1    2    0    0 -0.79228204907E+01  0.33860543272E+02  0.21067921446E+02  0.40659129224E+02  0.00000000000E+00 0.  1.
         11    1    3    3    0    0  0.14081243722E+02 -0.14347796471E+02 -0.54621119191E+01  0.20832075154E+02  0.51100000000E-03 0.  1.
        -11    1    3    3    0    0 -0.82798619000E+01 -0.20831103470E+02 -0.15387733718E+02  0.27189581352E+02  0.51100000000E-03 0. -1.
         12    1    3    3    0    0  0.21214386689E+01  0.13183566698E+01 -0.21807580880E+00  0.25072142695E+01  0.00000000000E+00 0. -1.
</event>
<event>
 7    1  0.9406864E-013  0.5052887E+02  0.7816164E-02  0.1300439E+00
        -11   -1    0    0    0    0  0.00000000000E+00  0.00000000000E+00  0.45593999997E+02  0.45594000000E+02  0.51100000000E-03 0.  1.
         11   -1    0    0    0    0 -0.00000000000E+00 -0.00000000000E+00 -0.45593999997E+02  0.45594000000E+02  0.51100000000E-03 0. -1.
    9900012    2    1    2    0    0 -0.38093815818E+01  0.81810947978E+01 -0.39644960733E+02  0.50528872961E+02  0.30000039851E+02 0.  0.
        -12    1    1    2    0    0  0.38093815818E+01 -0.81810947978E+01  0.39644960733E+02  0.40659127039E+02  0.00000000000E+00 0.  1.
         11    1    3    3    0    0 -0.76317031871E+01  0.18124259780E+02 -0.24181339884E+02  0.31168395611E+02  0.51100000000E-03 0. -1.
        -11    1    3    3    0    0  0.48455786983E+01 -0.70548952105E+01 -0.11944323472E+02  0.14694149953E+02  0.51100000000E-03 0.  1.
         12    1    3    3    0    0 -0.10232570930E+01 -0.28882697720E+01 -0.35192973757E+01  0.46663273966E+01  0.00000000000E+00 0. -1.
</event>
<event>
 7    1  0.9406864E-013  0.5052887E+02  0.7816164E-02  0.1300439E+00
        -11   -1    0    0    0    0  0.00000000000E+00  0.00000000000E+00  0.45593999997E+02  0.45594000000E+02  0.51100000000E-03 0. -1.
         11   -1    0    0    0    0 -0.00000000000E+00 -0.00000000000E+00 -0.45593999997E+02  0.45594000000E+02  0.51100000000E-03 0.  1.
    9900012    2    1    2    0    0 -0.34710247708E+02 -0.20764631191E+02 -0.41465701319E+01  0.50528865131E+02  0.30000016053E+02 0.  0.
        -12    1    1    2    0    0  0.34710247708E+02  0.20764631191E+02  0.41465701319E+01  0.40659134869E+02  0.00000000000E+00 0.  1.
         11    1    3    3    0    0 -0.58791492372E+01 -0.11415428808E+02 -0.68781221682E+01  0.14566570477E+02  0.51100000000E-03 0. -1.
        -11    1    3    3    0    0 -0.12951216426E+02  0.47574771899E+01 -0.26519878602E+01  0.14049933665E+02  0.51100000000E-03 0.  1.
        -12    1    3    3    0    0 -0.15879882044E+02 -0.14106679572E+02  0.53835398965E+01  0.21912360989E+02  0.00000000000E+00 0.  1.
</event>
<event>
 7    1  0.9406864E-013  0.5052886E+02  0.7816164E-02  0.1300439E+00
        -11   -1    0    0    0    0  0.00000000000E+00  0.00000000000E+00  0.45593999997E+02  0.45594000000E+02  0.51100000000E-03 0.  1.
         11   -1    0    0    0    0 -0.00000000000E+00 -0.00000000000E+00 -0.45593999997E+02  0.45594000000E+02  0.51100000000E-03 0. -1.
    9900012    2    1    2    0    0  0.15507434743E+02  0.20342937658E+02 -0.31604585501E+02  0.50528862411E+02  0.30000007783E+02 0.  0.
        -12    1    1    2    0    0 -0.15507434743E+02 -0.20342937658E+02  0.31604585501E+02  0.40659137589E+02  0.00000000000E+00 0.  1.
         11    1    3    3    0    0  0.11388836518E+01 -0.68772697035E+01 -0.58640254278E+01  0.91093736901E+01  0.51100000000E-03 0.  1.
        -11    1    3    3    0    0  0.14239061693E+02  0.17258628893E+02 -0.16179278354E+02  0.27611233175E+02  0.51100000000E-03 0. -1.
         12    1    3    3    0    0  0.12948939799E+00  0.99615784688E+01 -0.95612817188E+01  0.13808255545E+02  0.00000000000E+00 0. -1.
</event>
<event>
 7    1  0.9406864E-013  0.5052886E+02  0.7816164E-02  0.1300439E+00
        -11   -1    0    0    0    0  0.00000000000E+00  0.00000000000E+00  0.45593999997E+02  0.45594000000E+02  0.51100000000E-03 0. -1.
         11   -1    0    0    0    0 -0.00000000000E+00 -0.00000000000E+00 -0.45593999997E+02  0.45594000000E+02  0.51100000000E-03 0.  1.
    9900012    2    1    2    0    0 -0.87905631677E+01  0.23475129449E+02  0.32012657437E+02  0.50528856630E+02  0.29999990212E+02 0.  0.
        -12    1    1    2    0    0  0.87905631677E+01 -0.23475129449E+02 -0.32012657437E+02  0.40659143370E+02  0.00000000000E+00 0.  1.
         11    1    3    3    0    0  0.42805308476E+01  0.14675707464E+02  0.13970881925E+02  0.20709535869E+02  0.51100000000E-03 0. -1.
        -11    1    3    3    0    0 -0.99469705707E+01 -0.48666561805E+00  0.17340407748E+02  0.19996719934E+02  0.51100000000E-03 0.  1.
         12    1    3    3    0    0 -0.31241234446E+01  0.92860876034E+01  0.70136776370E+00  0.98226008274E+01  0.00000000000E+00 0. -1.
</event>
<event>
 7    1  0.9406864E-013  0.5052885E+02  0.7816164E-02  0.1300439E+00
        -11   -1    0    0    0    0  0.00000000000E+00  0.00000000000E+00  0.45593999997E+02  0.45594000000E+02  0.51100000000E-03 0.  1.
         11   -1    0    0    0    0 -0.00000000000E+00 -0.00000000000E+00 -0.45593999997E+02  0.45594000000E+02  0.51100000000E-03 0. -1.
    9900012    2    1    2    0    0 -0.62801621259E+01 -0.26291970572E+02 -0.30371994118E+02  0.50528853679E+02  0.29999981243E+02 0.  0.
        -12    1    1    2    0    0  0.62801621259E+01  0.26291970572E+02  0.30371994118E+02  0.40659146321E+02  0.00000000000E+00 0.  1.
         11    1    3    3    0    0 -0.45020771695E+01  0.22823712391E+01 -0.41934487889E+01  0.65622351619E+01  0.51100000000E-03 0. -1.
        -11    1    3    3    0    0  0.15765861927E+01 -0.26384015483E+02 -0.28868704625E+02  0.39140822730E+02  0.51100000000E-03 0.  1.
        -12    1    3    3    0    0 -0.33546711492E+01 -0.21903263280E+01  0.26901592959E+01  0.48257957872E+01  0.00000000000E+00 0.  1.
</event>
<event>
 7    1  0.9406864E-013  0.5052887E+02  0.7816164E-02  0.1300439E+00
        -11   -1    0    0    0    0  0.00000000000E+00  0.00000000000E+00  0.45593999997E+02  0.45594000000E+02  0.51100000000E-03 0.  1.
         11   -1    0    0    0    0 -0.00000000000E+00 -0.00000000000E+00 -0.45593999997E+02  0.45594000000E+02  0.51100000000E-03 0. -1.
    9900012    2    1    2    0    0 -0.23845045160E+02 -0.33291847308E+01 -0.32764230699E+02  0.50528874789E+02  0.30000045408E+02 0.  0.
        -12    1    1    2    0    0  0.23845045160E+02  0.33291847308E+01  0.32764230699E+02  0.40659125211E+02  0.00000000000E+00 0.  1.
         11    1    3    3    0    0 -0.17520366473E+02  0.40372028021E+01 -0.33018459677E+02  0.37596288747E+02  0.51100000000E-03 0. -1.
        -11    1    3    3    0    0 -0.21259566929E+01  0.10300636884E+01  0.23300188655E+01  0.33180884914E+01  0.51100000000E-03 0.  1.
         12    1    3    3    0    0 -0.41987219948E+01 -0.83964512213E+01 -0.20757898867E+01  0.96144975508E+01  0.00000000000E+00 0. -1.
</event>
<event>
 7    1  0.9406864E-013  0.5052886E+02  0.7816164E-02  0.1300439E+00
        -11   -1    0    0    0    0  0.00000000000E+00  0.00000000000E+00  0.45593999997E+02  0.45594000000E+02  0.51100000000E-03 0. -1.
         11   -1    0    0    0    0 -0.00000000000E+00 -0.00000000000E+00 -0.45593999997E+02  0.45594000000E+02  0.51100000000E-03 0.  1.
    9900012    2    1    2    0    0 -0.31330021064E+02 -0.16665337709E+02  0.19845953011E+02  0.50528861399E+02  0.30000004709E+02 0.  0.
        -12    1    1    2    0    0  0.31330021064E+02  0.16665337709E+02 -0.19845953011E+02  0.40659138601E+02  0.00000000000E+00 0.  1.
         11    1    3    3    0    0 -0.21718626090E+02 -0.22347926230E+02  0.18478952566E+02  0.36229824927E+02  0.51100000000E-03 0. -1.
        -11    1    3    3    0    0  0.66088218634E-01 -0.23513779965E+00 -0.23496102593E+01  0.23622713792E+01  0.51100000000E-03 0.  1.
         12    1    3    3    0    0 -0.96774831928E+01  0.59177263213E+01  0.37166107039E+01  0.11936765093E+02  0.00000000000E+00 0. -1.
</event>
<event>
 7    1  0.9406864E-013  0.5052887E+02  0.7816164E-02  0.1300439E+00
        -11   -1    0    0    0    0  0.00000000000E+00  0.00000000000E+00  0.45593999997E+02  0.45594000000E+02  0.51100000000E-03 0.  1.
         11   -1    0    0    0    0 -0.00000000000E+00 -0.00000000000E+00 -0.45593999997E+02  0.45594000000E+02  0.51100000000E-03 0. -1.
    9900012    2    1    2    0    0  0.75587016309E+01 -0.23116477132E+02 -0.32583113594E+02  0.50528870929E+02  0.30000033675E+02 0.  0.
        -12    1    1    2    0    0 -0.75587016309E+01  0.23116477132E+02  0.32583113594E+02  0.40659129071E+02  0.00000000000E+00 0.  1.
         11    1    3    3    0    0  0.25434766717E+01 -0.44952402585E+01 -0.80000956785E+01  0.95224991304E+01  0.51100000000E-03 0. -1.
        -11    1    3    3    0    0  0.42255445584E+01  0.62891624416E+01 -0.34307465871E+01  0.83173802028E+01  0.51100000000E-03 0.  1.
        -12    1    3    3    0    0  0.78968040080E+00 -0.24910399315E+02 -0.21152271328E+02  0.32688991596E+02  0.00000000000E+00 0.  1.
</event>
<event>
 7    1  0.9406864E-013  0.5052886E+02  0.7816164E-02  0.1300439E+00
        -11   -1    0    0    0    0  0.00000000000E+00  0.00000000000E+00  0.45593999997E+02  0.45594000000E+02  0.51100000000E-03 0.  1.
         11   -1    0    0    0    0 -0.00000000000E+00 -0.00000000000E+00 -0.45593999997E+02  0.45594000000E+02  0.51100000000E-03 0. -1.
    9900012    2    1    2    0    0  0.19110184321E+01  0.35723240684E+02 -0.19322621463E+02  0.50528860602E+02  0.30000002285E+02 0.  0.
        -12    1    1    2    0    0 -0.19110184321E+01 -0.35723240684E+02  0.19322621463E+02  0.40659139398E+02  0.00000000000E+00 0.  1.
         11    1    3    3    0    0 -0.16118479427E+01  0.26334510723E+01  0.45792885933E+01  0.55229523466E+01  0.51100000000E-03 0.  1.
        -11    1    3    3    0    0  0.99112298906E+01  0.25074022231E+02 -0.21483692087E+02  0.34474455685E+02  0.51100000000E-03 0. -1.
        -12    1    3    3    0    0 -0.63883635158E+01  0.80157673799E+01 -0.24182179696E+01  0.10531452571E+02  0.00000000000E+00 0.  1.
</event>
<event>
 7    1  0.9406864E-013  0.5052886E+02  0.7816164E-02  0.1300439E+00
        -11   -1    0    0    0    0  0.00000000000E+00  0.00000000000E+00  0.45593999997E+02  0.45594000000E+02  0.51100000000E-03 0.  1.
         11   -1    0    0    0    0 -0.00000000000E+00 -0.00000000000E+00 -0.45593999997E+02  0.45594000000E+02  0.51100000000E-03 0. -1.
    9900012    2    1    2    0    0  0.33086757244E+02 -0.15768550140E+02  0.17600707056E+02  0.50528861208E+02  0.30000004127E+02 0.  0.
        -12    1    1    2    0    0 -0.33086757244E+02  0.15768550140E+02 -0.17600707056E+02  0.40659138792E+02  0.00000000000E+00 0.  1.
         11    1    3    3    0    0  0.18669433876E+02 -0.11642940678E+02 -0.91566524364E+00  0.22021450270E+02  0.51100000000E-03 0. -1.
        -11    1    3    3    0    0  0.15578441337E+02 -0.72370828465E+01  0.18417796517E+02  0.25184884979E+02  0.51100000000E-03 0.  1.
         12    1    3    3    0    0 -0.11611179682E+01  0.31114733854E+01  0.98575782683E-01  0.33225259591E+01  0.00000000000E+00 0. -1.
</event>
<event>
 7    1  0.9406864E-013  0.5052884E+02  0.7816164E-02  0.1300439E+00
        -11   -1    0    0    0    0  0.00000000000E+00  0.00000000000E+00  0.45593999997E+02  0.45594000000E+02  0.51100000000E-03 0.  1.
         11   -1    0    0    0    0 -0.00000000000E+00 -0.00000000000E+00 -0.45593999997E+02  0.45594000000E+02  0.51100000000E-03 0. -1.
    9900012    2    1    2    0    0 -0.36315898270E+02  0.15466265747E+02 -0.97528139587E+01  0.50528840842E+02  0.29999942223E+02 0.  0.
        -12    1    1    2    0    0  0.36315898270E+02 -0.15466265747E+02  0.97528139587E+01  0.40659159158E+02  0.00000000000E+00 0.  1.
         11    1    3    3    0    0 -0.10704769805E+02  0.62287443005E+01 -0.22843606444E+01  0.12593953150E+02  0.51100000000E-03 0. -1.
        -11    1    3    3    0    0  0.23509023576E+01  0.52703439366E+01  0.44435851857E+01  0.72834549953E+01  0.51100000000E-03 0.  1.
        -12    1    3    3    0    0 -0.27962030823E+02  0.39671775100E+01 -0.11912038500E+02  0.30651432697E+02  0.00000000000E+00 0.  1.
</event>
<event>
 7    1  0.9406864E-013  0.5052882E+02  0.7816164E-02  0.1300439E+00
        -11   -1    0    0    0    0  0.00000000000E+00  0.00000000000E+00  0.45593999997E+02  0.45594000000E+02  0.51100000000E-03 0.  1.
         11   -1    0    0    0    0 -0.00000000000E+00 -0.00000000000E+00 -0.45593999997E+02  0.45594000000E+02  0.51100000000E-03 0. -1.
    9900012    2    1    2    0    0 -0.52840669079E+01 -0.31653596853E+02 -0.24965927126E+02  0.50528818084E+02  0.29999873048E+02 0.  0.
        -12    1    1    2    0    0  0.52840669079E+01  0.31653596853E+02  0.24965927126E+02  0.40659181916E+02  0.00000000000E+00 0.  1.
         11    1    3    3    0    0 -0.30110624314E+01 -0.13906111690E+02 -0.16088303112E+02  0.21477428538E+02  0.51100000000E-03 0. -1.
        -11    1    3    3    0    0 -0.47835627088E+01 -0.95980210879E+01  0.57135698406E+01  0.12151105364E+02  0.51100000000E-03 0.  1.
        -12    1    3    3    0    0  0.25105582323E+01 -0.81494640752E+01 -0.14591193854E+02  0.16900284182E+02  0.00000000000E+00 0.  1.
</event>
<event>
 7    1  0.9406864E-013  0.5052884E+02  0.7816164E-02  0.1300439E+00
        -11   -1    0    0    0    0  0.00000000000E+00  0.00000000000E+00  0.45593999997E+02  0.45594000000E+02  0.51100000000E-03 0. -1.
         11   -1    0    0    0    0 -0.00000000000E+00 -0.00000000000E+00 -0.45593999997E+02  0.45594000000E+02  0.51100000000E-03 0.  1.
    9900012    2    1    2    0    0 -0.30603120893E+02 -0.25036283583E+02  0.94763381355E+01  0.50528837583E+02  0.29999932316E+02 0.  0.
        -12    1    1    2    0    0  0.30603120893E+02  0.25036283583E+02 -0.94763381355E+01  0.40659162417E+02  0.00000000000E+00 0.  1.
         11    1    3    3    0    0 -0.10014618627E+02 -0.15374997815E+02 -0.56876529330E+01  0.19210219681E+02  0.51100000000E-03 0. -1.
        -11    1    3    3    0    0 -0.22118815973E+02 -0.53386715405E+01  0.13393350407E+02  0.26403129914E+02  0.51100000000E-03 0.  1.
        -12    1    3    3    0    0  0.15303137075E+01 -0.43226142270E+01  0.17706406619E+01  0.49154879873E+01  0.00000000000E+00 0.  1.
</event>
<event>
 7    1  0.9406864E-013  0.5052886E+02  0.7816164E-02  0.1300439E+00
        -11   -1    0    0    0    0  0.00000000000E+00  0.00000000000E+00  0.45593999997E+02  0.45594000000E+02  0.51100000000E-03 0. -1.
         11   -1    0    0    0    0 -0.00000000000E+00 -0.00000000000E+00 -0.45593999997E+02  0.45594000000E+02  0.51100000000E-03 0.  1.
    9900012    2    1    2    0    0 -0.21869404854E+02 -0.31326183493E+02  0.13912772236E+02  0.50528857459E+02  0.29999992732E+02 0.  0.
        -12    1    1    2    0    0  0.21869404854E+02  0.31326183493E+02 -0.13912772236E+02  0.40659142541E+02  0.00000000000E+00 0.  1.
         11    1    3    3    0    0 -0.12964701494E+02 -0.59722341114E+01 -0.65717712124E+00  0.14289259853E+02  0.51100000000E-03 0. -1.
        -11    1    3    3    0    0  0.31546069056E+01 -0.19433281292E+02  0.97224370206E+01  0.21957453140E+02  0.51100000000E-03 0.  1.
        -12    1    3    3    0    0 -0.12059310265E+02 -0.59206680897E+01  0.48475123370E+01  0.14282144466E+02  0.00000000000E+00 0.  1.
</event>
<event>
 7    1  0.9406864E-013  0.5052887E+02  0.7816164E-02  0.1300439E+00
        -11   -1    0    0    0    0  0.00000000000E+00  0.00000000000E+00  0.45593999997E+02  0.45594000000E+02  0.51100000000E-03 0. -1.
         11   -1    0    0    0    0 -0.00000000000E+00 -0.00000000000E+00 -0.45593999997E+02  0.45594000000E+02  0.51100000000E-03 0.  1.
    9900012    2    1    2    0    0  0.33096391483E+02 -0.12333498267E+02  0.20141455019E+02  0.50528874100E+02  0.30000043314E+02 0.  0.
        -12    1    1    2    0    0 -0.33096391483E+02  0.12333498267E+02 -0.20141455019E+02  0.40659125900E+02  0.00000000000E+00 0.  1.
         11    1    3    3    0    0 -0.23614348138E+00 -0.10436388040E+02  0.10840350981E+02  0.15049490646E+02  0.51100000000E-03 0. -1.
        -11    1    3    3    0    0  0.16742407167E+02 -0.17559988857E+01  0.83879497376E+00  0.16855127027E+02  0.51100000000E-03 0.  1.
         12    1    3    3    0    0  0.16590127797E+02 -0.14111134129E+00  0.84623090643E+01  0.18624256426E+02  0.00000000000E+00 0. -1.
</event>
<event>
 7    1  0.9406864E-013  0.5052886E+02  0.7816164E-02  0.1300439E+00
        -11   -1    0    0    0    0  0.00000000000E+00  0.00000000000E+00  0.45593999997E+02  0.45594000000E+02  0.51100000000E-03 0. -1.
         11   -1    0    0    0    0 -0.00000000000E+00 -0.00000000000E+00 -0.45593999997E+02  0.45594000000E+02  0.51100000000E-03 0.  1.
    9900012    2    1    2    0    0  0.20070665855E+01 -0.38587582611E+02 -0.12654480783E+02  0.50528859184E+02  0.29999997975E+02 0.  0.
        -12    1    1    2    0    0 -0.20070665855E+01  0.38587582611E+02  0.12654480783E+02  0.40659140816E+02  0.00000000000E+00 0.  1.
         11    1    3    3    0    0  0.18886890825E+01 -0.95512030918E+01  0.77733719860E+00  0.97671326566E+01  0.51100000000E-03 0. -1.
        -11    1    3    3    0    0 -0.61294696855E+01 -0.26862165510E+02 -0.17829295834E+02  0.32818137131E+02  0.51100000000E-03 0.  1.
        -12    1    3    3    0    0  0.62478471885E+01 -0.21742140083E+01  0.43974778518E+01  0.79435893966E+01  0.00000000000E+00 0.  1.
</event>
<event>
 7    1  0.9406864E-013  0.5052889E+02  0.7816164E-02  0.1300439E+00
        -11   -1    0    0    0    0  0.00000000000E+00  0.00000000000E+00  0.45593999997E+02  0.45594000000E+02  0.51100000000E-03 0.  1.
         11   -1    0    0    0    0 -0.00000000000E+00 -0.00000000000E+00 -0.45593999997E+02  0.45594000000E+02  0.51100000000E-03 0. -1.
    9900012    2    1    2    0    0  0.83650917454E+01  0.21955433346E+02 -0.33183537621E+02  0.50528892996E+02  0.30000100750E+02 0.  0.
        -12    1    1    2    0    0 -0.83650917454E+01 -0.21955433346E+02  0.33183537621E+02  0.40659107004E+02  0.00000000000E+00 0.  1.
         11    1    3    3    0    0  0.63497526149E+01  0.17578428420E+02 -0.34358757697E+02  0.39113229664E+02  0.51100000000E-03 0. -1.
        -11    1    3    3    0    0  0.41881720822E+01 -0.16889972412E+01 -0.98062747888E+00  0.46211608482E+01  0.51100000000E-03 0.  1.
         12    1    3    3    0    0 -0.21728329517E+01  0.60660021670E+01  0.21558475546E+01  0.67945024839E+01  0.00000000000E+00 0. -1.
</event>
<event>
 7    1  0.9406864E-013  0.5052885E+02  0.7816164E-02  0.1300439E+00
        -11   -1    0    0    0    0  0.00000000000E+00  0.00000000000E+00  0.45593999997E+02  0.45594000000E+02  0.51100000000E-03 0. -1.
         11   -1    0    0    0    0 -0.00000000000E+00 -0.00000000000E+00 -0.45593999997E+02  0.45594000000E+02  0.51100000000E-03 0.  1.
    9900012    2    1    2    0    0 -0.16423433858E+02  0.19703977776E+02  0.31546644190E+02  0.50528847531E+02  0.29999962555E+02 0.  0.
        -12    1    1    2    0    0  0.16423433858E+02 -0.19703977776E+02 -0.31546644190E+02  0.40659152469E+02  0.00000000000E+00 0.  1.
         11    1    3    3    0    0 -0.10774651583E+02  0.27474982656E+01  0.25009830047E+02  0.27370302569E+02  0.51100000000E-03 0. -1.
        -11    1    3    3    0    0 -0.37940921249E+00  0.15409828763E+02  0.11362758355E+01  0.15456322230E+02  0.51100000000E-03 0.  1.
        -12    1    3    3    0    0 -0.52693730630E+01  0.15466507473E+01  0.54005383067E+01  0.77022227320E+01  0.00000000000E+00 0.  1.
</event>
<event>
 7    1  0.9406864E-013  0.5052893E+02  0.7816164E-02  0.1300439E+00
        -11   -1    0    0    0    0  0.00000000000E+00  0.00000000000E+00  0.45593999997E+02  0.45594000000E+02  0.51100000000E-03 0.  1.
         11   -1    0    0    0    0 -0.00000000000E+00 -0.00000000000E+00 -0.45593999997E+02  0.45594000000E+02  0.51100000000E-03 0. -1.
    9900012    2    1    2    0    0 -0.25732197127E+02 -0.21512308646E+02 -0.22983353810E+02  0.50528930353E+02  0.30000214300E+02 0.  0.
        -12    1    1    2    0    0  0.25732197127E+02  0.21512308646E+02  0.22983353810E+02  0.40659069647E+02  0.00000000000E+00 0.  1.
         11    1    3    3    0    0 -0.25568231330E+02 -0.13842262834E+02 -0.23452853284E+02  0.37354772401E+02  0.51100000000E-03 0. -1.
        -11    1    3    3    0    0  0.14135008613E+01 -0.73860722081E+01  0.45504786340E+01  0.87897043981E+01  0.51100000000E-03 0.  1.
        -12    1    3    3    0    0 -0.15774666582E+01 -0.28397360352E+00 -0.40809791592E+01  0.43844535535E+01  0.00000000000E+00 0.  1.
</event>
<event>
 7    1  0.9406864E-013  0.5052887E+02  0.7816164E-02  0.1300439E+00
        -11   -1    0    0    0    0  0.00000000000E+00  0.00000000000E+00  0.45593999997E+02  0.45594000000E+02  0.51100000000E-03 0.  1.
         11   -1    0    0    0    0 -0.00000000000E+00 -0.00000000000E+00 -0.45593999997E+02  0.45594000000E+02  0.51100000000E-03 0. -1.
    9900012    2    1    2    0    0 -0.17695961261E+02 -0.31132054638E+02 -0.19256502617E+02  0.50528871087E+02  0.30000034155E+02 0.  0.
        -12    1    1    2    0    0  0.17695961261E+02  0.31132054638E+02  0.19256502617E+02  0.40659128913E+02  0.00000000000E+00 0.  1.
         11    1    3    3    0    0 -0.24299257081E+02 -0.22793503920E+02 -0.15719552001E+02  0.36838865767E+02  0.51100000000E-03 0. -1.
        -11    1    3    3    0    0  0.76849656380E+01 -0.54724818533E+01 -0.45355671382E+01  0.10467957013E+02  0.51100000000E-03 0.  1.
        -12    1    3    3    0    0 -0.10816698180E+01 -0.28660688651E+01  0.99861652176E+00  0.32220483069E+01  0.00000000000E+00 0.  1.
</event>
<event>
 7    1  0.9406864E-013  0.5052886E+02  0.7816164E-02  0.1300439E+00
        -11   -1    0    0    0    0  0.00000000000E+00  0.00000000000E+00  0.45593999997E+02  0.45594000000E+02  0.51100000000E-03 0. -1.
         11   -1    0    0    0    0 -0.00000000000E+00 -0.00000000000E+00 -0.45593999997E+02  0.45594000000E+02  0.51100000000E-03 0.  1.
    9900012    2    1    2    0    0 -0.67141839808E+01 -0.35870124579E+02  0.17928176373E+02  0.50528860659E+02  0.30000002460E+02 0.  0.
        -12    1    1    2    0    0  0.67141839808E+01  0.35870124579E+02 -0.17928176373E+02  0.40659139341E+02  0.00000000000E+00 0.  1.
         11    1    3    3    0    0  0.56767045646E+01 -0.18030078646E+02  0.44391610858E+01  0.19416870554E+02  0.51100000000E-03 0. -1.
        -11    1    3    3    0    0 -0.12640825639E+02 -0.13381735344E+02  0.17284882709E+02  0.25251306584E+02  0.51100000000E-03 0.  1.
        -12    1    3    3    0    0  0.24993709404E+00 -0.44583105889E+01 -0.37958674215E+01  0.58606835215E+01  0.00000000000E+00 0.  1.
</event>
<event>
 7    1  0.9406864E-013  0.5052887E+02  0.7816164E-02  0.1300439E+00
        -11   -1    0    0    0    0  0.00000000000E+00  0.00000000000E+00  0.45593999997E+02  0.45594000000E+02  0.51100000000E-03 0.  1.
         11   -1    0    0    0    0 -0.00000000000E+00 -0.00000000000E+00 -0.45593999997E+02  0.45594000000E+02  0.51100000000E-03 0. -1.
    9900012    2    1    2    0    0  0.12655254146E+02  0.27448926101E+02 -0.27194966064E+02  0.50528865961E+02  0.30000018574E+02 0.  0.
        -12    1    1    2    0    0 -0.12655254146E+02 -0.27448926101E+02  0.27194966064E+02  0.40659134039E+02  0.00000000000E+00 0.  1.
         11    1    3    3    0    0  0.11461062984E+02  0.55534060960E+01 -0.99146108783E+01  0.16139882067E+02  0.51100000000E-03 0. -1.
        -11    1    3    3    0    0 -0.69002357750E+01  0.18420503066E+02 -0.16260700653E+02  0.25521335642E+02  0.51100000000E-03 0.  1.
        -12    1    3    3    0    0  0.80944269367E+01  0.34750169387E+01 -0.10196545335E+01  0.88676482523E+01  0.00000000000E+00 0.  1.
</event>
<event>
 7    1  0.9406864E-013  0.5052886E+02  0.7816164E-02  0.1300439E+00
        -11   -1    0    0    0    0  0.00000000000E+00  0.00000000000E+00  0.45593999997E+02  0.45594000000E+02  0.51100000000E-03 0.  1.
         11   -1    0    0    0    0 -0.00000000000E+00 -0.00000000000E+00 -0.45593999997E+02  0.45594000000E+02  0.51100000000E-03 0. -1.
    9900012    2    1    2    0    0 -0.38474750610E+01 -0.20005616102E+01 -0.40427222939E+02  0.50528859999E+02  0.30000000452E+02 0.  0.
        -12    1    1    2    0    0  0.38474750610E+01  0.20005616102E+01  0.40427222939E+02  0.40659140001E+02  0.00000000000E+00 0.  1.
         11    1    3    3    0    0  0.25965198944E+01 -0.21805833101E+01 -0.96590770522E+01  0.10236924777E+02  0.51100000000E-03 0. -1.
        -11    1    3    3    0    0 -0.59161089321E+01 -0.52186154225E+00  0.29021194893E+01  0.66102180113E+01  0.51100000000E-03 0.  1.
        -12    1    3    3    0    0 -0.52788602334E+00  0.70188324209E+00 -0.33670265376E+02  0.33681717210E+02  0.00000000000E+00 0.  1.
</event>
<event>
 7    1  0.9406864E-013  0.5052886E+02  0.7816164E-02  0.1300439E+00
        -11   -1    0    0    0    0  0.00000000000E+00  0.00000000000E+00  0.45593999997E+02  0.45594000000E+02  0.51100000000E-03 0.  1.
         11   -1    0    0    0    0 -0.00000000000E+00 -0.00000000000E+00 -0.45593999997E+02  0.45594000000E+02  0.51100000000E-03 0. -1.
    9900012    2    1    2    0    0  0.29543732194E+01  0.11399568148E+02 -0.38916409169E+02  0.50528863540E+02  0.30000011216E+02 0.  0.
        -12    1    1    2    0    0 -0.29543732194E+01 -0.11399568148E+02  0.38916409169E+02  0.40659136460E+02  0.00000000000E+00 0.  1.
         11    1    3    3    0    0 -0.60150682157E+01  0.15809786971E+02 -0.16748137876E+02  0.23804002443E+02  0.51100000000E-03 0. -1.
        -11    1    3    3    0    0  0.97223443775E+01  0.82717844659E-01 -0.18407697128E+02  0.20817640026E+02  0.51100000000E-03 0.  1.
         12    1    3    3    0    0 -0.75290294239E+00 -0.44929366676E+01 -0.37605741644E+01  0.59072210713E+01  0.00000000000E+00 0. -1.
</event>
<event>
 7    1  0.9406864E-013  0.5052886E+02  0.7816164E-02  0.1300439E+00
        -11   -1    0    0    0    0  0.00000000000E+00  0.00000000000E+00  0.45593999997E+02  0.45594000000E+02  0.51100000000E-03 0.  1.
         11   -1    0    0    0    0 -0.00000000000E+00 -0.00000000000E+00 -0.45593999997E+02  0.45594000000E+02  0.51100000000E-03 0. -1.
    9900012    2    1    2    0    0  0.94256391233E+01 -0.29978305875E+02 -0.25799687261E+02  0.50528863773E+02  0.30000011923E+02 0.  0.
        -12    1    1    2    0    0 -0.94256391233E+01  0.29978305875E+02  0.25799687261E+02  0.40659136227E+02  0.00000000000E+00 0.  1.
         11    1    3    3    0    0 -0.68618857208E+01 -0.11709200972E+02  0.59393996319E+00  0.13584683581E+02  0.51100000000E-03 0.  1.
        -11    1    3    3    0    0  0.95775834069E+01 -0.78244166889E+01 -0.18430600485E+02  0.22195464288E+02  0.51100000000E-03 0. -1.
         12    1    3    3    0    0  0.67099414372E+01 -0.10444688214E+02 -0.79630267388E+01  0.14748715904E+02  0.00000000000E+00 0. -1.
</event>
<event>
 7    1  0.9406864E-013  0.5052887E+02  0.7816164E-02  0.1300439E+00
        -11   -1    0    0    0    0  0.00000000000E+00  0.00000000000E+00  0.45593999997E+02  0.45594000000E+02  0.51100000000E-03 0.  1.
         11   -1    0    0    0    0 -0.00000000000E+00 -0.00000000000E+00 -0.45593999997E+02  0.45594000000E+02  0.51100000000E-03 0. -1.
    9900012    2    1    2    0    0  0.39900448793E+02  0.14420686105E+01  0.76837356027E+01  0.50528866112E+02  0.30000019033E+02 0.  0.
        -12    1    1    2    0    0 -0.39900448793E+02 -0.14420686105E+01 -0.76837356027E+01  0.40659133888E+02  0.00000000000E+00 0.  1.
         11    1    3    3    0    0  0.13506125827E+02  0.27291929262E+01 -0.14958486472E+01  0.13860068265E+02  0.51100000000E-03 0. -1.
        -11    1    3    3    0    0 -0.44567684140E+01 -0.81386026488E+00  0.20385557952E+00  0.45350535372E+01  0.51100000000E-03 0.  1.
        -12    1    3    3    0    0  0.30851091380E+02 -0.47326405082E+00  0.89757286704E+01  0.32133744309E+02  0.00000000000E+00 0.  1.
</event>
<event>
 7    1  0.9406864E-013  0.5052886E+02  0.7816164E-02  0.1300439E+00
        -11   -1    0    0    0    0  0.00000000000E+00  0.00000000000E+00  0.45593999997E+02  0.45594000000E+02  0.51100000000E-03 0.  1.
         11   -1    0    0    0    0 -0.00000000000E+00 -0.00000000000E+00 -0.45593999997E+02  0.45594000000E+02  0.51100000000E-03 0. -1.
    9900012    2    1    2    0    0  0.69212309881E+01 -0.36958291670E+02 -0.15470843299E+02  0.50528858913E+02  0.29999997152E+02 0.  0.
        -12    1    1    2    0    0 -0.69212309881E+01  0.36958291670E+02  0.15470843299E+02  0.40659141087E+02  0.00000000000E+00 0.  1.
         11    1    3    3    0    0  0.74866411623E+01 -0.10484374317E+02 -0.32137658390E+01  0.13277808247E+02  0.51100000000E-03 0. -1.
        -11    1    3    3    0    0 -0.11102482635E+02 -0.88393595075E+01 -0.79322368355E+01  0.16257914338E+02  0.51100000000E-03 0.  1.
        -12    1    3    3    0    0  0.10537072461E+02 -0.17634557846E+02 -0.43248406240E+01  0.20993136328E+02  0.00000000000E+00 0.  1.
</event>
<event>
 7    1  0.9406864E-013  0.5052887E+02  0.7816164E-02  0.1300439E+00
        -11   -1    0    0    0    0  0.00000000000E+00  0.00000000000E+00  0.45593999997E+02  0.45594000000E+02  0.51100000000E-03 0.  1.
         11   -1    0    0    0    0 -0.00000000000E+00 -0.00000000000E+00 -0.45593999997E+02  0.45594000000E+02  0.51100000000E-03 0. -1.
    9900012    2    1    2    0    0  0.13468892440E+01  0.18714143585E+02 -0.36071205711E+02  0.50528866190E+02  0.30000019270E+02 0.  0.
        -12    1    1    2    0    0 -0.13468892440E+01 -0.18714143585E+02  0.36071205711E+02  0.40659133810E+02  0.00000000000E+00 0.  1.
         11    1    3    3    0    0 -0.10096744004E+02  0.91874924762E+01 -0.22832302934E+02  0.26602035919E+02  0.51100000000E-03 0. -1.
        -11    1    3    3    0    0  0.86208786717E+01  0.43616036800E+01 -0.24792941303E+00  0.96646057854E+01  0.51100000000E-03 0.  1.
        -12    1    3    3    0    0  0.28227545765E+01  0.51650474292E+01 -0.12990973364E+02  0.14262224486E+02  0.00000000000E+00 0.  1.
</event>
<event>
 7    1  0.9406864E-013  0.5052886E+02  0.7816164E-02  0.1300439E+00
        -11   -1    0    0    0    0  0.00000000000E+00  0.00000000000E+00  0.45593999997E+02  0.45594000000E+02  0.51100000000E-03 0.  1.
         11   -1    0    0    0    0 -0.00000000000E+00 -0.00000000000E+00 -0.45593999997E+02  0.45594000000E+02  0.51100000000E-03 0. -1.
    9900012    2    1    2    0    0  0.22705976144E+02 -0.27053476556E+02 -0.20142326773E+02  0.50528864812E+02  0.30000015083E+02 0.  0.
        -12    1    1    2    0    0 -0.22705976144E+02  0.27053476556E+02  0.20142326773E+02  0.40659135188E+02  0.00000000000E+00 0.  1.
         11    1    3    3    0    0 -0.46928858132E+01 -0.12588687054E+00 -0.62104828004E+01  0.77851860373E+01  0.51100000000E-03 0.  1.
        -11    1    3    3    0    0  0.27389159322E+02 -0.26160544502E+02 -0.10608489490E+02  0.39332940222E+02  0.51100000000E-03 0. -1.
         12    1    3    3    0    0  0.97026353059E-02 -0.76704518286E+00 -0.33233544828E+01  0.34107385523E+01  0.00000000000E+00 0. -1.
</event>
<event>
 7    1  0.9406864E-013  0.5052888E+02  0.7816164E-02  0.1300439E+00
        -11   -1    0    0    0    0  0.00000000000E+00  0.00000000000E+00  0.45593999997E+02  0.45594000000E+02  0.51100000000E-03 0.  1.
         11   -1    0    0    0    0 -0.00000000000E+00 -0.00000000000E+00 -0.45593999997E+02  0.45594000000E+02  0.51100000000E-03 0. -1.
    9900012    2    1    2    0    0 -0.21089126104E+02  0.70877261845E+01 -0.34032002781E+02  0.50528876601E+02  0.30000050917E+02 0.  0.
        -12    1    1    2    0    0  0.21089126104E+02 -0.70877261845E+01  0.34032002781E+02  0.40659123399E+02  0.00000000000E+00 0.  1.
         11    1    3    3    0    0 -0.16326010594E+02  0.27345069794E+01 -0.10829511901E+02  0.19781164744E+02  0.51100000000E-03 0. -1.
        -11    1    3    3    0    0  0.22478169284E+01  0.10290828152E+02 -0.15597176671E+02  0.18820885881E+02  0.51100000000E-03 0.  1.
        -12    1    3    3    0    0 -0.70109324378E+01 -0.59376089467E+01 -0.76053142086E+01  0.11926825976E+02  0.00000000000E+00 0.  1.
</event>
<event>
 7    1  0.9406864E-013  0.5052886E+02  0.7816164E-02  0.1300439E+00
        -11   -1    0    0    0    0  0.00000000000E+00  0.00000000000E+00  0.45593999997E+02  0.45594000000E+02  0.51100000000E-03 0.  1.
         11   -1    0    0    0    0 -0.00000000000E+00 -0.00000000000E+00 -0.45593999997E+02  0.45594000000E+02  0.51100000000E-03 0. -1.
    9900012    2    1    2    0    0  0.34786658276E+02 -0.89330966950E+01 -0.19059224160E+02  0.50528857902E+02  0.29999994079E+02 0.  0.
        -12    1    1    2    0    0 -0.34786658276E+02  0.89330966950E+01  0.19059224160E+02  0.40659142098E+02  0.00000000000E+00 0.  1.
         11    1    3    3    0    0  0.13199181992E+02  0.30843121215E+00 -0.99885606536E+00  0.13240515427E+02  0.51100000000E-03 0. -1.
        -11    1    3    3    0    0  0.20808785426E+02 -0.15377759313E+02 -0.17135950894E+02  0.31034204447E+02  0.51100000000E-03 0.  1.
        -12    1    3    3    0    0  0.77869085855E+00  0.61362314054E+01 -0.92441720075E+00  0.62541380281E+01  0.00000000000E+00 0.  1.
</event>
<event>
 7    1  0.9406864E-013  0.5052886E+02  0.7816164E-02  0.1300439E+00
        -11   -1    0    0    0    0  0.00000000000E+00  0.00000000000E+00  0.45593999997E+02  0.45594000000E+02  0.51100000000E-03 0. -1.
         11   -1    0    0    0    0 -0.00000000000E+00 -0.00000000000E+00 -0.45593999997E+02  0.45594000000E+02  0.51100000000E-03 0.  1.
    9900012    2    1    2    0    0 -0.41496692420E+01  0.75265582005E+01  0.39740369478E+02  0.50528858353E+02  0.29999995451E+02 0.  0.
        -12    1    1    2    0    0  0.41496692420E+01 -0.75265582005E+01 -0.39740369478E+02  0.40659141647E+02  0.00000000000E+00 0.  1.
         11    1    3    3    0    0 -0.62004572656E+01  0.70046452012E+01  0.21289995163E+02  0.23254561251E+02  0.51100000000E-03 0. -1.
        -11    1    3    3    0    0  0.18100856169E+01 -0.77288819810E+01  0.10393834946E+01  0.80057694774E+01  0.51100000000E-03 0.  1.
        -12    1    3    3    0    0  0.24070240665E+00  0.82507949802E+01  0.17410990821E+02  0.19268527625E+02  0.00000000000E+00 0.  1.
</event>
<event>
 7    1  0.9406864E-013  0.5052886E+02  0.7816164E-02  0.1300439E+00
        -11   -1    0    0    0    0  0.00000000000E+00  0.00000000000E+00  0.45593999997E+02  0.45594000000E+02  0.51100000000E-03 0. -1.
         11   -1    0    0    0    0 -0.00000000000E+00 -0.00000000000E+00 -0.45593999997E+02  0.45594000000E+02  0.51100000000E-03 0.  1.
    9900012    2    1    2    0    0 -0.30109153242E+02  0.79066127053E+01  0.26155115392E+02  0.50528859643E+02  0.29999999370E+02 0.  0.
        -12    1    1    2    0    0  0.30109153242E+02 -0.79066127053E+01 -0.26155115392E+02  0.40659140357E+02  0.00000000000E+00 0.  1.
         11    1    3    3    0    0 -0.14449616355E+02  0.17974350807E+01  0.13748953852E+02  0.20026380550E+02  0.51100000000E-03 0. -1.
        -11    1    3    3    0    0  0.12378226752E+01  0.18805576693E+01 -0.52426718153E+01  0.57056384522E+01  0.51100000000E-03 0.  1.
        -12    1    3    3    0    0 -0.16897359562E+02  0.42286199553E+01  0.17648833356E+02  0.24796840640E+02  0.00000000000E+00 0.  1.
</event>
<event>
 7    1  0.1220814E-012  0.5052887E+02  0.7816164E-02  0.1300439E+00
        -11   -1    0    0    0    0  0.00000000000E+00  0.00000000000E+00  0.45593999997E+02  0.45594000000E+02  0.51100000000E-03 0. -1.
         11   -1    0    0    0    0 -0.00000000000E+00 -0.00000000000E+00 -0.45593999997E+02  0.45594000000E+02  0.51100000000E-03 0.  1.
    9900012    2    1    2    0    0 -0.38660042926E+01  0.97668377656E+01  0.39278845888E+02  0.50528870110E+02  0.30000031186E+02 0.  0.
        -12    1    1    2    0    0  0.38660042926E+01 -0.97668377656E+01 -0.39278845888E+02  0.40659129890E+02  0.00000000000E+00 0.  1.
         11    1    3    3    0    0 -0.10261170744E+02  0.80743971528E+01  0.30523612291E+02  0.33199072607E+02  0.51100000000E-03 0. -1.
        -11    1    3    3    0    0  0.24126959346E+01 -0.55049494228E+01  0.11346831150E+01  0.61166229124E+01  0.51100000000E-03 0.  1.
         12    1    3    3    0    0  0.39824705170E+01  0.71973900355E+01  0.76205504820E+01  0.11213174590E+02  0.00000000000E+00 0. -1.
</event>
<event>
 7    1  0.9406864E-013  0.5052887E+02  0.7816164E-02  0.1300439E+00
        -11   -1    0    0    0    0  0.00000000000E+00  0.00000000000E+00  0.45593999997E+02  0.45594000000E+02  0.51100000000E-03 0.  1.
         11   -1    0    0    0    0 -0.00000000000E+00 -0.00000000000E+00 -0.45593999997E+02  0.45594000000E+02  0.51100000000E-03 0. -1.
    9900012    2    1    2    0    0  0.81275672950E+01  0.20681564193E+02 -0.34049678672E+02  0.50528867382E+02  0.30000022894E+02 0.  0.
        -12    1    1    2    0    0 -0.81275672950E+01 -0.20681564193E+02  0.34049678672E+02  0.40659132618E+02  0.00000000000E+00 0.  1.
         11    1    3    3    0    0  0.13719839200E+02  0.33310746164E+00 -0.82679776741E+01  0.16021997483E+02  0.51100000000E-03 0. -1.
        -11    1    3    3    0    0 -0.28171071563E+01  0.17773249593E+01 -0.11281502779E+01  0.35167740973E+01  0.51100000000E-03 0.  1.
         12    1    3    3    0    0 -0.27751647491E+01  0.18571131772E+02 -0.24653550720E+02  0.30990095801E+02  0.00000000000E+00 0. -1.
</event>
<event>
 7    1  0.9406864E-013  0.5052887E+02  0.7816164E-02  0.1300439E+00
        -11   -1    0    0    0    0  0.00000000000E+00  0.00000000000E+00  0.45593999997E+02  0.45594000000E+02  0.51100000000E-03 0. -1.
         11   -1    0    0    0    0 -0.00000000000E+00 -0.00000000000E+00 -0.45593999997E+02  0.45594000000E+02  0.51100000000E-03 0.  1.
    9900012    2    1    2    0    0  0.30739430562E+02 -0.25792136485E+02  0.65588207391E+01  0.50528867874E+02  0.30000024390E+02 0.  0.
        -12    1    1    2    0    0 -0.30739430562E+02  0.25792136485E+02 -0.65588207391E+01  0.40659132126E+02  0.00000000000E+00 0.  1.
         11    1    3    3    0    0 -0.76199826280E+00  0.67538783771E+00  0.11902123829E+01  0.15663319768E+01  0.51100000000E-03 0.  1.
        -11    1    3    3    0    0  0.25332550849E+02 -0.24596737505E+02  0.14175563676E+02  0.38048445884E+02  0.51100000000E-03 0. -1.
        -12    1    3    3    0    0  0.61688779754E+01 -0.18707868184E+01 -0.88069553203E+01  0.10914090013E+02  0.00000000000E+00 0.  1.
</event>
<event>
 7    1  0.9406864E-013  0.5052886E+02  0.7816164E-02  0.1300439E+00
        -11   -1    0    0    0    0  0.00000000000E+00  0.00000000000E+00  0.45593999997E+02  0.45594000000E+02  0.51100000000E-03 0.  1.
         11   -1    0    0    0    0 -0.00000000000E+00 -0.00000000000E+00 -0.45593999997E+02  0.45594000000E+02  0.51100000000E-03 0. -1.
    9900012    2    1    2    0    0 -0.39765684603E+02 -0.17658841188E+01 -0.82908194599E+01  0.50528859502E+02  0.29999998943E+02 0.  0.
        -12    1    1    2    0    0  0.39765684603E+02  0.17658841188E+01  0.82908194599E+01  0.40659140498E+02  0.00000000000E+00 0.  1.
         11    1    3    3    0    0 -0.29586140456E+02 -0.55891892957E+01 -0.12931004913E+02  0.32768729490E+02  0.51100000000E-03 0. -1.
        -11    1    3    3    0    0 -0.66995642130E+01  0.88062489059E+01  0.30545444035E+01  0.11478868507E+02  0.51100000000E-03 0.  1.
        -12    1    3    3    0    0 -0.34799799344E+01 -0.49829437289E+01  0.15856410501E+01  0.62812615046E+01  0.00000000000E+00 0.  1.
</event>
<event>
 7    1  0.9406864E-013  0.5052887E+02  0.7816164E-02  0.1300439E+00
        -11   -1    0    0    0    0  0.00000000000E+00  0.00000000000E+00  0.45593999997E+02  0.45594000000E+02  0.51100000000E-03 0.  1.
         11   -1    0    0    0    0 -0.00000000000E+00 -0.00000000000E+00 -0.45593999997E+02  0.45594000000E+02  0.51100000000E-03 0. -1.
    9900012    2    1    2    0    0  0.51573296925E+01 -0.34751753566E+02 -0.20466620142E+02  0.50528868609E+02  0.30000026623E+02 0.  0.
        -12    1    1    2    0    0 -0.51573296925E+01  0.34751753566E+02  0.20466620142E+02  0.40659131391E+02  0.00000000000E+00 0.  1.
         11    1    3    3    0    0  0.17041035131E+01 -0.35789350267E+02 -0.93429672097E+01  0.37027997486E+02  0.51100000000E-03 0. -1.
        -11    1    3    3    0    0  0.41167839114E+01  0.28698941952E+01 -0.50385569551E+01  0.71113471942E+01  0.51100000000E-03 0.  1.
         12    1    3    3    0    0 -0.66355773205E+00 -0.18322974939E+01 -0.60850959776E+01  0.63895239280E+01  0.00000000000E+00 0. -1.
</event>
<event>
 7    1  0.9406864E-013  0.5052886E+02  0.7816164E-02  0.1300439E+00
        -11   -1    0    0    0    0  0.00000000000E+00  0.00000000000E+00  0.45593999997E+02  0.45594000000E+02  0.51100000000E-03 0.  1.
         11   -1    0    0    0    0 -0.00000000000E+00 -0.00000000000E+00 -0.45593999997E+02  0.45594000000E+02  0.51100000000E-03 0. -1.
    9900012    2    1    2    0    0  0.27534450759E+02 -0.20216791295E+02 -0.22052230676E+02  0.50528861954E+02  0.30000006397E+02 0.  0.
        -12    1    1    2    0    0 -0.27534450759E+02  0.20216791295E+02  0.22052230676E+02  0.40659138046E+02  0.00000000000E+00 0.  1.
         11    1    3    3    0    0  0.50634538429E+01 -0.41359497613E+01 -0.21260334264E+01  0.68749300825E+01  0.51100000000E-03 0. -1.
        -11    1    3    3    0    0 -0.45868036234E+01  0.30544571548E+01 -0.13959858718E+01  0.56848265414E+01  0.51100000000E-03 0.  1.
        -12    1    3    3    0    0  0.27057800539E+02 -0.19135298688E+02 -0.18530211378E+02  0.37969105331E+02  0.00000000000E+00 0.  1.
</event>
<event>
 7    1  0.9406864E-013  0.5052886E+02  0.7816164E-02  0.1300439E+00
        -11   -1    0    0    0    0  0.00000000000E+00  0.00000000000E+00  0.45593999997E+02  0.45594000000E+02  0.51100000000E-03 0. -1.
         11   -1    0    0    0    0 -0.00000000000E+00 -0.00000000000E+00 -0.45593999997E+02  0.45594000000E+02  0.51100000000E-03 0.  1.
    9900012    2    1    2    0    0  0.38772065295E+02 -0.19467036875E+01 -0.12087289687E+02  0.50528864809E+02  0.30000015074E+02 0.  0.
        -12    1    1    2    0    0 -0.38772065295E+02  0.19467036875E+01  0.12087289687E+02  0.40659135191E+02  0.00000000000E+00 0.  1.
         11    1    3    3    0    0  0.31547730200E+02  0.59907625104E+01 -0.15119157588E+02  0.35492780148E+02  0.51100000000E-03 0. -1.
        -11    1    3    3    0    0 -0.18423305729E+01 -0.34119575875E+01  0.30001241027E+01  0.49026912417E+01  0.51100000000E-03 0.  1.
        -12    1    3    3    0    0  0.90666656679E+01 -0.45255086104E+01  0.31743798459E-01  0.10133393419E+02  0.00000000000E+00 0.  1.
</event>
<event>
 7    1  0.9406864E-013  0.5052885E+02  0.7816164E-02  0.1300439E+00
        -11   -1    0    0    0    0  0.00000000000E+00  0.00000000000E+00  0.45593999997E+02  0.45594000000E+02  0.51100000000E-03 0.  1.
         11   -1    0    0    0    0 -0.00000000000E+00 -0.00000000000E+00 -0.45593999997E+02  0.45594000000E+02  0.51100000000E-03 0. -1.
    9900012    2    1    2    0    0 -0.54541780778E+01  0.37260885402E+02 -0.15331175020E+02  0.50528848915E+02  0.29999966763E+02 0.  0.
        -12    1    1    2    0    0  0.54541780778E+01 -0.37260885402E+02  0.15331175020E+02  0.40659151085E+02  0.00000000000E+00 0.  1.
         11    1    3    3    0    0 -0.76338551236E+01 -0.23658708028E+01 -0.23507782330E+01  0.83306210612E+01  0.51100000000E-03 0.  1.
        -11    1    3    3    0    0  0.27461299387E+01  0.39105483458E+02 -0.12095543348E+02  0.41025385254E+02  0.51100000000E-03 0. -1.
         12    1    3    3    0    0 -0.56645289286E+00  0.52127274701E+00 -0.88485343815E+00  0.11728425997E+01  0.00000000000E+00 0. -1.
</event>
<event>
 7    1  0.9406864E-013  0.5052886E+02  0.7816164E-02  0.1300439E+00
        -11   -1    0    0    0    0  0.00000000000E+00  0.00000000000E+00  0.45593999997E+02  0.45594000000E+02  0.51100000000E-03 0.  1.
         11   -1    0    0    0    0 -0.00000000000E+00 -0.00000000000E+00 -0.45593999997E+02  0.45594000000E+02  0.51100000000E-03 0. -1.
    9900012    2    1    2    0    0  0.39849904348E+02 -0.60046412476E+01 -0.53940145747E+01  0.50528856056E+02  0.29999988468E+02 0.  0.
        -12    1    1    2    0    0 -0.39849904348E+02  0.60046412476E+01  0.53940145747E+01  0.40659143944E+02  0.00000000000E+00 0.  1.
         11    1    3    3    0    0  0.31030269289E+02 -0.14142211319E+02 -0.84841251487E+01  0.35140576730E+02  0.51100000000E-03 0. -1.
        -11    1    3    3    0    0  0.10663853896E+02  0.63649223129E+01  0.18870674714E+01  0.12561490352E+02  0.51100000000E-03 0.  1.
         12    1    3    3    0    0 -0.18442188374E+01  0.17726477583E+01  0.12030431027E+01  0.28267889738E+01  0.00000000000E+00 0. -1.
</event>
<event>
 7    1  0.9406864E-013  0.5052886E+02  0.7816164E-02  0.1300439E+00
        -11   -1    0    0    0    0  0.00000000000E+00  0.00000000000E+00  0.45593999997E+02  0.45594000000E+02  0.51100000000E-03 0.  1.
         11   -1    0    0    0    0 -0.00000000000E+00 -0.00000000000E+00 -0.45593999997E+02  0.45594000000E+02  0.51100000000E-03 0. -1.
    9900012    2    1    2    0    0  0.29685040654E+02 -0.10750737153E+02 -0.25620019461E+02  0.50528863448E+02  0.30000010938E+02 0.  0.
        -12    1    1    2    0    0 -0.29685040654E+02  0.10750737153E+02  0.25620019461E+02  0.40659136552E+02  0.00000000000E+00 0.  1.
         11    1    3    3    0    0  0.22231963435E+01 -0.34809570478E+01 -0.10654033125E+02  0.11426639316E+02  0.51100000000E-03 0. -1.
        -11    1    3    3    0    0  0.15231027334E+02 -0.95764885413E+01  0.19542102755E+01  0.18097299923E+02  0.51100000000E-03 0.  1.
        -12    1    3    3    0    0  0.12230816976E+02  0.23067084359E+01 -0.16920196611E+02  0.21004924210E+02  0.00000000000E+00 0.  1.
</event>
<event>
 7    1  0.9406864E-013  0.5052882E+02  0.7816164E-02  0.1300439E+00
        -11   -1    0    0    0    0  0.00000000000E+00  0.00000000000E+00  0.45593999997E+02  0.45594000000E+02  0.51100000000E-03 0.  1.
         11   -1    0    0    0    0 -0.00000000000E+00 -0.00000000000E+00 -0.45593999997E+02  0.45594000000E+02  0.51100000000E-03 0. -1.
    9900012    2    1    2    0    0  0.57713617186E+01  0.87702965277E+01 -0.39280307139E+02  0.50528815967E+02  0.29999866614E+02 0.  0.
        -12    1    1    2    0    0 -0.57713617186E+01 -0.87702965277E+01  0.39280307139E+02  0.40659184033E+02  0.00000000000E+00 0.  1.
         11    1    3    3    0    0  0.80875107705E+01  0.20354437028E+01 -0.45544429482E+01  0.95023056339E+01  0.51100000000E-03 0. -1.
        -11    1    3    3    0    0 -0.45726700336E+01  0.13628031352E+02 -0.20226467060E+02  0.24814159663E+02  0.51100000000E-03 0.  1.
        -12    1    3    3    0    0  0.22565209816E+01 -0.68931785266E+01 -0.14499397130E+02  0.16212350671E+02  0.00000000000E+00 0.  1.
</event>
<event>
 7    1  0.9406864E-013  0.5052885E+02  0.7816164E-02  0.1300439E+00
        -11   -1    0    0    0    0  0.00000000000E+00  0.00000000000E+00  0.45593999997E+02  0.45594000000E+02  0.51100000000E-03 0.  1.
         11   -1    0    0    0    0 -0.00000000000E+00 -0.00000000000E+00 -0.45593999997E+02  0.45594000000E+02  0.51100000000E-03 0. -1.
    9900012    2    1    2    0    0 -0.13838520906E+02 -0.16049681531E+02 -0.34699710755E+02  0.50528845256E+02  0.29999955639E+02 0.  0.
        -12    1    1    2    0    0  0.13838520906E+02  0.16049681531E+02  0.34699710755E+02  0.40659154744E+02  0.00000000000E+00 0.  1.
         11    1    3    3    0    0 -0.19067080810E+02 -0.15142299073E+02 -0.24260560326E+02  0.34371755547E+02  0.51100000000E-03 0. -1.
        -11    1    3    3    0    0  0.38298306784E+01  0.49569446145E+01 -0.59604734460E+01  0.86467419817E+01  0.51100000000E-03 0.  1.
         12    1    3    3    0    0  0.13987292259E+01 -0.58643270721E+01 -0.44786769829E+01  0.75103477265E+01  0.00000000000E+00 0. -1.
</event>
<event>
 7    1  0.9406864E-013  0.5052886E+02  0.7816164E-02  0.1300439E+00
        -11   -1    0    0    0    0  0.00000000000E+00  0.00000000000E+00  0.45593999997E+02  0.45594000000E+02  0.51100000000E-03 0.  1.
         11   -1    0    0    0    0 -0.00000000000E+00 -0.00000000000E+00 -0.45593999997E+02  0.45594000000E+02  0.51100000000E-03 0. -1.
    9900012    2    1    2    0    0 -0.18093278063E+02  0.36330267939E+02 -0.24311418440E+01  0.50528861664E+02  0.30000005513E+02 0.  0.
        -12    1    1    2    0    0  0.18093278063E+02 -0.36330267939E+02  0.24311418440E+01  0.40659138336E+02  0.00000000000E+00 0.  1.
         11    1    3    3    0    0 -0.87928402295E+01  0.19808065514E+02 -0.50817353946E+01  0.22259773889E+02  0.51100000000E-03 0. -1.
        -11    1    3    3    0    0 -0.44919591046E+01  0.11242764300E+02  0.11635712183E+02  0.16791880299E+02  0.51100000000E-03 0.  1.
        -12    1    3    3    0    0 -0.48084787292E+01  0.52794381249E+01 -0.89851186323E+01  0.11477207476E+02  0.00000000000E+00 0.  1.
</event>
<event>
 7    1  0.9406864E-013  0.5052884E+02  0.7816164E-02  0.1300439E+00
        -11   -1    0    0    0    0  0.00000000000E+00  0.00000000000E+00  0.45593999997E+02  0.45594000000E+02  0.51100000000E-03 0.  1.
         11   -1    0    0    0    0 -0.00000000000E+00 -0.00000000000E+00 -0.45593999997E+02  0.45594000000E+02  0.51100000000E-03 0. -1.
    9900012    2    1    2    0    0  0.16247086968E+02 -0.26714164129E+02 -0.25991402951E+02  0.50528838334E+02  0.29999934599E+02 0.  0.
        -12    1    1    2    0    0 -0.16247086968E+02  0.26714164129E+02  0.25991402951E+02  0.40659161666E+02  0.00000000000E+00 0.  1.
         11    1    3    3    0    0 -0.54435973355E+01 -0.12292813587E+02 -0.15075707875E+02  0.20199578857E+02  0.51100000000E-03 0. -1.
        -11    1    3    3    0    0  0.14412915084E+02 -0.14764810653E+02 -0.58204227824E+01  0.21438495201E+02  0.51100000000E-03 0.  1.
         12    1    3    3    0    0  0.72777692193E+01  0.34346011077E+00 -0.50952722934E+01  0.88907642754E+01  0.00000000000E+00 0. -1.
</event>
<event>
 7    1  0.9406864E-013  0.5052892E+02  0.7816164E-02  0.1300439E+00
        -11   -1    0    0    0    0  0.00000000000E+00  0.00000000000E+00  0.45593999997E+02  0.45594000000E+02  0.51100000000E-03 0.  1.
         11   -1    0    0    0    0 -0.00000000000E+00 -0.00000000000E+00 -0.45593999997E+02  0.45594000000E+02  0.51100000000E-03 0. -1.
    9900012    2    1    2    0    0  0.18619280245E+02  0.18802873273E+02  0.30869651554E+02  0.50528917039E+02  0.30000173832E+02 0.  0.
        -12    1    1    2    0    0 -0.18619280245E+02 -0.18802873273E+02 -0.30869651554E+02  0.40659082961E+02  0.00000000000E+00 0.  1.
         11    1    3    3    0    0 -0.32479077520E+00  0.13034265705E+01 -0.56506107668E+00  0.14572934343E+01  0.51100000000E-03 0. -1.
        -11    1    3    3    0    0  0.19886990613E+02  0.18065599976E+02  0.11696862591E+02  0.29303154998E+02  0.51100000000E-03 0.  1.
        -12    1    3    3    0    0 -0.94291959247E+00 -0.56615327343E+00  0.19737850039E+02  0.19768468607E+02  0.00000000000E+00 0.  1.
</event>
<event>
 7    1  0.9406864E-013  0.5052886E+02  0.7816164E-02  0.1300439E+00
        -11   -1    0    0    0    0  0.00000000000E+00  0.00000000000E+00  0.45593999997E+02  0.45594000000E+02  0.51100000000E-03 0.  1.
         11   -1    0    0    0    0 -0.00000000000E+00 -0.00000000000E+00 -0.45593999997E+02  0.45594000000E+02  0.51100000000E-03 0. -1.
    9900012    2    1    2    0    0  0.19183817738E+02 -0.31441689524E+02 -0.17221118302E+02  0.50528860576E+02  0.30000002207E+02 0.  0.
        -12    1    1    2    0    0 -0.19183817738E+02  0.31441689524E+02  0.17221118302E+02  0.40659139424E+02  0.00000000000E+00 0.  1.
         11    1    3    3    0    0  0.10563430747E+02 -0.22258250022E+02 -0.71552398586E+01  0.25655666447E+02  0.51100000000E-03 0. -1.
        -11    1    3    3    0    0  0.23976586095E+01  0.23079428299E+01  0.43100394605E+01  0.54453473100E+01  0.51100000000E-03 0.  1.
        -12    1    3    3    0    0  0.62227283820E+01 -0.11491382332E+02 -0.14375917904E+02  0.19427846819E+02  0.00000000000E+00 0.  1.
</event>
<event>
 7    1  0.9406864E-013  0.5052887E+02  0.7816164E-02  0.1300439E+00
        -11   -1    0    0    0    0  0.00000000000E+00  0.00000000000E+00  0.45593999997E+02  0.45594000000E+02  0.51100000000E-03 0. -1.
         11   -1    0    0    0    0 -0.00000000000E+00 -0.00000000000E+00 -0.45593999997E+02  0.45594000000E+02  0.51100000000E-03 0.  1.
    9900012    2    1    2    0    0  0.34124288936E+02  0.14934320322E+02  0.16299208983E+02  0.50528865327E+02  0.30000016649E+02 0.  0.
        -12    1    1    2    0    0 -0.34124288936E+02 -0.14934320322E+02 -0.16299208983E+02  0.40659134673E+02  0.00000000000E+00 0.  1.
         11    1    3    3    0    0  0.38812276053E+02  0.16532478420E+02  0.12210205978E+02  0.43918159631E+02  0.51100000000E-03 0. -1.
        -11    1    3    3    0    0 -0.14215103161E+01 -0.99417690349E+00  0.21566328769E+01  0.27676966816E+01  0.51100000000E-03 0.  1.
         12    1    3    3    0    0 -0.32664768009E+01 -0.60398119437E+00  0.19323701279E+01  0.38430090144E+01  0.00000000000E+00 0. -1.
</event>
<event>
 7    1  0.9406864E-013  0.5052886E+02  0.7816164E-02  0.1300439E+00
        -11   -1    0    0    0    0  0.00000000000E+00  0.00000000000E+00  0.45593999997E+02  0.45594000000E+02  0.51100000000E-03 0.  1.
         11   -1    0    0    0    0 -0.00000000000E+00 -0.00000000000E+00 -0.45593999997E+02  0.45594000000E+02  0.51100000000E-03 0. -1.
    9900012    2    1    2    0    0 -0.39492739426E+02  0.16765999929E+01 -0.95225033235E+01  0.50528861735E+02  0.30000005730E+02 0.  0.
        -12    1    1    2    0    0  0.39492739426E+02 -0.16765999929E+01  0.95225033235E+01  0.40659138265E+02  0.00000000000E+00 0.  1.
         11    1    3    3    0    0 -0.14604925777E+02  0.13035413468E+02 -0.22539980871E+01  0.19705490830E+02  0.51100000000E-03 0. -1.
        -11    1    3    3    0    0 -0.18788264263E+02 -0.30877200801E+01 -0.16520431439E+01  0.19111832359E+02  0.51100000000E-03 0.  1.
         12    1    3    3    0    0 -0.60995493857E+01 -0.82710933950E+01 -0.56164620925E+01  0.11711538545E+02  0.00000000000E+00 0. -1.
</event>
<event>
 7    1  0.9406864E-013  0.5052895E+02  0.7816164E-02  0.1300438E+00
        -11   -1    0    0    0    0  0.00000000000E+00  0.00000000000E+00  0.45593999997E+02  0.45594000000E+02  0.51100000000E-03 0.  1.
         11   -1    0    0    0    0 -0.00000000000E+00 -0.00000000000E+00 -0.45593999997E+02  0.45594000000E+02  0.51100000000E-03 0. -1.
    9900012    2    1    2    0    0  0.16305315785E+01 -0.32061891488E+02 -0.24950652134E+02  0.50528947368E+02  0.30000266020E+02 0.  0.
        -12    1    1    2    0    0 -0.16305315785E+01  0.32061891488E+02  0.24950652134E+02  0.40659052632E+02  0.00000000000E+00 0.  1.
         11    1    3    3    0    0  0.56391351560E+01 -0.13489448405E+02 -0.21451368806E+02  0.25960090283E+02  0.51100000000E-03 0. -1.
        -11    1    3    3    0    0 -0.78105431294E+01 -0.45995199567E+01  0.16235802186E+01  0.92084841747E+01  0.51100000000E-03 0.  1.
         12    1    3    3    0    0  0.38019395519E+01 -0.13972923126E+02 -0.51228635461E+01  0.15360372911E+02  0.00000000000E+00 0. -1.
</event>
<event>
 7    1  0.9406864E-013  0.5052886E+02  0.7816164E-02  0.1300439E+00
        -11   -1    0    0    0    0  0.00000000000E+00  0.00000000000E+00  0.45593999997E+02  0.45594000000E+02  0.51100000000E-03 0.  1.
         11   -1    0    0    0    0 -0.00000000000E+00 -0.00000000000E+00 -0.45593999997E+02  0.45594000000E+02  0.51100000000E-03 0. -1.
    9900012    2    1    2    0    0 -0.58694926394E+01  0.73104209105E+01 -0.39563526861E+02  0.50528857665E+02  0.29999993359E+02 0.  0.
        -12    1    1    2    0    0  0.58694926394E+01 -0.73104209105E+01  0.39563526861E+02  0.40659142335E+02  0.00000000000E+00 0.  1.
         11    1    3    3    0    0  0.23077087389E+01  0.10238829569E+02 -0.27761029017E+02  0.29678845714E+02  0.51100000000E-03 0. -1.
        -11    1    3    3    0    0 -0.10873305718E+02 -0.24291821643E+01 -0.13592781419E+02  0.17575363729E+02  0.51100000000E-03 0.  1.
         12    1    3    3    0    0  0.26961043396E+01 -0.49922649410E+00  0.17902835754E+01  0.32746482228E+01  0.00000000000E+00 0. -1.
</event>
<event>
 7    1  0.9406864E-013  0.5052891E+02  0.7816164E-02  0.1300439E+00
        -11   -1    0    0    0    0  0.00000000000E+00  0.00000000000E+00  0.45593999997E+02  0.45594000000E+02  0.51100000000E-03 0. -1.
         11   -1    0    0    0    0 -0.00000000000E+00 -0.00000000000E+00 -0.45593999997E+02  0.45594000000E+02  0.51100000000E-03 0.  1.
    9900012    2    1    2    0    0  0.26185103140E+02  0.30996273236E+02  0.25947590936E+01  0.50528912999E+02  0.30000161552E+02 0.  0.
        -12    1    1    2    0    0 -0.26185103140E+02 -0.30996273236E+02 -0.25947590936E+01  0.40659087001E+02  0.00000000000E+00 0.  1.
         11    1    3    3    0    0  0.10698336700E+02  0.25695950821E+02  0.79701179873E+01  0.28952704152E+02  0.51100000000E-03 0. -1.
        -11    1    3    3    0    0  0.35443390145E+01  0.29034920101E+00 -0.76417166481E+01  0.84286698416E+01  0.51100000000E-03 0.  1.
        -12    1    3    3    0    0  0.11942427426E+02  0.50099732140E+01  0.22663577544E+01  0.13147539005E+02  0.00000000000E+00 0.  1.
</event>
<event>
 7    1  0.9406864E-013  0.5052886E+02  0.7816164E-02  0.1300439E+00
        -11   -1    0    0    0    0  0.00000000000E+00  0.00000000000E+00  0.45593999997E+02  0.45594000000E+02  0.51100000000E-03 0.  1.
         11   -1    0    0    0    0 -0.00000000000E+00 -0.00000000000E+00 -0.45593999997E+02  0.45594000000E+02  0.51100000000E-03 0. -1.
    9900012    2    1    2    0    0 -0.30486987445E+02 -0.25055140325E+02  0.97953596235E+01  0.50528861663E+02  0.30000005510E+02 0.  0.
        -12    1    1    2    0    0  0.30486987445E+02  0.25055140325E+02 -0.97953596235E+01  0.40659138337E+02  0.00000000000E+00 0.  1.
         11    1    3    3    0    0 -0.75441956141E+01  0.60553273476E+01  0.42936667630E+01  0.10583829708E+02  0.51100000000E-03 0. -1.
        -11    1    3    3    0    0 -0.17380524793E+01 -0.11717475599E+01  0.23096062339E+01  0.31189902183E+01  0.51100000000E-03 0.  1.
         12    1    3    3    0    0 -0.21204739352E+02 -0.29938720113E+02  0.31920866266E+01  0.36826041737E+02  0.00000000000E+00 0. -1.
</event>
<event>
 7    1  0.9406864E-013  0.5052889E+02  0.7816164E-02  0.1300439E+00
        -11   -1    0    0    0    0  0.00000000000E+00  0.00000000000E+00  0.45593999997E+02  0.45594000000E+02  0.51100000000E-03 0. -1.
         11   -1    0    0    0    0 -0.00000000000E+00 -0.00000000000E+00 -0.45593999997E+02  0.45594000000E+02  0.51100000000E-03 0.  1.
    9900012    2    1    2    0    0 -0.21768544252E+02  0.34340840997E+02 -0.15389870517E-01  0.50528891352E+02  0.30000095754E+02 0.  0.
        -12    1    1    2    0    0  0.21768544252E+02 -0.34340840997E+02  0.15389870517E-01  0.40659108648E+02  0.00000000000E+00 0.  1.
         11    1    3    3    0    0  0.78744390273E+00  0.21540075693E+02  0.45701172017E+01  0.22033631119E+02  0.51100000000E-03 0. -1.
        -11    1    3    3    0    0 -0.22168514270E+02  0.84942744985E+01 -0.45442308612E+01  0.24171176193E+02  0.51100000000E-03 0.  1.
        -12    1    3    3    0    0 -0.38747388461E+00  0.43064908047E+01 -0.41276211082E-01  0.43240840403E+01  0.00000000000E+00 0.  1.
</event>
<event>
 7    1  0.9406864E-013  0.5052886E+02  0.7816164E-02  0.1300439E+00
        -11   -1    0    0    0    0  0.00000000000E+00  0.00000000000E+00  0.45593999997E+02  0.45594000000E+02  0.51100000000E-03 0. -1.
         11   -1    0    0    0    0 -0.00000000000E+00 -0.00000000000E+00 -0.45593999997E+02  0.45594000000E+02  0.51100000000E-03 0.  1.
    9900012    2    1    2    0    0 -0.15489555278E+02  0.13620340450E+02  0.35038918988E+02  0.50528857848E+02  0.29999993914E+02 0.  0.
        -12    1    1    2    0    0  0.15489555278E+02 -0.13620340450E+02 -0.35038918988E+02  0.40659142152E+02  0.00000000000E+00 0.  1.
         11    1    3    3    0    0 -0.16765414007E+00  0.95077084743E+01  0.10227823367E+02  0.13965421563E+02  0.51100000000E-03 0. -1.
        -11    1    3    3    0    0 -0.11398922493E+02 -0.60294817103E+01  0.21717670780E+02  0.25257618812E+02  0.51100000000E-03 0.  1.
        -12    1    3    3    0    0 -0.39229786454E+01  0.10142113686E+02  0.30934248407E+01  0.11305817472E+02  0.00000000000E+00 0.  1.
</event>
<event>
 7    1  0.9406864E-013  0.5052887E+02  0.7816164E-02  0.1300439E+00
        -11   -1    0    0    0    0  0.00000000000E+00  0.00000000000E+00  0.45593999997E+02  0.45594000000E+02  0.51100000000E-03 0.  1.
         11   -1    0    0    0    0 -0.00000000000E+00 -0.00000000000E+00 -0.45593999997E+02  0.45594000000E+02  0.51100000000E-03 0. -1.
    9900012    2    1    2    0    0 -0.36444660362E+02 -0.17563798342E+02 -0.40576972219E+01  0.50528865874E+02  0.30000018311E+02 0.  0.
        -12    1    1    2    0    0  0.36444660362E+02  0.17563798342E+02  0.40576972219E+01  0.40659134126E+02  0.00000000000E+00 0.  1.
         11    1    3    3    0    0 -0.19830544322E+02 -0.10554976114E+02 -0.11751112089E+02  0.25352448491E+02  0.51100000000E-03 0. -1.
        -11    1    3    3    0    0 -0.19465443915E+02 -0.77821333907E+01  0.61706750780E+01  0.21852742118E+02  0.51100000000E-03 0.  1.
         12    1    3    3    0    0  0.28513278744E+01  0.77331116294E+00  0.15227397894E+01  0.33236752652E+01  0.00000000000E+00 0. -1.
</event>
<event>
 7    1  0.9406864E-013  0.5052886E+02  0.7816164E-02  0.1300439E+00
        -11   -1    0    0    0    0  0.00000000000E+00  0.00000000000E+00  0.45593999997E+02  0.45594000000E+02  0.51100000000E-03 0.  1.
         11   -1    0    0    0    0 -0.00000000000E+00 -0.00000000000E+00 -0.45593999997E+02  0.45594000000E+02  0.51100000000E-03 0. -1.
    9900012    2    1    2    0    0 -0.87855912890E+01 -0.39214641939E+02 -0.61798836073E+01  0.50528859353E+02  0.29999998490E+02 0.  0.
        -12    1    1    2    0    0  0.87855912890E+01  0.39214641939E+02  0.61798836073E+01  0.40659140647E+02  0.00000000000E+00 0.  1.
         11    1    3    3    0    0  0.18430853114E+01 -0.46460131782E+01 -0.19047433544E+00  0.50018679162E+01  0.51100000000E-03 0. -1.
        -11    1    3    3    0    0  0.54903584006E+01 -0.42207293878E+00  0.35867990461E+01  0.65717051510E+01  0.51100000000E-03 0.  1.
        -12    1    3    3    0    0 -0.16119035001E+02 -0.34146555822E+02 -0.95762083180E+01  0.38955286286E+02  0.00000000000E+00 0.  1.
</event>
<event>
 7    1  0.9406864E-013  0.5052885E+02  0.7816164E-02  0.1300439E+00
        -11   -1    0    0    0    0  0.00000000000E+00  0.00000000000E+00  0.45593999997E+02  0.45594000000E+02  0.51100000000E-03 0.  1.
         11   -1    0    0    0    0 -0.00000000000E+00 -0.00000000000E+00 -0.45593999997E+02  0.45594000000E+02  0.51100000000E-03 0. -1.
    9900012    2    1    2    0    0  0.39867835354E+02 -0.43826426307E+01 -0.66719186745E+01  0.50528851571E+02  0.29999974834E+02 0.  0.
        -12    1    1    2    0    0 -0.39867835354E+02  0.43826426307E+01  0.66719186745E+01  0.40659148429E+02  0.00000000000E+00 0.  1.
         11    1    3    3    0    0  0.14653670860E+02 -0.11282706261E+02  0.20503214196E-01  0.18494051771E+02  0.51100000000E-03 0. -1.
        -11    1    3    3    0    0  0.18517142763E+02  0.71547029654E+01 -0.12251414942E+02  0.23327484197E+02  0.51100000000E-03 0.  1.
        -12    1    3    3    0    0  0.66970217301E+01 -0.25463933531E+00  0.55589930529E+01  0.87073156028E+01  0.00000000000E+00 0.  1.
</event>
<event>
 7    1  0.9406864E-013  0.5052886E+02  0.7816164E-02  0.1300439E+00
        -11   -1    0    0    0    0  0.00000000000E+00  0.00000000000E+00  0.45593999997E+02  0.45594000000E+02  0.51100000000E-03 0. -1.
         11   -1    0    0    0    0 -0.00000000000E+00 -0.00000000000E+00 -0.45593999997E+02  0.45594000000E+02  0.51100000000E-03 0.  1.
    9900012    2    1    2    0    0  0.20160733308E+02 -0.34612437828E+02  0.69777908310E+01  0.50528860993E+02  0.30000003475E+02 0.  0.
        -12    1    1    2    0    0 -0.20160733308E+02  0.34612437828E+02 -0.69777908310E+01  0.40659139007E+02  0.00000000000E+00 0.  1.
         11    1    3    3    0    0  0.66330640918E+01 -0.77136163615E+01  0.33077474931E+01  0.10697598345E+02  0.51100000000E-03 0. -1.
        -11    1    3    3    0    0 -0.28058593947E+01 -0.32542943870E+01  0.95735170832E+01  0.10493593689E+02  0.51100000000E-03 0.  1.
        -12    1    3    3    0    0  0.16333528611E+02 -0.23644527079E+02 -0.59034737452E+01  0.29337668959E+02  0.00000000000E+00 0.  1.
</event>
<event>
 7    1  0.9406864E-013  0.5052886E+02  0.7816164E-02  0.1300439E+00
        -11   -1    0    0    0    0  0.00000000000E+00  0.00000000000E+00  0.45593999997E+02  0.45594000000E+02  0.51100000000E-03 0. -1.
         11   -1    0    0    0    0 -0.00000000000E+00 -0.00000000000E+00 -0.45593999997E+02  0.45594000000E+02  0.51100000000E-03 0.  1.
    9900012    2    1    2    0    0  0.27282072493E+02 -0.30029151606E+02  0.26653682104E+01  0.50528860641E+02  0.30000002405E+02 0.  0.
        -12    1    1    2    0    0 -0.27282072493E+02  0.30029151606E+02 -0.26653682104E+01  0.40659139359E+02  0.00000000000E+00 0.  1.
         11    1    3    3    0    0  0.11731121613E+02 -0.13378301294E+02  0.10235266452E+02  0.20527027048E+02  0.51100000000E-03 0. -1.
        -11    1    3    3    0    0  0.10352752333E+02 -0.78378761694E-01 -0.72340212230E+01  0.12629991584E+02  0.51100000000E-03 0.  1.
        -12    1    3    3    0    0  0.51981985470E+01 -0.16572471550E+02 -0.33587701895E+00  0.17371842009E+02  0.00000000000E+00 0.  1.
</event>
<event>
 7    1  0.9406864E-013  0.5052886E+02  0.7816164E-02  0.1300439E+00
        -11   -1    0    0    0    0  0.00000000000E+00  0.00000000000E+00  0.45593999997E+02  0.45594000000E+02  0.51100000000E-03 0.  1.
         11   -1    0    0    0    0 -0.00000000000E+00 -0.00000000000E+00 -0.45593999997E+02  0.45594000000E+02  0.51100000000E-03 0. -1.
    9900012    2    1    2    0    0  0.31239847545E+02  0.23481262783E+02  0.11219078755E+02  0.50528861979E+02  0.30000006471E+02 0.  0.
        -12    1    1    2    0    0 -0.31239847545E+02 -0.23481262783E+02 -0.11219078755E+02  0.40659138021E+02  0.00000000000E+00 0.  1.
         11    1    3    3    0    0  0.13546807125E+02  0.21299961385E+02 -0.73472890940E+00  0.25253597073E+02  0.51100000000E-03 0. -1.
        -11    1    3    3    0    0  0.52519793997E+01 -0.53492317069E+00  0.11360665247E+02  0.12527335931E+02  0.51100000000E-03 0.  1.
         12    1    3    3    0    0  0.12441061020E+02  0.27162245683E+01  0.59314241789E+00  0.12747928975E+02  0.00000000000E+00 0. -1.
</event>
<event>
 7    1  0.9406864E-013  0.5052887E+02  0.7816164E-02  0.1300439E+00
        -11   -1    0    0    0    0  0.00000000000E+00  0.00000000000E+00  0.45593999997E+02  0.45594000000E+02  0.51100000000E-03 0.  1.
         11   -1    0    0    0    0 -0.00000000000E+00 -0.00000000000E+00 -0.45593999997E+02  0.45594000000E+02  0.51100000000E-03 0. -1.
    9900012    2    1    2    0    0 -0.27470438040E+02 -0.22403381582E+02 -0.19915528172E+02  0.50528871446E+02  0.30000035247E+02 0.  0.
        -12    1    1    2    0    0  0.27470438040E+02  0.22403381582E+02  0.19915528172E+02  0.40659128554E+02  0.00000000000E+00 0.  1.
         11    1    3    3    0    0 -0.23131413006E+02 -0.12222529375E+01 -0.93591172906E+01  0.24982979138E+02  0.51100000000E-03 0. -1.
        -11    1    3    3    0    0 -0.78745944132E+00 -0.11488020953E+02 -0.11368118528E+01  0.11570957576E+02  0.51100000000E-03 0.  1.
         12    1    3    3    0    0 -0.35515655927E+01 -0.96931076915E+01 -0.94195990286E+01  0.13974934731E+02  0.00000000000E+00 0. -1.
</event>
<event>
 7    1  0.9406864E-013  0.5052885E+02  0.7816164E-02  0.1300439E+00
        -11   -1    0    0    0    0  0.00000000000E+00  0.00000000000E+00  0.45593999997E+02  0.45594000000E+02  0.51100000000E-03 0.  1.
         11   -1    0    0    0    0 -0.00000000000E+00 -0.00000000000E+00 -0.45593999997E+02  0.45594000000E+02  0.51100000000E-03 0. -1.
    9900012    2    1    2    0    0 -0.81294149316E+01  0.46249661770E+01 -0.39568782642E+02  0.50528852701E+02  0.29999978271E+02 0.  0.
        -12    1    1    2    0    0  0.81294149316E+01 -0.46249661770E+01  0.39568782642E+02  0.40659147299E+02  0.00000000000E+00 0.  1.
         11    1    3    3    0    0 -0.17172737718E+02 -0.11784952611E+01 -0.25225331313E+02  0.30538649478E+02  0.51100000000E-03 0.  1.
        -11    1    3    3    0    0  0.93981221876E+01  0.71823821237E+01 -0.10234304340E+02  0.15641365004E+02  0.51100000000E-03 0. -1.
         12    1    3    3    0    0 -0.35479940093E+00 -0.13789206856E+01 -0.41091469895E+01  0.43488382188E+01  0.00000000000E+00 0. -1.
</event>
<event>
 7    1  0.9406864E-013  0.5052886E+02  0.7816164E-02  0.1300439E+00
        -11   -1    0    0    0    0  0.00000000000E+00  0.00000000000E+00  0.45593999997E+02  0.45594000000E+02  0.51100000000E-03 0.  1.
         11   -1    0    0    0    0 -0.00000000000E+00 -0.00000000000E+00 -0.45593999997E+02  0.45594000000E+02  0.51100000000E-03 0. -1.
    9900012    2    1    2    0    0  0.62441999338E+01 -0.26133567248E+02 -0.30515770447E+02  0.50528860610E+02  0.30000002310E+02 0.  0.
        -12    1    1    2    0    0 -0.62441999338E+01  0.26133567248E+02  0.30515770447E+02  0.40659139390E+02  0.00000000000E+00 0.  1.
         11    1    3    3    0    0 -0.15663539070E+01 -0.12069257209E+01 -0.10515872645E+02  0.10700173457E+02  0.51100000000E-03 0. -1.
        -11    1    3    3    0    0  0.52890215699E+01 -0.25308078450E+02 -0.72864163852E+01  0.26861951679E+02  0.51100000000E-03 0.  1.
        -12    1    3    3    0    0  0.25215322709E+01  0.38143692228E+00 -0.12713481417E+02  0.12966735475E+02  0.00000000000E+00 0.  1.
</event>
<event>
 7    1  0.9406864E-013  0.5052887E+02  0.7816164E-02  0.1300439E+00
        -11   -1    0    0    0    0  0.00000000000E+00  0.00000000000E+00  0.45593999997E+02  0.45594000000E+02  0.51100000000E-03 0.  1.
         11   -1    0    0    0    0 -0.00000000000E+00 -0.00000000000E+00 -0.45593999997E+02  0.45594000000E+02  0.51100000000E-03 0. -1.
    9900012    2    1    2    0    0 -0.56419162501E+01 -0.23238718464E+02 -0.32883064058E+02  0.50528866258E+02  0.30000019478E+02 0.  0.
        -12    1    1    2    0    0  0.56419162501E+01  0.23238718464E+02  0.32883064058E+02  0.40659133742E+02  0.00000000000E+00 0.  1.
         11    1    3    3    0    0  0.19569610708E+01 -0.13646494356E+02 -0.13569812242E+02  0.19344154398E+02  0.51100000000E-03 0. -1.
        -11    1    3    3    0    0 -0.14183138202E+02 -0.81553223801E+01 -0.84836125778E+01  0.18429388894E+02  0.51100000000E-03 0.  1.
        -12    1    3    3    0    0  0.65842608814E+01 -0.14369017284E+01 -0.10829639238E+02  0.12755322966E+02  0.00000000000E+00 0.  1.
</event>
<event>
 7    1  0.9406864E-013  0.5052886E+02  0.7816164E-02  0.1300439E+00
        -11   -1    0    0    0    0  0.00000000000E+00  0.00000000000E+00  0.45593999997E+02  0.45594000000E+02  0.51100000000E-03 0. -1.
         11   -1    0    0    0    0 -0.00000000000E+00 -0.00000000000E+00 -0.45593999997E+02  0.45594000000E+02  0.51100000000E-03 0.  1.
    9900012    2    1    2    0    0  0.39708602444E+02 -0.61574981785E+01  0.62030517951E+01  0.50528859042E+02  0.29999997545E+02 0.  0.
        -12    1    1    2    0    0 -0.39708602444E+02  0.61574981785E+01 -0.62030517951E+01  0.40659140958E+02  0.00000000000E+00 0.  1.
         11    1    3    3    0    0  0.21964570104E+02 -0.95035997449E+01  0.14477161940E+02  0.27970501712E+02  0.51100000000E-03 0. -1.
        -11    1    3    3    0    0  0.16660781864E+02  0.59636467843E+01 -0.53498450290E+01  0.18486956953E+02  0.51100000000E-03 0.  1.
         12    1    3    3    0    0  0.10832504762E+01 -0.26175452179E+01 -0.29242651157E+01  0.40714003769E+01  0.00000000000E+00 0. -1.
</event>
<event>
 7    1  0.9406864E-013  0.5052885E+02  0.7816164E-02  0.1300439E+00
        -11   -1    0    0    0    0  0.00000000000E+00  0.00000000000E+00  0.45593999997E+02  0.45594000000E+02  0.51100000000E-03 0. -1.
         11   -1    0    0    0    0 -0.00000000000E+00 -0.00000000000E+00 -0.45593999997E+02  0.45594000000E+02  0.51100000000E-03 0.  1.
    9900012    2    1    2    0    0 -0.33793111722E+02 -0.14505128867E+02  0.17343386245E+02  0.50528853308E+02  0.29999980115E+02 0.  0.
        -12    1    1    2    0    0  0.33793111722E+02  0.14505128867E+02 -0.17343386245E+02  0.40659146692E+02  0.00000000000E+00 0.  1.
         11    1    3    3    0    0  0.26554630830E+01 -0.40022625148E+01  0.72919960986E+01  0.87317121336E+01  0.51100000000E-03 0. -1.
        -11    1    3    3    0    0 -0.10230214176E+02 -0.32507828171E+01 -0.36509306565E+01  0.11338172954E+02  0.51100000000E-03 0.  1.
         12    1    3    3    0    0 -0.26218360629E+02 -0.72520835347E+01  0.13702320803E+02  0.30458968220E+02  0.00000000000E+00 0. -1.
</event>
<event>
 7    1  0.9406864E-013  0.5052885E+02  0.7816164E-02  0.1300439E+00
        -11   -1    0    0    0    0  0.00000000000E+00  0.00000000000E+00  0.45593999997E+02  0.45594000000E+02  0.51100000000E-03 0.  1.
         11   -1    0    0    0    0 -0.00000000000E+00 -0.00000000000E+00 -0.45593999997E+02  0.45594000000E+02  0.51100000000E-03 0. -1.
    9900012    2    1    2    0    0  0.42776981711E+01  0.35476374795E+02 -0.19398324787E+02  0.50528845130E+02  0.29999955256E+02 0.  0.
        -12    1    1    2    0    0 -0.42776981711E+01 -0.35476374795E+02  0.19398324787E+02  0.40659154870E+02  0.00000000000E+00 0.  1.
         11    1    3    3    0    0  0.98817069300E+01  0.29851268056E+02 -0.17295610321E+02  0.35887107337E+02  0.51100000000E-03 0. -1.
        -11    1    3    3    0    0 -0.46677017070E+01 -0.19434803198E+01 -0.43728082217E+01  0.66847593063E+01  0.51100000000E-03 0.  1.
         12    1    3    3    0    0 -0.93630705192E+00  0.75685870590E+01  0.22700937558E+01  0.79569784859E+01  0.00000000000E+00 0. -1.
</event>
<event>
 7    1  0.9406864E-013  0.5052886E+02  0.7816164E-02  0.1300439E+00
        -11   -1    0    0    0    0  0.00000000000E+00  0.00000000000E+00  0.45593999997E+02  0.45594000000E+02  0.51100000000E-03 0.  1.
         11   -1    0    0    0    0 -0.00000000000E+00 -0.00000000000E+00 -0.45593999997E+02  0.45594000000E+02  0.51100000000E-03 0. -1.
    9900012    2    1    2    0    0  0.25992040366E+02 -0.26874814575E+02 -0.15978856041E+02  0.50528860053E+02  0.30000000617E+02 0.  0.
        -12    1    1    2    0    0 -0.25992040366E+02  0.26874814575E+02  0.15978856041E+02  0.40659139947E+02  0.00000000000E+00 0.  1.
         11    1    3    3    0    0 -0.34718161398E+01 -0.99946807949E+01 -0.12875247895E+01  0.10658558619E+02  0.51100000000E-03 0. -1.
        -11    1    3    3    0    0  0.15412853068E+02 -0.15784412621E+02 -0.45986601402E+01  0.22535558498E+02  0.51100000000E-03 0.  1.
         12    1    3    3    0    0  0.14051003438E+02 -0.10957211594E+01 -0.10092671112E+02  0.17334742935E+02  0.00000000000E+00 0. -1.
</event>
<event>
 7    1  0.9406864E-013  0.5052883E+02  0.7816164E-02  0.1300439E+00
        -11   -1    0    0    0    0  0.00000000000E+00  0.00000000000E+00  0.45593999997E+02  0.45594000000E+02  0.51100000000E-03 0.  1.
         11   -1    0    0    0    0 -0.00000000000E+00 -0.00000000000E+00 -0.45593999997E+02  0.45594000000E+02  0.51100000000E-03 0. -1.
    9900012    2    1    2    0    0 -0.29037854051E+02  0.10282461169E+02 -0.26537553797E+02  0.50528834526E+02  0.29999923025E+02 0.  0.
        -12    1    1    2    0    0  0.29037854051E+02 -0.10282461169E+02  0.26537553797E+02  0.40659165474E+02  0.00000000000E+00 0.  1.
         11    1    3    3    0    0 -0.12567473338E+02  0.37341779096E+01  0.36637427187E+01  0.13612805799E+02  0.51100000000E-03 0. -1.
        -11    1    3    3    0    0 -0.26904859175E+01  0.69365315869E+01 -0.10258966698E+02  0.12672828528E+02  0.51100000000E-03 0.  1.
         12    1    3    3    0    0 -0.13779894795E+02 -0.38824832804E+00 -0.19942329818E+02  0.24243200199E+02  0.00000000000E+00 0. -1.
</event>
<event>
 7    1  0.9406864E-013  0.5052885E+02  0.7816164E-02  0.1300439E+00
        -11   -1    0    0    0    0  0.00000000000E+00  0.00000000000E+00  0.45593999997E+02  0.45594000000E+02  0.51100000000E-03 0.  1.
         11   -1    0    0    0    0 -0.00000000000E+00 -0.00000000000E+00 -0.45593999997E+02  0.45594000000E+02  0.51100000000E-03 0. -1.
    9900012    2    1    2    0    0 -0.40534960412E+02  0.27808795055E+01  0.15329006285E+01  0.50528854770E+02  0.29999984560E+02 0.  0.
        -12    1    1    2    0    0  0.40534960412E+02 -0.27808795055E+01 -0.15329006285E+01  0.40659145230E+02  0.00000000000E+00 0.  1.
         11    1    3    3    0    0 -0.28597765558E+02 -0.11296805985E+02 -0.21743996425E+01  0.30824957980E+02  0.51100000000E-03 0. -1.
        -11    1    3    3    0    0 -0.95509123080E+01  0.13946897891E+02  0.27337966681E+01  0.17123362146E+02  0.51100000000E-03 0.  1.
         12    1    3    3    0    0 -0.23862825463E+01  0.13078759936E+00  0.97350360293E+00  0.25805346446E+01  0.00000000000E+00 0. -1.
</event>
<event>
 7    1  0.9406864E-013  0.5052887E+02  0.7816164E-02  0.1300439E+00
        -11   -1    0    0    0    0  0.00000000000E+00  0.00000000000E+00  0.45593999997E+02  0.45594000000E+02  0.51100000000E-03 0. -1.
         11   -1    0    0    0    0 -0.00000000000E+00 -0.00000000000E+00 -0.45593999997E+02  0.45594000000E+02  0.51100000000E-03 0.  1.
    9900012    2    1    2    0    0  0.18962175192E+02 -0.30652873844E+02  0.18814945079E+02  0.50528869153E+02  0.30000028277E+02 0.  0.
        -12    1    1    2    0    0 -0.18962175192E+02  0.30652873844E+02 -0.18814945079E+02  0.40659130847E+02  0.00000000000E+00 0.  1.
         11    1    3    3    0    0  0.10398338073E+02 -0.15437767333E+02  0.11716292958E+02  0.21993672178E+02  0.51100000000E-03 0. -1.
        -11    1    3    3    0    0 -0.28542410377E+01 -0.10227894667E+02 -0.44809595503E+01  0.11525429275E+02  0.51100000000E-03 0.  1.
        -12    1    3    3    0    0  0.11418078157E+02 -0.49872118443E+01  0.11579611671E+02  0.17009767700E+02  0.00000000000E+00 0.  1.
</event>
<event>
 7    1  0.9406864E-013  0.5052885E+02  0.7816164E-02  0.1300439E+00
        -11   -1    0    0    0    0  0.00000000000E+00  0.00000000000E+00  0.45593999997E+02  0.45594000000E+02  0.51100000000E-03 0.  1.
         11   -1    0    0    0    0 -0.00000000000E+00 -0.00000000000E+00 -0.45593999997E+02  0.45594000000E+02  0.51100000000E-03 0. -1.
    9900012    2    1    2    0    0 -0.29340398986E+02 -0.98184833379E+01 -0.26380002752E+02  0.50528853760E+02  0.29999981489E+02 0.  0.
        -12    1    1    2    0    0  0.29340398986E+02  0.98184833379E+01  0.26380002752E+02  0.40659146240E+02  0.00000000000E+00 0.  1.
         11    1    3    3    0    0  0.33145030725E+01 -0.71054291135E+01 -0.44614220087E+01  0.90209389814E+01  0.51100000000E-03 0. -1.
        -11    1    3    3    0    0 -0.25328463544E+02  0.24844312167E+01 -0.19886251251E+02  0.32298087452E+02  0.51100000000E-03 0.  1.
         12    1    3    3    0    0 -0.73264385151E+01 -0.51974854411E+01 -0.20323294928E+01  0.92098273270E+01  0.00000000000E+00 0. -1.
</event>
<event>
 7    1  0.9406864E-013  0.5052885E+02  0.7816164E-02  0.1300439E+00
        -11   -1    0    0    0    0  0.00000000000E+00  0.00000000000E+00  0.45593999997E+02  0.45594000000E+02  0.51100000000E-03 0. -1.
         11   -1    0    0    0    0 -0.00000000000E+00 -0.00000000000E+00 -0.45593999997E+02  0.45594000000E+02  0.51100000000E-03 0.  1.
    9900012    2    1    2    0    0  0.26653503275E+02 -0.18904742021E+02 -0.24194373072E+02  0.50528853477E+02  0.29999980628E+02 0.  0.
        -12    1    1    2    0    0 -0.26653503275E+02  0.18904742021E+02  0.24194373072E+02  0.40659146523E+02  0.00000000000E+00 0.  1.
         11    1    3    3    0    0  0.31759465393E+01  0.45124312910E+01  0.14554575573E+01  0.57067529768E+01  0.51100000000E-03 0.  1.
        -11    1    3    3    0    0  0.22949860639E+02 -0.17361762934E+02 -0.14738300847E+02  0.32331786645E+02  0.51100000000E-03 0. -1.
        -12    1    3    3    0    0  0.52769609631E+00 -0.60554103776E+01 -0.10911529782E+02  0.12490313855E+02  0.00000000000E+00 0.  1.
</event>
<event>
 7    1  0.9406864E-013  0.5052887E+02  0.7816164E-02  0.1300439E+00
        -11   -1    0    0    0    0  0.00000000000E+00  0.00000000000E+00  0.45593999997E+02  0.45594000000E+02  0.51100000000E-03 0.  1.
         11   -1    0    0    0    0 -0.00000000000E+00 -0.00000000000E+00 -0.45593999997E+02  0.45594000000E+02  0.51100000000E-03 0. -1.
    9900012    2    1    2    0    0 -0.10308638323E+02 -0.59307700276E+01 -0.38880877779E+02  0.50528871700E+02  0.30000036020E+02 0.  0.
        -12    1    1    2    0    0  0.10308638323E+02  0.59307700276E+01  0.38880877779E+02  0.40659128300E+02  0.00000000000E+00 0.  1.
         11    1    3    3    0    0 -0.83648304409E+01 -0.72725014785E+01 -0.29583988871E+02  0.31592278547E+02  0.51100000000E-03 0. -1.
        -11    1    3    3    0    0 -0.20157760227E+01 -0.13087476505E+01  0.43848468506E+01  0.50003055457E+01  0.51100000000E-03 0.  1.
        -12    1    3    3    0    0  0.71968140532E-01  0.26504791014E+01 -0.13681735759E+02  0.13936287607E+02  0.00000000000E+00 0.  1.
</event>
<event>
 7    1  0.9406864E-013  0.5052887E+02  0.7816164E-02  0.1300439E+00
        -11   -1    0    0    0    0  0.00000000000E+00  0.00000000000E+00  0.45593999997E+02  0.45594000000E+02  0.51100000000E-03 0.  1.
         11   -1    0    0    0    0 -0.00000000000E+00 -0.00000000000E+00 -0.45593999997E+02  0.45594000000E+02  0.51100000000E-03 0. -1.
    9900012    2    1    2    0    0 -0.18215956946E+02  0.16090738625E+02 -0.32594963782E+02  0.50528872846E+02  0.30000039502E+02 0.  0.
        -12    1    1    2    0    0  0.18215956946E+02 -0.16090738625E+02  0.32594963782E+02  0.40659127154E+02  0.00000000000E+00 0.  1.
         11    1    3    3    0    0 -0.14378079724E+02  0.15434806714E+02 -0.37334480112E+02  0.42881532626E+02  0.51100000000E-03 0. -1.
        -11    1    3    3    0    0 -0.25826982272E+00 -0.15700881079E+01  0.22369223629E+01  0.27451232917E+01  0.51100000000E-03 0.  1.
         12    1    3    3    0    0 -0.35796073991E+01  0.22260200187E+01  0.25025939663E+01  0.49022169286E+01  0.00000000000E+00 0. -1.
</event>
<event>
 7    1  0.9406864E-013  0.5052887E+02  0.7816164E-02  0.1300439E+00
        -11   -1    0    0    0    0  0.00000000000E+00  0.00000000000E+00  0.45593999997E+02  0.45594000000E+02  0.51100000000E-03 0.  1.
         11   -1    0    0    0    0 -0.00000000000E+00 -0.00000000000E+00 -0.45593999997E+02  0.45594000000E+02  0.51100000000E-03 0. -1.
    9900012    2    1    2    0    0  0.35307243905E+02  0.93664813338E+01 -0.17855873228E+02  0.50528872445E+02  0.30000038284E+02 0.  0.
        -12    1    1    2    0    0 -0.35307243905E+02 -0.93664813338E+01  0.17855873228E+02  0.40659127555E+02  0.00000000000E+00 0.  1.
         11    1    3    3    0    0  0.91513358652E+00  0.96046477873E+01 -0.74789277522E+01  0.12207419432E+02  0.51100000000E-03 0. -1.
        -11    1    3    3    0    0  0.29442065850E+02 -0.18125745684E+01 -0.35022245696E+01  0.29704986876E+02  0.51100000000E-03 0.  1.
        -12    1    3    3    0    0  0.49500444685E+01  0.15744081150E+01 -0.68747209066E+01  0.86164661374E+01  0.00000000000E+00 0.  1.
</event>
<event>
 7    1  0.9406864E-013  0.5052887E+02  0.7816164E-02  0.1300439E+00
        -11   -1    0    0    0    0  0.00000000000E+00  0.00000000000E+00  0.45593999997E+02  0.45594000000E+02  0.51100000000E-03 0.  1.
         11   -1    0    0    0    0 -0.00000000000E+00 -0.00000000000E+00 -0.45593999997E+02  0.45594000000E+02  0.51100000000E-03 0. -1.
    9900012    2    1    2    0    0 -0.19137763404E+02 -0.17324428048E+02 -0.31412975506E+02  0.50528870331E+02  0.30000031857E+02 0.  0.
        -12    1    1    2    0    0  0.19137763404E+02  0.17324428048E+02  0.31412975506E+02  0.40659129669E+02  0.00000000000E+00 0.  1.
         11    1    3    3    0    0 -0.11800540131E+02 -0.27440730071E+01 -0.14058452726E+02  0.18558630805E+02  0.51100000000E-03 0. -1.
        -11    1    3    3    0    0 -0.15474937174E+01 -0.18395611667E+02 -0.16889390922E+02  0.25020887102E+02  0.51100000000E-03 0.  1.
        -12    1    3    3    0    0 -0.57897295557E+01  0.38152566263E+01 -0.46513185867E+00  0.69493524229E+01  0.00000000000E+00 0.  1.
</event>
<event>
 7    1  0.9406864E-013  0.5052886E+02  0.7816164E-02  0.1300439E+00
        -11   -1    0    0    0    0  0.00000000000E+00  0.00000000000E+00  0.45593999997E+02  0.45594000000E+02  0.51100000000E-03 0.  1.
         11   -1    0    0    0    0 -0.00000000000E+00 -0.00000000000E+00 -0.45593999997E+02  0.45594000000E+02  0.51100000000E-03 0. -1.
    9900012    2    1    2    0    0  0.28381974467E+02 -0.28798241862E+02 -0.42767092894E+01  0.50528862634E+02  0.30000008462E+02 0.  0.
        -12    1    1    2    0    0 -0.28381974467E+02  0.28798241862E+02  0.42767092894E+01  0.40659137366E+02  0.00000000000E+00 0.  1.
         11    1    3    3    0    0  0.12901825285E+02 -0.60298045136E+01  0.80786972895E+01  0.16373178931E+02  0.51100000000E-03 0. -1.
        -11    1    3    3    0    0 -0.22892978142E+01 -0.56321881319E+01 -0.62637155541E+01  0.87290641216E+01  0.51100000000E-03 0.  1.
         12    1    3    3    0    0  0.17769446996E+02 -0.17136249217E+02 -0.60916910248E+01  0.25426619581E+02  0.00000000000E+00 0. -1.
</event>
<event>
 7    1  0.9406864E-013  0.5052888E+02  0.7816164E-02  0.1300439E+00
        -11   -1    0    0    0    0  0.00000000000E+00  0.00000000000E+00  0.45593999997E+02  0.45594000000E+02  0.51100000000E-03 0. -1.
         11   -1    0    0    0    0 -0.00000000000E+00 -0.00000000000E+00 -0.45593999997E+02  0.45594000000E+02  0.51100000000E-03 0.  1.
    9900012    2    1    2    0    0  0.28870313044E+02 -0.12838311231E+02  0.25589971291E+02  0.50528882434E+02  0.30000068647E+02 0.  0.
        -12    1    1    2    0    0 -0.28870313044E+02  0.12838311231E+02 -0.25589971291E+02  0.40659117566E+02  0.00000000000E+00 0.  1.
         11    1    3    3    0    0  0.22187186433E+02 -0.14187118834E+02  0.17862832661E+02  0.31821790860E+02  0.51100000000E-03 0. -1.
        -11    1    3    3    0    0 -0.39464634828E+01 -0.35665713868E+01  0.26494339578E+01  0.59426009488E+01  0.51100000000E-03 0.  1.
        -12    1    3    3    0    0  0.10629590094E+02  0.49153789898E+01  0.50777046722E+01  0.12764490625E+02  0.00000000000E+00 0.  1.
</event>
<event>
 7    1  0.9406864E-013  0.5052886E+02  0.7816164E-02  0.1300439E+00
        -11   -1    0    0    0    0  0.00000000000E+00  0.00000000000E+00  0.45593999997E+02  0.45594000000E+02  0.51100000000E-03 0. -1.
         11   -1    0    0    0    0 -0.00000000000E+00 -0.00000000000E+00 -0.45593999997E+02  0.45594000000E+02  0.51100000000E-03 0.  1.
    9900012    2    1    2    0    0 -0.85906366765E+01  0.13428655939E+02  0.37403713808E+02  0.50528860246E+02  0.30000001205E+02 0.  0.
        -12    1    1    2    0    0  0.85906366765E+01 -0.13428655939E+02 -0.37403713808E+02  0.40659139754E+02  0.00000000000E+00 0.  1.
         11    1    3    3    0    0 -0.10642291757E+02 -0.57613838708E+01  0.19494727134E+02  0.22945507278E+02  0.51100000000E-03 0. -1.
        -11    1    3    3    0    0  0.24983125624E+00  0.18872305077E+02  0.17432341429E+02  0.25692661258E+02  0.51100000000E-03 0.  1.
        -12    1    3    3    0    0  0.18018238243E+01  0.31773473315E+00  0.47664524593E+00  0.18906917107E+01  0.00000000000E+00 0.  1.
</event>
<event>
 7    1  0.9406864E-013  0.5052885E+02  0.7816164E-02  0.1300439E+00
        -11   -1    0    0    0    0  0.00000000000E+00  0.00000000000E+00  0.45593999997E+02  0.45594000000E+02  0.51100000000E-03 0.  1.
         11   -1    0    0    0    0 -0.00000000000E+00 -0.00000000000E+00 -0.45593999997E+02  0.45594000000E+02  0.51100000000E-03 0. -1.
    9900012    2    1    2    0    0 -0.12891099792E+02  0.97528607313E+01 -0.37307741061E+02  0.50528852329E+02  0.29999977138E+02 0.  0.
        -12    1    1    2    0    0  0.12891099792E+02 -0.97528607313E+01  0.37307741061E+02  0.40659147671E+02  0.00000000000E+00 0.  1.
         11    1    3    3    0    0 -0.12331248078E+02 -0.42736715939E+01 -0.29804758748E+02  0.32536865128E+02  0.51100000000E-03 0. -1.
        -11    1    3    3    0    0 -0.31089974786E+01  0.38256972977E+01  0.23774307987E+00  0.49354176286E+01  0.51100000000E-03 0.  1.
         12    1    3    3    0    0  0.25491457643E+01  0.10200835027E+02 -0.77407253924E+01  0.13056569572E+02  0.00000000000E+00 0. -1.
</event>
<event>
 7    1  0.9406864E-013  0.5052880E+02  0.7816164E-02  0.1300439E+00
        -11   -1    0    0    0    0  0.00000000000E+00  0.00000000000E+00  0.45593999997E+02  0.45594000000E+02  0.51100000000E-03 0. -1.
         11   -1    0    0    0    0 -0.00000000000E+00 -0.00000000000E+00 -0.45593999997E+02  0.45594000000E+02  0.51100000000E-03 0.  1.
    9900012    2    1    2    0    0 -0.35875722420E+02  0.18333957784E+02  0.54744284651E+01  0.50528796440E+02  0.29999807257E+02 0.  0.
        -12    1    1    2    0    0  0.35875722420E+02 -0.18333957784E+02 -0.54744284651E+01  0.40659203560E+02  0.00000000000E+00 0.  1.
         11    1    3    3    0    0 -0.99586967042E+00  0.66541132828E+01  0.38303052129E+01  0.77421068364E+01  0.51100000000E-03 0. -1.
        -11    1    3    3    0    0 -0.33477265768E+02  0.38247541461E+01  0.51224385729E+01  0.34082186620E+02  0.51100000000E-03 0.  1.
        -12    1    3    3    0    0 -0.14025869812E+01  0.78550903547E+01 -0.34783153208E+01  0.87045029836E+01  0.00000000000E+00 0.  1.
</event>
<event>
 7    1  0.9406864E-013  0.5052886E+02  0.7816164E-02  0.1300439E+00
        -11   -1    0    0    0    0  0.00000000000E+00  0.00000000000E+00  0.45593999997E+02  0.45594000000E+02  0.51100000000E-03 0.  1.
         11   -1    0    0    0    0 -0.00000000000E+00 -0.00000000000E+00 -0.45593999997E+02  0.45594000000E+02  0.51100000000E-03 0. -1.
    9900012    2    1    2    0    0 -0.20056376859E+02  0.11052331383E+02 -0.33596926528E+02  0.50528858914E+02  0.29999997157E+02 0.  0.
        -12    1    1    2    0    0  0.20056376859E+02 -0.11052331383E+02  0.33596926528E+02  0.40659141086E+02  0.00000000000E+00 0.  1.
         11    1    3    3    0    0 -0.10730961619E+02  0.13430340661E+02 -0.10257457976E+02  0.20018567180E+02  0.51100000000E-03 0. -1.
        -11    1    3    3    0    0 -0.13013494760E+02 -0.61250277892E+01 -0.16651242585E+02  0.22002974598E+02  0.51100000000E-03 0.  1.
        -12    1    3    3    0    0  0.36880795207E+01  0.37470185108E+01 -0.66882259672E+01  0.85073171364E+01  0.00000000000E+00 0.  1.
</event>
<event>
 7    1  0.9406864E-013  0.5052887E+02  0.7816164E-02  0.1300439E+00
        -11   -1    0    0    0    0  0.00000000000E+00  0.00000000000E+00  0.45593999997E+02  0.45594000000E+02  0.51100000000E-03 0.  1.
         11   -1    0    0    0    0 -0.00000000000E+00 -0.00000000000E+00 -0.45593999997E+02  0.45594000000E+02  0.51100000000E-03 0. -1.
    9900012    2    1    2    0    0  0.23163798408E+02 -0.24152900854E+02 -0.23092006985E+02  0.50528868640E+02  0.30000026717E+02 0.  0.
        -12    1    1    2    0    0 -0.23163798408E+02  0.24152900854E+02  0.23092006985E+02  0.40659131360E+02  0.00000000000E+00 0.  1.
         11    1    3    3    0    0  0.24361732901E+02 -0.18740006998E+02 -0.28264892728E+02  0.41756269630E+02  0.51100000000E-03 0. -1.
        -11    1    3    3    0    0  0.65130821958E+00 -0.49146328766E+01  0.27011495716E+01  0.56457088109E+01  0.51100000000E-03 0.  1.
         12    1    3    3    0    0 -0.18492427121E+01 -0.49826097980E+00  0.24717361715E+01  0.31268901985E+01  0.00000000000E+00 0. -1.
</event>
<event>
 7    1  0.9406864E-013  0.5052889E+02  0.7816164E-02  0.1300439E+00
        -11   -1    0    0    0    0  0.00000000000E+00  0.00000000000E+00  0.45593999997E+02  0.45594000000E+02  0.51100000000E-03 0.  1.
         11   -1    0    0    0    0 -0.00000000000E+00 -0.00000000000E+00 -0.45593999997E+02  0.45594000000E+02  0.51100000000E-03 0. -1.
    9900012    2    1    2    0    0  0.50499296251E-01  0.25860525139E+02 -0.31375055150E+02  0.50528887906E+02  0.30000085278E+02 0.  0.
        -12    1    1    2    0    0 -0.50499296251E-01 -0.25860525139E+02  0.31375055150E+02  0.40659112094E+02  0.00000000000E+00 0.  1.
         11    1    3    3    0    0 -0.40671682736E+01  0.15413487505E+02 -0.32785250659E+02  0.36455316703E+02  0.51100000000E-03 0. -1.
        -11    1    3    3    0    0  0.40105221022E+01  0.30200825114E+01  0.37717855974E+01  0.62794548140E+01  0.51100000000E-03 0.  1.
         12    1    3    3    0    0  0.10714546772E+00  0.74269551222E+01 -0.23615900880E+01  0.77941163888E+01  0.00000000000E+00 0. -1.
</event>
<event>
 7    1  0.9406864E-013  0.5052886E+02  0.7816164E-02  0.1300439E+00
        -11   -1    0    0    0    0  0.00000000000E+00  0.00000000000E+00  0.45593999997E+02  0.45594000000E+02  0.51100000000E-03 0.  1.
         11   -1    0    0    0    0 -0.00000000000E+00 -0.00000000000E+00 -0.45593999997E+02  0.45594000000E+02  0.51100000000E-03 0. -1.
    9900012    2    1    2    0    0 -0.45384013323E+01 -0.29761743209E+02 -0.27327768383E+02  0.50528863631E+02  0.30000011493E+02 0.  0.
        -12    1    1    2    0    0  0.45384013323E+01  0.29761743209E+02  0.27327768383E+02  0.40659136369E+02  0.00000000000E+00 0.  1.
         11    1    3    3    0    0 -0.89765656362E+01 -0.25786666807E+02 -0.25282202369E+02  0.37211835114E+02  0.51100000000E-03 0. -1.
        -11    1    3    3    0    0  0.57822740198E+01 -0.47427205426E+01 -0.56640753268E+01  0.93813560082E+01  0.51100000000E-03 0.  1.
         12    1    3    3    0    0 -0.13441097159E+01  0.76764414108E+00  0.36185093123E+01  0.39356725091E+01  0.00000000000E+00 0. -1.
</event>
<event>
 7    1  0.9406864E-013  0.5052886E+02  0.7816164E-02  0.1300439E+00
        -11   -1    0    0    0    0  0.00000000000E+00  0.00000000000E+00  0.45593999997E+02  0.45594000000E+02  0.51100000000E-03 0.  1.
         11   -1    0    0    0    0 -0.00000000000E+00 -0.00000000000E+00 -0.45593999997E+02  0.45594000000E+02  0.51100000000E-03 0. -1.
    9900012    2    1    2    0    0  0.14791729574E+02 -0.97110389637E+01 -0.36606913520E+02  0.50528860080E+02  0.30000000700E+02 0.  0.
        -12    1    1    2    0    0 -0.14791729574E+02  0.97110389637E+01  0.36606913520E+02  0.40659139920E+02  0.00000000000E+00 0.  1.
         11    1    3    3    0    0  0.19333592481E+01 -0.42187744128E+01 -0.25670869769E+02  0.26086960162E+02  0.51100000000E-03 0. -1.
        -11    1    3    3    0    0  0.10823431662E+02  0.44157118739E+01 -0.67214027259E+01  0.13484155115E+02  0.51100000000E-03 0.  1.
         12    1    3    3    0    0  0.20349386635E+01 -0.99079764249E+01 -0.42146410249E+01  0.10957744803E+02  0.00000000000E+00 0. -1.
</event>
<event>
 7    1  0.9406864E-013  0.5052886E+02  0.7816164E-02  0.1300439E+00
        -11   -1    0    0    0    0  0.00000000000E+00  0.00000000000E+00  0.45593999997E+02  0.45594000000E+02  0.51100000000E-03 0. -1.
         11   -1    0    0    0    0 -0.00000000000E+00 -0.00000000000E+00 -0.45593999997E+02  0.45594000000E+02  0.51100000000E-03 0.  1.
    9900012    2    1    2    0    0 -0.34560246849E+02 -0.26269102571E+01 -0.21256861965E+02  0.50528862031E+02  0.30000006630E+02 0.  0.
        -12    1    1    2    0    0  0.34560246849E+02  0.26269102571E+01  0.21256861965E+02  0.40659137969E+02  0.00000000000E+00 0.  1.
         11    1    3    3    0    0 -0.13125552147E+02 -0.60070613417E+01 -0.12286005080E+02  0.18955495937E+02  0.51100000000E-03 0. -1.
        -11    1    3    3    0    0 -0.26365778720E+01  0.23830955557E+01  0.63667881013E+01  0.72915484152E+01  0.51100000000E-03 0.  1.
        -12    1    3    3    0    0 -0.18798116831E+02  0.99705552893E+00 -0.15337644985E+02  0.24281817679E+02  0.00000000000E+00 0.  1.
</event>
<event>
 7    1  0.9406864E-013  0.5052886E+02  0.7816164E-02  0.1300439E+00
        -11   -1    0    0    0    0  0.00000000000E+00  0.00000000000E+00  0.45593999997E+02  0.45594000000E+02  0.51100000000E-03 0.  1.
         11   -1    0    0    0    0 -0.00000000000E+00 -0.00000000000E+00 -0.45593999997E+02  0.45594000000E+02  0.51100000000E-03 0. -1.
    9900012    2    1    2    0    0 -0.10076183701E+02 -0.38833106222E+02  0.66050238791E+01  0.50528856412E+02  0.29999989551E+02 0.  0.
        -12    1    1    2    0    0  0.10076183701E+02  0.38833106222E+02 -0.66050238791E+01  0.40659143588E+02  0.00000000000E+00 0.  1.
         11    1    3    3    0    0 -0.24826674228E+01 -0.32507649133E+02  0.99782197615E+01  0.34095098761E+02  0.51100000000E-03 0. -1.
        -11    1    3    3    0    0 -0.99535339299E+01 -0.11286967755E+01 -0.37916461670E+01  0.10710899823E+02  0.51100000000E-03 0.  1.
        -12    1    3    3    0    0  0.23600176519E+01 -0.51967603141E+01  0.41845028457E+00  0.57228578280E+01  0.00000000000E+00 0.  1.
</event>
<event>
 7    1  0.9406864E-013  0.5052885E+02  0.7816164E-02  0.1300439E+00
        -11   -1    0    0    0    0  0.00000000000E+00  0.00000000000E+00  0.45593999997E+02  0.45594000000E+02  0.51100000000E-03 0.  1.
         11   -1    0    0    0    0 -0.00000000000E+00 -0.00000000000E+00 -0.45593999997E+02  0.45594000000E+02  0.51100000000E-03 0. -1.
    9900012    2    1    2    0    0  0.19012139227E+02  0.31020772569E+02 -0.18149830074E+02  0.50528854652E+02  0.29999984199E+02 0.  0.
        -12    1    1    2    0    0 -0.19012139227E+02 -0.31020772569E+02  0.18149830074E+02  0.40659145348E+02  0.00000000000E+00 0.  1.
         11    1    3    3    0    0  0.34093264277E+01  0.78295147998E+01 -0.20166322316E+02  0.21899894171E+02  0.51100000000E-03 0. -1.
        -11    1    3    3    0    0  0.14514431515E+02  0.18424339870E+02  0.33118986614E+00  0.23457082274E+02  0.51100000000E-03 0.  1.
         12    1    3    3    0    0  0.10883812843E+01  0.47669178991E+01  0.16853023759E+01  0.51718782057E+01  0.00000000000E+00 0. -1.
</event>
<event>
 7    1  0.9406864E-013  0.5052886E+02  0.7816164E-02  0.1300439E+00
        -11   -1    0    0    0    0  0.00000000000E+00  0.00000000000E+00  0.45593999997E+02  0.45594000000E+02  0.51100000000E-03 0. -1.
         11   -1    0    0    0    0 -0.00000000000E+00 -0.00000000000E+00 -0.45593999997E+02  0.45594000000E+02  0.51100000000E-03 0.  1.
    9900012    2    1    2    0    0 -0.34963866919E+02  0.15298428591E+02 -0.14023265741E+02  0.50528857248E+02  0.29999992091E+02 0.  0.
        -12    1    1    2    0    0  0.34963866919E+02 -0.15298428591E+02  0.14023265741E+02  0.40659142752E+02  0.00000000000E+00 0.  1.
         11    1    3    3    0    0 -0.23669233110E+02  0.14845536375E+02 -0.19166085184E+02  0.33881578591E+02  0.51100000000E-03 0. -1.
        -11    1    3    3    0    0 -0.11441447824E+02  0.33209322947E+01  0.63867918209E+01  0.13517634025E+02  0.51100000000E-03 0.  1.
         12    1    3    3    0    0  0.14681401431E+00 -0.28680400784E+01 -0.12439723781E+01  0.31296446321E+01  0.00000000000E+00 0. -1.
</event>
<event>
 7    1  0.9406864E-013  0.5052885E+02  0.7816164E-02  0.1300439E+00
        -11   -1    0    0    0    0  0.00000000000E+00  0.00000000000E+00  0.45593999997E+02  0.45594000000E+02  0.51100000000E-03 0. -1.
         11   -1    0    0    0    0 -0.00000000000E+00 -0.00000000000E+00 -0.45593999997E+02  0.45594000000E+02  0.51100000000E-03 0.  1.
    9900012    2    1    2    0    0  0.25629509326E+02 -0.24333498787E+02  0.20104112948E+02  0.50528852579E+02  0.29999977900E+02 0.  0.
        -12    1    1    2    0    0 -0.25629509326E+02  0.24333498787E+02 -0.20104112948E+02  0.40659147421E+02  0.00000000000E+00 0.  1.
         11    1    3    3    0    0  0.73325459979E+01 -0.39645536164E+01  0.21116290073E+02  0.22702018036E+02  0.51100000000E-03 0. -1.
        -11    1    3    3    0    0  0.36145480866E+01 -0.66243571636E+01 -0.15670658498E+01  0.77073186868E+01  0.51100000000E-03 0.  1.
         12    1    3    3    0    0  0.14682415241E+02 -0.13744588007E+02  0.55488872534E+00  0.20119515857E+02  0.00000000000E+00 0. -1.
</event>
<event>
 7    1  0.9406864E-013  0.5052883E+02  0.7816164E-02  0.1300439E+00
        -11   -1    0    0    0    0  0.00000000000E+00  0.00000000000E+00  0.45593999997E+02  0.45594000000E+02  0.51100000000E-03 0.  1.
         11   -1    0    0    0    0 -0.00000000000E+00 -0.00000000000E+00 -0.45593999997E+02  0.45594000000E+02  0.51100000000E-03 0. -1.
    9900012    2    1    2    0    0  0.20942180549E+02 -0.72645612258E+01 -0.34085467069E+02  0.50528833244E+02  0.29999919129E+02 0.  0.
        -12    1    1    2    0    0 -0.20942180549E+02  0.72645612258E+01  0.34085467069E+02  0.40659166756E+02  0.00000000000E+00 0.  1.
         11    1    3    3    0    0 -0.47891084268E+01 -0.72844656726E+01 -0.46120657873E+01  0.98625630921E+01  0.51100000000E-03 0. -1.
        -11    1    3    3    0    0  0.12673261176E+02 -0.52731364627E+01 -0.16986630139E+02  0.21839485359E+02  0.51100000000E-03 0.  1.
         12    1    3    3    0    0  0.13058027800E+02  0.52930409094E+01 -0.12486771143E+02  0.18826784793E+02  0.00000000000E+00 0. -1.
</event>
<event>
 7    1  0.9406864E-013  0.5052886E+02  0.7816164E-02  0.1300439E+00
        -11   -1    0    0    0    0  0.00000000000E+00  0.00000000000E+00  0.45593999997E+02  0.45594000000E+02  0.51100000000E-03 0.  1.
         11   -1    0    0    0    0 -0.00000000000E+00 -0.00000000000E+00 -0.45593999997E+02  0.45594000000E+02  0.51100000000E-03 0. -1.
    9900012    2    1    2    0    0  0.43699492433E+01 -0.31497252409E+02 -0.25337560408E+02  0.50528864088E+02  0.30000012881E+02 0.  0.
        -12    1    1    2    0    0 -0.43699492433E+01  0.31497252409E+02  0.25337560408E+02  0.40659135912E+02  0.00000000000E+00 0.  1.
         11    1    3    3    0    0  0.79258288295E+00 -0.12261631723E+02  0.63186554630E+00  0.12303457012E+02  0.51100000000E-03 0. -1.
        -11    1    3    3    0    0  0.60539638336E+01 -0.19185576895E+02 -0.28367836457E+02  0.34777449366E+02  0.51100000000E-03 0.  1.
        -12    1    3    3    0    0 -0.24765974733E+01 -0.50043790957E-01  0.23984105025E+01  0.34479577091E+01  0.00000000000E+00 0.  1.
</event>
<event>
 7    1  0.9406864E-013  0.5052893E+02  0.7816164E-02  0.1300439E+00
        -11   -1    0    0    0    0  0.00000000000E+00  0.00000000000E+00  0.45593999997E+02  0.45594000000E+02  0.51100000000E-03 0.  1.
         11   -1    0    0    0    0 -0.00000000000E+00 -0.00000000000E+00 -0.45593999997E+02  0.45594000000E+02  0.51100000000E-03 0. -1.
    9900012    2    1    2    0    0 -0.48335603479E+00  0.31758962897E+02 -0.25382962325E+02  0.50528928027E+02  0.30000207230E+02 0.  0.
        -12    1    1    2    0    0  0.48335603479E+00 -0.31758962897E+02  0.25382962325E+02  0.40659071973E+02  0.00000000000E+00 0.  1.
         11    1    3    3    0    0 -0.39243077735E+01  0.15983262490E+02 -0.13796124041E+02  0.21475518857E+02  0.51100000000E-03 0. -1.
        -11    1    3    3    0    0  0.40889795866E+00  0.80596874976E+00  0.58233596033E+01  0.58930722460E+01  0.51100000000E-03 0.  1.
        -12    1    3    3    0    0  0.30320537801E+01  0.14969731656E+02 -0.17410197887E+02  0.23160336924E+02  0.00000000000E+00 0.  1.
</event>
<event>
 7    1  0.9406864E-013  0.5052885E+02  0.7816164E-02  0.1300439E+00
        -11   -1    0    0    0    0  0.00000000000E+00  0.00000000000E+00  0.45593999997E+02  0.45594000000E+02  0.51100000000E-03 0.  1.
         11   -1    0    0    0    0 -0.00000000000E+00 -0.00000000000E+00 -0.45593999997E+02  0.45594000000E+02  0.51100000000E-03 0. -1.
    9900012    2    1    2    0    0 -0.38992659633E+01  0.13722430792E+00 -0.40471513510E+02  0.50528849599E+02  0.29999968841E+02 0.  0.
        -12    1    1    2    0    0  0.38992659633E+01 -0.13722430792E+00  0.40471513510E+02  0.40659150401E+02  0.00000000000E+00 0.  1.
         11    1    3    3    0    0  0.10138218696E+01 -0.13472513614E+02 -0.16628769688E+02  0.21425509083E+02  0.51100000000E-03 0. -1.
        -11    1    3    3    0    0  0.57516724548E+00  0.24050000759E+01 -0.34251819896E+00  0.24964297913E+01  0.51100000000E-03 0.  1.
         12    1    3    3    0    0 -0.54882550784E+01  0.11204737846E+02 -0.23500225623E+02  0.26606910725E+02  0.00000000000E+00 0. -1.
</event>
<event>
 7    1  0.9406864E-013  0.5052886E+02  0.7816164E-02  0.1300439E+00
        -11   -1    0    0    0    0  0.00000000000E+00  0.00000000000E+00  0.45593999997E+02  0.45594000000E+02  0.51100000000E-03 0.  1.
         11   -1    0    0    0    0 -0.00000000000E+00 -0.00000000000E+00 -0.45593999997E+02  0.45594000000E+02  0.51100000000E-03 0. -1.
    9900012    2    1    2    0    0  0.37348548737E+02  0.29648289425E+01 -0.15794340500E+02  0.50528862094E+02  0.30000006820E+02 0.  0.
        -12    1    1    2    0    0 -0.37348548737E+02 -0.29648289425E+01  0.15794340500E+02  0.40659137906E+02  0.00000000000E+00 0.  1.
         11    1    3    3    0    0  0.12893833078E+02  0.15444375412E+01 -0.65762868451E+01  0.14556227798E+02  0.51100000000E-03 0. -1.
        -11    1    3    3    0    0  0.33105930725E+01  0.76165756223E+01  0.50529859857E+01  0.97213640162E+01  0.51100000000E-03 0.  1.
        -12    1    3    3    0    0  0.21144122587E+02 -0.61961842210E+01 -0.14271039641E+02  0.26251270280E+02  0.00000000000E+00 0.  1.
</event>
<event>
 7    1  0.9406864E-013  0.5052886E+02  0.7816164E-02  0.1300439E+00
        -11   -1    0    0    0    0  0.00000000000E+00  0.00000000000E+00  0.45593999997E+02  0.45594000000E+02  0.51100000000E-03 0.  1.
         11   -1    0    0    0    0 -0.00000000000E+00 -0.00000000000E+00 -0.45593999997E+02  0.45594000000E+02  0.51100000000E-03 0. -1.
    9900012    2    1    2    0    0  0.20086585955E+02  0.32974160433E+02 -0.12743596065E+02  0.50528862869E+02  0.30000009176E+02 0.  0.
        -12    1    1    2    0    0 -0.20086585955E+02 -0.32974160433E+02  0.12743596065E+02  0.40659137131E+02  0.00000000000E+00 0.  1.
         11    1    3    3    0    0  0.15091566221E+02  0.20630624228E+02 -0.10072557923E+02  0.27474250680E+02  0.51100000000E-03 0. -1.
        -11    1    3    3    0    0 -0.46542481962E+01 -0.22185268521E+01  0.87437990768E+00  0.52295724633E+01  0.51100000000E-03 0.  1.
        -12    1    3    3    0    0  0.96492679295E+01  0.14562063057E+02 -0.35454180493E+01  0.17825039725E+02  0.00000000000E+00 0.  1.
</event>
<event>
 7    1  0.9406864E-013  0.5052886E+02  0.7816164E-02  0.1300439E+00
        -11   -1    0    0    0    0  0.00000000000E+00  0.00000000000E+00  0.45593999997E+02  0.45594000000E+02  0.51100000000E-03 0.  1.
         11   -1    0    0    0    0 -0.00000000000E+00 -0.00000000000E+00 -0.45593999997E+02  0.45594000000E+02  0.51100000000E-03 0. -1.
    9900012    2    1    2    0    0 -0.28388971134E+02  0.98300225901E+01 -0.27397125563E+02  0.50528861848E+02  0.30000006072E+02 0.  0.
        -12    1    1    2    0    0  0.28388971134E+02 -0.98300225901E+01  0.27397125563E+02  0.40659138152E+02  0.00000000000E+00 0.  1.
         11    1    3    3    0    0 -0.33594595582E+01 -0.40148800745E+01 -0.23777585725E+00  0.52403977097E+01  0.51100000000E-03 0. -1.
        -11    1    3    3    0    0 -0.26628788141E+02  0.17298337709E+02 -0.21073410741E+02  0.38110542976E+02  0.51100000000E-03 0.  1.
        -12    1    3    3    0    0  0.15992765649E+01 -0.34534350447E+01 -0.60859389641E+01  0.71779211624E+01  0.00000000000E+00 0.  1.
</event>
<event>
 7    1  0.9406864E-013  0.5052891E+02  0.7816164E-02  0.1300439E+00
        -11   -1    0    0    0    0  0.00000000000E+00  0.00000000000E+00  0.45593999997E+02  0.45594000000E+02  0.51100000000E-03 0.  1.
         11   -1    0    0    0    0 -0.00000000000E+00 -0.00000000000E+00 -0.45593999997E+02  0.45594000000E+02  0.51100000000E-03 0. -1.
    9900012    2    1    2    0    0 -0.22346179554E+02 -0.19623640303E+02 -0.27725845095E+02  0.50528911402E+02  0.30000156697E+02 0.  0.
        -12    1    1    2    0    0  0.22346179554E+02  0.19623640303E+02  0.27725845095E+02  0.40659088598E+02  0.00000000000E+00 0.  1.
         11    1    3    3    0    0 -0.16984041726E+02  0.20211270287E+01 -0.89895679144E+01  0.19322395280E+02  0.51100000000E-03 0. -1.
        -11    1    3    3    0    0  0.29035235184E+01 -0.96091709037E+01 -0.52395816513E+01  0.11323419555E+02  0.51100000000E-03 0.  1.
         12    1    3    3    0    0 -0.82656613462E+01 -0.12035596428E+02 -0.13496695529E+02  0.19883096567E+02  0.00000000000E+00 0. -1.
</event>
<event>
 7    1  0.9406864E-013  0.5052883E+02  0.7816164E-02  0.1300439E+00
        -11   -1    0    0    0    0  0.00000000000E+00  0.00000000000E+00  0.45593999997E+02  0.45594000000E+02  0.51100000000E-03 0.  1.
         11   -1    0    0    0    0 -0.00000000000E+00 -0.00000000000E+00 -0.45593999997E+02  0.45594000000E+02  0.51100000000E-03 0. -1.
    9900012    2    1    2    0    0 -0.24320195019E+02  0.28955908865E+02 -0.14941598715E+02  0.50528832324E+02  0.29999916333E+02 0.  0.
        -12    1    1    2    0    0  0.24320195019E+02 -0.28955908865E+02  0.14941598715E+02  0.40659167676E+02  0.00000000000E+00 0.  1.
         11    1    3    3    0    0 -0.78996131334E+01  0.43258808324E+01  0.68366096982E+01  0.11307358890E+02  0.51100000000E-03 0. -1.
        -11    1    3    3    0    0 -0.74604751389E+00  0.11131853195E+02 -0.11853620140E+02  0.16278300069E+02  0.51100000000E-03 0.  1.
         12    1    3    3    0    0 -0.15674534371E+02  0.13498174838E+02 -0.99245882725E+01  0.22943173366E+02  0.00000000000E+00 0. -1.
</event>
<event>
 7    1  0.9406864E-013  0.5052886E+02  0.7816164E-02  0.1300439E+00
        -11   -1    0    0    0    0  0.00000000000E+00  0.00000000000E+00  0.45593999997E+02  0.45594000000E+02  0.51100000000E-03 0.  1.
         11   -1    0    0    0    0 -0.00000000000E+00 -0.00000000000E+00 -0.45593999997E+02  0.45594000000E+02  0.51100000000E-03 0. -1.
    9900012    2    1    2    0    0 -0.35345875995E+02 -0.12050975580E+02  0.16081323416E+02  0.50528856808E+02  0.29999990754E+02 0.  0.
        -12    1    1    2    0    0  0.35345875995E+02  0.12050975580E+02 -0.16081323416E+02  0.40659143192E+02  0.00000000000E+00 0.  1.
         11    1    3    3    0    0 -0.46641035281E+01  0.29045121760E+01  0.24452973811E+01  0.60141110934E+01  0.51100000000E-03 0. -1.
        -11    1    3    3    0    0 -0.18257565309E+02 -0.20239448906E+02  0.14705373494E+02  0.30971309189E+02  0.51100000000E-03 0.  1.
        -12    1    3    3    0    0 -0.12424207158E+02  0.52839611499E+01 -0.10693474590E+01  0.13543436526E+02  0.00000000000E+00 0.  1.
</event>
<event>
 7    1  0.9406864E-013  0.5052886E+02  0.7816164E-02  0.1300439E+00
        -11   -1    0    0    0    0  0.00000000000E+00  0.00000000000E+00  0.45593999997E+02  0.45594000000E+02  0.51100000000E-03 0. -1.
         11   -1    0    0    0    0 -0.00000000000E+00 -0.00000000000E+00 -0.45593999997E+02  0.45594000000E+02  0.51100000000E-03 0.  1.
    9900012    2    1    2    0    0 -0.56318775614E+01 -0.27324296377E+02  0.29577534465E+02  0.50528858808E+02  0.29999996834E+02 0.  0.
        -12    1    1    2    0    0  0.56318775614E+01  0.27324296377E+02 -0.29577534465E+02  0.40659141192E+02  0.00000000000E+00 0.  1.
         11    1    3    3    0    0 -0.12528279159E+02 -0.22344424066E+02  0.30939844300E+02  0.40168458161E+02  0.51100000000E-03 0. -1.
        -11    1    3    3    0    0  0.69244365374E+01 -0.59720858549E+01 -0.70774550271E+00  0.91713976458E+01  0.51100000000E-03 0.  1.
         12    1    3    3    0    0 -0.28034940120E-01  0.99221354327E+00 -0.65456433140E+00  0.11890030014E+01  0.00000000000E+00 0. -1.
</event>
<event>
 7    1  0.9406864E-013  0.5052891E+02  0.7816164E-02  0.1300439E+00
        -11   -1    0    0    0    0  0.00000000000E+00  0.00000000000E+00  0.45593999997E+02  0.45594000000E+02  0.51100000000E-03 0. -1.
         11   -1    0    0    0    0 -0.00000000000E+00 -0.00000000000E+00 -0.45593999997E+02  0.45594000000E+02  0.51100000000E-03 0.  1.
    9900012    2    1    2    0    0  0.19429997106E+02  0.11802114476E+02  0.33709749243E+02  0.50528906458E+02  0.30000141670E+02 0.  0.
        -12    1    1    2    0    0 -0.19429997106E+02 -0.11802114476E+02 -0.33709749243E+02  0.40659093542E+02  0.00000000000E+00 0.  1.
         11    1    3    3    0    0  0.23788776992E+02  0.65452995481E+01  0.14972712836E+02  0.28860509124E+02  0.51100000000E-03 0. -1.
        -11    1    3    3    0    0 -0.68193423011E+01  0.43878768425E+01  0.15650950908E+02  0.17626944068E+02  0.51100000000E-03 0.  1.
         12    1    3    3    0    0  0.24605624151E+01  0.86893808511E+00  0.30860854992E+01  0.40414532662E+01  0.00000000000E+00 0. -1.
</event>
<event>
 7    1  0.9406864E-013  0.5052886E+02  0.7816164E-02  0.1300439E+00
        -11   -1    0    0    0    0  0.00000000000E+00  0.00000000000E+00  0.45593999997E+02  0.45594000000E+02  0.51100000000E-03 0. -1.
         11   -1    0    0    0    0 -0.00000000000E+00 -0.00000000000E+00 -0.45593999997E+02  0.45594000000E+02  0.51100000000E-03 0.  1.
    9900012    2    1    2    0    0  0.21548175287E+02 -0.25162185609E+02  0.23573413709E+02  0.50528864782E+02  0.30000014991E+02 0.  0.
        -12    1    1    2    0    0 -0.21548175287E+02  0.25162185609E+02 -0.23573413709E+02  0.40659135218E+02  0.00000000000E+00 0.  1.
         11    1    3    3    0    0  0.22987767971E+02 -0.15415340634E+02  0.18270486704E+02  0.33164452171E+02  0.51100000000E-03 0. -1.
        -11    1    3    3    0    0 -0.37853852486E+01  0.21869535914E+01  0.14857860306E+01  0.46173009303E+01  0.51100000000E-03 0.  1.
         12    1    3    3    0    0  0.23457925639E+01 -0.11933798566E+02  0.38171409747E+01  0.12747111680E+02  0.00000000000E+00 0. -1.
</event>
<event>
 7    1  0.9406864E-013  0.5052886E+02  0.7816164E-02  0.1300439E+00
        -11   -1    0    0    0    0  0.00000000000E+00  0.00000000000E+00  0.45593999997E+02  0.45594000000E+02  0.51100000000E-03 0. -1.
         11   -1    0    0    0    0 -0.00000000000E+00 -0.00000000000E+00 -0.45593999997E+02  0.45594000000E+02  0.51100000000E-03 0.  1.
    9900012    2    1    2    0    0 -0.14711856144E+02  0.55542945866E+01  0.37495020977E+02  0.50528862065E+02  0.30000006732E+02 0.  0.
        -12    1    1    2    0    0  0.14711856144E+02 -0.55542945866E+01 -0.37495020977E+02  0.40659137935E+02  0.00000000000E+00 0.  1.
         11    1    3    3    0    0 -0.17756977039E+02 -0.66601361473E+01  0.26295629224E+02  0.32421100593E+02  0.51100000000E-03 0. -1.
        -11    1    3    3    0    0  0.21593933379E+01  0.56301242640E+00  0.55090780770E+00  0.22985783114E+01  0.51100000000E-03 0.  1.
         12    1    3    3    0    0  0.88572755718E+00  0.11651418307E+02  0.10648483945E+02  0.15809183161E+02  0.00000000000E+00 0. -1.
</event>
<event>
 7    1  0.9406864E-013  0.5052886E+02  0.7816164E-02  0.1300439E+00
        -11   -1    0    0    0    0  0.00000000000E+00  0.00000000000E+00  0.45593999997E+02  0.45594000000E+02  0.51100000000E-03 0. -1.
         11   -1    0    0    0    0 -0.00000000000E+00 -0.00000000000E+00 -0.45593999997E+02  0.45594000000E+02  0.51100000000E-03 0.  1.
    9900012    2    1    2    0    0  0.18010890688E+02  0.36216283871E+02  0.41417711502E+01  0.50528859957E+02  0.30000000324E+02 0.  0.
        -12    1    1    2    0    0 -0.18010890688E+02 -0.36216283871E+02 -0.41417711502E+01  0.40659140043E+02  0.00000000000E+00 0.  1.
         11    1    3    3    0    0  0.14600623277E+02  0.67103183746E+01 -0.67306676007E+01  0.17421494178E+02  0.51100000000E-03 0. -1.
        -11    1    3    3    0    0 -0.29578311798E+01  0.89102151366E+01  0.55357256388E+01  0.10898851209E+02  0.51100000000E-03 0.  1.
         12    1    3    3    0    0  0.63680985904E+01  0.20595750360E+02  0.53367131121E+01  0.22208514570E+02  0.00000000000E+00 0. -1.
</event>
<event>
 7    1  0.9406864E-013  0.5052888E+02  0.7816164E-02  0.1300439E+00
        -11   -1    0    0    0    0  0.00000000000E+00  0.00000000000E+00  0.45593999997E+02  0.45594000000E+02  0.51100000000E-03 0.  1.
         11   -1    0    0    0    0 -0.00000000000E+00 -0.00000000000E+00 -0.45593999997E+02  0.45594000000E+02  0.51100000000E-03 0. -1.
    9900012    2    1    2    0    0  0.29293766139E+02  0.24198832550E+02 -0.14472592908E+02  0.50528878307E+02  0.30000056101E+02 0.  0.
        -12    1    1    2    0    0 -0.29293766139E+02 -0.24198832550E+02  0.14472592908E+02  0.40659121693E+02  0.00000000000E+00 0.  1.
         11    1    3    3    0    0  0.16336384058E+01 -0.33464976174E+01  0.13358855552E+01  0.39563128317E+01  0.51100000000E-03 0.  1.
        -11    1    3    3    0    0  0.68347197978E+01  0.17185496656E+02 -0.14087775529E+02  0.23249088362E+02  0.51100000000E-03 0. -1.
        -12    1    3    3    0    0  0.20825407936E+02  0.10359833511E+02 -0.17207029337E+01  0.23323477113E+02  0.00000000000E+00 0.  1.
</event>
<event>
 7    1  0.9406864E-013  0.5052886E+02  0.7816164E-02  0.1300439E+00
        -11   -1    0    0    0    0  0.00000000000E+00  0.00000000000E+00  0.45593999997E+02  0.45594000000E+02  0.51100000000E-03 0. -1.
         11   -1    0    0    0    0 -0.00000000000E+00 -0.00000000000E+00 -0.45593999997E+02  0.45594000000E+02  0.51100000000E-03 0.  1.
    9900012    2    1    2    0    0 -0.25866661147E+02 -0.12149388122E+02  0.28921854617E+02  0.50528862464E+02  0.30000007947E+02 0.  0.
        -12    1    1    2    0    0  0.25866661147E+02  0.12149388122E+02 -0.28921854617E+02  0.40659137536E+02  0.00000000000E+00 0.  1.
         11    1    3    3    0    0 -0.19781091756E+02 -0.34069611389E+01  0.20289428328E+02  0.28540495396E+02  0.51100000000E-03 0. -1.
        -11    1    3    3    0    0 -0.27603927888E+01 -0.78840133417E+01 -0.37369739907E+01  0.91510878910E+01  0.51100000000E-03 0.  1.
        -12    1    3    3    0    0 -0.33251766022E+01 -0.85841364140E+00  0.12369400279E+02  0.12837279178E+02  0.00000000000E+00 0.  1.
</event>
<event>
 7    1  0.9406864E-013  0.5052885E+02  0.7816164E-02  0.1300439E+00
        -11   -1    0    0    0    0  0.00000000000E+00  0.00000000000E+00  0.45593999997E+02  0.45594000000E+02  0.51100000000E-03 0.  1.
         11   -1    0    0    0    0 -0.00000000000E+00 -0.00000000000E+00 -0.45593999997E+02  0.45594000000E+02  0.51100000000E-03 0. -1.
    9900012    2    1    2    0    0 -0.24660003919E+02  0.12963456613E+02 -0.29614176026E+02  0.50528850694E+02  0.29999972169E+02 0.  0.
        -12    1    1    2    0    0  0.24660003919E+02 -0.12963456613E+02  0.29614176026E+02  0.40659149306E+02  0.00000000000E+00 0.  1.
         11    1    3    3    0    0 -0.15138735438E+02  0.16970803175E+02 -0.15618735708E+02  0.27588663912E+02  0.51100000000E-03 0. -1.
        -11    1    3    3    0    0 -0.43451057374E+01 -0.57000916621E+01 -0.15679353636E+02  0.17239870055E+02  0.51100000000E-03 0.  1.
        -12    1    3    3    0    0 -0.51761627441E+01  0.16927450995E+01  0.16839133179E+01  0.57003167270E+01  0.00000000000E+00 0.  1.
</event>
<event>
 7    1  0.1684296E-012  0.5052884E+02  0.7816164E-02  0.1300439E+00
        -11   -1    0    0    0    0  0.00000000000E+00  0.00000000000E+00  0.45593999997E+02  0.45594000000E+02  0.51100000000E-03 0. -1.
         11   -1    0    0    0    0 -0.00000000000E+00 -0.00000000000E+00 -0.45593999997E+02  0.45594000000E+02  0.51100000000E-03 0.  1.
    9900012    2    1    2    0    0  0.11158751941E+02 -0.30823201947E+02  0.24053681779E+02  0.50528841987E+02  0.29999945704E+02 0.  0.
        -12    1    1    2    0    0 -0.11158751941E+02  0.30823201947E+02 -0.24053681779E+02  0.40659158013E+02  0.00000000000E+00 0.  1.
         11    1    3    3    0    0  0.56948656090E-01 -0.23548000798E+02  0.52371167834E+01  0.24123411392E+02  0.51100000000E-03 0. -1.
        -11    1    3    3    0    0  0.57186033836E+01  0.86756232990E+00  0.69969124557E+00  0.58262043523E+01  0.51100000000E-03 0.  1.
         12    1    3    3    0    0  0.53831999013E+01 -0.81427634793E+01  0.18116873750E+02  0.20579226243E+02  0.00000000000E+00 0. -1.
</event>
<event>
 7    1  0.9406864E-013  0.5052886E+02  0.7816164E-02  0.1300439E+00
        -11   -1    0    0    0    0  0.00000000000E+00  0.00000000000E+00  0.45593999997E+02  0.45594000000E+02  0.51100000000E-03 0.  1.
         11   -1    0    0    0    0 -0.00000000000E+00 -0.00000000000E+00 -0.45593999997E+02  0.45594000000E+02  0.51100000000E-03 0. -1.
    9900012    2    1    2    0    0  0.22714124566E+02  0.27540311408E+02 -0.19461893930E+02  0.50528861758E+02  0.30000005799E+02 0.  0.
        -12    1    1    2    0    0 -0.22714124566E+02 -0.27540311408E+02  0.19461893930E+02  0.40659138242E+02  0.00000000000E+00 0.  1.
         11    1    3    3    0    0  0.16961493695E+02  0.95267362403E+01 -0.55144864562E+01  0.20220300020E+02  0.51100000000E-03 0. -1.
        -11    1    3    3    0    0 -0.64773990957E+01  0.10957423198E+02 -0.76269913781E+01  0.14838895509E+02  0.51100000000E-03 0.  1.
         12    1    3    3    0    0  0.12230029966E+02  0.70561519700E+01 -0.63204160958E+01  0.15469666229E+02  0.00000000000E+00 0. -1.
</event>
<event>
 7    1  0.9406864E-013  0.5052886E+02  0.7816164E-02  0.1300439E+00
        -11   -1    0    0    0    0  0.00000000000E+00  0.00000000000E+00  0.45593999997E+02  0.45594000000E+02  0.51100000000E-03 0.  1.
         11   -1    0    0    0    0 -0.00000000000E+00 -0.00000000000E+00 -0.45593999997E+02  0.45594000000E+02  0.51100000000E-03 0. -1.
    9900012    2    1    2    0    0  0.27529717180E+00 -0.34563755558E+02 -0.21411143056E+02  0.50528855472E+02  0.29999986692E+02 0.  0.
        -12    1    1    2    0    0 -0.27529717180E+00  0.34563755558E+02  0.21411143056E+02  0.40659144528E+02  0.00000000000E+00 0.  1.
         11    1    3    3    0    0  0.12969615872E+01 -0.33301913397E+02 -0.21359670301E+02  0.39584530576E+02  0.51100000000E-03 0. -1.
        -11    1    3    3    0    0  0.11746218669E+01 -0.53745770516E+01  0.19957290110E+01  0.58522431221E+01  0.51100000000E-03 0.  1.
         12    1    3    3    0    0 -0.21962862823E+01  0.41127348913E+01 -0.20472017664E+01  0.50920817739E+01  0.00000000000E+00 0. -1.
</event>
<event>
 7    1  0.9406864E-013  0.5052887E+02  0.7816164E-02  0.1300439E+00
        -11   -1    0    0    0    0  0.00000000000E+00  0.00000000000E+00  0.45593999997E+02  0.45594000000E+02  0.51100000000E-03 0. -1.
         11   -1    0    0    0    0 -0.00000000000E+00 -0.00000000000E+00 -0.45593999997E+02  0.45594000000E+02  0.51100000000E-03 0.  1.
    9900012    2    1    2    0    0 -0.10110199821E+02  0.29260005482E+02  0.26359080639E+02  0.50528865807E+02  0.30000018106E+02 0.  0.
        -12    1    1    2    0    0  0.10110199821E+02 -0.29260005482E+02 -0.26359080639E+02  0.40659134193E+02  0.00000000000E+00 0.  1.
         11    1    3    3    0    0 -0.53756244032E+00  0.20237303623E+02  0.16247746211E+02  0.25958171902E+02  0.51100000000E-03 0. -1.
        -11    1    3    3    0    0 -0.21790368120E+01 -0.31340934611E+01  0.96020748320E+01  0.10332985270E+02  0.51100000000E-03 0.  1.
         12    1    3    3    0    0 -0.73936005686E+01  0.12156795320E+02  0.50925959606E+00  0.14237708635E+02  0.00000000000E+00 0. -1.
</event>
<event>
 7    1  0.9406864E-013  0.5052886E+02  0.7816164E-02  0.1300439E+00
        -11   -1    0    0    0    0  0.00000000000E+00  0.00000000000E+00  0.45593999997E+02  0.45594000000E+02  0.51100000000E-03 0.  1.
         11   -1    0    0    0    0 -0.00000000000E+00 -0.00000000000E+00 -0.45593999997E+02  0.45594000000E+02  0.51100000000E-03 0. -1.
    9900012    2    1    2    0    0  0.21321521419E+02  0.13850611081E+02 -0.31728833591E+02  0.50528861003E+02  0.30000003506E+02 0.  0.
        -12    1    1    2    0    0 -0.21321521419E+02 -0.13850611081E+02  0.31728833591E+02  0.40659138997E+02  0.00000000000E+00 0.  1.
         11    1    3    3    0    0  0.55647637487E+01 -0.17847360795E+01 -0.22224153730E+02  0.22979662481E+02  0.51100000000E-03 0. -1.
        -11    1    3    3    0    0 -0.82291337646E+00  0.35231762364E+01  0.18738941847E+01  0.40744860897E+01  0.51100000000E-03 0.  1.
         12    1    3    3    0    0  0.16579671047E+02  0.12112170924E+02 -0.11378574046E+02  0.23474712433E+02  0.00000000000E+00 0. -1.
</event>
<event>
 7    1  0.9406864E-013  0.5052883E+02  0.7816164E-02  0.1300439E+00
        -11   -1    0    0    0    0  0.00000000000E+00  0.00000000000E+00  0.45593999997E+02  0.45594000000E+02  0.51100000000E-03 0. -1.
         11   -1    0    0    0    0 -0.00000000000E+00 -0.00000000000E+00 -0.45593999997E+02  0.45594000000E+02  0.51100000000E-03 0.  1.
    9900012    2    1    2    0    0  0.21576836144E+02  0.18244115812E+02  0.29236281655E+02  0.50528833939E+02  0.29999921240E+02 0.  0.
        -12    1    1    2    0    0 -0.21576836144E+02 -0.18244115812E+02 -0.29236281655E+02  0.40659166061E+02  0.00000000000E+00 0.  1.
         11    1    3    3    0    0  0.12603278329E+01  0.40376837805E+01  0.17233503777E+02  0.17744998429E+02  0.51100000000E-03 0. -1.
        -11    1    3    3    0    0  0.20767091254E+02  0.15159913245E+02  0.14888591929E+02  0.29711365143E+02  0.51100000000E-03 0.  1.
        -12    1    3    3    0    0 -0.45058294276E+00 -0.95348121340E+00 -0.28858140511E+01  0.30724703660E+01  0.00000000000E+00 0.  1.
</event>
<event>
 7    1  0.9406864E-013  0.5052887E+02  0.7816164E-02  0.1300439E+00
        -11   -1    0    0    0    0  0.00000000000E+00  0.00000000000E+00  0.45593999997E+02  0.45594000000E+02  0.51100000000E-03 0.  1.
         11   -1    0    0    0    0 -0.00000000000E+00 -0.00000000000E+00 -0.45593999997E+02  0.45594000000E+02  0.51100000000E-03 0. -1.
    9900012    2    1    2    0    0  0.96677709277E+01 -0.48253400618E+01 -0.39197134854E+02  0.50528867174E+02  0.30000022261E+02 0.  0.
        -12    1    1    2    0    0 -0.96677709277E+01  0.48253400618E+01  0.39197134854E+02  0.40659132826E+02  0.00000000000E+00 0.  1.
         11    1    3    3    0    0  0.54621119216E+01 -0.37987087355E+01 -0.12599734764E+00  0.66543767773E+01  0.51100000000E-03 0.  1.
        -11    1    3    3    0    0  0.25676056806E+01 -0.38447978601E+01 -0.40169563726E+02  0.40434748913E+02  0.51100000000E-03 0. -1.
        -12    1    3    3    0    0  0.16380533255E+01  0.28181665338E+01  0.10984262192E+01  0.34397414828E+01  0.00000000000E+00 0.  1.
</event>
<event>
 7    1  0.9406864E-013  0.5052886E+02  0.7816164E-02  0.1300439E+00
        -11   -1    0    0    0    0  0.00000000000E+00  0.00000000000E+00  0.45593999997E+02  0.45594000000E+02  0.51100000000E-03 0.  1.
         11   -1    0    0    0    0 -0.00000000000E+00 -0.00000000000E+00 -0.45593999997E+02  0.45594000000E+02  0.51100000000E-03 0. -1.
    9900012    2    1    2    0    0 -0.61301301978E+01  0.20536011371E+02 -0.34552270664E+02  0.50528859978E+02  0.30000000390E+02 0.  0.
        -12    1    1    2    0    0  0.61301301978E+01 -0.20536011371E+02  0.34552270664E+02  0.40659140022E+02  0.00000000000E+00 0.  1.
         11    1    3    3    0    0 -0.13778018670E+02  0.30457338203E+01 -0.11714625742E+02  0.18339649656E+02  0.51100000000E-03 0. -1.
        -11    1    3    3    0    0  0.55850493977E+01  0.78844303089E+00 -0.77649576537E+01  0.95973426953E+01  0.51100000000E-03 0.  1.
         12    1    3    3    0    0  0.20628390744E+01  0.16701834520E+02 -0.15072687268E+02  0.22591867627E+02  0.00000000000E+00 0. -1.
</event>
<event>
 7    1  0.9406864E-013  0.5052886E+02  0.7816164E-02  0.1300439E+00
        -11   -1    0    0    0    0  0.00000000000E+00  0.00000000000E+00  0.45593999997E+02  0.45594000000E+02  0.51100000000E-03 0.  1.
         11   -1    0    0    0    0 -0.00000000000E+00 -0.00000000000E+00 -0.45593999997E+02  0.45594000000E+02  0.51100000000E-03 0. -1.
    9900012    2    1    2    0    0  0.17485712736E+02 -0.16931177681E+02 -0.32569168860E+02  0.50528859727E+02  0.29999999625E+02 0.  0.
        -12    1    1    2    0    0 -0.17485712736E+02  0.16931177681E+02  0.32569168860E+02  0.40659140273E+02  0.00000000000E+00 0.  1.
         11    1    3    3    0    0  0.99881634717E+01  0.32966585815E+01 -0.99975517818E+01  0.14511457860E+02  0.51100000000E-03 0. -1.
        -11    1    3    3    0    0 -0.57562333706E+01 -0.70813230446E+01 -0.51273300605E+01  0.10467515106E+02  0.51100000000E-03 0.  1.
        -12    1    3    3    0    0  0.13253782635E+02 -0.13146513218E+02 -0.17444287017E+02  0.25549886760E+02  0.00000000000E+00 0.  1.
</event>
<event>
 7    1  0.9406864E-013  0.5052886E+02  0.7816164E-02  0.1300439E+00
        -11   -1    0    0    0    0  0.00000000000E+00  0.00000000000E+00  0.45593999997E+02  0.45594000000E+02  0.51100000000E-03 0.  1.
         11   -1    0    0    0    0 -0.00000000000E+00 -0.00000000000E+00 -0.45593999997E+02  0.45594000000E+02  0.51100000000E-03 0. -1.
    9900012    2    1    2    0    0  0.29710222089E+01 -0.71497708736E+01 -0.39915157418E+02  0.50528856031E+02  0.29999988393E+02 0.  0.
        -12    1    1    2    0    0 -0.29710222089E+01  0.71497708736E+01  0.39915157418E+02  0.40659143969E+02  0.00000000000E+00 0.  1.
         11    1    3    3    0    0 -0.90941233314E+00  0.20010376742E+01 -0.23484014258E+02  0.23586651066E+02  0.51100000000E-03 0. -1.
        -11    1    3    3    0    0 -0.30649514040E+01 -0.13037285585E+02 -0.10241555701E+02  0.16859840034E+02  0.51100000000E-03 0.  1.
        -12    1    3    3    0    0  0.69453859461E+01  0.38864770370E+01 -0.61895874597E+01  0.10082364932E+02  0.00000000000E+00 0.  1.
</event>
<event>
 7    1  0.9406864E-013  0.5052886E+02  0.7816164E-02  0.1300439E+00
        -11   -1    0    0    0    0  0.00000000000E+00  0.00000000000E+00  0.45593999997E+02  0.45594000000E+02  0.51100000000E-03 0.  1.
         11   -1    0    0    0    0 -0.00000000000E+00 -0.00000000000E+00 -0.45593999997E+02  0.45594000000E+02  0.51100000000E-03 0. -1.
    9900012    2    1    2    0    0  0.34353009998E+02 -0.81004001819E+01 -0.20184640087E+02  0.50528862350E+02  0.30000007599E+02 0.  0.
        -12    1    1    2    0    0 -0.34353009998E+02  0.81004001819E+01  0.20184640087E+02  0.40659137650E+02  0.00000000000E+00 0.  1.
         11    1    3    3    0    0  0.30643794518E+01 -0.10799200069E+02 -0.98715605861E+01  0.14948607033E+02  0.51100000000E-03 0. -1.
        -11    1    3    3    0    0  0.57595215090E+01  0.58446765679E+01 -0.12078547656E+01  0.82940488058E+01  0.51100000000E-03 0.  1.
         12    1    3    3    0    0  0.25529109037E+02 -0.31458766803E+01 -0.91052247350E+01  0.27286206511E+02  0.00000000000E+00 0. -1.
</event>
<event>
 7    1  0.9406864E-013  0.5052886E+02  0.7816164E-02  0.1300439E+00
        -11   -1    0    0    0    0  0.00000000000E+00  0.00000000000E+00  0.45593999997E+02  0.45594000000E+02  0.51100000000E-03 0. -1.
         11   -1    0    0    0    0 -0.00000000000E+00 -0.00000000000E+00 -0.45593999997E+02  0.45594000000E+02  0.51100000000E-03 0.  1.
    9900012    2    1    2    0    0 -0.13440780052E+02 -0.81263732739E+01  0.37502974648E+02  0.50528860579E+02  0.30000002216E+02 0.  0.
        -12    1    1    2    0    0  0.13440780052E+02  0.81263732739E+01 -0.37502974648E+02  0.40659139421E+02  0.00000000000E+00 0.  1.
         11    1    3    3    0    0 -0.19852562588E+02 -0.44580926031E+01  0.31049691818E+02  0.37122529456E+02  0.51100000000E-03 0. -1.
        -11    1    3    3    0    0  0.25632149190E+01  0.18687125720E+01 -0.10281070806E+01  0.33345407222E+01  0.51100000000E-03 0.  1.
        -12    1    3    3    0    0  0.38485676172E+01 -0.55369932427E+01  0.74813899106E+01  0.10071790400E+02  0.00000000000E+00 0.  1.
</event>
<event>
 7    1  0.9406864E-013  0.5052880E+02  0.7816164E-02  0.1300439E+00
        -11   -1    0    0    0    0  0.00000000000E+00  0.00000000000E+00  0.45593999997E+02  0.45594000000E+02  0.51100000000E-03 0.  1.
         11   -1    0    0    0    0 -0.00000000000E+00 -0.00000000000E+00 -0.45593999997E+02  0.45594000000E+02  0.51100000000E-03 0. -1.
    9900012    2    1    2    0    0  0.15143608537E+02  0.29524131732E+02 -0.23498239080E+02  0.50528800870E+02  0.29999820724E+02 0.  0.
        -12    1    1    2    0    0 -0.15143608537E+02 -0.29524131732E+02  0.23498239080E+02  0.40659199130E+02  0.00000000000E+00 0.  1.
         11    1    3    3    0    0  0.80639620851E+00  0.10504264760E+02  0.44673685102E+01  0.11443217845E+02  0.51100000000E-03 0. -1.
        -11    1    3    3    0    0  0.10558186751E+02  0.32509573429E+01 -0.10263363670E+02  0.15079146700E+02  0.51100000000E-03 0.  1.
         12    1    3    3    0    0  0.37790255771E+01  0.15768909629E+02 -0.17702243920E+02  0.24006436325E+02  0.00000000000E+00 0. -1.
</event>
<event>
 7    1  0.9406864E-013  0.5052886E+02  0.7816164E-02  0.1300439E+00
        -11   -1    0    0    0    0  0.00000000000E+00  0.00000000000E+00  0.45593999997E+02  0.45594000000E+02  0.51100000000E-03 0.  1.
         11   -1    0    0    0    0 -0.00000000000E+00 -0.00000000000E+00 -0.45593999997E+02  0.45594000000E+02  0.51100000000E-03 0. -1.
    9900012    2    1    2    0    0 -0.26771992494E+02  0.54350339401E+01 -0.30114558534E+02  0.50528858202E+02  0.29999994990E+02 0.  0.
        -12    1    1    2    0    0  0.26771992494E+02 -0.54350339401E+01  0.30114558534E+02  0.40659141798E+02  0.00000000000E+00 0.  1.
         11    1    3    3    0    0 -0.10141851909E+02  0.63239987222E+01 -0.26343763161E+02  0.28928255698E+02  0.51100000000E-03 0. -1.
        -11    1    3    3    0    0 -0.52958948997E+01 -0.10289400855E+01  0.49322775439E+01  0.73097594023E+01  0.51100000000E-03 0.  1.
         12    1    3    3    0    0 -0.11334245686E+02  0.13997530331E+00 -0.87030729171E+01  0.14290843101E+02  0.00000000000E+00 0. -1.
</event>
<event>
 7    1  0.9406864E-013  0.5052885E+02  0.7816164E-02  0.1300439E+00
        -11   -1    0    0    0    0  0.00000000000E+00  0.00000000000E+00  0.45593999997E+02  0.45594000000E+02  0.51100000000E-03 0.  1.
         11   -1    0    0    0    0 -0.00000000000E+00 -0.00000000000E+00 -0.45593999997E+02  0.45594000000E+02  0.51100000000E-03 0. -1.
    9900012    2    1    2    0    0  0.39755583080E+02  0.82810568402E+01 -0.20209504104E+01  0.50528849382E+02  0.29999968182E+02 0.  0.
        -12    1    1    2    0    0 -0.39755583080E+02 -0.82810568402E+01  0.20209504104E+01  0.40659150618E+02  0.00000000000E+00 0.  1.
         11    1    3    3    0    0  0.52451447401E+01  0.45221454107E+01 -0.10711911480E+02  0.12755641508E+02  0.51100000000E-03 0. -1.
        -11    1    3    3    0    0  0.24539639427E+02 -0.20636147269E+01  0.27248384691E+01  0.24776544430E+02  0.51100000000E-03 0.  1.
         12    1    3    3    0    0  0.99707989123E+01  0.58225261565E+01  0.59661226005E+01  0.12996663444E+02  0.00000000000E+00 0. -1.
</event>
<event>
 7    1  0.9406864E-013  0.5052885E+02  0.7816164E-02  0.1300439E+00
        -11   -1    0    0    0    0  0.00000000000E+00  0.00000000000E+00  0.45593999997E+02  0.45594000000E+02  0.51100000000E-03 0.  1.
         11   -1    0    0    0    0 -0.00000000000E+00 -0.00000000000E+00 -0.45593999997E+02  0.45594000000E+02  0.51100000000E-03 0. -1.
    9900012    2    1    2    0    0 -0.15145588513E+02 -0.62437983575E+01 -0.37212801897E+02  0.50528849808E+02  0.29999969477E+02 0.  0.
        -12    1    1    2    0    0  0.15145588513E+02  0.62437983575E+01  0.37212801897E+02  0.40659150192E+02  0.00000000000E+00 0.  1.
         11    1    3    3    0    0 -0.11195043555E+02 -0.34995707370E+01 -0.23048413772E+02  0.25861271686E+02  0.51100000000E-03 0. -1.
        -11    1    3    3    0    0 -0.32989729464E+01  0.61853954857E+01  0.97620106221E+00  0.70778039384E+01  0.51100000000E-03 0.  1.
        -12    1    3    3    0    0 -0.65157201073E+00 -0.89296231062E+01 -0.15140589187E+02  0.17589774183E+02  0.00000000000E+00 0.  1.
</event>
<event>
 7    1  0.9406864E-013  0.5052886E+02  0.7816164E-02  0.1300439E+00
        -11   -1    0    0    0    0  0.00000000000E+00  0.00000000000E+00  0.45593999997E+02  0.45594000000E+02  0.51100000000E-03 0. -1.
         11   -1    0    0    0    0 -0.00000000000E+00 -0.00000000000E+00 -0.45593999997E+02  0.45594000000E+02  0.51100000000E-03 0.  1.
    9900012    2    1    2    0    0  0.21732302246E+02 -0.34052852343E+02 -0.46125717999E+01  0.50528861639E+02  0.30000005438E+02 0.  0.
        -12    1    1    2    0    0 -0.21732302246E+02  0.34052852343E+02  0.46125717999E+01  0.40659138361E+02  0.00000000000E+00 0.  1.
         11    1    3    3    0    0  0.65133585440E+01 -0.27335730214E+01 -0.83362205699E+01  0.10926519786E+02  0.51100000000E-03 0. -1.
        -11    1    3    3    0    0  0.15691963707E+01 -0.23613088663E+02  0.95184546370E+00  0.23684305848E+02  0.51100000000E-03 0.  1.
        -12    1    3    3    0    0  0.13649747331E+02 -0.77061906589E+01  0.27718033063E+01  0.15918036005E+02  0.00000000000E+00 0.  1.
</event>
<event>
 7    1  0.9406864E-013  0.5052889E+02  0.7816164E-02  0.1300439E+00
        -11   -1    0    0    0    0  0.00000000000E+00  0.00000000000E+00  0.45593999997E+02  0.45594000000E+02  0.51100000000E-03 0.  1.
         11   -1    0    0    0    0 -0.00000000000E+00 -0.00000000000E+00 -0.45593999997E+02  0.45594000000E+02  0.51100000000E-03 0. -1.
    9900012    2    1    2    0    0  0.11458627359E+02  0.24227523165E+02 -0.30575968586E+02  0.50528894320E+02  0.30000104776E+02 0.  0.
        -12    1    1    2    0    0 -0.11458627359E+02 -0.24227523165E+02  0.30575968586E+02  0.40659105680E+02  0.00000000000E+00 0.  1.
         11    1    3    3    0    0  0.28975061314E+01  0.18991895467E+02 -0.18268369337E+02  0.26510770523E+02  0.51100000000E-03 0. -1.
        -11    1    3    3    0    0  0.74454340221E+01 -0.37618281047E+01 -0.12407768330E+02  0.14951205760E+02  0.51100000000E-03 0.  1.
        -12    1    3    3    0    0  0.11156872058E+01  0.89974558026E+01  0.10016908112E+00  0.90669180379E+01  0.00000000000E+00 0.  1.
</event>
<event>
 7    1  0.9406864E-013  0.5052886E+02  0.7816164E-02  0.1300439E+00
        -11   -1    0    0    0    0  0.00000000000E+00  0.00000000000E+00  0.45593999997E+02  0.45594000000E+02  0.51100000000E-03 0.  1.
         11   -1    0    0    0    0 -0.00000000000E+00 -0.00000000000E+00 -0.45593999997E+02  0.45594000000E+02  0.51100000000E-03 0. -1.
    9900012    2    1    2    0    0 -0.90599030790E+01 -0.28486931305E+02 -0.27560453181E+02  0.50528859840E+02  0.29999999971E+02 0.  0.
        -12    1    1    2    0    0  0.90599030790E+01  0.28486931305E+02  0.27560453181E+02  0.40659140160E+02  0.00000000000E+00 0.  1.
         11    1    3    3    0    0 -0.41698121618E+01 -0.20847370411E+02 -0.58513890852E+01  0.22050826311E+02  0.51100000000E-03 0. -1.
        -11    1    3    3    0    0 -0.10722732758E+02 -0.38023780542E+01 -0.14660066878E+02  0.18556741034E+02  0.51100000000E-03 0.  1.
        -12    1    3    3    0    0  0.58326418412E+01 -0.38371828391E+01 -0.70489972187E+01  0.99212924953E+01  0.00000000000E+00 0.  1.
</event>
<event>
 7    1  0.9406864E-013  0.5052885E+02  0.7816164E-02  0.1300439E+00
        -11   -1    0    0    0    0  0.00000000000E+00  0.00000000000E+00  0.45593999997E+02  0.45594000000E+02  0.51100000000E-03 0.  1.
         11   -1    0    0    0    0 -0.00000000000E+00 -0.00000000000E+00 -0.45593999997E+02  0.45594000000E+02  0.51100000000E-03 0. -1.
    9900012    2    1    2    0    0 -0.85658611793E+01 -0.12729433095E+02 -0.37653074014E+02  0.50528850631E+02  0.29999971979E+02 0.  0.
        -12    1    1    2    0    0  0.85658611793E+01  0.12729433095E+02  0.37653074014E+02  0.40659149369E+02  0.00000000000E+00 0.  1.
         11    1    3    3    0    0 -0.35447375864E+01  0.73427306829E+00 -0.12172036427E+02  0.12698928795E+02  0.51100000000E-03 0. -1.
        -11    1    3    3    0    0  0.96547320572E+01 -0.53440566345E+01 -0.82024030060E+01  0.13749625731E+02  0.51100000000E-03 0.  1.
        -12    1    3    3    0    0 -0.14675855650E+02 -0.81196495292E+01 -0.17278634581E+02  0.24080296105E+02  0.00000000000E+00 0.  1.
</event>
<event>
 7    1  0.9406864E-013  0.5052886E+02  0.7816164E-02  0.1300439E+00
        -11   -1    0    0    0    0  0.00000000000E+00  0.00000000000E+00  0.45593999997E+02  0.45594000000E+02  0.51100000000E-03 0. -1.
         11   -1    0    0    0    0 -0.00000000000E+00 -0.00000000000E+00 -0.45593999997E+02  0.45594000000E+02  0.51100000000E-03 0.  1.
    9900012    2    1    2    0    0 -0.22947423777E+02  0.26323946942E+02  0.20823812516E+02  0.50528860704E+02  0.30000002597E+02 0.  0.
        -12    1    1    2    0    0  0.22947423777E+02 -0.26323946942E+02 -0.20823812516E+02  0.40659139296E+02  0.00000000000E+00 0.  1.
         11    1    3    3    0    0 -0.13466486624E+02  0.19643991508E+02  0.15901137535E+01  0.23869669591E+02  0.51100000000E-03 0. -1.
        -11    1    3    3    0    0 -0.80182797674E+01 -0.21059683277E+01  0.44744417646E+01  0.94206444786E+01  0.51100000000E-03 0.  1.
         12    1    3    3    0    0 -0.14626573857E+01  0.87859237612E+01  0.14759256997E+02  0.17238546635E+02  0.00000000000E+00 0. -1.
</event>
<event>
 7    1  0.9406864E-013  0.5052885E+02  0.7816164E-02  0.1300439E+00
        -11   -1    0    0    0    0  0.00000000000E+00  0.00000000000E+00  0.45593999997E+02  0.45594000000E+02  0.51100000000E-03 0.  1.
         11   -1    0    0    0    0 -0.00000000000E+00 -0.00000000000E+00 -0.45593999997E+02  0.45594000000E+02  0.51100000000E-03 0. -1.
    9900012    2    1    2    0    0 -0.15595423620E+01 -0.58319175599E+01 -0.40208490544E+02  0.50528854084E+02  0.29999982474E+02 0.  0.
        -12    1    1    2    0    0  0.15595423620E+01  0.58319175599E+01  0.40208490544E+02  0.40659145916E+02  0.00000000000E+00 0.  1.
         11    1    3    3    0    0  0.11221389377E+02 -0.24269077636E+01 -0.12625277390E+02  0.17064790953E+02  0.51100000000E-03 0. -1.
        -11    1    3    3    0    0 -0.14853266470E+02 -0.31326457760E+01 -0.17499669665E+02  0.23166170012E+02  0.51100000000E-03 0.  1.
        -12    1    3    3    0    0  0.20723347310E+01 -0.27236402030E+00 -0.10083543490E+02  0.10297893120E+02  0.00000000000E+00 0.  1.
</event>
<event>
 7    1  0.9406864E-013  0.5052886E+02  0.7816164E-02  0.1300439E+00
        -11   -1    0    0    0    0  0.00000000000E+00  0.00000000000E+00  0.45593999997E+02  0.45594000000E+02  0.51100000000E-03 0. -1.
         11   -1    0    0    0    0 -0.00000000000E+00 -0.00000000000E+00 -0.45593999997E+02  0.45594000000E+02  0.51100000000E-03 0.  1.
    9900012    2    1    2    0    0  0.23705089724E+02  0.32421872922E+02 -0.63290337564E+01  0.50528858458E+02  0.29999995770E+02 0.  0.
        -12    1    1    2    0    0 -0.23705089724E+02 -0.32421872922E+02  0.63290337564E+01  0.40659141542E+02  0.00000000000E+00 0.  1.
         11    1    3    3    0    0  0.69144751401E+01  0.18169591073E+02 -0.17622557461E+01  0.19520490562E+02  0.51100000000E-03 0. -1.
        -11    1    3    3    0    0  0.21277338061E+01 -0.39988741324E+01  0.40352690680E+01  0.60664357071E+01  0.51100000000E-03 0.  1.
        -12    1    3    3    0    0  0.14662880778E+02  0.18251155982E+02 -0.86020470784E+01  0.24941932189E+02  0.00000000000E+00 0.  1.
</event>
<event>
 7    1  0.9406864E-013  0.5052888E+02  0.7816164E-02  0.1300439E+00
        -11   -1    0    0    0    0  0.00000000000E+00  0.00000000000E+00  0.45593999997E+02  0.45594000000E+02  0.51100000000E-03 0.  1.
         11   -1    0    0    0    0 -0.00000000000E+00 -0.00000000000E+00 -0.45593999997E+02  0.45594000000E+02  0.51100000000E-03 0. -1.
    9900012    2    1    2    0    0  0.19771358360E+02  0.44968605958E+01 -0.35242532084E+02  0.50528875141E+02  0.30000046479E+02 0.  0.
        -12    1    1    2    0    0 -0.19771358360E+02 -0.44968605958E+01  0.35242532084E+02  0.40659124859E+02  0.00000000000E+00 0.  1.
         11    1    3    3    0    0  0.25029637766E+01 -0.73837575260E+01 -0.12264093021E+02  0.14532469878E+02  0.51100000000E-03 0.  1.
        -11    1    3    3    0    0  0.14036925428E+02  0.60703355054E+01 -0.38856563091E+01  0.15779181659E+02  0.51100000000E-03 0. -1.
        -12    1    3    3    0    0  0.32314691555E+01  0.58102826164E+01 -0.19092782754E+02  0.20217223604E+02  0.00000000000E+00 0.  1.
</event>
<event>
 7    1  0.9406864E-013  0.5052887E+02  0.7816164E-02  0.1300439E+00
        -11   -1    0    0    0    0  0.00000000000E+00  0.00000000000E+00  0.45593999997E+02  0.45594000000E+02  0.51100000000E-03 0.  1.
         11   -1    0    0    0    0 -0.00000000000E+00 -0.00000000000E+00 -0.45593999997E+02  0.45594000000E+02  0.51100000000E-03 0. -1.
    9900012    2    1    2    0    0 -0.36105849997E+02  0.10810733577E+02 -0.15253211048E+02  0.50528870499E+02  0.30000032369E+02 0.  0.
        -12    1    1    2    0    0  0.36105849997E+02 -0.10810733577E+02  0.15253211048E+02  0.40659129501E+02  0.00000000000E+00 0.  1.
         11    1    3    3    0    0 -0.18999056183E+02 -0.66493622553E+01 -0.13606563662E+02  0.24296434495E+02  0.51100000000E-03 0. -1.
        -11    1    3    3    0    0 -0.58739116965E+01  0.53187086454E+01  0.38401276326E+01  0.88055710075E+01  0.51100000000E-03 0.  1.
         12    1    3    3    0    0 -0.11232882118E+02  0.12141387187E+02 -0.54867750193E+01  0.17426864996E+02  0.00000000000E+00 0. -1.
</event>
<event>
 7    1  0.9406864E-013  0.5052887E+02  0.7816164E-02  0.1300439E+00
        -11   -1    0    0    0    0  0.00000000000E+00  0.00000000000E+00  0.45593999997E+02  0.45594000000E+02  0.51100000000E-03 0.  1.
         11   -1    0    0    0    0 -0.00000000000E+00 -0.00000000000E+00 -0.45593999997E+02  0.45594000000E+02  0.51100000000E-03 0. -1.
    9900012    2    1    2    0    0 -0.87476552789E+01  0.14231855155E+02 -0.37068825568E+02  0.50528868148E+02  0.30000025221E+02 0.  0.
        -12    1    1    2    0    0  0.87476552789E+01 -0.14231855155E+02  0.37068825568E+02  0.40659131852E+02  0.00000000000E+00 0.  1.
         11    1    3    3    0    0  0.65366860281E+00  0.85687851665E+00 -0.19144749268E+02  0.19175060580E+02  0.51100000000E-03 0. -1.
        -11    1    3    3    0    0 -0.44161249608E+01  0.14009501010E+02 -0.22083282445E+01  0.14854123741E+02  0.51100000000E-03 0.  1.
        -12    1    3    3    0    0 -0.49851989208E+01 -0.63452437146E+00 -0.15715748055E+02  0.16499683827E+02  0.00000000000E+00 0.  1.
</event>
<event>
 7    1  0.9406864E-013  0.5052886E+02  0.7816164E-02  0.1300439E+00
        -11   -1    0    0    0    0  0.00000000000E+00  0.00000000000E+00  0.45593999997E+02  0.45594000000E+02  0.51100000000E-03 0. -1.
         11   -1    0    0    0    0 -0.00000000000E+00 -0.00000000000E+00 -0.45593999997E+02  0.45594000000E+02  0.51100000000E-03 0.  1.
    9900012    2    1    2    0    0 -0.26042029591E+02  0.60833133671E+01  0.30626329587E+02  0.50528855017E+02  0.29999985310E+02 0.  0.
        -12    1    1    2    0    0  0.26042029591E+02 -0.60833133671E+01 -0.30626329587E+02  0.40659144983E+02  0.00000000000E+00 0.  1.
         11    1    3    3    0    0 -0.18339210931E+02 -0.47348419806E+01  0.11197606405E+02  0.22002994697E+02  0.51100000000E-03 0. -1.
        -11    1    3    3    0    0  0.47344797116E+01  0.50439216615E+01  0.86998875514E+01  0.11115056794E+02  0.51100000000E-03 0.  1.
         12    1    3    3    0    0 -0.12437298372E+02  0.57742336862E+01  0.10728835631E+02  0.17410803527E+02  0.00000000000E+00 0. -1.
</event>
<event>
 7    1  0.9406864E-013  0.5052886E+02  0.7816164E-02  0.1300439E+00
        -11   -1    0    0    0    0  0.00000000000E+00  0.00000000000E+00  0.45593999997E+02  0.45594000000E+02  0.51100000000E-03 0. -1.
         11   -1    0    0    0    0 -0.00000000000E+00 -0.00000000000E+00 -0.45593999997E+02  0.45594000000E+02  0.51100000000E-03 0.  1.
    9900012    2    1    2    0    0 -0.13545322399E+02  0.17008985387E+02  0.34356719171E+02  0.50528862097E+02  0.30000006830E+02 0.  0.
        -12    1    1    2    0    0  0.13545322399E+02 -0.17008985387E+02 -0.34356719171E+02  0.40659137903E+02  0.00000000000E+00 0.  1.
         11    1    3    3    0    0  0.89540905427E+01  0.89743393343E+01  0.14312562494E+02  0.19119726707E+02  0.51100000000E-03 0. -1.
        -11    1    3    3    0    0 -0.57208914805E+01  0.53848029020E+00  0.38665152200E+01  0.69259295811E+01  0.51100000000E-03 0.  1.
         12    1    3    3    0    0 -0.16778521462E+02  0.74961657630E+01  0.16177641457E+02  0.24483205809E+02  0.00000000000E+00 0. -1.
</event>
<event>
 7    1  0.9406864E-013  0.5052886E+02  0.7816164E-02  0.1300439E+00
        -11   -1    0    0    0    0  0.00000000000E+00  0.00000000000E+00  0.45593999997E+02  0.45594000000E+02  0.51100000000E-03 0.  1.
         11   -1    0    0    0    0 -0.00000000000E+00 -0.00000000000E+00 -0.45593999997E+02  0.45594000000E+02  0.51100000000E-03 0. -1.
    9900012    2    1    2    0    0 -0.24698902558E+01  0.27101250494E+01 -0.40493458362E+02  0.50528864425E+02  0.30000013905E+02 0.  0.
        -12    1    1    2    0    0  0.24698902558E+01 -0.27101250494E+01  0.40493458362E+02  0.40659135575E+02  0.00000000000E+00 0.  1.
         11    1    3    3    0    0 -0.14583829469E+01  0.92412523223E+01 -0.31312682891E+01  0.98657218014E+01  0.51100000000E-03 0. -1.
        -11    1    3    3    0    0 -0.42326053075E+01 -0.80401265165E+01 -0.11995511174E+02  0.15048284642E+02  0.51100000000E-03 0.  1.
         12    1    3    3    0    0  0.32210979987E+01  0.15089992437E+01 -0.25366678899E+02  0.25614857981E+02  0.00000000000E+00 0. -1.
</event>
<event>
 7    1  0.9406864E-013  0.5052886E+02  0.7816164E-02  0.1300439E+00
        -11   -1    0    0    0    0  0.00000000000E+00  0.00000000000E+00  0.45593999997E+02  0.45594000000E+02  0.51100000000E-03 0.  1.
         11   -1    0    0    0    0 -0.00000000000E+00 -0.00000000000E+00 -0.45593999997E+02  0.45594000000E+02  0.51100000000E-03 0. -1.
    9900012    2    1    2    0    0  0.54188633996E+01  0.37094557149E+02 -0.15741511819E+02  0.50528862712E+02  0.30000008699E+02 0.  0.
        -12    1    1    2    0    0 -0.54188633996E+01 -0.37094557149E+02  0.15741511819E+02  0.40659137288E+02  0.00000000000E+00 0.  1.
         11    1    3    3    0    0 -0.42788058207E+01  0.21463187159E+02 -0.60736051778E+00  0.21893959654E+02  0.51100000000E-03 0.  1.
        -11    1    3    3    0    0  0.11471601688E+02  0.16887373608E+02 -0.16340117788E+02  0.26149196589E+02  0.51100000000E-03 0. -1.
        -12    1    3    3    0    0 -0.17739324675E+01 -0.12560036173E+01  0.12059664864E+01  0.24857064694E+01  0.00000000000E+00 0.  1.
</event>
<event>
 7    1  0.9406864E-013  0.5052886E+02  0.7816164E-02  0.1300439E+00
        -11   -1    0    0    0    0  0.00000000000E+00  0.00000000000E+00  0.45593999997E+02  0.45594000000E+02  0.51100000000E-03 0.  1.
         11   -1    0    0    0    0 -0.00000000000E+00 -0.00000000000E+00 -0.45593999997E+02  0.45594000000E+02  0.51100000000E-03 0. -1.
    9900012    2    1    2    0    0  0.31774494072E+02  0.22824226931E+02  0.11072577926E+02  0.50528858464E+02  0.29999995787E+02 0.  0.
        -12    1    1    2    0    0 -0.31774494072E+02 -0.22824226931E+02 -0.11072577926E+02  0.40659141536E+02  0.00000000000E+00 0.  1.
         11    1    3    3    0    0  0.11568251731E+02  0.12820396015E+02 -0.50897264783E+01  0.18002564206E+02  0.51100000000E-03 0. -1.
        -11    1    3    3    0    0  0.54082222855E-02 -0.14696894289E+01  0.76409560364E+01  0.77810170079E+01  0.51100000000E-03 0.  1.
        -12    1    3    3    0    0  0.20200834118E+02  0.11473520345E+02  0.85213483676E+01  0.24745277250E+02  0.00000000000E+00 0.  1.
</event>
<event>
 7    1  0.9406864E-013  0.5052886E+02  0.7816164E-02  0.1300439E+00
        -11   -1    0    0    0    0  0.00000000000E+00  0.00000000000E+00  0.45593999997E+02  0.45594000000E+02  0.51100000000E-03 0.  1.
         11   -1    0    0    0    0 -0.00000000000E+00 -0.00000000000E+00 -0.45593999997E+02  0.45594000000E+02  0.51100000000E-03 0. -1.
    9900012    2    1    2    0    0 -0.16280222780E+02 -0.22507613441E+02 -0.29690525984E+02  0.50528860194E+02  0.30000001045E+02 0.  0.
        -12    1    1    2    0    0  0.16280222780E+02  0.22507613441E+02  0.29690525984E+02  0.40659139806E+02  0.00000000000E+00 0.  1.
         11    1    3    3    0    0 -0.35438519365E+01 -0.23658491346E+02 -0.27669179118E+02  0.36576858430E+02  0.51100000000E-03 0. -1.
        -11    1    3    3    0    0 -0.58923637468E+01 -0.18262437370E+01 -0.20113622947E+01  0.64885048550E+01  0.51100000000E-03 0.  1.
         12    1    3    3    0    0 -0.68440070969E+01  0.29771216419E+01 -0.99845713676E-02  0.74634969086E+01  0.00000000000E+00 0. -1.
</event>
<event>
 7    1  0.9406864E-013  0.5052886E+02  0.7816164E-02  0.1300439E+00
        -11   -1    0    0    0    0  0.00000000000E+00  0.00000000000E+00  0.45593999997E+02  0.45594000000E+02  0.51100000000E-03 0. -1.
         11   -1    0    0    0    0 -0.00000000000E+00 -0.00000000000E+00 -0.45593999997E+02  0.45594000000E+02  0.51100000000E-03 0.  1.
    9900012    2    1    2    0    0 -0.44345714754E+01  0.39016163184E+02  0.10547018651E+02  0.50528855687E+02  0.29999987348E+02 0.  0.
        -12    1    1    2    0    0  0.44345714754E+01 -0.39016163184E+02 -0.10547018651E+02  0.40659144313E+02  0.00000000000E+00 0.  1.
         11    1    3    3    0    0 -0.39716591662E+01  0.11413238757E+02  0.80088554871E+01  0.14497512267E+02  0.51100000000E-03 0. -1.
        -11    1    3    3    0    0  0.87995042647E+01  0.95713437953E+01 -0.56402713640E+01  0.14172316630E+02  0.51100000000E-03 0.  1.
        -12    1    3    3    0    0 -0.92624165739E+01  0.18031580632E+02  0.81784345281E+01  0.21859026790E+02  0.00000000000E+00 0.  1.
</event>
<event>
 7    1  0.9406864E-013  0.5052886E+02  0.7816164E-02  0.1300439E+00
        -11   -1    0    0    0    0  0.00000000000E+00  0.00000000000E+00  0.45593999997E+02  0.45594000000E+02  0.51100000000E-03 0.  1.
         11   -1    0    0    0    0 -0.00000000000E+00 -0.00000000000E+00 -0.45593999997E+02  0.45594000000E+02  0.51100000000E-03 0. -1.
    9900012    2    1    2    0    0  0.16583348778E+02  0.29005256614E+02 -0.23170093076E+02  0.50528861039E+02  0.30000003613E+02 0.  0.
        -12    1    1    2    0    0 -0.16583348778E+02 -0.29005256614E+02  0.23170093076E+02  0.40659138961E+02  0.00000000000E+00 0.  1.
         11    1    3    3    0    0  0.12668518957E+02  0.12637626482E+02 -0.20814888939E+02  0.27449236373E+02  0.51100000000E-03 0. -1.
        -11    1    3    3    0    0 -0.22365875909E+01  0.15517021258E+02  0.15341103958E+01  0.15752262305E+02  0.51100000000E-03 0.  1.
        -12    1    3    3    0    0  0.61514174114E+01  0.85060887457E+00 -0.38893145329E+01  0.73273623605E+01  0.00000000000E+00 0.  1.
</event>
<event>
 7    1  0.9406864E-013  0.5052896E+02  0.7816164E-02  0.1300438E+00
        -11   -1    0    0    0    0  0.00000000000E+00  0.00000000000E+00  0.45593999997E+02  0.45594000000E+02  0.51100000000E-03 0.  1.
         11   -1    0    0    0    0 -0.00000000000E+00 -0.00000000000E+00 -0.45593999997E+02  0.45594000000E+02  0.51100000000E-03 0. -1.
    9900012    2    1    2    0    0 -0.52233537994E+01 -0.38599721443E+02  0.11659156306E+02  0.50528956158E+02  0.30000292736E+02 0.  0.
        -12    1    1    2    0    0  0.52233537994E+01  0.38599721443E+02 -0.11659156306E+02  0.40659043842E+02  0.00000000000E+00 0.  1.
         11    1    3    3    0    0  0.85551470215E+00 -0.21480469047E+02  0.62132986390E+01  0.22377388948E+02  0.51100000000E-03 0. -1.
        -11    1    3    3    0    0 -0.13686951094E+02 -0.89002373778E+01  0.43652702690E+01  0.16899776342E+02  0.51100000000E-03 0.  1.
        -12    1    3    3    0    0  0.76080825926E+01 -0.82190150181E+01  0.10805873982E+01  0.11251790868E+02  0.00000000000E+00 0.  1.
</event>
<event>
 7    1  0.9406864E-013  0.5052886E+02  0.7816164E-02  0.1300439E+00
        -11   -1    0    0    0    0  0.00000000000E+00  0.00000000000E+00  0.45593999997E+02  0.45594000000E+02  0.51100000000E-03 0. -1.
         11   -1    0    0    0    0 -0.00000000000E+00 -0.00000000000E+00 -0.45593999997E+02  0.45594000000E+02  0.51100000000E-03 0.  1.
    9900012    2    1    2    0    0 -0.13114261043E+02  0.40797617658E+01  0.38269271401E+02  0.50528862868E+02  0.30000009174E+02 0.  0.
        -12    1    1    2    0    0  0.13114261043E+02 -0.40797617658E+01 -0.38269271401E+02  0.40659137132E+02  0.00000000000E+00 0.  1.
         11    1    3    3    0    0 -0.25927379989E+01  0.77006106202E+01  0.14723973055E+02  0.16817166142E+02  0.51100000000E-03 0. -1.
        -11    1    3    3    0    0 -0.10656512508E+02 -0.91104645700E+01  0.24412913383E+02  0.28152302990E+02  0.51100000000E-03 0.  1.
        -12    1    3    3    0    0  0.13498946443E+00  0.54896157156E+01 -0.86761503799E+00  0.55593937362E+01  0.00000000000E+00 0.  1.
</event>
<event>
 7    1  0.9406864E-013  0.5052886E+02  0.7816164E-02  0.1300439E+00
        -11   -1    0    0    0    0  0.00000000000E+00  0.00000000000E+00  0.45593999997E+02  0.45594000000E+02  0.51100000000E-03 0.  1.
         11   -1    0    0    0    0 -0.00000000000E+00 -0.00000000000E+00 -0.45593999997E+02  0.45594000000E+02  0.51100000000E-03 0. -1.
    9900012    2    1    2    0    0  0.26620346694E+02 -0.22641438939E+02 -0.20781924870E+02  0.50528855683E+02  0.29999987333E+02 0.  0.
        -12    1    1    2    0    0 -0.26620346694E+02  0.22641438939E+02  0.20781924870E+02  0.40659144317E+02  0.00000000000E+00 0.  1.
         11    1    3    3    0    0  0.19221806703E+02  0.79858952185E-01 -0.48697000266E+01  0.19829226132E+02  0.51100000000E-03 0. -1.
        -11    1    3    3    0    0  0.21076711475E+01 -0.17329802230E+02 -0.15136856287E+02  0.23106032579E+02  0.51100000000E-03 0.  1.
         12    1    3    3    0    0  0.52908688432E+01 -0.53914956608E+01 -0.77536855578E+00  0.75935969720E+01  0.00000000000E+00 0. -1.
</event>
<event>
 7    1  0.9406864E-013  0.5052886E+02  0.7816164E-02  0.1300439E+00
        -11   -1    0    0    0    0  0.00000000000E+00  0.00000000000E+00  0.45593999997E+02  0.45594000000E+02  0.51100000000E-03 0.  1.
         11   -1    0    0    0    0 -0.00000000000E+00 -0.00000000000E+00 -0.45593999997E+02  0.45594000000E+02  0.51100000000E-03 0. -1.
    9900012    2    1    2    0    0 -0.17030173156E+02 -0.85591235617E+01 -0.35914905092E+02  0.50528858326E+02  0.29999995368E+02 0.  0.
        -12    1    1    2    0    0  0.17030173156E+02  0.85591235617E+01  0.35914905092E+02  0.40659141674E+02  0.00000000000E+00 0.  1.
         11    1    3    3    0    0 -0.68919591592E+01 -0.12813281963E+02 -0.20933299249E+02  0.25492789440E+02  0.51100000000E-03 0. -1.
        -11    1    3    3    0    0 -0.14552692935E+02  0.12410314862E+01 -0.12084010846E+02  0.18956380171E+02  0.51100000000E-03 0.  1.
         12    1    3    3    0    0  0.44144789378E+01  0.30131269155E+01 -0.28975949975E+01  0.60796887149E+01  0.00000000000E+00 0. -1.
</event>
<event>
 7    1  0.9406864E-013  0.5052885E+02  0.7816164E-02  0.1300439E+00
        -11   -1    0    0    0    0  0.00000000000E+00  0.00000000000E+00  0.45593999997E+02  0.45594000000E+02  0.51100000000E-03 0.  1.
         11   -1    0    0    0    0 -0.00000000000E+00 -0.00000000000E+00 -0.45593999997E+02  0.45594000000E+02  0.51100000000E-03 0. -1.
    9900012    2    1    2    0    0  0.35827452957E+02 -0.18946245295E+02 -0.32556916808E+01  0.50528854356E+02  0.29999983302E+02 0.  0.
        -12    1    1    2    0    0 -0.35827452957E+02  0.18946245295E+02  0.32556916808E+01  0.40659145644E+02  0.00000000000E+00 0.  1.
         11    1    3    3    0    0  0.88051703639E+01 -0.11731625281E+02 -0.79903183109E+01  0.16703509926E+02  0.51100000000E-03 0. -1.
        -11    1    3    3    0    0  0.20999282942E+02 -0.26682005713E+01  0.11145957417E+02  0.23923242785E+02  0.51100000000E-03 0.  1.
        -12    1    3    3    0    0  0.60229996511E+01 -0.45464194428E+01 -0.64113307864E+01  0.99021016456E+01  0.00000000000E+00 0.  1.
</event>
<event>
 7    1  0.9406864E-013  0.5052885E+02  0.7816164E-02  0.1300439E+00
        -11   -1    0    0    0    0  0.00000000000E+00  0.00000000000E+00  0.45593999997E+02  0.45594000000E+02  0.51100000000E-03 0.  1.
         11   -1    0    0    0    0 -0.00000000000E+00 -0.00000000000E+00 -0.45593999997E+02  0.45594000000E+02  0.51100000000E-03 0. -1.
    9900012    2    1    2    0    0 -0.20837406608E+01 -0.14828126062E+02 -0.37801470392E+02  0.50528850212E+02  0.29999970706E+02 0.  0.
        -12    1    1    2    0    0  0.20837406608E+01  0.14828126062E+02  0.37801470392E+02  0.40659149788E+02  0.00000000000E+00 0.  1.
         11    1    3    3    0    0 -0.46543019503E+00 -0.12528302484E+02 -0.19691437185E+02  0.23343686236E+02  0.51100000000E-03 0. -1.
        -11    1    3    3    0    0 -0.24383044629E+01  0.51891785793E+01  0.17088013876E+01  0.59827172276E+01  0.51100000000E-03 0.  1.
        -12    1    3    3    0    0  0.81999399717E+00 -0.74890021574E+01 -0.19818834594E+02  0.21202446749E+02  0.00000000000E+00 0.  1.
</event>
<event>
 7    1  0.9406864E-013  0.5052886E+02  0.7816164E-02  0.1300439E+00
        -11   -1    0    0    0    0  0.00000000000E+00  0.00000000000E+00  0.45593999997E+02  0.45594000000E+02  0.51100000000E-03 0. -1.
         11   -1    0    0    0    0 -0.00000000000E+00 -0.00000000000E+00 -0.45593999997E+02  0.45594000000E+02  0.51100000000E-03 0.  1.
    9900012    2    1    2    0    0 -0.24060238379E+02 -0.22178744909E+02  0.24132428226E+02  0.50528857257E+02  0.29999992117E+02 0.  0.
        -12    1    1    2    0    0  0.24060238379E+02  0.22178744909E+02 -0.24132428226E+02  0.40659142743E+02  0.00000000000E+00 0.  1.
         11    1    3    3    0    0 -0.88451708871E+01 -0.12140625250E+02 -0.31089326254E+01  0.15339403242E+02  0.51100000000E-03 0. -1.
        -11    1    3    3    0    0 -0.15346445362E+02 -0.95094603621E+01  0.28545812585E+02  0.33775829198E+02  0.51100000000E-03 0.  1.
        -12    1    3    3    0    0  0.13137787018E+00 -0.52865929637E+00 -0.13044517339E+01  0.14136248168E+01  0.00000000000E+00 0.  1.
</event>
<event>
 7    1  0.9406864E-013  0.5052886E+02  0.7816164E-02  0.1300439E+00
        -11   -1    0    0    0    0  0.00000000000E+00  0.00000000000E+00  0.45593999997E+02  0.45594000000E+02  0.51100000000E-03 0.  1.
         11   -1    0    0    0    0 -0.00000000000E+00 -0.00000000000E+00 -0.45593999997E+02  0.45594000000E+02  0.51100000000E-03 0. -1.
    9900012    2    1    2    0    0  0.31061339306E+02 -0.20200185512E+02 -0.16742498293E+02  0.50528861504E+02  0.30000005027E+02 0.  0.
        -12    1    1    2    0    0 -0.31061339306E+02  0.20200185512E+02  0.16742498293E+02  0.40659138496E+02  0.00000000000E+00 0.  1.
         11    1    3    3    0    0  0.32700410973E+01  0.37451146281E+01  0.48206212578E+01  0.69251311849E+01  0.51100000000E-03 0. -1.
        -11    1    3    3    0    0  0.20087978240E+02 -0.21861403652E+02 -0.14956837395E+02  0.33243868977E+02  0.51100000000E-03 0.  1.
        -12    1    3    3    0    0  0.77033199685E+01 -0.20838964876E+01 -0.66062821558E+01  0.10359861342E+02  0.00000000000E+00 0.  1.
</event>
<event>
 7    1  0.9406864E-013  0.5052886E+02  0.7816164E-02  0.1300439E+00
        -11   -1    0    0    0    0  0.00000000000E+00  0.00000000000E+00  0.45593999997E+02  0.45594000000E+02  0.51100000000E-03 0.  1.
         11   -1    0    0    0    0 -0.00000000000E+00 -0.00000000000E+00 -0.45593999997E+02  0.45594000000E+02  0.51100000000E-03 0. -1.
    9900012    2    1    2    0    0 -0.33899504872E+02 -0.22029129084E+02 -0.43251644174E+01  0.50528855813E+02  0.29999987729E+02 0.  0.
        -12    1    1    2    0    0  0.33899504872E+02  0.22029129084E+02  0.43251644174E+01  0.40659144187E+02  0.00000000000E+00 0.  1.
         11    1    3    3    0    0 -0.18057511004E+01 -0.98701287242E+01 -0.64182765026E+01  0.11911106229E+02  0.51100000000E-03 0. -1.
        -11    1    3    3    0    0 -0.33032103637E+02 -0.10144334773E+02  0.50468068057E+01  0.34921306646E+02  0.51100000000E-03 0.  1.
        -12    1    3    3    0    0  0.93834986477E+00 -0.20146655871E+01 -0.29536947205E+01  0.36964429386E+01  0.00000000000E+00 0.  1.
</event>
<event>
 7    1  0.9406864E-013  0.5052886E+02  0.7816164E-02  0.1300439E+00
        -11   -1    0    0    0    0  0.00000000000E+00  0.00000000000E+00  0.45593999997E+02  0.45594000000E+02  0.51100000000E-03 0. -1.
         11   -1    0    0    0    0 -0.00000000000E+00 -0.00000000000E+00 -0.45593999997E+02  0.45594000000E+02  0.51100000000E-03 0.  1.
    9900012    2    1    2    0    0 -0.27610294489E+01 -0.34190315571E+02 -0.21830360504E+02  0.50528860779E+02  0.30000002824E+02 0.  0.
        -12    1    1    2    0    0  0.27610294489E+01  0.34190315571E+02  0.21830360504E+02  0.40659139221E+02  0.00000000000E+00 0.  1.
         11    1    3    3    0    0 -0.51831115583E+01 -0.20510542268E+02 -0.11756257396E+02  0.24202408512E+02  0.51100000000E-03 0. -1.
        -11    1    3    3    0    0  0.70470053255E+01 -0.73033770574E+01  0.34131315142E+01  0.10707430480E+02  0.51100000000E-03 0.  1.
        -12    1    3    3    0    0 -0.46249232160E+01 -0.63763962455E+01 -0.13487234622E+02  0.15619021787E+02  0.00000000000E+00 0.  1.
</event>
<event>
 7    1  0.9406864E-013  0.5052886E+02  0.7816164E-02  0.1300439E+00
        -11   -1    0    0    0    0  0.00000000000E+00  0.00000000000E+00  0.45593999997E+02  0.45594000000E+02  0.51100000000E-03 0.  1.
         11   -1    0    0    0    0 -0.00000000000E+00 -0.00000000000E+00 -0.45593999997E+02  0.45594000000E+02  0.51100000000E-03 0. -1.
    9900012    2    1    2    0    0  0.27886240759E+02 -0.12151061683E+02 -0.26979156421E+02  0.50528860746E+02  0.30000002723E+02 0.  0.
        -12    1    1    2    0    0 -0.27886240759E+02  0.12151061683E+02  0.26979156421E+02  0.40659139254E+02  0.00000000000E+00 0.  1.
         11    1    3    3    0    0  0.14116010765E+02 -0.12816120734E+02 -0.65723263067E+01  0.20167056898E+02  0.51100000000E-03 0. -1.
        -11    1    3    3    0    0  0.36147430583E+01  0.36629533556E+01 -0.18994502707E+02  0.19679296939E+02  0.51100000000E-03 0.  1.
        -12    1    3    3    0    0  0.10155486936E+02 -0.29978943051E+01 -0.14123274074E+01  0.10682506909E+02  0.00000000000E+00 0.  1.
</event>
<event>
 7    1  0.9406864E-013  0.5052886E+02  0.7816164E-02  0.1300439E+00
        -11   -1    0    0    0    0  0.00000000000E+00  0.00000000000E+00  0.45593999997E+02  0.45594000000E+02  0.51100000000E-03 0.  1.
         11   -1    0    0    0    0 -0.00000000000E+00 -0.00000000000E+00 -0.45593999997E+02  0.45594000000E+02  0.51100000000E-03 0. -1.
    9900012    2    1    2    0    0  0.29112504403E+02 -0.13543168486E+01 -0.28351247317E+02  0.50528864358E+02  0.30000013703E+02 0.  0.
        -12    1    1    2    0    0 -0.29112504403E+02  0.13543168486E+01  0.28351247317E+02  0.40659135642E+02  0.00000000000E+00 0.  1.
         11    1    3    3    0    0  0.19603678060E+02  0.18786973041E+01 -0.25815691280E+02  0.32469733808E+02  0.51100000000E-03 0. -1.
        -11    1    3    3    0    0  0.88187714858E+01  0.43192509153E+01  0.63300216714E+00  0.98400889728E+01  0.51100000000E-03 0.  1.
         12    1    3    3    0    0  0.69005485734E+00 -0.75522650680E+01 -0.31685582038E+01  0.82190415776E+01  0.00000000000E+00 0. -1.
</event>
<event>
 7    1  0.9406864E-013  0.5052886E+02  0.7816164E-02  0.1300439E+00
        -11   -1    0    0    0    0  0.00000000000E+00  0.00000000000E+00  0.45593999997E+02  0.45594000000E+02  0.51100000000E-03 0.  1.
         11   -1    0    0    0    0 -0.00000000000E+00 -0.00000000000E+00 -0.45593999997E+02  0.45594000000E+02  0.51100000000E-03 0. -1.
    9900012    2    1    2    0    0 -0.35523817918E+02 -0.19486894163E+02  0.33889846225E+01  0.50528857113E+02  0.29999991680E+02 0.  0.
        -12    1    1    2    0    0  0.35523817918E+02  0.19486894163E+02 -0.33889846225E+01  0.40659142887E+02  0.00000000000E+00 0.  1.
         11    1    3    3    0    0 -0.17673463177E+00 -0.76178929708E+01 -0.68427001078E+01  0.10241390212E+02  0.51100000000E-03 0. -1.
        -11    1    3    3    0    0 -0.13719795522E+02 -0.66891278224E+01  0.96158335698E+01  0.18039996555E+02  0.51100000000E-03 0.  1.
         12    1    3    3    0    0 -0.21627287764E+02 -0.51798733695E+01  0.61585116047E+00  0.22247470346E+02  0.00000000000E+00 0. -1.
</event>
<event>
 7    1  0.9406864E-013  0.5052885E+02  0.7816164E-02  0.1300439E+00
        -11   -1    0    0    0    0  0.00000000000E+00  0.00000000000E+00  0.45593999997E+02  0.45594000000E+02  0.51100000000E-03 0. -1.
         11   -1    0    0    0    0 -0.00000000000E+00 -0.00000000000E+00 -0.45593999997E+02  0.45594000000E+02  0.51100000000E-03 0.  1.
    9900012    2    1    2    0    0 -0.32121857699E+02  0.23600332500E+02  0.80235553564E+01  0.50528845106E+02  0.29999955185E+02 0.  0.
        -12    1    1    2    0    0  0.32121857699E+02 -0.23600332500E+02 -0.80235553564E+01  0.40659154894E+02  0.00000000000E+00 0.  1.
         11    1    3    3    0    0 -0.15747800804E+02  0.14325101800E+02  0.79614770050E+01  0.22728547866E+02  0.51100000000E-03 0. -1.
        -11    1    3    3    0    0 -0.97506103357E+01 -0.49109284624E+01 -0.39974883553E+01  0.11626329330E+02  0.51100000000E-03 0.  1.
        -12    1    3    3    0    0 -0.66234465589E+01  0.14186159162E+02  0.40595667067E+01  0.16173967910E+02  0.00000000000E+00 0.  1.
</event>
<event>
 7    1  0.9406864E-013  0.5052885E+02  0.7816164E-02  0.1300439E+00
        -11   -1    0    0    0    0  0.00000000000E+00  0.00000000000E+00  0.45593999997E+02  0.45594000000E+02  0.51100000000E-03 0.  1.
         11   -1    0    0    0    0 -0.00000000000E+00 -0.00000000000E+00 -0.45593999997E+02  0.45594000000E+02  0.51100000000E-03 0. -1.
    9900012    2    1    2    0    0  0.22677271605E+02  0.29516775321E+02  0.16360549992E+02  0.50528852581E+02  0.29999977905E+02 0.  0.
        -12    1    1    2    0    0 -0.22677271605E+02 -0.29516775321E+02 -0.16360549992E+02  0.40659147419E+02  0.00000000000E+00 0.  1.
         11    1    3    3    0    0  0.61575643745E+01  0.11623123502E+01 -0.29895574291E+01  0.69429117025E+01  0.51100000000E-03 0. -1.
        -11    1    3    3    0    0  0.13145892756E+02  0.23583395781E+02  0.23994977031E+02  0.36121323009E+02  0.51100000000E-03 0.  1.
        -12    1    3    3    0    0  0.33738144749E+01  0.47710671898E+01 -0.46448696104E+01  0.74646178695E+01  0.00000000000E+00 0.  1.
</event>
<event>
 7    1  0.9406864E-013  0.5052886E+02  0.7816164E-02  0.1300439E+00
        -11   -1    0    0    0    0  0.00000000000E+00  0.00000000000E+00  0.45593999997E+02  0.45594000000E+02  0.51100000000E-03 0.  1.
         11   -1    0    0    0    0 -0.00000000000E+00 -0.00000000000E+00 -0.45593999997E+02  0.45594000000E+02  0.51100000000E-03 0. -1.
    9900012    2    1    2    0    0 -0.23030051292E+02 -0.28715289776E+02 -0.17268896066E+02  0.50528857107E+02  0.29999991664E+02 0.  0.
        -12    1    1    2    0    0  0.23030051292E+02  0.28715289776E+02  0.17268896066E+02  0.40659142893E+02  0.00000000000E+00 0.  1.
         11    1    3    3    0    0 -0.18693162822E+02 -0.17781000395E+02 -0.53571559208E+01  0.26349524306E+02  0.51100000000E-03 0. -1.
        -11    1    3    3    0    0  0.39710315896E+01 -0.11700606152E+02 -0.49411636530E+01  0.13307455606E+02  0.51100000000E-03 0.  1.
        -12    1    3    3    0    0 -0.83079200596E+01  0.76631677102E+00 -0.69705764925E+01  0.10871877195E+02  0.00000000000E+00 0.  1.
</event>
<event>
 7    1  0.9406864E-013  0.5052890E+02  0.7816164E-02  0.1300439E+00
        -11   -1    0    0    0    0  0.00000000000E+00  0.00000000000E+00  0.45593999997E+02  0.45594000000E+02  0.51100000000E-03 0.  1.
         11   -1    0    0    0    0 -0.00000000000E+00 -0.00000000000E+00 -0.45593999997E+02  0.45594000000E+02  0.51100000000E-03 0. -1.
    9900012    2    1    2    0    0 -0.15907068113E+02 -0.31559254285E+02 -0.20103260708E+02  0.50528899690E+02  0.30000121097E+02 0.  0.
        -12    1    1    2    0    0  0.15907068113E+02  0.31559254285E+02  0.20103260708E+02  0.40659100310E+02  0.00000000000E+00 0.  1.
         11    1    3    3    0    0 -0.16525890857E+02 -0.86727437331E+01 -0.67949150981E+01  0.19861833347E+02  0.51100000000E-03 0. -1.
        -11    1    3    3    0    0  0.14765597511E+01 -0.21999648815E+02 -0.16307249367E+02  0.27424280463E+02  0.51100000000E-03 0.  1.
         12    1    3    3    0    0 -0.85773700735E+00 -0.88686173639E+00  0.29989037578E+01  0.32427858798E+01  0.00000000000E+00 0. -1.
</event>
<event>
 7    1  0.9406864E-013  0.5052885E+02  0.7816164E-02  0.1300439E+00
        -11   -1    0    0    0    0  0.00000000000E+00  0.00000000000E+00  0.45593999997E+02  0.45594000000E+02  0.51100000000E-03 0.  1.
         11   -1    0    0    0    0 -0.00000000000E+00 -0.00000000000E+00 -0.45593999997E+02  0.45594000000E+02  0.51100000000E-03 0. -1.
    9900012    2    1    2    0    0  0.27547795138E+02  0.19659868266E+01 -0.29839914514E+02  0.50528848271E+02  0.29999964804E+02 0.  0.
        -12    1    1    2    0    0 -0.27547795138E+02 -0.19659868266E+01  0.29839914514E+02  0.40659151729E+02  0.00000000000E+00 0.  1.
         11    1    3    3    0    0  0.11211025852E+02  0.30390763513E+01 -0.26862347387E+02  0.29266171480E+02  0.51100000000E-03 0. -1.
        -11    1    3    3    0    0  0.10261597823E+02 -0.69124162447E+01 -0.14701608648E+00  0.12373499998E+02  0.51100000000E-03 0.  1.
         12    1    3    3    0    0  0.60751714629E+01  0.58393267200E+01 -0.28305510405E+01  0.88891767920E+01  0.00000000000E+00 0. -1.
</event>
<event>
 7    1  0.9406864E-013  0.5052886E+02  0.7816164E-02  0.1300439E+00
        -11   -1    0    0    0    0  0.00000000000E+00  0.00000000000E+00  0.45593999997E+02  0.45594000000E+02  0.51100000000E-03 0. -1.
         11   -1    0    0    0    0 -0.00000000000E+00 -0.00000000000E+00 -0.45593999997E+02  0.45594000000E+02  0.51100000000E-03 0.  1.
    9900012    2    1    2    0    0 -0.86612561512E+01  0.29398389517E+02  0.26718595114E+02  0.50528856020E+02  0.29999988359E+02 0.  0.
        -12    1    1    2    0    0  0.86612561512E+01 -0.29398389517E+02 -0.26718595114E+02  0.40659143980E+02  0.00000000000E+00 0.  1.
         11    1    3    3    0    0 -0.11324733393E+02  0.26186613248E+02  0.21334963032E+02  0.35625397509E+02  0.51100000000E-03 0. -1.
        -11    1    3    3    0    0  0.28495167446E+00 -0.26791675666E+01 -0.32263236612E+01  0.42033678086E+01  0.51100000000E-03 0.  1.
        -12    1    3    3    0    0  0.23785255672E+01  0.58909438356E+01  0.86099557435E+01  0.10700090703E+02  0.00000000000E+00 0.  1.
</event>
<event>
 7    1  0.9406864E-013  0.5052886E+02  0.7816164E-02  0.1300439E+00
        -11   -1    0    0    0    0  0.00000000000E+00  0.00000000000E+00  0.45593999997E+02  0.45594000000E+02  0.51100000000E-03 0.  1.
         11   -1    0    0    0    0 -0.00000000000E+00 -0.00000000000E+00 -0.45593999997E+02  0.45594000000E+02  0.51100000000E-03 0. -1.
    9900012    2    1    2    0    0 -0.23121012675E+02 -0.29431339967E+02 -0.15886499543E+02  0.50528857521E+02  0.29999992922E+02 0.  0.
        -12    1    1    2    0    0  0.23121012675E+02  0.29431339967E+02  0.15886499543E+02  0.40659142479E+02  0.00000000000E+00 0.  1.
         11    1    3    3    0    0 -0.41331516221E+01 -0.11517525691E+02 -0.17231259272E+02  0.21134158055E+02  0.51100000000E-03 0. -1.
        -11    1    3    3    0    0 -0.14468063017E+02 -0.90076094052E+01  0.63947109306E+01  0.18203137170E+02  0.51100000000E-03 0.  1.
        -12    1    3    3    0    0 -0.45197980355E+01 -0.89062048708E+01 -0.50499512023E+01  0.11191562296E+02  0.00000000000E+00 0.  1.
</event>
<event>
 7    1  0.9406864E-013  0.5052887E+02  0.7816164E-02  0.1300439E+00
        -11   -1    0    0    0    0  0.00000000000E+00  0.00000000000E+00  0.45593999997E+02  0.45594000000E+02  0.51100000000E-03 0.  1.
         11   -1    0    0    0    0 -0.00000000000E+00 -0.00000000000E+00 -0.45593999997E+02  0.45594000000E+02  0.51100000000E-03 0. -1.
    9900012    2    1    2    0    0  0.97602587961E+00 -0.26388048252E+02 -0.30917364961E+02  0.50528866054E+02  0.30000018859E+02 0.  0.
        -12    1    1    2    0    0 -0.97602587961E+00  0.26388048252E+02  0.30917364961E+02  0.40659133946E+02  0.00000000000E+00 0.  1.
         11    1    3    3    0    0 -0.33044127443E+01  0.36871018410E+01 -0.10232669456E+02  0.11367558578E+02  0.51100000000E-03 0.  1.
        -11    1    3    3    0    0  0.81268122581E+01 -0.25141303017E+02 -0.19388069942E+02  0.32772358035E+02  0.51100000000E-03 0. -1.
         12    1    3    3    0    0 -0.38463736341E+01 -0.49338470766E+01 -0.12966255632E+01  0.63889494410E+01  0.00000000000E+00 0. -1.
</event>
<event>
 7    1  0.9406864E-013  0.5052873E+02  0.7816164E-02  0.1300439E+00
        -11   -1    0    0    0    0  0.00000000000E+00  0.00000000000E+00  0.45593999997E+02  0.45594000000E+02  0.51100000000E-03 0.  1.
         11   -1    0    0    0    0 -0.00000000000E+00 -0.00000000000E+00 -0.45593999997E+02  0.45594000000E+02  0.51100000000E-03 0. -1.
    9900012    2    1    2    0    0  0.28150435603E+02 -0.17217039239E+02 -0.23755050281E+02  0.50528734406E+02  0.29999618697E+02 0.  0.
        -12    1    1    2    0    0 -0.28150435603E+02  0.17217039239E+02  0.23755050281E+02  0.40659265594E+02  0.00000000000E+00 0.  1.
         11    1    3    3    0    0  0.95401601518E+01 -0.12689259971E+01 -0.96719700082E+01  0.13644479946E+02  0.51100000000E-03 0. -1.
        -11    1    3    3    0    0 -0.53599391751E+00  0.28256948853E+00  0.51981454992E+01  0.52333404138E+01  0.51100000000E-03 0.  1.
        -12    1    3    3    0    0  0.19146269369E+02 -0.16230682730E+02 -0.19281225772E+02  0.31650914045E+02  0.00000000000E+00 0.  1.
</event>
<event>
 7    1  0.9406864E-013  0.5052886E+02  0.7816164E-02  0.1300439E+00
        -11   -1    0    0    0    0  0.00000000000E+00  0.00000000000E+00  0.45593999997E+02  0.45594000000E+02  0.51100000000E-03 0.  1.
         11   -1    0    0    0    0 -0.00000000000E+00 -0.00000000000E+00 -0.45593999997E+02  0.45594000000E+02  0.51100000000E-03 0. -1.
    9900012    2    1    2    0    0  0.33412308105E+02 -0.10326299207E+02 -0.20740085294E+02  0.50528856794E+02  0.29999990712E+02 0.  0.
        -12    1    1    2    0    0 -0.33412308105E+02  0.10326299207E+02  0.20740085294E+02  0.40659143206E+02  0.00000000000E+00 0.  1.
         11    1    3    3    0    0  0.12888309559E+02 -0.10670809028E+02 -0.18285514125E+02  0.24785776480E+02  0.51100000000E-03 0. -1.
        -11    1    3    3    0    0  0.97421765772E+01 -0.40037977640E+01  0.52774559998E+01  0.11780999240E+02  0.51100000000E-03 0.  1.
        -12    1    3    3    0    0  0.10781821968E+02  0.43483075850E+01 -0.77320271684E+01  0.13962081075E+02  0.00000000000E+00 0.  1.
</event>
<event>
 7    1  0.9406864E-013  0.5052886E+02  0.7816164E-02  0.1300439E+00
        -11   -1    0    0    0    0  0.00000000000E+00  0.00000000000E+00  0.45593999997E+02  0.45594000000E+02  0.51100000000E-03 0.  1.
         11   -1    0    0    0    0 -0.00000000000E+00 -0.00000000000E+00 -0.45593999997E+02  0.45594000000E+02  0.51100000000E-03 0. -1.
    9900012    2    1    2    0    0  0.10438990385E+02  0.39295310093E+02  0.26799282228E+00  0.50528859137E+02  0.29999997834E+02 0.  0.
        -12    1    1    2    0    0 -0.10438990385E+02 -0.39295310093E+02 -0.26799282228E+00  0.40659140863E+02  0.00000000000E+00 0.  1.
         11    1    3    3    0    0  0.34509910592E+01  0.81148453018E+01 -0.10529401915E+02  0.13734203963E+02  0.51100000000E-03 0. -1.
        -11    1    3    3    0    0  0.22798920322E+01  0.27237208777E+02  0.13004918579E+02  0.30268653045E+02  0.51100000000E-03 0.  1.
        -12    1    3    3    0    0  0.47081072934E+01  0.39432560138E+01 -0.22075238419E+01  0.65260021291E+01  0.00000000000E+00 0.  1.
</event>
<event>
 7    1  0.9406864E-013  0.5052886E+02  0.7816164E-02  0.1300439E+00
        -11   -1    0    0    0    0  0.00000000000E+00  0.00000000000E+00  0.45593999997E+02  0.45594000000E+02  0.51100000000E-03 0.  1.
         11   -1    0    0    0    0 -0.00000000000E+00 -0.00000000000E+00 -0.45593999997E+02  0.45594000000E+02  0.51100000000E-03 0. -1.
    9900012    2    1    2    0    0  0.25985241186E+01  0.38663623389E+02 -0.12310061419E+02  0.50528859412E+02  0.29999998670E+02 0.  0.
        -12    1    1    2    0    0 -0.25985241186E+01 -0.38663623389E+02  0.12310061419E+02  0.40659140588E+02  0.00000000000E+00 0.  1.
         11    1    3    3    0    0 -0.66467537401E+01  0.19541734438E+02 -0.12771838511E+02  0.24273001037E+02  0.51100000000E-03 0. -1.
        -11    1    3    3    0    0  0.26445151574E+01 -0.20033464932E+01 -0.21747563533E+01  0.39669160625E+01  0.51100000000E-03 0.  1.
         12    1    3    3    0    0  0.66007627013E+01  0.21125235444E+02  0.26365334451E+01  0.22288942313E+02  0.00000000000E+00 0. -1.
</event>
<event>
 7    1  0.9406864E-013  0.5052886E+02  0.7816164E-02  0.1300439E+00
        -11   -1    0    0    0    0  0.00000000000E+00  0.00000000000E+00  0.45593999997E+02  0.45594000000E+02  0.51100000000E-03 0. -1.
         11   -1    0    0    0    0 -0.00000000000E+00 -0.00000000000E+00 -0.45593999997E+02  0.45594000000E+02  0.51100000000E-03 0.  1.
    9900012    2    1    2    0    0 -0.25259235850E+02 -0.14469239408E+02  0.28386230423E+02  0.50528856349E+02  0.29999989359E+02 0.  0.
        -12    1    1    2    0    0  0.25259235850E+02  0.14469239408E+02 -0.28386230423E+02  0.40659143651E+02  0.00000000000E+00 0.  1.
         11    1    3    3    0    0 -0.18640858803E+02 -0.12696686934E+02  0.27986432415E+02  0.35943398220E+02  0.51100000000E-03 0. -1.
        -11    1    3    3    0    0 -0.58427823039E+01 -0.89340797825E+00 -0.57968554587E+01  0.82788777220E+01  0.51100000000E-03 0.  1.
         12    1    3    3    0    0 -0.77559474378E+00 -0.87914449579E+00  0.61966534668E+01  0.63065804077E+01  0.00000000000E+00 0. -1.
</event>
<event>
 7    1  0.9406864E-013  0.5052886E+02  0.7816164E-02  0.1300439E+00
        -11   -1    0    0    0    0  0.00000000000E+00  0.00000000000E+00  0.45593999997E+02  0.45594000000E+02  0.51100000000E-03 0.  1.
         11   -1    0    0    0    0 -0.00000000000E+00 -0.00000000000E+00 -0.45593999997E+02  0.45594000000E+02  0.51100000000E-03 0. -1.
    9900012    2    1    2    0    0 -0.10875813895E+02 -0.12615619274E+02 -0.37090815132E+02  0.50528859026E+02  0.29999997496E+02 0.  0.
        -12    1    1    2    0    0  0.10875813895E+02  0.12615619274E+02  0.37090815132E+02  0.40659140974E+02  0.00000000000E+00 0.  1.
         11    1    3    3    0    0  0.67720228864E+01 -0.32097345903E+01 -0.84815667720E+01  0.11318112267E+02  0.51100000000E-03 0. -1.
        -11    1    3    3    0    0 -0.92274762770E+01 -0.92981590162E+01 -0.27823601404E+02  0.30753127888E+02  0.51100000000E-03 0.  1.
        -12    1    3    3    0    0 -0.84203605044E+01 -0.10772566703E+00 -0.78564695662E+00  0.84576188720E+01  0.00000000000E+00 0.  1.
</event>
<event>
 7    1  0.9406864E-013  0.5052886E+02  0.7816164E-02  0.1300439E+00
        -11   -1    0    0    0    0  0.00000000000E+00  0.00000000000E+00  0.45593999997E+02  0.45594000000E+02  0.51100000000E-03 0.  1.
         11   -1    0    0    0    0 -0.00000000000E+00 -0.00000000000E+00 -0.45593999997E+02  0.45594000000E+02  0.51100000000E-03 0. -1.
    9900012    2    1    2    0    0  0.16396096079E+02 -0.36900703578E+02 -0.47614663956E+01  0.50528862608E+02  0.30000008384E+02 0.  0.
        -12    1    1    2    0    0 -0.16396096079E+02  0.36900703578E+02  0.47614663956E+01  0.40659137392E+02  0.00000000000E+00 0.  1.
         11    1    3    3    0    0 -0.37861025736E+01 -0.90830772289E+01 -0.61788129630E+01  0.11619578070E+02  0.51100000000E-03 0. -1.
        -11    1    3    3    0    0  0.16246907999E+02 -0.98162630029E+01  0.60251452940E+01  0.19915406472E+02  0.51100000000E-03 0.  1.
         12    1    3    3    0    0  0.39352906527E+01 -0.18001363347E+02 -0.46077987267E+01  0.18993878065E+02  0.00000000000E+00 0. -1.
</event>
<event>
 7    1  0.9406864E-013  0.5052886E+02  0.7816164E-02  0.1300439E+00
        -11   -1    0    0    0    0  0.00000000000E+00  0.00000000000E+00  0.45593999997E+02  0.45594000000E+02  0.51100000000E-03 0. -1.
         11   -1    0    0    0    0 -0.00000000000E+00 -0.00000000000E+00 -0.45593999997E+02  0.45594000000E+02  0.51100000000E-03 0.  1.
    9900012    2    1    2    0    0  0.39841325107E+02 -0.33033670169E+01 -0.74109320943E+01  0.50528864072E+02  0.30000012833E+02 0.  0.
        -12    1    1    2    0    0 -0.39841325107E+02  0.33033670169E+01  0.74109320943E+01  0.40659135928E+02  0.00000000000E+00 0.  1.
         11    1    3    3    0    0  0.12044469453E+02  0.24830809324E+01  0.18016754086E+01  0.12429037367E+02  0.51100000000E-03 0. -1.
        -11    1    3    3    0    0 -0.35905853245E+01 -0.15175702506E+01  0.21444080066E+01  0.44490233083E+01  0.51100000000E-03 0.  1.
        -12    1    3    3    0    0  0.31387440978E+02 -0.42688776988E+01 -0.11357015510E+02  0.33650803397E+02  0.00000000000E+00 0.  1.
</event>
<event>
 7    1  0.9406864E-013  0.5052886E+02  0.7816164E-02  0.1300439E+00
        -11   -1    0    0    0    0  0.00000000000E+00  0.00000000000E+00  0.45593999997E+02  0.45594000000E+02  0.51100000000E-03 0. -1.
         11   -1    0    0    0    0 -0.00000000000E+00 -0.00000000000E+00 -0.45593999997E+02  0.45594000000E+02  0.51100000000E-03 0.  1.
    9900012    2    1    2    0    0  0.21184232507E+02  0.33916135011E+02  0.73545906175E+01  0.50528856820E+02  0.29999990789E+02 0.  0.
        -12    1    1    2    0    0 -0.21184232507E+02 -0.33916135011E+02 -0.73545906175E+01  0.40659143180E+02  0.00000000000E+00 0.  1.
         11    1    3    3    0    0 -0.51345354196E+01  0.84394595908E+01 -0.47046676267E+01  0.10941747114E+02  0.51100000000E-03 0. -1.
        -11    1    3    3    0    0  0.49789726096E+01  0.19906524944E+01 -0.65462660004E+00  0.54019812890E+01  0.51100000000E-03 0.  1.
         12    1    3    3    0    0  0.21339795317E+02  0.23486022926E+02  0.12713884844E+02  0.34185128417E+02  0.00000000000E+00 0. -1.
</event>
<event>
 7    1  0.9406864E-013  0.5052887E+02  0.7816164E-02  0.1300439E+00
        -11   -1    0    0    0    0  0.00000000000E+00  0.00000000000E+00  0.45593999997E+02  0.45594000000E+02  0.51100000000E-03 0.  1.
         11   -1    0    0    0    0 -0.00000000000E+00 -0.00000000000E+00 -0.45593999997E+02  0.45594000000E+02  0.51100000000E-03 0. -1.
    9900012    2    1    2    0    0 -0.85384522704E+01  0.60627773718E+01 -0.39287435388E+02  0.50528867987E+02  0.30000024734E+02 0.  0.
        -12    1    1    2    0    0  0.85384522704E+01 -0.60627773718E+01  0.39287435388E+02  0.40659132013E+02  0.00000000000E+00 0.  1.
         11    1    3    3    0    0  0.73921333024E+01  0.24287773714E+00 -0.89501842238E+01  0.11610702918E+02  0.51100000000E-03 0. -1.
        -11    1    3    3    0    0 -0.16523173519E+02  0.10270617692E+02 -0.27196326804E+02  0.33438616042E+02  0.51100000000E-03 0.  1.
        -12    1    3    3    0    0  0.59258794656E+00 -0.44507180569E+01 -0.31409243603E+01  0.54795490265E+01  0.00000000000E+00 0.  1.
</event>
<event>
 7    1  0.9406864E-013  0.5052886E+02  0.7816164E-02  0.1300439E+00
        -11   -1    0    0    0    0  0.00000000000E+00  0.00000000000E+00  0.45593999997E+02  0.45594000000E+02  0.51100000000E-03 0. -1.
         11   -1    0    0    0    0 -0.00000000000E+00 -0.00000000000E+00 -0.45593999997E+02  0.45594000000E+02  0.51100000000E-03 0.  1.
    9900012    2    1    2    0    0 -0.22810240929E+01 -0.21458427312E+02  0.34460102887E+02  0.50528857552E+02  0.29999993015E+02 0.  0.
        -12    1    1    2    0    0  0.22810240929E+01  0.21458427312E+02 -0.34460102887E+02  0.40659142448E+02  0.00000000000E+00 0.  1.
         11    1    3    3    0    0  0.36263209086E+01 -0.15656232297E+02  0.32500204850E+02  0.36256463267E+02  0.51100000000E-03 0. -1.
        -11    1    3    3    0    0 -0.61675075951E+01 -0.89636584730E+01  0.21642824395E+01  0.11093666747E+02  0.51100000000E-03 0.  1.
         12    1    3    3    0    0  0.26016259365E+00  0.31614634586E+01 -0.20438440214E+00  0.31787275377E+01  0.00000000000E+00 0. -1.
</event>
<event>
 7    1  0.9406864E-013  0.5052887E+02  0.7816164E-02  0.1300439E+00
        -11   -1    0    0    0    0  0.00000000000E+00  0.00000000000E+00  0.45593999997E+02  0.45594000000E+02  0.51100000000E-03 0.  1.
         11   -1    0    0    0    0 -0.00000000000E+00 -0.00000000000E+00 -0.45593999997E+02  0.45594000000E+02  0.51100000000E-03 0. -1.
    9900012    2    1    2    0    0 -0.29392354287E+01  0.28864950170E+02 -0.28484041091E+02  0.50528867569E+02  0.30000023462E+02 0.  0.
        -12    1    1    2    0    0  0.29392354287E+01 -0.28864950170E+02  0.28484041091E+02  0.40659132431E+02  0.00000000000E+00 0.  1.
         11    1    3    3    0    0  0.38976938924E+01  0.24724613406E+02 -0.19462157360E+02  0.31706057704E+02  0.51100000000E-03 0. -1.
        -11    1    3    3    0    0 -0.51876394034E+00 -0.52051055628E+01 -0.31340329129E+01  0.60979014838E+01  0.51100000000E-03 0.  1.
        -12    1    3    3    0    0 -0.63181653808E+01  0.93454423260E+01 -0.58878508177E+01  0.12724908381E+02  0.00000000000E+00 0.  1.
</event>
<event>
 7    1  0.9406864E-013  0.5052886E+02  0.7816164E-02  0.1300439E+00
        -11   -1    0    0    0    0  0.00000000000E+00  0.00000000000E+00  0.45593999997E+02  0.45594000000E+02  0.51100000000E-03 0.  1.
         11   -1    0    0    0    0 -0.00000000000E+00 -0.00000000000E+00 -0.45593999997E+02  0.45594000000E+02  0.51100000000E-03 0. -1.
    9900012    2    1    2    0    0  0.26318257489E+02  0.22491650344E+02 -0.21322295720E+02  0.50528864406E+02  0.30000013848E+02 0.  0.
        -12    1    1    2    0    0 -0.26318257489E+02 -0.22491650344E+02  0.21322295720E+02  0.40659135594E+02  0.00000000000E+00 0.  1.
         11    1    3    3    0    0  0.95872145571E+01  0.22666532933E+00 -0.88046632948E+01  0.13018761697E+02  0.51100000000E-03 0. -1.
        -11    1    3    3    0    0 -0.47972228027E+01  0.83820171440E+01 -0.46049925014E+01  0.10699416536E+02  0.51100000000E-03 0.  1.
        -12    1    3    3    0    0  0.21528265735E+02  0.13882967871E+02 -0.79126399242E+01  0.26810686172E+02  0.00000000000E+00 0.  1.
</event>
<event>
 7    1  0.9406864E-013  0.5052886E+02  0.7816164E-02  0.1300439E+00
        -11   -1    0    0    0    0  0.00000000000E+00  0.00000000000E+00  0.45593999997E+02  0.45594000000E+02  0.51100000000E-03 0.  1.
         11   -1    0    0    0    0 -0.00000000000E+00 -0.00000000000E+00 -0.45593999997E+02  0.45594000000E+02  0.51100000000E-03 0. -1.
    9900012    2    1    2    0    0  0.17140129806E+02 -0.26965870395E+02 -0.25144052645E+02  0.50528860814E+02  0.30000002931E+02 0.  0.
        -12    1    1    2    0    0 -0.17140129806E+02  0.26965870395E+02  0.25144052645E+02  0.40659139186E+02  0.00000000000E+00 0.  1.
         11    1    3    3    0    0  0.14389041079E+02 -0.27442832332E+02 -0.16580347829E+02  0.35143441550E+02  0.51100000000E-03 0.  1.
        -11    1    3    3    0    0  0.68449558953E+01  0.21424915260E+00 -0.89448998248E+01  0.11265458581E+02  0.51100000000E-03 0. -1.
         12    1    3    3    0    0 -0.40938671681E+01  0.26271278433E+00  0.38119500904E+00  0.41199606833E+01  0.00000000000E+00 0. -1.
</event>
<event>
 7    1  0.9406864E-013  0.5052882E+02  0.7816164E-02  0.1300439E+00
        -11   -1    0    0    0    0  0.00000000000E+00  0.00000000000E+00  0.45593999997E+02  0.45594000000E+02  0.51100000000E-03 0. -1.
         11   -1    0    0    0    0 -0.00000000000E+00 -0.00000000000E+00 -0.45593999997E+02  0.45594000000E+02  0.51100000000E-03 0.  1.
    9900012    2    1    2    0    0 -0.33367224171E+02  0.18563433766E+02  0.13971266794E+02  0.50528818775E+02  0.29999875149E+02 0.  0.
        -12    1    1    2    0    0  0.33367224171E+02 -0.18563433766E+02 -0.13971266794E+02  0.40659181225E+02  0.00000000000E+00 0.  1.
         11    1    3    3    0    0 -0.20174428122E+02 -0.22249077123E+01 -0.96891446006E+00  0.20319856296E+02  0.51100000000E-03 0. -1.
        -11    1    3    3    0    0 -0.12324428776E+02  0.16217644347E+02  0.80653481009E+01  0.21907838166E+02  0.51100000000E-03 0.  1.
        -12    1    3    3    0    0 -0.86836727191E+00  0.45706971309E+01  0.68748331533E+01  0.83011243134E+01  0.00000000000E+00 0.  1.
</event>
<event>
 7    1  0.9406864E-013  0.5052890E+02  0.7816164E-02  0.1300439E+00
        -11   -1    0    0    0    0  0.00000000000E+00  0.00000000000E+00  0.45593999997E+02  0.45594000000E+02  0.51100000000E-03 0. -1.
         11   -1    0    0    0    0 -0.00000000000E+00 -0.00000000000E+00 -0.45593999997E+02  0.45594000000E+02  0.51100000000E-03 0.  1.
    9900012    2    1    2    0    0 -0.17640320637E+02 -0.97415418038E+00  0.36620107250E+02  0.50528903311E+02  0.30000132103E+02 0.  0.
        -12    1    1    2    0    0  0.17640320637E+02  0.97415418038E+00 -0.36620107250E+02  0.40659096689E+02  0.00000000000E+00 0.  1.
         11    1    3    3    0    0 -0.18970516946E+02 -0.95842393881E+01  0.15186330642E+02  0.26122074889E+02  0.51100000000E-03 0. -1.
        -11    1    3    3    0    0  0.39450237635E+01  0.77198661828E+01  0.13892803161E+02  0.16375882459E+02  0.51100000000E-03 0.  1.
         12    1    3    3    0    0 -0.26148274549E+01  0.89021902492E+00  0.75409734476E+01  0.80309459635E+01  0.00000000000E+00 0. -1.
</event>
<event>
 7    1  0.9406864E-013  0.5052884E+02  0.7816164E-02  0.1300439E+00
        -11   -1    0    0    0    0  0.00000000000E+00  0.00000000000E+00  0.45593999997E+02  0.45594000000E+02  0.51100000000E-03 0.  1.
         11   -1    0    0    0    0 -0.00000000000E+00 -0.00000000000E+00 -0.45593999997E+02  0.45594000000E+02  0.51100000000E-03 0. -1.
    9900012    2    1    2    0    0  0.18690318791E+02  0.51464208283E+01 -0.35740089121E+02  0.50528835790E+02  0.29999926868E+02 0.  0.
        -12    1    1    2    0    0 -0.18690318791E+02 -0.51464208283E+01  0.35740089121E+02  0.40659164210E+02  0.00000000000E+00 0.  1.
         11    1    3    3    0    0  0.10379532809E+02 -0.87975548352E+01 -0.11502011178E+02  0.17816507341E+02  0.51100000000E-03 0. -1.
        -11    1    3    3    0    0  0.11109402373E+02  0.12935642208E+02 -0.14035553359E+02  0.22084981747E+02  0.51100000000E-03 0.  1.
         12    1    3    3    0    0 -0.27986163904E+01  0.10083334555E+01 -0.10202524583E+02  0.10627346702E+02  0.00000000000E+00 0. -1.
</event>
<event>
 7    1  0.9406864E-013  0.5052882E+02  0.7816164E-02  0.1300439E+00
        -11   -1    0    0    0    0  0.00000000000E+00  0.00000000000E+00  0.45593999997E+02  0.45594000000E+02  0.51100000000E-03 0. -1.
         11   -1    0    0    0    0 -0.00000000000E+00 -0.00000000000E+00 -0.45593999997E+02  0.45594000000E+02  0.51100000000E-03 0.  1.
    9900012    2    1    2    0    0  0.28342935253E+02  0.25959772878E+02 -0.13264133596E+02  0.50528818666E+02  0.29999874818E+02 0.  0.
        -12    1    1    2    0    0 -0.28342935253E+02 -0.25959772878E+02  0.13264133596E+02  0.40659181334E+02  0.00000000000E+00 0.  1.
         11    1    3    3    0    0  0.86265790879E+01 -0.15344784496E+01 -0.10581738803E+02  0.13738474705E+02  0.51100000000E-03 0. -1.
        -11    1    3    3    0    0  0.72502039475E+01  0.17029216384E+02  0.44247070228E+01  0.19029915933E+02  0.51100000000E-03 0.  1.
         12    1    3    3    0    0  0.12466152218E+02  0.10465034944E+02 -0.71071018161E+01  0.17760428028E+02  0.00000000000E+00 0. -1.
</event>
<event>
 7    1  0.9406864E-013  0.5052884E+02  0.7816164E-02  0.1300439E+00
        -11   -1    0    0    0    0  0.00000000000E+00  0.00000000000E+00  0.45593999997E+02  0.45594000000E+02  0.51100000000E-03 0. -1.
         11   -1    0    0    0    0 -0.00000000000E+00 -0.00000000000E+00 -0.45593999997E+02  0.45594000000E+02  0.51100000000E-03 0.  1.
    9900012    2    1    2    0    0  0.29868279252E+02 -0.26855259325E+02 -0.63125472858E+01  0.50528839751E+02  0.29999938906E+02 0.  0.
        -12    1    1    2    0    0 -0.29868279252E+02  0.26855259325E+02  0.63125472858E+01  0.40659160249E+02  0.00000000000E+00 0.  1.
         11    1    3    3    0    0  0.20905240557E+02 -0.13816265618E+02  0.81059876029E+01  0.26336767335E+02  0.51100000000E-03 0. -1.
        -11    1    3    3    0    0  0.46118896737E+01  0.37352641196E+00 -0.66254645345E+01  0.80812021941E+01  0.51100000000E-03 0.  1.
        -12    1    3    3    0    0  0.43511490217E+01 -0.13412520119E+02 -0.77930703542E+01  0.16110870222E+02  0.00000000000E+00 0.  1.
</event>
<event>
 7    1  0.9406864E-013  0.5052885E+02  0.7816164E-02  0.1300439E+00
        -11   -1    0    0    0    0  0.00000000000E+00  0.00000000000E+00  0.45593999997E+02  0.45594000000E+02  0.51100000000E-03 0.  1.
         11   -1    0    0    0    0 -0.00000000000E+00 -0.00000000000E+00 -0.45593999997E+02  0.45594000000E+02  0.51100000000E-03 0. -1.
    9900012    2    1    2    0    0 -0.76967364682E+01  0.65061854397E+01 -0.39390302984E+02  0.50528853791E+02  0.29999981584E+02 0.  0.
        -12    1    1    2    0    0  0.76967364682E+01 -0.65061854397E+01  0.39390302984E+02  0.40659146209E+02  0.00000000000E+00 0.  1.
         11    1    3    3    0    0 -0.96484346727E+01  0.76014099992E+01 -0.14002858907E+02  0.18626695451E+02  0.51100000000E-03 0. -1.
        -11    1    3    3    0    0  0.43600798793E+01 -0.76247116972E+01 -0.22874555401E+02  0.24502893912E+02  0.51100000000E-03 0.  1.
        -12    1    3    3    0    0 -0.24083816748E+01  0.65294871378E+01 -0.25128886767E+01  0.73992644280E+01  0.00000000000E+00 0.  1.
</event>
<event>
 7    1  0.9406864E-013  0.5052889E+02  0.7816164E-02  0.1300439E+00
        -11   -1    0    0    0    0  0.00000000000E+00  0.00000000000E+00  0.45593999997E+02  0.45594000000E+02  0.51100000000E-03 0.  1.
         11   -1    0    0    0    0 -0.00000000000E+00 -0.00000000000E+00 -0.45593999997E+02  0.45594000000E+02  0.51100000000E-03 0. -1.
    9900012    2    1    2    0    0  0.28225645832E+02 -0.12710687147E+01 -0.29237991951E+02  0.50528894358E+02  0.30000104889E+02 0.  0.
        -12    1    1    2    0    0 -0.28225645832E+02  0.12710687147E+01  0.29237991951E+02  0.40659105642E+02  0.00000000000E+00 0.  1.
         11    1    3    3    0    0  0.29098512112E+02 -0.65941656310E+01 -0.24198355077E+02  0.38415710539E+02  0.51100000000E-03 0. -1.
        -11    1    3    3    0    0 -0.13158845634E+01  0.80972314105E+01 -0.38615618725E+01  0.90668830949E+01  0.51100000000E-03 0.  1.
         12    1    3    3    0    0  0.44301828410E+00 -0.27741344943E+01 -0.11780750008E+01  0.30463007238E+01  0.00000000000E+00 0. -1.
</event>
<event>
 7    1  0.9406864E-013  0.5052891E+02  0.7816164E-02  0.1300439E+00
        -11   -1    0    0    0    0  0.00000000000E+00  0.00000000000E+00  0.45593999997E+02  0.45594000000E+02  0.51100000000E-03 0.  1.
         11   -1    0    0    0    0 -0.00000000000E+00 -0.00000000000E+00 -0.45593999997E+02  0.45594000000E+02  0.51100000000E-03 0. -1.
    9900012    2    1    2    0    0 -0.25496009822E+02  0.28047542375E+01 -0.31547563021E+02  0.50528906358E+02  0.30000141366E+02 0.  0.
        -12    1    1    2    0    0  0.25496009822E+02 -0.28047542375E+01  0.31547563021E+02  0.40659093642E+02  0.00000000000E+00 0.  1.
         11    1    3    3    0    0 -0.17917919831E+02  0.73576870633E+01 -0.21901952529E+02  0.29238381193E+02  0.51100000000E-03 0. -1.
        -11    1    3    3    0    0 -0.10606909702E+02 -0.73033343098E+01 -0.25921198015E+01  0.13136373578E+02  0.51100000000E-03 0.  1.
        -12    1    3    3    0    0  0.30288197102E+01  0.27504014841E+01 -0.70534906912E+01  0.81541515862E+01  0.00000000000E+00 0.  1.
</event>
<event>
 7    1  0.9406864E-013  0.5052883E+02  0.7816164E-02  0.1300439E+00
        -11   -1    0    0    0    0  0.00000000000E+00  0.00000000000E+00  0.45593999997E+02  0.45594000000E+02  0.51100000000E-03 0.  1.
         11   -1    0    0    0    0 -0.00000000000E+00 -0.00000000000E+00 -0.45593999997E+02  0.45594000000E+02  0.51100000000E-03 0. -1.
    9900012    2    1    2    0    0 -0.19659840459E+02  0.30782860338E+02 -0.17862643852E+02  0.50528832979E+02  0.29999918323E+02 0.  0.
        -12    1    1    2    0    0  0.19659840459E+02 -0.30782860338E+02  0.17862643852E+02  0.40659167021E+02  0.00000000000E+00 0.  1.
         11    1    3    3    0    0 -0.14827925456E+02  0.30809471202E+02 -0.19963769332E+02  0.39593471372E+02  0.51100000000E-03 0. -1.
        -11    1    3    3    0    0  0.20634288672E+01 -0.23011700073E+01  0.19855570463E+01  0.36736302396E+01  0.51100000000E-03 0.  1.
        -12    1    3    3    0    0 -0.68953438701E+01  0.22745591434E+01  0.11556843446E+00  0.72617313670E+01  0.00000000000E+00 0.  1.
</event>
<event>
 7    1  0.9406864E-013  0.5052886E+02  0.7816164E-02  0.1300439E+00
        -11   -1    0    0    0    0  0.00000000000E+00  0.00000000000E+00  0.45593999997E+02  0.45594000000E+02  0.51100000000E-03 0.  1.
         11   -1    0    0    0    0 -0.00000000000E+00 -0.00000000000E+00 -0.45593999997E+02  0.45594000000E+02  0.51100000000E-03 0. -1.
    9900012    2    1    2    0    0 -0.96312264335E+01  0.25666550377E+02 -0.30027212938E+02  0.50528857760E+02  0.29999993647E+02 0.  0.
        -12    1    1    2    0    0  0.96312264335E+01 -0.25666550377E+02  0.30027212938E+02  0.40659142240E+02  0.00000000000E+00 0.  1.
         11    1    3    3    0    0 -0.76196368839E+01  0.20985533628E+02 -0.14759907164E+02  0.26763900083E+02  0.51100000000E-03 0. -1.
        -11    1    3    3    0    0  0.67041150049E+01 -0.22501930650E+01 -0.56668491050E+01  0.90621027289E+01  0.51100000000E-03 0.  1.
        -12    1    3    3    0    0 -0.87157045545E+01  0.69312098138E+01 -0.96004566692E+01  0.14702854948E+02  0.00000000000E+00 0.  1.
</event>
<event>
 7    1  0.9406864E-013  0.5052885E+02  0.7816164E-02  0.1300439E+00
        -11   -1    0    0    0    0  0.00000000000E+00  0.00000000000E+00  0.45593999997E+02  0.45594000000E+02  0.51100000000E-03 0. -1.
         11   -1    0    0    0    0 -0.00000000000E+00 -0.00000000000E+00 -0.45593999997E+02  0.45594000000E+02  0.51100000000E-03 0.  1.
    9900012    2    1    2    0    0  0.37144893340E+02  0.12343647057E+02  0.11002614848E+02  0.50528852722E+02  0.29999978332E+02 0.  0.
        -12    1    1    2    0    0 -0.37144893340E+02 -0.12343647057E+02 -0.11002614848E+02  0.40659147278E+02  0.00000000000E+00 0.  1.
         11    1    3    3    0    0  0.33410452434E+02  0.66339999388E+01  0.17865906449E+02  0.38463734875E+02  0.51100000000E-03 0. -1.
        -11    1    3    3    0    0  0.55171217442E+01  0.46117559538E+01 -0.69075450275E+01  0.99710131825E+01  0.51100000000E-03 0.  1.
         12    1    3    3    0    0 -0.17826808380E+01  0.10978911642E+01  0.44253427384E-01  0.20941046642E+01  0.00000000000E+00 0. -1.
</event>
<event>
 7    1  0.9406864E-013  0.5052886E+02  0.7816164E-02  0.1300439E+00
        -11   -1    0    0    0    0  0.00000000000E+00  0.00000000000E+00  0.45593999997E+02  0.45594000000E+02  0.51100000000E-03 0.  1.
         11   -1    0    0    0    0 -0.00000000000E+00 -0.00000000000E+00 -0.45593999997E+02  0.45594000000E+02  0.51100000000E-03 0. -1.
    9900012    2    1    2    0    0 -0.80496235190E+01 -0.88172171801E+00 -0.39844600287E+02  0.50528855346E+02  0.29999986310E+02 0.  0.
        -12    1    1    2    0    0  0.80496235190E+01  0.88172171801E+00  0.39844600287E+02  0.40659144654E+02  0.00000000000E+00 0.  1.
         11    1    3    3    0    0 -0.14365341441E+02 -0.69514161628E+01 -0.34408475469E+02  0.37929255275E+02  0.51100000000E-03 0. -1.
        -11    1    3    3    0    0 -0.11329984480E+01  0.28042877015E+01 -0.44470869501E+00  0.30570379586E+01  0.51100000000E-03 0.  1.
         12    1    3    3    0    0  0.74487163699E+01  0.32654067433E+01 -0.49914161227E+01  0.95425621124E+01  0.00000000000E+00 0. -1.
</event>
<event>
 7    1  0.9406864E-013  0.5052886E+02  0.7816164E-02  0.1300439E+00
        -11   -1    0    0    0    0  0.00000000000E+00  0.00000000000E+00  0.45593999997E+02  0.45594000000E+02  0.51100000000E-03 0.  1.
         11   -1    0    0    0    0 -0.00000000000E+00 -0.00000000000E+00 -0.45593999997E+02  0.45594000000E+02  0.51100000000E-03 0. -1.
    9900012    2    1    2    0    0 -0.26433484059E+02  0.58406482467E+01 -0.30336838131E+02  0.50528855896E+02  0.29999987982E+02 0.  0.
        -12    1    1    2    0    0  0.26433484059E+02 -0.58406482467E+01  0.30336838131E+02  0.40659144104E+02  0.00000000000E+00 0.  1.
         11    1    3    3    0    0 -0.32447318418E+01 -0.69384114935E+01 -0.11672882972E+02  0.13961591454E+02  0.51100000000E-03 0. -1.
        -11    1    3    3    0    0 -0.17892788241E+02  0.15446448416E+01 -0.62734991041E+01  0.19023527275E+02  0.51100000000E-03 0.  1.
        -12    1    3    3    0    0 -0.52959639766E+01  0.11234414899E+02 -0.12390456055E+02  0.17543737168E+02  0.00000000000E+00 0.  1.
</event>
<event>
 7    1  0.9406864E-013  0.5052885E+02  0.7816164E-02  0.1300439E+00
        -11   -1    0    0    0    0  0.00000000000E+00  0.00000000000E+00  0.45593999997E+02  0.45594000000E+02  0.51100000000E-03 0.  1.
         11   -1    0    0    0    0 -0.00000000000E+00 -0.00000000000E+00 -0.45593999997E+02  0.45594000000E+02  0.51100000000E-03 0. -1.
    9900012    2    1    2    0    0 -0.34306265720E+02  0.21021447728E+02 -0.58604773483E+01  0.50528851866E+02  0.29999975731E+02 0.  0.
        -12    1    1    2    0    0  0.34306265720E+02 -0.21021447728E+02  0.58604773483E+01  0.40659148134E+02  0.00000000000E+00 0.  1.
         11    1    3    3    0    0 -0.77921868065E+00  0.50464110721E+01 -0.75547615983E+01  0.91185453626E+01  0.51100000000E-03 0. -1.
        -11    1    3    3    0    0 -0.21931528314E+02  0.81101307209E+01  0.96522687372E+01  0.25296886103E+02  0.51100000000E-03 0.  1.
        -12    1    3    3    0    0 -0.11595518726E+02  0.78649059350E+01 -0.79579844872E+01  0.16113420400E+02  0.00000000000E+00 0.  1.
</event>
<event>
 7    1  0.9406864E-013  0.5052886E+02  0.7816164E-02  0.1300439E+00
        -11   -1    0    0    0    0  0.00000000000E+00  0.00000000000E+00  0.45593999997E+02  0.45594000000E+02  0.51100000000E-03 0. -1.
         11   -1    0    0    0    0 -0.00000000000E+00 -0.00000000000E+00 -0.45593999997E+02  0.45594000000E+02  0.51100000000E-03 0.  1.
    9900012    2    1    2    0    0  0.14801658887E+02  0.36198489230E+02  0.11124107432E+02  0.50528862103E+02  0.30000006848E+02 0.  0.
        -12    1    1    2    0    0 -0.14801658887E+02 -0.36198489230E+02 -0.11124107432E+02  0.40659137897E+02  0.00000000000E+00 0.  1.
         11    1    3    3    0    0  0.63425182878E+01  0.28000018126E+01  0.76646407472E+01  0.10335098762E+02  0.51100000000E-03 0. -1.
        -11    1    3    3    0    0  0.65415264302E+01  0.35510675497E+02  0.57141849238E+01  0.36557510198E+02  0.51100000000E-03 0.  1.
        -12    1    3    3    0    0  0.19176141691E+01 -0.21121880788E+01 -0.22547182388E+01  0.36362531428E+01  0.00000000000E+00 0.  1.
</event>
<event>
 7    1  0.9406864E-013  0.5052886E+02  0.7816164E-02  0.1300439E+00
        -11   -1    0    0    0    0  0.00000000000E+00  0.00000000000E+00  0.45593999997E+02  0.45594000000E+02  0.51100000000E-03 0. -1.
         11   -1    0    0    0    0 -0.00000000000E+00 -0.00000000000E+00 -0.45593999997E+02  0.45594000000E+02  0.51100000000E-03 0.  1.
    9900012    2    1    2    0    0 -0.27285772795E+02 -0.18780087768E+02 -0.23578810859E+02  0.50528863079E+02  0.30000009815E+02 0.  0.
        -12    1    1    2    0    0  0.27285772795E+02  0.18780087768E+02  0.23578810859E+02  0.40659136921E+02  0.00000000000E+00 0.  1.
         11    1    3    3    0    0 -0.96412025681E+01 -0.46175849817E+00 -0.17689191890E+00  0.96538748118E+01  0.51100000000E-03 0. -1.
        -11    1    3    3    0    0 -0.38053646386E+01 -0.10436711844E+02 -0.22296316596E+02  0.24910469448E+02  0.51100000000E-03 0.  1.
        -12    1    3    3    0    0 -0.13839205589E+02 -0.78816174260E+01 -0.11056023445E+01  0.15964518819E+02  0.00000000000E+00 0.  1.
</event>
<event>
 7    1  0.9406864E-013  0.5052886E+02  0.7816164E-02  0.1300439E+00
        -11   -1    0    0    0    0  0.00000000000E+00  0.00000000000E+00  0.45593999997E+02  0.45594000000E+02  0.51100000000E-03 0. -1.
         11   -1    0    0    0    0 -0.00000000000E+00 -0.00000000000E+00 -0.45593999997E+02  0.45594000000E+02  0.51100000000E-03 0.  1.
    9900012    2    1    2    0    0  0.15100699344E+02 -0.12184068154E+02  0.35730699402E+02  0.50528861824E+02  0.30000006000E+02 0.  0.
        -12    1    1    2    0    0 -0.15100699344E+02  0.12184068154E+02 -0.35730699402E+02  0.40659138176E+02  0.00000000000E+00 0.  1.
         11    1    3    3    0    0  0.38641619266E+01 -0.29640307571E+01  0.22921300432E+02  0.23432952001E+02  0.51100000000E-03 0. -1.
        -11    1    3    3    0    0 -0.22075031017E+01 -0.28049062743E+01 -0.35059500398E+01  0.50032244697E+01  0.51100000000E-03 0.  1.
        -12    1    3    3    0    0  0.13444040519E+02 -0.64151311223E+01  0.16315349010E+02  0.22092685353E+02  0.00000000000E+00 0.  1.
</event>
<event>
 7    1  0.9406864E-013  0.5052886E+02  0.7816164E-02  0.1300439E+00
        -11   -1    0    0    0    0  0.00000000000E+00  0.00000000000E+00  0.45593999997E+02  0.45594000000E+02  0.51100000000E-03 0.  1.
         11   -1    0    0    0    0 -0.00000000000E+00 -0.00000000000E+00 -0.45593999997E+02  0.45594000000E+02  0.51100000000E-03 0. -1.
    9900012    2    1    2    0    0 -0.71394902702E+01 -0.33165430217E+02 -0.22410888193E+02  0.50528855981E+02  0.29999988239E+02 0.  0.
        -12    1    1    2    0    0  0.71394902702E+01  0.33165430217E+02  0.22410888193E+02  0.40659144019E+02  0.00000000000E+00 0.  1.
         11    1    3    3    0    0 -0.15464462066E+02 -0.19970814329E+02 -0.30443015042E+01  0.25441123872E+02  0.51100000000E-03 0. -1.
        -11    1    3    3    0    0  0.68849665628E+01 -0.95234265750E+01 -0.12409827285E+02  0.17090998561E+02  0.51100000000E-03 0.  1.
         12    1    3    3    0    0  0.14400052332E+01 -0.36711893131E+01 -0.69567594030E+01  0.79967335479E+01  0.00000000000E+00 0. -1.
</event>
<event>
 7    1  0.9406864E-013  0.5052886E+02  0.7816164E-02  0.1300439E+00
        -11   -1    0    0    0    0  0.00000000000E+00  0.00000000000E+00  0.45593999997E+02  0.45594000000E+02  0.51100000000E-03 0.  1.
         11   -1    0    0    0    0 -0.00000000000E+00 -0.00000000000E+00 -0.45593999997E+02  0.45594000000E+02  0.51100000000E-03 0. -1.
    9900012    2    1    2    0    0 -0.26099462251E+02 -0.27649636441E+02 -0.14404221980E+02  0.50528856674E+02  0.29999990347E+02 0.  0.
        -12    1    1    2    0    0  0.26099462251E+02  0.27649636441E+02  0.14404221980E+02  0.40659143326E+02  0.00000000000E+00 0.  1.
         11    1    3    3    0    0 -0.23902553404E+02 -0.14489524943E+02 -0.13235564032E+02  0.30926664026E+02  0.51100000000E-03 0. -1.
        -11    1    3    3    0    0  0.25060593288E+01 -0.19290562065E+01  0.50281475682E+01  0.59400218380E+01  0.51100000000E-03 0.  1.
        -12    1    3    3    0    0 -0.47029681766E+01 -0.11231055292E+02 -0.61968055158E+01  0.13662170810E+02  0.00000000000E+00 0.  1.
</event>
<event>
 7    1  0.9406864E-013  0.5052886E+02  0.7816164E-02  0.1300439E+00
        -11   -1    0    0    0    0  0.00000000000E+00  0.00000000000E+00  0.45593999997E+02  0.45594000000E+02  0.51100000000E-03 0.  1.
         11   -1    0    0    0    0 -0.00000000000E+00 -0.00000000000E+00 -0.45593999997E+02  0.45594000000E+02  0.51100000000E-03 0. -1.
    9900012    2    1    2    0    0 -0.16672995070E+02  0.11690164704E+02 -0.35192571624E+02  0.50528858187E+02  0.29999994946E+02 0.  0.
        -12    1    1    2    0    0  0.16672995070E+02 -0.11690164704E+02  0.35192571624E+02  0.40659141813E+02  0.00000000000E+00 0.  1.
         11    1    3    3    0    0 -0.13984327106E+02  0.11276308001E+02 -0.37773893905E+02  0.41828023952E+02  0.51100000000E-03 0. -1.
        -11    1    3    3    0    0  0.18799139331E+01 -0.22275195228E+01  0.16267462697E+01  0.33379969004E+01  0.51100000000E-03 0.  1.
        -12    1    3    3    0    0 -0.45685818971E+01  0.26413762259E+01  0.95457601079E+00  0.53628373347E+01  0.00000000000E+00 0.  1.
</event>
<event>
 7    1  0.9406864E-013  0.5052886E+02  0.7816164E-02  0.1300439E+00
        -11   -1    0    0    0    0  0.00000000000E+00  0.00000000000E+00  0.45593999997E+02  0.45594000000E+02  0.51100000000E-03 0. -1.
         11   -1    0    0    0    0 -0.00000000000E+00 -0.00000000000E+00 -0.45593999997E+02  0.45594000000E+02  0.51100000000E-03 0.  1.
    9900012    2    1    2    0    0 -0.28822861930E+01 -0.40548000745E+02  0.84722383701E+00  0.50528859253E+02  0.29999998184E+02 0.  0.
        -12    1    1    2    0    0  0.28822861930E+01  0.40548000745E+02 -0.84722383701E+00  0.40659140747E+02  0.00000000000E+00 0.  1.
         11    1    3    3    0    0 -0.27043557594E+01 -0.18626634087E+02  0.18983091796E+01  0.18917415666E+02  0.51100000000E-03 0. -1.
        -11    1    3    3    0    0 -0.74973352811E+00 -0.44278730297E+01 -0.10714906546E+02  0.11617976695E+02  0.51100000000E-03 0.  1.
        -12    1    3    3    0    0  0.57180309450E+00 -0.17493493628E+02  0.96638212034E+01  0.19993466892E+02  0.00000000000E+00 0.  1.
</event>
<event>
 7    1  0.9406864E-013  0.5052886E+02  0.7816164E-02  0.1300439E+00
        -11   -1    0    0    0    0  0.00000000000E+00  0.00000000000E+00  0.45593999997E+02  0.45594000000E+02  0.51100000000E-03 0.  1.
         11   -1    0    0    0    0 -0.00000000000E+00 -0.00000000000E+00 -0.45593999997E+02  0.45594000000E+02  0.51100000000E-03 0. -1.
    9900012    2    1    2    0    0  0.31558400210E+02 -0.69771901061E+01 -0.24668837148E+02  0.50528864104E+02  0.30000012930E+02 0.  0.
        -12    1    1    2    0    0 -0.31558400210E+02  0.69771901061E+01  0.24668837148E+02  0.40659135896E+02  0.00000000000E+00 0.  1.
         11    1    3    3    0    0  0.30266770322E+02  0.12170114489E+01 -0.22106420862E+02  0.37500031282E+02  0.51100000000E-03 0. -1.
        -11    1    3    3    0    0 -0.15860978996E+01 -0.12850497404E+01 -0.48008101515E+01  0.52167842350E+01  0.51100000000E-03 0.  1.
         12    1    3    3    0    0  0.28777277881E+01 -0.69091518146E+01  0.22383938662E+01  0.78120485866E+01  0.00000000000E+00 0. -1.
</event>
<event>
 7    1  0.9406864E-013  0.5052886E+02  0.7816164E-02  0.1300439E+00
        -11   -1    0    0    0    0  0.00000000000E+00  0.00000000000E+00  0.45593999997E+02  0.45594000000E+02  0.51100000000E-03 0. -1.
         11   -1    0    0    0    0 -0.00000000000E+00 -0.00000000000E+00 -0.45593999997E+02  0.45594000000E+02  0.51100000000E-03 0.  1.
    9900012    2    1    2    0    0 -0.14097851663E+02 -0.17855466935E+02  0.33698644844E+02  0.50528858527E+02  0.29999995980E+02 0.  0.
        -12    1    1    2    0    0  0.14097851663E+02  0.17855466935E+02 -0.33698644844E+02  0.40659141473E+02  0.00000000000E+00 0.  1.
         11    1    3    3    0    0 -0.90194608257E+01 -0.16740012531E+01 -0.16451334722E+01  0.93198400299E+01  0.51100000000E-03 0. -1.
        -11    1    3    3    0    0 -0.64088397508E+01 -0.17890524960E+02  0.31158265803E+02  0.36496323629E+02  0.51100000000E-03 0.  1.
        -12    1    3    3    0    0  0.13304489135E+01  0.17090592786E+01  0.41855125126E+01  0.47126948683E+01  0.00000000000E+00 0.  1.
</event>
<event>
 7    1  0.9406864E-013  0.5052886E+02  0.7816164E-02  0.1300439E+00
        -11   -1    0    0    0    0  0.00000000000E+00  0.00000000000E+00  0.45593999997E+02  0.45594000000E+02  0.51100000000E-03 0.  1.
         11   -1    0    0    0    0 -0.00000000000E+00 -0.00000000000E+00 -0.45593999997E+02  0.45594000000E+02  0.51100000000E-03 0. -1.
    9900012    2    1    2    0    0  0.37380510338E+02 -0.11161974079E+02 -0.11457476524E+02  0.50528856050E+02  0.29999988449E+02 0.  0.
        -12    1    1    2    0    0 -0.37380510338E+02  0.11161974079E+02  0.11457476524E+02  0.40659143950E+02  0.00000000000E+00 0.  1.
         11    1    3    3    0    0  0.24489923420E+02  0.29435044178E-01 -0.19503002307E+02  0.31306937167E+02  0.51100000000E-03 0. -1.
        -11    1    3    3    0    0  0.80176180392E+01 -0.46643802180E+01  0.36669580750E+01  0.99742279714E+01  0.51100000000E-03 0.  1.
         12    1    3    3    0    0  0.48729688787E+01 -0.65270289054E+01  0.43785677075E+01  0.92476909115E+01  0.00000000000E+00 0. -1.
</event>
<event>
 7    1  0.9406864E-013  0.5052887E+02  0.7816164E-02  0.1300439E+00
        -11   -1    0    0    0    0  0.00000000000E+00  0.00000000000E+00  0.45593999997E+02  0.45594000000E+02  0.51100000000E-03 0.  1.
         11   -1    0    0    0    0 -0.00000000000E+00 -0.00000000000E+00 -0.45593999997E+02  0.45594000000E+02  0.51100000000E-03 0. -1.
    9900012    2    1    2    0    0 -0.15651571987E+02  0.11257888067E+02 -0.35797393379E+02  0.50528866683E+02  0.30000020769E+02 0.  0.
        -12    1    1    2    0    0  0.15651571987E+02 -0.11257888067E+02  0.35797393379E+02  0.40659133317E+02  0.00000000000E+00 0.  1.
         11    1    3    3    0    0 -0.25647443104E+01  0.13094693733E+02 -0.27915113254E+02  0.30940304872E+02  0.51100000000E-03 0. -1.
        -11    1    3    3    0    0 -0.54940199231E+01 -0.63765267746E+01 -0.65003968127E+01  0.10634825227E+02  0.51100000000E-03 0.  1.
         12    1    3    3    0    0 -0.75928077538E+01  0.45397211078E+01 -0.13818833121E+01  0.89537365838E+01  0.00000000000E+00 0. -1.
</event>
<event>
 7    1  0.9406864E-013  0.5052886E+02  0.7816164E-02  0.1300439E+00
        -11   -1    0    0    0    0  0.00000000000E+00  0.00000000000E+00  0.45593999997E+02  0.45594000000E+02  0.51100000000E-03 0.  1.
         11   -1    0    0    0    0 -0.00000000000E+00 -0.00000000000E+00 -0.45593999997E+02  0.45594000000E+02  0.51100000000E-03 0. -1.
    9900012    2    1    2    0    0  0.88807129547E+01 -0.79183857366E+01 -0.38879273832E+02  0.50528857990E+02  0.29999994347E+02 0.  0.
        -12    1    1    2    0    0 -0.88807129547E+01  0.79183857366E+01  0.38879273832E+02  0.40659142010E+02  0.00000000000E+00 0.  1.
         11    1    3    3    0    0  0.53876499275E+01  0.45560120062E+01 -0.58210882038E+00  0.70797505664E+01  0.51100000000E-03 0. -1.
        -11    1    3    3    0    0  0.20806591677E+01 -0.14557988355E+02 -0.38196781059E+02  0.40929918776E+02  0.51100000000E-03 0.  1.
        -12    1    3    3    0    0  0.14124038594E+01  0.20835906128E+01 -0.10038395317E+00  0.25191886475E+01  0.00000000000E+00 0.  1.
</event>
<event>
 7    1  0.9406864E-013  0.5052888E+02  0.7816164E-02  0.1300439E+00
        -11   -1    0    0    0    0  0.00000000000E+00  0.00000000000E+00  0.45593999997E+02  0.45594000000E+02  0.51100000000E-03 0.  1.
         11   -1    0    0    0    0 -0.00000000000E+00 -0.00000000000E+00 -0.45593999997E+02  0.45594000000E+02  0.51100000000E-03 0. -1.
    9900012    2    1    2    0    0  0.11940106629E+02  0.24493646192E+02 -0.30177133998E+02  0.50528877205E+02  0.30000052754E+02 0.  0.
        -12    1    1    2    0    0 -0.11940106629E+02 -0.24493646192E+02  0.30177133998E+02  0.40659122795E+02  0.00000000000E+00 0.  1.
         11    1    3    3    0    0 -0.23845762516E-01  0.87129748501E+01  0.18487698042E+00  0.87149686814E+01  0.51100000000E-03 0. -1.
        -11    1    3    3    0    0  0.69962500420E+01  0.14037171842E+02 -0.32535184002E+02  0.36118248937E+02  0.51100000000E-03 0.  1.
        -12    1    3    3    0    0  0.49677023500E+01  0.17434994996E+01  0.21731730235E+01  0.56956595872E+01  0.00000000000E+00 0.  1.
</event>
<event>
 7    1  0.9406864E-013  0.5052888E+02  0.7816164E-02  0.1300439E+00
        -11   -1    0    0    0    0  0.00000000000E+00  0.00000000000E+00  0.45593999997E+02  0.45594000000E+02  0.51100000000E-03 0.  1.
         11   -1    0    0    0    0 -0.00000000000E+00 -0.00000000000E+00 -0.45593999997E+02  0.45594000000E+02  0.51100000000E-03 0. -1.
    9900012    2    1    2    0    0 -0.24213278086E+02  0.32641381372E+02 -0.11922958657E+01  0.50528878232E+02  0.30000055873E+02 0.  0.
        -12    1    1    2    0    0  0.24213278086E+02 -0.32641381372E+02  0.11922958657E+01  0.40659121768E+02  0.00000000000E+00 0.  1.
         11    1    3    3    0    0  0.14612575841E+01  0.11655402663E+02 -0.90317753634E+01  0.14817444160E+02  0.51100000000E-03 0. -1.
        -11    1    3    3    0    0 -0.18132109295E+02  0.94385391118E+01  0.13991691085E+01  0.20489438316E+02  0.51100000000E-03 0.  1.
        -12    1    3    3    0    0 -0.75424263754E+01  0.11547439598E+02  0.64403103891E+01  0.15221995756E+02  0.00000000000E+00 0.  1.
</event>
<event>
 7    1  0.9406864E-013  0.5052887E+02  0.7816164E-02  0.1300439E+00
        -11   -1    0    0    0    0  0.00000000000E+00  0.00000000000E+00  0.45593999997E+02  0.45594000000E+02  0.51100000000E-03 0.  1.
         11   -1    0    0    0    0 -0.00000000000E+00 -0.00000000000E+00 -0.45593999997E+02  0.45594000000E+02  0.51100000000E-03 0. -1.
    9900012    2    1    2    0    0 -0.18202109372E+02  0.28558120015E+01 -0.36244895379E+02  0.50528869552E+02  0.30000029491E+02 0.  0.
        -12    1    1    2    0    0  0.18202109372E+02 -0.28558120015E+01  0.36244895379E+02  0.40659130448E+02  0.00000000000E+00 0.  1.
         11    1    3    3    0    0 -0.85319145608E+00 -0.10633889060E+02 -0.69388780960E+01  0.12726176240E+02  0.51100000000E-03 0. -1.
        -11    1    3    3    0    0 -0.22067215066E+01 -0.13702167528E+01 -0.41371615873E+01  0.48849994900E+01  0.51100000000E-03 0.  1.
         12    1    3    3    0    0 -0.15142196409E+02  0.14859917814E+02 -0.25168855695E+02  0.32917693822E+02  0.00000000000E+00 0. -1.
</event>
<event>
 7    1  0.9406864E-013  0.5052886E+02  0.7816164E-02  0.1300439E+00
        -11   -1    0    0    0    0  0.00000000000E+00  0.00000000000E+00  0.45593999997E+02  0.45594000000E+02  0.51100000000E-03 0.  1.
         11   -1    0    0    0    0 -0.00000000000E+00 -0.00000000000E+00 -0.45593999997E+02  0.45594000000E+02  0.51100000000E-03 0. -1.
    9900012    2    1    2    0    0 -0.85081502612E+01  0.68289650102E+01 -0.39168132214E+02  0.50528856316E+02  0.29999989258E+02 0.  0.
        -12    1    1    2    0    0  0.85081502612E+01 -0.68289650102E+01  0.39168132214E+02  0.40659143684E+02  0.00000000000E+00 0.  1.
         11    1    3    3    0    0  0.50859167500E+00  0.88029926382E+01 -0.21228451991E+02  0.22986920609E+02  0.51100000000E-03 0. -1.
        -11    1    3    3    0    0 -0.13910643703E+02 -0.20397696711E+01 -0.17750529330E+02  0.22643938710E+02  0.51100000000E-03 0.  1.
        -12    1    3    3    0    0  0.48939017671E+01  0.65742043070E-01 -0.18915089272E+00  0.48979969969E+01  0.00000000000E+00 0.  1.
</event>
<event>
 7    1  0.9406864E-013  0.5052886E+02  0.7816164E-02  0.1300439E+00
        -11   -1    0    0    0    0  0.00000000000E+00  0.00000000000E+00  0.45593999997E+02  0.45594000000E+02  0.51100000000E-03 0.  1.
         11   -1    0    0    0    0 -0.00000000000E+00 -0.00000000000E+00 -0.45593999997E+02  0.45594000000E+02  0.51100000000E-03 0. -1.
    9900012    2    1    2    0    0  0.21509598072E+02  0.26813477107E+02 -0.21714975501E+02  0.50528861731E+02  0.30000005717E+02 0.  0.
        -12    1    1    2    0    0 -0.21509598072E+02 -0.26813477107E+02  0.21714975501E+02  0.40659138269E+02  0.00000000000E+00 0.  1.
         11    1    3    3    0    0  0.25003928318E+02  0.24343587738E+02 -0.97135518887E+01  0.36223746160E+02  0.51100000000E-03 0. -1.
        -11    1    3    3    0    0 -0.18439143273E+01 -0.19808527205E+01 -0.64878127686E+01  0.70296167981E+01  0.51100000000E-03 0.  1.
        -12    1    3    3    0    0 -0.16504159190E+01  0.44507420897E+01 -0.55136108441E+01  0.72754987730E+01  0.00000000000E+00 0.  1.
</event>
<event>
 7    1  0.9406864E-013  0.5052886E+02  0.7816164E-02  0.1300439E+00
        -11   -1    0    0    0    0  0.00000000000E+00  0.00000000000E+00  0.45593999997E+02  0.45594000000E+02  0.51100000000E-03 0.  1.
         11   -1    0    0    0    0 -0.00000000000E+00 -0.00000000000E+00 -0.45593999997E+02  0.45594000000E+02  0.51100000000E-03 0. -1.
    9900012    2    1    2    0    0  0.40245604578E+02  0.37475127213E+01 -0.44060465636E+01  0.50528858521E+02  0.29999995961E+02 0.  0.
        -12    1    1    2    0    0 -0.40245604578E+02 -0.37475127213E+01  0.44060465636E+01  0.40659141479E+02  0.00000000000E+00 0.  1.
         11    1    3    3    0    0  0.18526675667E+02  0.24641801280E+01 -0.53900372317E+01  0.19451539698E+02  0.51100000000E-03 0. -1.
        -11    1    3    3    0    0  0.62235943236E+01 -0.91955828529E+01  0.46108973971E+01  0.12022988205E+02  0.51100000000E-03 0.  1.
        -12    1    3    3    0    0  0.15495334587E+02  0.10478915446E+02 -0.36269067290E+01  0.19054330619E+02  0.00000000000E+00 0.  1.
</event>
<event>
 7    1  0.9406864E-013  0.5052887E+02  0.7816164E-02  0.1300439E+00
        -11   -1    0    0    0    0  0.00000000000E+00  0.00000000000E+00  0.45593999997E+02  0.45594000000E+02  0.51100000000E-03 0. -1.
         11   -1    0    0    0    0 -0.00000000000E+00 -0.00000000000E+00 -0.45593999997E+02  0.45594000000E+02  0.51100000000E-03 0.  1.
    9900012    2    1    2    0    0 -0.32836190744E+02  0.96288479826E+01  0.21959848200E+02  0.50528867336E+02  0.30000022753E+02 0.  0.
        -12    1    1    2    0    0  0.32836190744E+02 -0.96288479826E+01 -0.21959848200E+02  0.40659132664E+02  0.00000000000E+00 0.  1.
         11    1    3    3    0    0 -0.22884491648E+02  0.41223633383E+01  0.34910615710E+01  0.23513429113E+02  0.51100000000E-03 0. -1.
        -11    1    3    3    0    0 -0.10604546868E+01  0.82263177956E+01  0.14905938852E+02  0.17058249674E+02  0.51100000000E-03 0.  1.
         12    1    3    3    0    0 -0.88912444093E+01 -0.27198331512E+01  0.35628477761E+01  0.99571885486E+01  0.00000000000E+00 0. -1.
</event>
<event>
 7    1  0.9406864E-013  0.5052886E+02  0.7816164E-02  0.1300439E+00
        -11   -1    0    0    0    0  0.00000000000E+00  0.00000000000E+00  0.45593999997E+02  0.45594000000E+02  0.51100000000E-03 0. -1.
         11   -1    0    0    0    0 -0.00000000000E+00 -0.00000000000E+00 -0.45593999997E+02  0.45594000000E+02  0.51100000000E-03 0.  1.
    9900012    2    1    2    0    0 -0.39110159724E+02 -0.59150891100E+01  0.94112964826E+01  0.50528863582E+02  0.30000011342E+02 0.  0.
        -12    1    1    2    0    0  0.39110159724E+02  0.59150891100E+01 -0.94112964826E+01  0.40659136418E+02  0.00000000000E+00 0.  1.
         11    1    3    3    0    0 -0.24541146116E+02 -0.10729049547E+02 -0.22517541097E+01  0.26878444034E+02  0.51100000000E-03 0. -1.
        -11    1    3    3    0    0 -0.48563916650E+01  0.85993891927E+01  0.37537615872E+01  0.10565261985E+02  0.51100000000E-03 0.  1.
        -12    1    3    3    0    0 -0.97126219433E+01 -0.37854287561E+01  0.79092890052E+01  0.13085157563E+02  0.00000000000E+00 0.  1.
</event>
<event>
 7    1  0.9406864E-013  0.5052886E+02  0.7816164E-02  0.1300439E+00
        -11   -1    0    0    0    0  0.00000000000E+00  0.00000000000E+00  0.45593999997E+02  0.45594000000E+02  0.51100000000E-03 0.  1.
         11   -1    0    0    0    0 -0.00000000000E+00 -0.00000000000E+00 -0.45593999997E+02  0.45594000000E+02  0.51100000000E-03 0. -1.
    9900012    2    1    2    0    0 -0.33564294856E+02 -0.19151940603E+02 -0.12641486911E+02  0.50528857001E+02  0.29999991341E+02 0.  0.
        -12    1    1    2    0    0  0.33564294856E+02  0.19151940603E+02  0.12641486911E+02  0.40659142999E+02  0.00000000000E+00 0.  1.
         11    1    3    3    0    0 -0.34560624012E+02 -0.15597616980E+02 -0.40729308499E+01  0.38135431734E+02  0.51100000000E-03 0. -1.
        -11    1    3    3    0    0  0.38144458487E+01 -0.12643478309E+00 -0.16142056718E+01  0.41438681325E+01  0.51100000000E-03 0.  1.
         12    1    3    3    0    0 -0.28181166931E+01 -0.34278888398E+01 -0.69543503888E+01  0.82495571350E+01  0.00000000000E+00 0. -1.
</event>
<event>
 7    1  0.9406864E-013  0.5052886E+02  0.7816164E-02  0.1300439E+00
        -11   -1    0    0    0    0  0.00000000000E+00  0.00000000000E+00  0.45593999997E+02  0.45594000000E+02  0.51100000000E-03 0.  1.
         11   -1    0    0    0    0 -0.00000000000E+00 -0.00000000000E+00 -0.45593999997E+02  0.45594000000E+02  0.51100000000E-03 0. -1.
    9900012    2    1    2    0    0 -0.18026719341E+02 -0.20398663459E+02 -0.30200952358E+02  0.50528860752E+02  0.30000002740E+02 0.  0.
        -12    1    1    2    0    0  0.18026719341E+02  0.20398663459E+02  0.30200952358E+02  0.40659139248E+02  0.00000000000E+00 0.  1.
         11    1    3    3    0    0 -0.19116372161E+02 -0.96440767564E+01 -0.18573442410E+02  0.28344605559E+02  0.51100000000E-03 0. -1.
        -11    1    3    3    0    0  0.37905485744E+01 -0.17338493436E+01 -0.12057892519E+02  0.12758027446E+02  0.51100000000E-03 0.  1.
        -12    1    3    3    0    0 -0.27008957538E+01 -0.90207373591E+01  0.43038257136E+00  0.94262277466E+01  0.00000000000E+00 0.  1.
</event>
<event>
 7    1  0.1071900E-012  0.5052886E+02  0.7816164E-02  0.1300439E+00
        -11   -1    0    0    0    0  0.00000000000E+00  0.00000000000E+00  0.45593999997E+02  0.45594000000E+02  0.51100000000E-03 0.  1.
         11   -1    0    0    0    0 -0.00000000000E+00 -0.00000000000E+00 -0.45593999997E+02  0.45594000000E+02  0.51100000000E-03 0. -1.
    9900012    2    1    2    0    0  0.35991011890E+02  0.11842333258E+02 -0.14750328010E+02  0.50528856253E+02  0.29999989067E+02 0.  0.
        -12    1    1    2    0    0 -0.35991011890E+02 -0.11842333258E+02  0.14750328010E+02  0.40659143747E+02  0.00000000000E+00 0.  1.
         11    1    3    3    0    0  0.15439652570E+02  0.17287223450E+02 -0.80411835663E+01  0.24533479156E+02  0.51100000000E-03 0. -1.
        -11    1    3    3    0    0 -0.13345416075E+01 -0.26718455799E+01 -0.14317551539E+01  0.33120512053E+01  0.51100000000E-03 0.  1.
         12    1    3    3    0    0  0.21885900927E+02 -0.27730446121E+01 -0.52773892901E+01  0.22683325892E+02  0.00000000000E+00 0. -1.
</event>
<event>
 7    1  0.9406864E-013  0.5052886E+02  0.7816164E-02  0.1300439E+00
        -11   -1    0    0    0    0  0.00000000000E+00  0.00000000000E+00  0.45593999997E+02  0.45594000000E+02  0.51100000000E-03 0.  1.
         11   -1    0    0    0    0 -0.00000000000E+00 -0.00000000000E+00 -0.45593999997E+02  0.45594000000E+02  0.51100000000E-03 0. -1.
    9900012    2    1    2    0    0 -0.17137773070E+02  0.26909776200E+02 -0.25205681006E+02  0.50528859873E+02  0.30000000069E+02 0.  0.
        -12    1    1    2    0    0  0.17137773070E+02 -0.26909776200E+02  0.25205681006E+02  0.40659140127E+02  0.00000000000E+00 0.  1.
         11    1    3    3    0    0 -0.88894506500E+00  0.14542545548E+02 -0.24399252293E+02  0.28418292825E+02  0.51100000000E-03 0. -1.
        -11    1    3    3    0    0 -0.84958290037E+01  0.73884572327E+01  0.37027924185E+01  0.11852387215E+02  0.51100000000E-03 0.  1.
         12    1    3    3    0    0 -0.77529990014E+01  0.49787734187E+01 -0.45092211309E+01  0.10258179833E+02  0.00000000000E+00 0. -1.
</event>
<event>
 7    1  0.9406864E-013  0.5052886E+02  0.7816164E-02  0.1300439E+00
        -11   -1    0    0    0    0  0.00000000000E+00  0.00000000000E+00  0.45593999997E+02  0.45594000000E+02  0.51100000000E-03 0.  1.
         11   -1    0    0    0    0 -0.00000000000E+00 -0.00000000000E+00 -0.45593999997E+02  0.45594000000E+02  0.51100000000E-03 0. -1.
    9900012    2    1    2    0    0 -0.31258252517E+02 -0.10446291668E+02 -0.23810969831E+02  0.50528860261E+02  0.30000001248E+02 0.  0.
        -12    1    1    2    0    0  0.31258252517E+02  0.10446291668E+02  0.23810969831E+02  0.40659139739E+02  0.00000000000E+00 0.  1.
         11    1    3    3    0    0 -0.96238052616E+01 -0.26793501879E+01 -0.10306545554E+01  0.10042847914E+02  0.51100000000E-03 0. -1.
        -11    1    3    3    0    0 -0.16488401438E+02 -0.12973689526E+02 -0.25186336196E+02  0.32780108803E+02  0.51100000000E-03 0.  1.
        -12    1    3    3    0    0 -0.51460458174E+01  0.52067480454E+01  0.24060209200E+01  0.77059035441E+01  0.00000000000E+00 0.  1.
</event>
<event>
 7    1  0.9406864E-013  0.5052886E+02  0.7816164E-02  0.1300439E+00
        -11   -1    0    0    0    0  0.00000000000E+00  0.00000000000E+00  0.45593999997E+02  0.45594000000E+02  0.51100000000E-03 0.  1.
         11   -1    0    0    0    0 -0.00000000000E+00 -0.00000000000E+00 -0.45593999997E+02  0.45594000000E+02  0.51100000000E-03 0. -1.
    9900012    2    1    2    0    0  0.30954682936E+02 -0.25238735877E+02  0.76144026144E+01  0.50528864353E+02  0.30000013689E+02 0.  0.
        -12    1    1    2    0    0 -0.30954682936E+02  0.25238735877E+02 -0.76144026144E+01  0.40659135647E+02  0.00000000000E+00 0.  1.
         11    1    3    3    0    0  0.10317551968E+02 -0.59062890101E+01 -0.67273859425E+01  0.13659935957E+02  0.51100000000E-03 0. -1.
        -11    1    3    3    0    0  0.92849697327E+01 -0.20368100203E+02  0.11277429656E+02  0.25064927463E+02  0.51100000000E-03 0.  1.
        -12    1    3    3    0    0  0.11352161236E+02  0.10356533362E+01  0.30643589013E+01  0.11804000933E+02  0.00000000000E+00 0.  1.
</event>
<event>
 7    1  0.9406864E-013  0.5052886E+02  0.7816164E-02  0.1300439E+00
        -11   -1    0    0    0    0  0.00000000000E+00  0.00000000000E+00  0.45593999997E+02  0.45594000000E+02  0.51100000000E-03 0.  1.
         11   -1    0    0    0    0 -0.00000000000E+00 -0.00000000000E+00 -0.45593999997E+02  0.45594000000E+02  0.51100000000E-03 0. -1.
    9900012    2    1    2    0    0  0.78766547625E+01  0.25556550557E+02 -0.30626574107E+02  0.50528855787E+02  0.29999987650E+02 0.  0.
        -12    1    1    2    0    0 -0.78766547625E+01 -0.25556550557E+02  0.30626574107E+02  0.40659144213E+02  0.00000000000E+00 0.  1.
         11    1    3    3    0    0  0.85478378244E+01  0.82504397760E+01  0.27682922592E+01  0.12198308500E+02  0.51100000000E-03 0. -1.
        -11    1    3    3    0    0  0.30357651391E+00  0.10530731487E+02 -0.26920826108E+02  0.28908810818E+02  0.51100000000E-03 0.  1.
         12    1    3    3    0    0 -0.97475957584E+00  0.67753792946E+01 -0.64740402580E+01  0.94217364683E+01  0.00000000000E+00 0. -1.
</event>
<event>
 7    1  0.9406864E-013  0.5052886E+02  0.7816164E-02  0.1300439E+00
        -11   -1    0    0    0    0  0.00000000000E+00  0.00000000000E+00  0.45593999997E+02  0.45594000000E+02  0.51100000000E-03 0.  1.
         11   -1    0    0    0    0 -0.00000000000E+00 -0.00000000000E+00 -0.45593999997E+02  0.45594000000E+02  0.51100000000E-03 0. -1.
    9900012    2    1    2    0    0 -0.12647920921E+02 -0.44057764089E+01 -0.38389908843E+02  0.50528857481E+02  0.29999992801E+02 0.  0.
        -12    1    1    2    0    0  0.12647920921E+02  0.44057764089E+01  0.38389908843E+02  0.40659142519E+02  0.00000000000E+00 0.  1.
         11    1    3    3    0    0 -0.18559703775E+02 -0.90586664625E+01 -0.24741818940E+02  0.32228553287E+02  0.51100000000E-03 0. -1.
        -11    1    3    3    0    0  0.43862886132E+01  0.12616888119E+01 -0.44756538960E+00  0.45860333073E+01  0.51100000000E-03 0.  1.
        -12    1    3    3    0    0  0.15254942400E+01  0.33912012417E+01 -0.13200524513E+02  0.13714270887E+02  0.00000000000E+00 0.  1.
</event>
<event>
 7    1  0.9406864E-013  0.5052885E+02  0.7816164E-02  0.1300439E+00
        -11   -1    0    0    0    0  0.00000000000E+00  0.00000000000E+00  0.45593999997E+02  0.45594000000E+02  0.51100000000E-03 0.  1.
         11   -1    0    0    0    0 -0.00000000000E+00 -0.00000000000E+00 -0.45593999997E+02  0.45594000000E+02  0.51100000000E-03 0. -1.
    9900012    2    1    2    0    0  0.34179347244E+02 -0.16330544253E+02 -0.14773363434E+02  0.50528847023E+02  0.29999961012E+02 0.  0.
        -12    1    1    2    0    0 -0.34179347244E+02  0.16330544253E+02  0.14773363434E+02  0.40659152977E+02  0.00000000000E+00 0.  1.
         11    1    3    3    0    0  0.21843140007E+02 -0.30421744411E+01 -0.15978386680E+02  0.27233920611E+02  0.51100000000E-03 0. -1.
        -11    1    3    3    0    0 -0.68770741839E+00 -0.91369613206E+01  0.26782877231E+01  0.95462154310E+01  0.51100000000E-03 0.  1.
         12    1    3    3    0    0  0.13023914656E+02 -0.41514084910E+01 -0.14732644765E+01  0.13748710981E+02  0.00000000000E+00 0. -1.
</event>
<event>
 7    1  0.9406864E-013  0.5052886E+02  0.7816164E-02  0.1300439E+00
        -11   -1    0    0    0    0  0.00000000000E+00  0.00000000000E+00  0.45593999997E+02  0.45594000000E+02  0.51100000000E-03 0.  1.
         11   -1    0    0    0    0 -0.00000000000E+00 -0.00000000000E+00 -0.45593999997E+02  0.45594000000E+02  0.51100000000E-03 0. -1.
    9900012    2    1    2    0    0 -0.27042792699E+02  0.19410468077E+02 -0.23347089915E+02  0.50528861846E+02  0.30000006066E+02 0.  0.
        -12    1    1    2    0    0  0.27042792699E+02 -0.19410468077E+02  0.23347089915E+02  0.40659138154E+02  0.00000000000E+00 0.  1.
         11    1    3    3    0    0 -0.33073965921E+00  0.18458391620E+01 -0.81643072529E+01  0.83768982395E+01  0.51100000000E-03 0. -1.
        -11    1    3    3    0    0 -0.27622280615E+02  0.81226201617E+01 -0.70145034365E+01  0.29633943433E+02  0.51100000000E-03 0.  1.
        -12    1    3    3    0    0  0.91022757551E+00  0.94420087534E+01 -0.81682792258E+01  0.12518020173E+02  0.00000000000E+00 0.  1.
</event>
<event>
 7    1  0.9406864E-013  0.5052886E+02  0.7816164E-02  0.1300439E+00
        -11   -1    0    0    0    0  0.00000000000E+00  0.00000000000E+00  0.45593999997E+02  0.45594000000E+02  0.51100000000E-03 0.  1.
         11   -1    0    0    0    0 -0.00000000000E+00 -0.00000000000E+00 -0.45593999997E+02  0.45594000000E+02  0.51100000000E-03 0. -1.
    9900012    2    1    2    0    0 -0.25859455865E+02 -0.28393222077E+02 -0.13352109208E+02  0.50528864030E+02  0.30000012704E+02 0.  0.
        -12    1    1    2    0    0  0.25859455865E+02  0.28393222077E+02  0.13352109208E+02  0.40659135970E+02  0.00000000000E+00 0.  1.
         11    1    3    3    0    0 -0.30742448885E+02 -0.18946144198E+02 -0.96348889821E+01  0.37374933169E+02  0.51100000000E-03 0. -1.
        -11    1    3    3    0    0  0.29988821340E+01 -0.94047388342E+01 -0.11051381060E+01  0.99329621507E+01  0.51100000000E-03 0.  1.
        -12    1    3    3    0    0  0.18841108861E+01 -0.42339044615E-01 -0.26120821203E+01  0.32209687097E+01  0.00000000000E+00 0.  1.
</event>
<event>
 7    1  0.9406864E-013  0.5052890E+02  0.7816164E-02  0.1300439E+00
        -11   -1    0    0    0    0  0.00000000000E+00  0.00000000000E+00  0.45593999997E+02  0.45594000000E+02  0.51100000000E-03 0.  1.
         11   -1    0    0    0    0 -0.00000000000E+00 -0.00000000000E+00 -0.45593999997E+02  0.45594000000E+02  0.51100000000E-03 0. -1.
    9900012    2    1    2    0    0  0.32882491927E+02 -0.23781624304E+02 -0.25176069705E+01  0.50528901698E+02  0.30000127201E+02 0.  0.
        -12    1    1    2    0    0 -0.32882491927E+02  0.23781624304E+02  0.25176069705E+01  0.40659098302E+02  0.00000000000E+00 0.  1.
         11    1    3    3    0    0  0.20366059142E+01 -0.19125339333E+01 -0.17071337829E+01  0.32741190738E+01  0.51100000000E-03 0. -1.
        -11    1    3    3    0    0  0.15984353509E+02 -0.24033160498E+02  0.78586030580E+01  0.29914043573E+02  0.51100000000E-03 0.  1.
        -12    1    3    3    0    0  0.14861532504E+02  0.21640701273E+01 -0.86690762455E+01  0.17340739051E+02  0.00000000000E+00 0.  1.
</event>
<event>
 7    1  0.9406864E-013  0.5052886E+02  0.7816164E-02  0.1300439E+00
        -11   -1    0    0    0    0  0.00000000000E+00  0.00000000000E+00  0.45593999997E+02  0.45594000000E+02  0.51100000000E-03 0.  1.
         11   -1    0    0    0    0 -0.00000000000E+00 -0.00000000000E+00 -0.45593999997E+02  0.45594000000E+02  0.51100000000E-03 0. -1.
    9900012    2    1    2    0    0 -0.16496827349E+01  0.27067720286E+02 -0.30294934944E+02  0.50528855667E+02  0.29999987286E+02 0.  0.
        -12    1    1    2    0    0  0.16496827349E+01 -0.27067720286E+02  0.30294934944E+02  0.40659144333E+02  0.00000000000E+00 0.  1.
         11    1    3    3    0    0 -0.41557716263E+01  0.26525066868E+02 -0.20828789023E+02  0.33980701326E+02  0.51100000000E-03 0. -1.
        -11    1    3    3    0    0 -0.38689976738E+01 -0.38287495005E+01 -0.59250505748E+01  0.80457871158E+01  0.51100000000E-03 0.  1.
         12    1    3    3    0    0  0.63750865652E+01  0.43714029185E+01 -0.35410953459E+01  0.85023672256E+01  0.00000000000E+00 0. -1.
</event>
<event>
 7    1  0.9406864E-013  0.5052886E+02  0.7816164E-02  0.1300439E+00
        -11   -1    0    0    0    0  0.00000000000E+00  0.00000000000E+00  0.45593999997E+02  0.45594000000E+02  0.51100000000E-03 0.  1.
         11   -1    0    0    0    0 -0.00000000000E+00 -0.00000000000E+00 -0.45593999997E+02  0.45594000000E+02  0.51100000000E-03 0. -1.
    9900012    2    1    2    0    0  0.23966537965E+02  0.30281420132E+02 -0.12720323649E+02  0.50528856121E+02  0.29999988665E+02 0.  0.
        -12    1    1    2    0    0 -0.23966537965E+02 -0.30281420132E+02  0.12720323649E+02  0.40659143879E+02  0.00000000000E+00 0.  1.
         11    1    3    3    0    0  0.16067893366E+01  0.55516602374E+01 -0.80456946958E+01  0.99063568865E+01  0.51100000000E-03 0. -1.
        -11    1    3    3    0    0  0.26146846105E-01  0.48711005928E+01  0.70078644075E+01  0.85345455917E+01  0.51100000000E-03 0.  1.
        -12    1    3    3    0    0  0.22333601782E+02  0.19858659302E+02 -0.11682493360E+02  0.32087953643E+02  0.00000000000E+00 0.  1.
</event>
<event>
 7    1  0.9406864E-013  0.5052885E+02  0.7816164E-02  0.1300439E+00
        -11   -1    0    0    0    0  0.00000000000E+00  0.00000000000E+00  0.45593999997E+02  0.45594000000E+02  0.51100000000E-03 0. -1.
         11   -1    0    0    0    0 -0.00000000000E+00 -0.00000000000E+00 -0.45593999997E+02  0.45594000000E+02  0.51100000000E-03 0.  1.
    9900012    2    1    2    0    0 -0.35287804672E+02  0.15373295464E+02 -0.13099579174E+02  0.50528851626E+02  0.29999975002E+02 0.  0.
        -12    1    1    2    0    0  0.35287804672E+02 -0.15373295464E+02  0.13099579174E+02  0.40659148374E+02  0.00000000000E+00 0.  1.
         11    1    3    3    0    0 -0.82386214006E+01  0.14225131877E+02  0.37614541217E+01  0.16863504881E+02  0.51100000000E-03 0. -1.
        -11    1    3    3    0    0 -0.22026037610E+02  0.17606447819E+01 -0.17974628996E+02  0.28483916350E+02  0.51100000000E-03 0.  1.
        -12    1    3    3    0    0 -0.50231456614E+01 -0.61248119557E+00  0.11135956998E+01  0.51814303945E+01  0.00000000000E+00 0.  1.
</event>
<event>
 7    1  0.9406864E-013  0.5052886E+02  0.7816164E-02  0.1300439E+00
        -11   -1    0    0    0    0  0.00000000000E+00  0.00000000000E+00  0.45593999997E+02  0.45594000000E+02  0.51100000000E-03 0.  1.
         11   -1    0    0    0    0 -0.00000000000E+00 -0.00000000000E+00 -0.45593999997E+02  0.45594000000E+02  0.51100000000E-03 0. -1.
    9900012    2    1    2    0    0  0.39123818769E+02  0.99070224399E+01 -0.49339182513E+01  0.50528857879E+02  0.29999994010E+02 0.  0.
        -12    1    1    2    0    0 -0.39123818769E+02 -0.99070224399E+01  0.49339182513E+01  0.40659142121E+02  0.00000000000E+00 0.  1.
         11    1    3    3    0    0  0.33380445537E+02  0.80986277408E+01  0.93587749972E+00  0.34361574215E+02  0.51100000000E-03 0. -1.
        -11    1    3    3    0    0  0.39015696067E+01 -0.59144790455E+01 -0.21871440508E+01  0.74153157138E+01  0.51100000000E-03 0.  1.
         12    1    3    3    0    0  0.18418036248E+01  0.77228737446E+01 -0.36826517002E+01  0.87519679508E+01  0.00000000000E+00 0. -1.
</event>
<event>
 7    1  0.9406864E-013  0.5052886E+02  0.7816164E-02  0.1300439E+00
        -11   -1    0    0    0    0  0.00000000000E+00  0.00000000000E+00  0.45593999997E+02  0.45594000000E+02  0.51100000000E-03 0.  1.
         11   -1    0    0    0    0 -0.00000000000E+00 -0.00000000000E+00 -0.45593999997E+02  0.45594000000E+02  0.51100000000E-03 0. -1.
    9900012    2    1    2    0    0  0.85656211469E+01 -0.66698888510E+01 -0.39183012710E+02  0.50528858740E+02  0.29999996627E+02 0.  0.
        -12    1    1    2    0    0 -0.85656211469E+01  0.66698888510E+01  0.39183012710E+02  0.40659141260E+02  0.00000000000E+00 0.  1.
         11    1    3    3    0    0 -0.91947432759E+00  0.11128601770E+01 -0.30202464344E+02  0.30236943357E+02  0.51100000000E-03 0. -1.
        -11    1    3    3    0    0  0.18205802432E+01 -0.91365188138E+01 -0.13882819938E+01  0.94190135159E+01  0.51100000000E-03 0.  1.
        -12    1    3    3    0    0  0.76645152313E+01  0.13537697859E+01 -0.75922663721E+01  0.10872901868E+02  0.00000000000E+00 0.  1.
</event>
<event>
 7    1  0.9406864E-013  0.5052889E+02  0.7816164E-02  0.1300439E+00
        -11   -1    0    0    0    0  0.00000000000E+00  0.00000000000E+00  0.45593999997E+02  0.45594000000E+02  0.51100000000E-03 0. -1.
         11   -1    0    0    0    0 -0.00000000000E+00 -0.00000000000E+00 -0.45593999997E+02  0.45594000000E+02  0.51100000000E-03 0.  1.
    9900012    2    1    2    0    0 -0.12740717912E+02  0.37658770295E+02  0.85237405493E+01  0.50528892459E+02  0.30000099119E+02 0.  0.
        -12    1    1    2    0    0  0.12740717912E+02 -0.37658770295E+02 -0.85237405493E+01  0.40659107541E+02  0.00000000000E+00 0.  1.
         11    1    3    3    0    0 -0.14750125449E+01  0.55929551162E+01 -0.12948529852E-01  0.57842006245E+01  0.51100000000E-03 0. -1.
        -11    1    3    3    0    0 -0.20426528968E+02  0.20219370591E+02  0.76558148776E+01  0.29743529288E+02  0.51100000000E-03 0.  1.
        -12    1    3    3    0    0  0.91608236006E+01  0.11846444588E+02  0.88087420156E+00  0.15001162547E+02  0.00000000000E+00 0.  1.
</event>
<event>
 7    1  0.9406864E-013  0.5052886E+02  0.7816164E-02  0.1300439E+00
        -11   -1    0    0    0    0  0.00000000000E+00  0.00000000000E+00  0.45593999997E+02  0.45594000000E+02  0.51100000000E-03 0.  1.
         11   -1    0    0    0    0 -0.00000000000E+00 -0.00000000000E+00 -0.45593999997E+02  0.45594000000E+02  0.51100000000E-03 0. -1.
    9900012    2    1    2    0    0  0.30459365189E+02  0.19040588332E+02 -0.19048593656E+02  0.50528857707E+02  0.29999993485E+02 0.  0.
        -12    1    1    2    0    0 -0.30459365189E+02 -0.19040588332E+02  0.19048593656E+02  0.40659142293E+02  0.00000000000E+00 0.  1.
         11    1    3    3    0    0  0.15302833841E+01  0.14138187068E+02 -0.48624663563E+01  0.15029094454E+02  0.51100000000E-03 0. -1.
        -11    1    3    3    0    0  0.29418812911E+02  0.36841647400E+01 -0.10282173067E+02  0.31380929020E+02  0.51100000000E-03 0.  1.
         12    1    3    3    0    0 -0.48973110589E+00  0.12182365248E+01 -0.39039542320E+01  0.41188342322E+01  0.00000000000E+00 0. -1.
</event>
<event>
 7    1  0.9406864E-013  0.5052882E+02  0.7816164E-02  0.1300439E+00
        -11   -1    0    0    0    0  0.00000000000E+00  0.00000000000E+00  0.45593999997E+02  0.45594000000E+02  0.51100000000E-03 0.  1.
         11   -1    0    0    0    0 -0.00000000000E+00 -0.00000000000E+00 -0.45593999997E+02  0.45594000000E+02  0.51100000000E-03 0. -1.
    9900012    2    1    2    0    0 -0.13366231266E+02 -0.38084854331E+02 -0.49047481287E+01  0.50528821185E+02  0.29999882475E+02 0.  0.
        -12    1    1    2    0    0  0.13366231266E+02  0.38084854331E+02  0.49047481287E+01  0.40659178815E+02  0.00000000000E+00 0.  1.
         11    1    3    3    0    0 -0.59710539129E+01 -0.12019469875E+02 -0.56586230857E+01  0.14565066302E+02  0.51100000000E-03 0. -1.
        -11    1    3    3    0    0  0.98368606811E-02  0.44921293029E+01  0.50872718411E+00  0.45208545704E+01  0.51100000000E-03 0.  1.
        -12    1    3    3    0    0 -0.74050142135E+01 -0.30557513759E+02  0.24514777294E+00  0.31442900313E+02  0.00000000000E+00 0.  1.
</event>
<event>
 7    1  0.9406864E-013  0.5052885E+02  0.7816164E-02  0.1300439E+00
        -11   -1    0    0    0    0  0.00000000000E+00  0.00000000000E+00  0.45593999997E+02  0.45594000000E+02  0.51100000000E-03 0.  1.
         11   -1    0    0    0    0 -0.00000000000E+00 -0.00000000000E+00 -0.45593999997E+02  0.45594000000E+02  0.51100000000E-03 0. -1.
    9900012    2    1    2    0    0  0.39756919426E+02  0.75515643135E+01 -0.39404990014E+01  0.50528852220E+02  0.29999976807E+02 0.  0.
        -12    1    1    2    0    0 -0.39756919426E+02 -0.75515643135E+01  0.39404990014E+01  0.40659147780E+02  0.00000000000E+00 0.  1.
         11    1    3    3    0    0  0.32023674229E+02  0.34726668519E+01 -0.15529676031E+02  0.35759557661E+02  0.51100000000E-03 0. -1.
        -11    1    3    3    0    0  0.43642785306E+01  0.29953064433E+01  0.87746825700E+01  0.10247626176E+02  0.51100000000E-03 0.  1.
         12    1    3    3    0    0  0.33689666664E+01  0.10835910183E+01  0.28144944601E+01  0.45216683824E+01  0.00000000000E+00 0. -1.
</event>
<event>
 7    1  0.9406864E-013  0.5052883E+02  0.7816164E-02  0.1300439E+00
        -11   -1    0    0    0    0  0.00000000000E+00  0.00000000000E+00  0.45593999997E+02  0.45594000000E+02  0.51100000000E-03 0.  1.
         11   -1    0    0    0    0 -0.00000000000E+00 -0.00000000000E+00 -0.45593999997E+02  0.45594000000E+02  0.51100000000E-03 0. -1.
    9900012    2    1    2    0    0  0.27062855683E+02  0.75642807455E+01 -0.29386245282E+02  0.50528832366E+02  0.29999916460E+02 0.  0.
        -12    1    1    2    0    0 -0.27062855683E+02 -0.75642807455E+01  0.29386245282E+02  0.40659167634E+02  0.00000000000E+00 0.  1.
         11    1    3    3    0    0  0.65469360055E+01  0.14583987821E+02 -0.18955935733E+02  0.24796825837E+02  0.51100000000E-03 0. -1.
        -11    1    3    3    0    0  0.22649327283E+00  0.11500200758E+01  0.50734303556E+00  0.12772010782E+01  0.51100000000E-03 0.  1.
         12    1    3    3    0    0  0.20289426404E+02 -0.81697271517E+01 -0.10937652585E+02  0.24454805450E+02  0.00000000000E+00 0. -1.
</event>
<event>
 7    1  0.9406864E-013  0.5052885E+02  0.7816164E-02  0.1300439E+00
        -11   -1    0    0    0    0  0.00000000000E+00  0.00000000000E+00  0.45593999997E+02  0.45594000000E+02  0.51100000000E-03 0.  1.
         11   -1    0    0    0    0 -0.00000000000E+00 -0.00000000000E+00 -0.45593999997E+02  0.45594000000E+02  0.51100000000E-03 0. -1.
    9900012    2    1    2    0    0  0.18045688366E+02  0.28292957839E+02 -0.22957091880E+02  0.50528850975E+02  0.29999973023E+02 0.  0.
        -12    1    1    2    0    0 -0.18045688366E+02 -0.28292957839E+02  0.22957091880E+02  0.40659149025E+02  0.00000000000E+00 0.  1.
         11    1    3    3    0    0  0.21360768629E+02  0.20832516217E+02 -0.12182619010E+02  0.32228750744E+02  0.51100000000E-03 0. -1.
        -11    1    3    3    0    0 -0.28588369700E+01 -0.21750648246E+01  0.31053714942E+00  0.36055914071E+01  0.51100000000E-03 0.  1.
         12    1    3    3    0    0 -0.45624329321E+00  0.96355064467E+01 -0.11085010020E+02  0.14694508823E+02  0.00000000000E+00 0. -1.
</event>
<event>
 7    1  0.9406864E-013  0.5052885E+02  0.7816164E-02  0.1300439E+00
        -11   -1    0    0    0    0  0.00000000000E+00  0.00000000000E+00  0.45593999997E+02  0.45594000000E+02  0.51100000000E-03 0.  1.
         11   -1    0    0    0    0 -0.00000000000E+00 -0.00000000000E+00 -0.45593999997E+02  0.45594000000E+02  0.51100000000E-03 0. -1.
    9900012    2    1    2    0    0  0.19349165887E+02  0.12022727657E+02 -0.33678330878E+02  0.50528853777E+02  0.29999981542E+02 0.  0.
        -12    1    1    2    0    0 -0.19349165887E+02 -0.12022727657E+02  0.33678330878E+02  0.40659146223E+02  0.00000000000E+00 0.  1.
         11    1    3    3    0    0  0.18776494852E+02  0.10359113381E+02 -0.17503213590E+02  0.27680868397E+02  0.51100000000E-03 0. -1.
        -11    1    3    3    0    0 -0.10632752578E+01 -0.13893546022E+01  0.29402260052E+01  0.34213724888E+01  0.51100000000E-03 0.  1.
        -12    1    3    3    0    0  0.16359462930E+01  0.30529688780E+01 -0.19115343293E+02  0.19426612892E+02  0.00000000000E+00 0.  1.
</event>
<event>
 7    1  0.9406864E-013  0.5052885E+02  0.7816164E-02  0.1300439E+00
        -11   -1    0    0    0    0  0.00000000000E+00  0.00000000000E+00  0.45593999997E+02  0.45594000000E+02  0.51100000000E-03 0.  1.
         11   -1    0    0    0    0 -0.00000000000E+00 -0.00000000000E+00 -0.45593999997E+02  0.45594000000E+02  0.51100000000E-03 0. -1.
    9900012    2    1    2    0    0 -0.18861258361E+02 -0.95707308803E+01 -0.34724926803E+02  0.50528849763E+02  0.29999969339E+02 0.  0.
        -12    1    1    2    0    0  0.18861258361E+02  0.95707308803E+01  0.34724926803E+02  0.40659150237E+02  0.00000000000E+00 0.  1.
         11    1    3    3    0    0 -0.10844476086E+02  0.70884607337E+01 -0.27608474791E+02  0.30497160814E+02  0.51100000000E-03 0. -1.
        -11    1    3    3    0    0 -0.70670294692E+01 -0.12036023348E+02 -0.59316866319E+01  0.15165542196E+02  0.51100000000E-03 0.  1.
         12    1    3    3    0    0 -0.94975280520E+00 -0.46231682662E+01 -0.11847653799E+01  0.48661467522E+01  0.00000000000E+00 0. -1.
</event>
<event>
 7    1  0.9406864E-013  0.5052886E+02  0.7816164E-02  0.1300439E+00
        -11   -1    0    0    0    0  0.00000000000E+00  0.00000000000E+00  0.45593999997E+02  0.45594000000E+02  0.51100000000E-03 0. -1.
         11   -1    0    0    0    0 -0.00000000000E+00 -0.00000000000E+00 -0.45593999997E+02  0.45594000000E+02  0.51100000000E-03 0.  1.
    9900012    2    1    2    0    0  0.13998004791E+02 -0.25909404911E+02  0.28034347716E+02  0.50528855237E+02  0.29999985980E+02 0.  0.
        -12    1    1    2    0    0 -0.13998004791E+02  0.25909404911E+02 -0.28034347716E+02  0.40659144763E+02  0.00000000000E+00 0.  1.
         11    1    3    3    0    0  0.17894785474E+01  0.19314620377E+01  0.12105173901E+02  0.12388220796E+02  0.51100000000E-03 0. -1.
        -11    1    3    3    0    0  0.23239488302E+01 -0.23226974194E+02  0.13498079555E+02  0.26964629060E+02  0.51100000000E-03 0.  1.
         12    1    3    3    0    0  0.98845774131E+01 -0.46138927546E+01  0.24310942600E+01  0.11176005382E+02  0.00000000000E+00 0. -1.
</event>
<event>
 7    1  0.9406864E-013  0.5052900E+02  0.7816164E-02  0.1300438E+00
        -11   -1    0    0    0    0  0.00000000000E+00  0.00000000000E+00  0.45593999997E+02  0.45594000000E+02  0.51100000000E-03 0.  1.
         11   -1    0    0    0    0 -0.00000000000E+00 -0.00000000000E+00 -0.45593999997E+02  0.45594000000E+02  0.51100000000E-03 0. -1.
    9900012    2    1    2    0    0 -0.47289665426E+00  0.40237369816E+02 -0.58210461456E+01  0.50529001744E+02  0.30000431299E+02 0.  0.
        -12    1    1    2    0    0  0.47289665426E+00 -0.40237369816E+02  0.58210461456E+01  0.40658998256E+02  0.00000000000E+00 0.  1.
         11    1    3    3    0    0  0.62376322202E+01  0.37721598649E+02 -0.43348889166E+01  0.38478803549E+02  0.51100000000E-03 0. -1.
        -11    1    3    3    0    0  0.46160350231E+00 -0.12666142939E+01  0.26311051073E+01  0.29563666737E+01  0.51100000000E-03 0.  1.
         12    1    3    3    0    0 -0.71721323768E+01  0.37823854603E+01 -0.41172623363E+01  0.90938315218E+01  0.00000000000E+00 0. -1.
</event>
<event>
 7    1  0.9406864E-013  0.5052890E+02  0.7816164E-02  0.1300439E+00
        -11   -1    0    0    0    0  0.00000000000E+00  0.00000000000E+00  0.45593999997E+02  0.45594000000E+02  0.51100000000E-03 0. -1.
         11   -1    0    0    0    0 -0.00000000000E+00 -0.00000000000E+00 -0.45593999997E+02  0.45594000000E+02  0.51100000000E-03 0.  1.
    9900012    2    1    2    0    0 -0.28266223575E+02  0.19822972667E+02  0.21476326279E+02  0.50528902236E+02  0.30000128836E+02 0.  0.
        -12    1    1    2    0    0  0.28266223575E+02 -0.19822972667E+02 -0.21476326279E+02  0.40659097764E+02  0.00000000000E+00 0.  1.
         11    1    3    3    0    0 -0.24949816474E+02  0.13703672487E+02  0.73662422791E+01  0.29403154717E+02  0.51100000000E-03 0. -1.
        -11    1    3    3    0    0  0.39910446974E+01  0.72588935519E+01  0.82335059507E+01  0.11679494590E+02  0.51100000000E-03 0.  1.
        -12    1    3    3    0    0 -0.73074517982E+01 -0.11395933713E+01  0.58765780492E+01  0.94462529292E+01  0.00000000000E+00 0.  1.
</event>
<event>
 7    1  0.9406864E-013  0.5052886E+02  0.7816164E-02  0.1300439E+00
        -11   -1    0    0    0    0  0.00000000000E+00  0.00000000000E+00  0.45593999997E+02  0.45594000000E+02  0.51100000000E-03 0. -1.
         11   -1    0    0    0    0 -0.00000000000E+00 -0.00000000000E+00 -0.45593999997E+02  0.45594000000E+02  0.51100000000E-03 0.  1.
    9900012    2    1    2    0    0  0.13207273486E+02  0.31135951781E+02 -0.22567363091E+02  0.50528862735E+02  0.30000008770E+02 0.  0.
        -12    1    1    2    0    0 -0.13207273486E+02 -0.31135951781E+02  0.22567363091E+02  0.40659137265E+02  0.00000000000E+00 0.  1.
         11    1    3    3    0    0  0.39320827511E+01  0.23554965385E+02 -0.27883597653E+02  0.36712296134E+02  0.51100000000E-03 0.  1.
        -11    1    3    3    0    0  0.59733294235E+01  0.53503072968E+01  0.56624417880E+01  0.98168070081E+01  0.51100000000E-03 0. -1.
         12    1    3    3    0    0  0.33018613111E+01  0.22306790987E+01 -0.34620722600E+00  0.39997595930E+01  0.00000000000E+00 0. -1.
</event>
<event>
 7    1  0.9406864E-013  0.5052886E+02  0.7816164E-02  0.1300439E+00
        -11   -1    0    0    0    0  0.00000000000E+00  0.00000000000E+00  0.45593999997E+02  0.45594000000E+02  0.51100000000E-03 0. -1.
         11   -1    0    0    0    0 -0.00000000000E+00 -0.00000000000E+00 -0.45593999997E+02  0.45594000000E+02  0.51100000000E-03 0.  1.
    9900012    2    1    2    0    0 -0.47706674295E+00  0.18916603444E+02  0.35987501043E+02  0.50528859456E+02  0.29999998801E+02 0.  0.
        -12    1    1    2    0    0  0.47706674295E+00 -0.18916603444E+02 -0.35987501043E+02  0.40659140544E+02  0.00000000000E+00 0.  1.
         11    1    3    3    0    0  0.46021873659E+01  0.55171756577E+01  0.24129913256E+02  0.25176816117E+02  0.51100000000E-03 0. -1.
        -11    1    3    3    0    0 -0.10565619564E+02  0.38440965909E+01  0.45405993377E+01  0.12125445888E+02  0.51100000000E-03 0.  1.
        -12    1    3    3    0    0  0.54863654554E+01  0.95553311950E+01  0.73169884486E+01  0.13226597450E+02  0.00000000000E+00 0.  1.
</event>
<event>
 7    1  0.9406864E-013  0.5052887E+02  0.7816164E-02  0.1300439E+00
        -11   -1    0    0    0    0  0.00000000000E+00  0.00000000000E+00  0.45593999997E+02  0.45594000000E+02  0.51100000000E-03 0.  1.
         11   -1    0    0    0    0 -0.00000000000E+00 -0.00000000000E+00 -0.45593999997E+02  0.45594000000E+02  0.51100000000E-03 0. -1.
    9900012    2    1    2    0    0 -0.37454508132E+02  0.32990503153E+01  0.15473888524E+02  0.50528866481E+02  0.30000020157E+02 0.  0.
        -12    1    1    2    0    0  0.37454508132E+02 -0.32990503153E+01 -0.15473888524E+02  0.40659133519E+02  0.00000000000E+00 0.  1.
         11    1    3    3    0    0 -0.10614692531E+02  0.93197782362E+01 -0.48651860413E+01  0.14939879497E+02  0.51100000000E-03 0. -1.
        -11    1    3    3    0    0 -0.24947474944E+02 -0.25790970081E+01  0.18906380254E+02  0.31408270600E+02  0.51100000000E-03 0.  1.
        -12    1    3    3    0    0 -0.18923406572E+01 -0.34416309128E+01  0.14326943112E+01  0.41807163850E+01  0.00000000000E+00 0.  1.
</event>
<event>
 7    1  0.9406864E-013  0.5052885E+02  0.7816164E-02  0.1300439E+00
        -11   -1    0    0    0    0  0.00000000000E+00  0.00000000000E+00  0.45593999997E+02  0.45594000000E+02  0.51100000000E-03 0.  1.
         11   -1    0    0    0    0 -0.00000000000E+00 -0.00000000000E+00 -0.45593999997E+02  0.45594000000E+02  0.51100000000E-03 0. -1.
    9900012    2    1    2    0    0 -0.17424558174E+02 -0.10117228560E+02 -0.35315621451E+02  0.50528847774E+02  0.29999963293E+02 0.  0.
        -12    1    1    2    0    0  0.17424558174E+02  0.10117228560E+02  0.35315621451E+02  0.40659152226E+02  0.00000000000E+00 0.  1.
         11    1    3    3    0    0 -0.13435490669E+02 -0.13543214740E+02 -0.91659332749E+01  0.21164720836E+02  0.51100000000E-03 0. -1.
        -11    1    3    3    0    0 -0.92101894704E+00  0.74777204871E+01 -0.10598734491E+02  0.13003759174E+02  0.51100000000E-03 0.  1.
         12    1    3    3    0    0 -0.30680485583E+01 -0.40517343070E+01 -0.15550953685E+02  0.16360367764E+02  0.00000000000E+00 0. -1.
</event>
<event>
 7    1  0.9406864E-013  0.5052886E+02  0.7816164E-02  0.1300439E+00
        -11   -1    0    0    0    0  0.00000000000E+00  0.00000000000E+00  0.45593999997E+02  0.45594000000E+02  0.51100000000E-03 0. -1.
         11   -1    0    0    0    0 -0.00000000000E+00 -0.00000000000E+00 -0.45593999997E+02  0.45594000000E+02  0.51100000000E-03 0.  1.
    9900012    2    1    2    0    0  0.29086414343E+02 -0.24105285350E+02  0.15036014095E+02  0.50528855874E+02  0.29999987915E+02 0.  0.
        -12    1    1    2    0    0 -0.29086414343E+02  0.24105285350E+02 -0.15036014095E+02  0.40659144126E+02  0.00000000000E+00 0.  1.
         11    1    3    3    0    0  0.59152456028E+01  0.40327371741E+01 -0.40209245315E+01  0.82110251495E+01  0.51100000000E-03 0. -1.
        -11    1    3    3    0    0  0.77721056529E-01 -0.49460178683E+01  0.36286904878E+01  0.61348617126E+01  0.51100000000E-03 0.  1.
         12    1    3    3    0    0  0.23093447684E+02 -0.23192004656E+02  0.15428248139E+02  0.36182969012E+02  0.00000000000E+00 0. -1.
</event>
<event>
 7    1  0.9406864E-013  0.5052887E+02  0.7816164E-02  0.1300439E+00
        -11   -1    0    0    0    0  0.00000000000E+00  0.00000000000E+00  0.45593999997E+02  0.45594000000E+02  0.51100000000E-03 0.  1.
         11   -1    0    0    0    0 -0.00000000000E+00 -0.00000000000E+00 -0.45593999997E+02  0.45594000000E+02  0.51100000000E-03 0. -1.
    9900012    2    1    2    0    0  0.31661992209E+02  0.17269805766E+02 -0.18773305322E+02  0.50528868990E+02  0.30000027781E+02 0.  0.
        -12    1    1    2    0    0 -0.31661992209E+02 -0.17269805766E+02  0.18773305322E+02  0.40659131010E+02  0.00000000000E+00 0.  1.
         11    1    3    3    0    0  0.11737437078E+02  0.82262857910E+01 -0.34602740330E+01  0.14744921286E+02  0.51100000000E-03 0. -1.
        -11    1    3    3    0    0  0.12785467346E+02 -0.69122148066E+01 -0.44367362376E+01  0.15196431077E+02  0.51100000000E-03 0.  1.
        -12    1    3    3    0    0  0.71390877846E+01  0.15955734781E+02 -0.10876295051E+02  0.20587516627E+02  0.00000000000E+00 0.  1.
</event>
<event>
 7    1  0.9406864E-013  0.5052885E+02  0.7816164E-02  0.1300439E+00
        -11   -1    0    0    0    0  0.00000000000E+00  0.00000000000E+00  0.45593999997E+02  0.45594000000E+02  0.51100000000E-03 0.  1.
         11   -1    0    0    0    0 -0.00000000000E+00 -0.00000000000E+00 -0.45593999997E+02  0.45594000000E+02  0.51100000000E-03 0. -1.
    9900012    2    1    2    0    0  0.30776642767E+02  0.22467134209E+02 -0.14184229758E+02  0.50528853016E+02  0.29999979229E+02 0.  0.
        -12    1    1    2    0    0 -0.30776642767E+02 -0.22467134209E+02  0.14184229758E+02  0.40659146984E+02  0.00000000000E+00 0.  1.
         11    1    3    3    0    0  0.65857684568E+01  0.41505677725E+01 -0.72893899235E+01  0.10664650239E+02  0.51100000000E-03 0. -1.
        -11    1    3    3    0    0 -0.51689675003E+01  0.15504918771E+01 -0.16980986777E+01  0.56573659472E+01  0.51100000000E-03 0.  1.
        -12    1    3    3    0    0  0.29359841811E+02  0.16766074560E+02 -0.51967411572E+01  0.34206836830E+02  0.00000000000E+00 0.  1.
</event>
<event>
 7    1  0.9406864E-013  0.5052888E+02  0.7816164E-02  0.1300439E+00
        -11   -1    0    0    0    0  0.00000000000E+00  0.00000000000E+00  0.45593999997E+02  0.45594000000E+02  0.51100000000E-03 0. -1.
         11   -1    0    0    0    0 -0.00000000000E+00 -0.00000000000E+00 -0.45593999997E+02  0.45594000000E+02  0.51100000000E-03 0.  1.
    9900012    2    1    2    0    0  0.26425077438E+02  0.30792149579E+02 -0.25927673892E+01  0.50528884957E+02  0.30000076317E+02 0.  0.
        -12    1    1    2    0    0 -0.26425077438E+02 -0.30792149579E+02  0.25927673892E+01  0.40659115043E+02  0.00000000000E+00 0.  1.
         11    1    3    3    0    0  0.63848050604E+01  0.24203506892E+02 -0.41010564422E+01  0.25365215271E+02  0.51100000000E-03 0. -1.
        -11    1    3    3    0    0  0.14408221756E+02 -0.16587784911E+00 -0.37863534831E+01  0.14898350331E+02  0.51100000000E-03 0.  1.
         12    1    3    3    0    0  0.56320506217E+01  0.67545205356E+01  0.52946425361E+01  0.10265319355E+02  0.00000000000E+00 0. -1.
</event>
<event>
 7    1  0.9406864E-013  0.5052885E+02  0.7816164E-02  0.1300439E+00
        -11   -1    0    0    0    0  0.00000000000E+00  0.00000000000E+00  0.45593999997E+02  0.45594000000E+02  0.51100000000E-03 0.  1.
         11   -1    0    0    0    0 -0.00000000000E+00 -0.00000000000E+00 -0.45593999997E+02  0.45594000000E+02  0.51100000000E-03 0. -1.
    9900012    2    1    2    0    0 -0.21563545128E+02 -0.97607276435E+01 -0.33059159519E+02  0.50528852066E+02  0.29999976341E+02 0.  0.
        -12    1    1    2    0    0  0.21563545128E+02  0.97607276435E+01  0.33059159519E+02  0.40659147934E+02  0.00000000000E+00 0.  1.
         11    1    3    3    0    0 -0.67098070041E+01 -0.10405237520E+02 -0.12646371370E+02  0.17698056022E+02  0.51100000000E-03 0. -1.
        -11    1    3    3    0    0 -0.10351982060E+02  0.94632686689E+01 -0.57956541001E+01  0.15175855600E+02  0.51100000000E-03 0.  1.
        -12    1    3    3    0    0 -0.45017560636E+01 -0.88187587929E+01 -0.14617134049E+02  0.17654940444E+02  0.00000000000E+00 0.  1.
</event>
<event>
 7    1  0.9406864E-013  0.5052886E+02  0.7816164E-02  0.1300439E+00
        -11   -1    0    0    0    0  0.00000000000E+00  0.00000000000E+00  0.45593999997E+02  0.45594000000E+02  0.51100000000E-03 0.  1.
         11   -1    0    0    0    0 -0.00000000000E+00 -0.00000000000E+00 -0.45593999997E+02  0.45594000000E+02  0.51100000000E-03 0. -1.
    9900012    2    1    2    0    0 -0.98637800566E+01 -0.18550485621E+02 -0.34810212607E+02  0.50528861107E+02  0.30000003822E+02 0.  0.
        -12    1    1    2    0    0  0.98637800566E+01  0.18550485621E+02  0.34810212607E+02  0.40659138893E+02  0.00000000000E+00 0.  1.
         11    1    3    3    0    0  0.17727990725E+01 -0.20744745664E+02 -0.30224214721E+02  0.36701368435E+02  0.51100000000E-03 0. -1.
        -11    1    3    3    0    0 -0.75184287360E+01  0.78866424766E+00 -0.75354315688E-01  0.75600555876E+01  0.51100000000E-03 0.  1.
         12    1    3    3    0    0 -0.41181503931E+01  0.14055957955E+01 -0.45106435699E+01  0.62674370850E+01  0.00000000000E+00 0. -1.
</event>
<event>
 7    1  0.9406864E-013  0.5052886E+02  0.7816164E-02  0.1300439E+00
        -11   -1    0    0    0    0  0.00000000000E+00  0.00000000000E+00  0.45593999997E+02  0.45594000000E+02  0.51100000000E-03 0. -1.
         11   -1    0    0    0    0 -0.00000000000E+00 -0.00000000000E+00 -0.45593999997E+02  0.45594000000E+02  0.51100000000E-03 0.  1.
    9900012    2    1    2    0    0  0.11140149452E+02 -0.18491760664E+02  0.34454570630E+02  0.50528861057E+02  0.30000003669E+02 0.  0.
        -12    1    1    2    0    0 -0.11140149452E+02  0.18491760664E+02 -0.34454570630E+02  0.40659138943E+02  0.00000000000E+00 0.  1.
         11    1    3    3    0    0  0.10623506153E+02 -0.12816725766E+02  0.12703501826E+02  0.20940542048E+02  0.51100000000E-03 0. -1.
        -11    1    3    3    0    0 -0.81577790747E+01  0.20565840800E+01  0.98812391489E+01  0.12977587792E+02  0.51100000000E-03 0.  1.
        -12    1    3    3    0    0  0.86744223734E+01 -0.77316189779E+01  0.11869829656E+02  0.16610731218E+02  0.00000000000E+00 0.  1.
</event>
<event>
 7    1  0.9406864E-013  0.5052887E+02  0.7816164E-02  0.1300439E+00
        -11   -1    0    0    0    0  0.00000000000E+00  0.00000000000E+00  0.45593999997E+02  0.45594000000E+02  0.51100000000E-03 0.  1.
         11   -1    0    0    0    0 -0.00000000000E+00 -0.00000000000E+00 -0.45593999997E+02  0.45594000000E+02  0.51100000000E-03 0. -1.
    9900012    2    1    2    0    0  0.37604509676E+02 -0.15188318458E+02  0.28950017707E+01  0.50528865715E+02  0.30000017827E+02 0.  0.
        -12    1    1    2    0    0 -0.37604509676E+02  0.15188318458E+02 -0.28950017707E+01  0.40659134285E+02  0.00000000000E+00 0.  1.
         11    1    3    3    0    0  0.22967957029E+02 -0.97981734342E+01  0.82278863650E+01  0.26291241260E+02  0.51100000000E-03 0. -1.
        -11    1    3    3    0    0  0.37899427060E+01  0.41001685490E+01 -0.78236188825E+01  0.96116627347E+01  0.51100000000E-03 0.  1.
        -12    1    3    3    0    0  0.10846609942E+02 -0.94903135727E+01  0.24907342883E+01  0.14625961720E+02  0.00000000000E+00 0.  1.
</event>
<event>
 7    1  0.9406864E-013  0.5052885E+02  0.7816164E-02  0.1300439E+00
        -11   -1    0    0    0    0  0.00000000000E+00  0.00000000000E+00  0.45593999997E+02  0.45594000000E+02  0.51100000000E-03 0.  1.
         11   -1    0    0    0    0 -0.00000000000E+00 -0.00000000000E+00 -0.45593999997E+02  0.45594000000E+02  0.51100000000E-03 0. -1.
    9900012    2    1    2    0    0  0.49857555810E+01 -0.38758303250E+02 -0.11229544392E+02  0.50528849778E+02  0.29999969386E+02 0.  0.
        -12    1    1    2    0    0 -0.49857555810E+01  0.38758303250E+02  0.11229544392E+02  0.40659150222E+02  0.00000000000E+00 0.  1.
         11    1    3    3    0    0  0.37925790149E+01 -0.18455301054E+02  0.62018631364E+01  0.19835445526E+02  0.51100000000E-03 0. -1.
        -11    1    3    3    0    0 -0.32190672329E+01 -0.20195078384E+02 -0.12059777537E+02  0.23741141912E+02  0.51100000000E-03 0.  1.
         12    1    3    3    0    0  0.44122437990E+01 -0.10792381202E+00 -0.53716299912E+01  0.69522623407E+01  0.00000000000E+00 0. -1.
</event>
<event>
 7    1  0.9406864E-013  0.5052894E+02  0.7816164E-02  0.1300439E+00
        -11   -1    0    0    0    0  0.00000000000E+00  0.00000000000E+00  0.45593999997E+02  0.45594000000E+02  0.51100000000E-03 0. -1.
         11   -1    0    0    0    0 -0.00000000000E+00 -0.00000000000E+00 -0.45593999997E+02  0.45594000000E+02  0.51100000000E-03 0.  1.
    9900012    2    1    2    0    0  0.14851430845E+02 -0.36906467893E+02  0.83968392448E+01  0.50528938528E+02  0.30000239150E+02 0.  0.
        -12    1    1    2    0    0 -0.14851430845E+02  0.36906467893E+02 -0.83968392448E+01  0.40659061472E+02  0.00000000000E+00 0.  1.
         11    1    3    3    0    0  0.88239479440E+01 -0.61497542072E+01  0.13090629168E+02  0.16942435079E+02  0.51100000000E-03 0. -1.
        -11    1    3    3    0    0 -0.22635636604E+01 -0.17174944739E+02 -0.30424499624E+01  0.17588602823E+02  0.51100000000E-03 0.  1.
         12    1    3    3    0    0  0.82910465613E+01 -0.13581768946E+02 -0.16513399603E+01  0.15997900627E+02  0.00000000000E+00 0. -1.
</event>
<event>
 7    1  0.9406864E-013  0.5052887E+02  0.7816164E-02  0.1300439E+00
        -11   -1    0    0    0    0  0.00000000000E+00  0.00000000000E+00  0.45593999997E+02  0.45594000000E+02  0.51100000000E-03 0.  1.
         11   -1    0    0    0    0 -0.00000000000E+00 -0.00000000000E+00 -0.45593999997E+02  0.45594000000E+02  0.51100000000E-03 0. -1.
    9900012    2    1    2    0    0 -0.12652943309E+02  0.26775847427E+02 -0.27858967796E+02  0.50528867367E+02  0.30000022850E+02 0.  0.
        -12    1    1    2    0    0  0.12652943309E+02 -0.26775847427E+02  0.27858967796E+02  0.40659132633E+02  0.00000000000E+00 0.  1.
         11    1    3    3    0    0 -0.58958359480E+01  0.34966972349E+01 -0.17711825211E+01  0.70798913031E+01  0.51100000000E-03 0. -1.
        -11    1    3    3    0    0  0.73057214886E+01  0.15016886653E+02 -0.19962036186E+02  0.26026204874E+02  0.51100000000E-03 0.  1.
        -12    1    3    3    0    0 -0.14062828850E+02  0.82622635384E+01 -0.61257490892E+01  0.17422771190E+02  0.00000000000E+00 0.  1.
</event>
<event>
 7    1  0.9406864E-013  0.5052885E+02  0.7816164E-02  0.1300439E+00
        -11   -1    0    0    0    0  0.00000000000E+00  0.00000000000E+00  0.45593999997E+02  0.45594000000E+02  0.51100000000E-03 0.  1.
         11   -1    0    0    0    0 -0.00000000000E+00 -0.00000000000E+00 -0.45593999997E+02  0.45594000000E+02  0.51100000000E-03 0. -1.
    9900012    2    1    2    0    0  0.32481672403E+02 -0.18762531995E+02 -0.15686767793E+02  0.50528851795E+02  0.29999975518E+02 0.  0.
        -12    1    1    2    0    0 -0.32481672403E+02  0.18762531995E+02  0.15686767793E+02  0.40659148205E+02  0.00000000000E+00 0.  1.
         11    1    3    3    0    0  0.28906123189E+02 -0.16707363830E+01 -0.14192807448E+02  0.32245791995E+02  0.51100000000E-03 0. -1.
        -11    1    3    3    0    0  0.36507648847E+01 -0.98697226770E+01  0.11630633965E+01  0.10587361649E+02  0.51100000000E-03 0.  1.
         12    1    3    3    0    0 -0.75215671014E-01 -0.72220729347E+01 -0.26570237413E+01  0.76956981511E+01  0.00000000000E+00 0. -1.
</event>
<event>
 7    1  0.9406864E-013  0.5052886E+02  0.7816164E-02  0.1300439E+00
        -11   -1    0    0    0    0  0.00000000000E+00  0.00000000000E+00  0.45593999997E+02  0.45594000000E+02  0.51100000000E-03 0.  1.
         11   -1    0    0    0    0 -0.00000000000E+00 -0.00000000000E+00 -0.45593999997E+02  0.45594000000E+02  0.51100000000E-03 0. -1.
    9900012    2    1    2    0    0 -0.97790562015E+01  0.18176729612E+02 -0.35030586904E+02  0.50528862547E+02  0.30000008198E+02 0.  0.
        -12    1    1    2    0    0  0.97790562015E+01 -0.18176729612E+02  0.35030586904E+02  0.40659137453E+02  0.00000000000E+00 0.  1.
         11    1    3    3    0    0  0.40069229035E+01  0.57154704175E+01 -0.33175650587E+01  0.77284067846E+01  0.51100000000E-03 0. -1.
        -11    1    3    3    0    0 -0.97322173083E+01 -0.44407088873E+01 -0.16703361233E+02  0.19835277308E+02  0.51100000000E-03 0.  1.
        -12    1    3    3    0    0 -0.40537617967E+01  0.16901968082E+02 -0.15009660613E+02  0.22965178454E+02  0.00000000000E+00 0.  1.
</event>
<event>
 7    1  0.9406864E-013  0.5052886E+02  0.7816164E-02  0.1300439E+00
        -11   -1    0    0    0    0  0.00000000000E+00  0.00000000000E+00  0.45593999997E+02  0.45594000000E+02  0.51100000000E-03 0.  1.
         11   -1    0    0    0    0 -0.00000000000E+00 -0.00000000000E+00 -0.45593999997E+02  0.45594000000E+02  0.51100000000E-03 0. -1.
    9900012    2    1    2    0    0 -0.31614429605E+02  0.18148518371E+02 -0.18009028176E+02  0.50528856204E+02  0.29999988919E+02 0.  0.
        -12    1    1    2    0    0  0.31614429605E+02 -0.18148518371E+02  0.18009028176E+02  0.40659143796E+02  0.00000000000E+00 0.  1.
         11    1    3    3    0    0 -0.10143226022E+02 -0.24965847620E+00 -0.60127755141E-01  0.10146476191E+02  0.51100000000E-03 0. -1.
        -11    1    3    3    0    0 -0.11065649249E+01 -0.56428017206E-01 -0.12269112729E+02  0.12319042068E+02  0.51100000000E-03 0.  1.
        -12    1    3    3    0    0 -0.20364638658E+02  0.18454604865E+02 -0.56797876921E+01  0.28063337945E+02  0.00000000000E+00 0.  1.
</event>
<event>
 7    1  0.9406864E-013  0.5052884E+02  0.7816164E-02  0.1300439E+00
        -11   -1    0    0    0    0  0.00000000000E+00  0.00000000000E+00  0.45593999997E+02  0.45594000000E+02  0.51100000000E-03 0. -1.
         11   -1    0    0    0    0 -0.00000000000E+00 -0.00000000000E+00 -0.45593999997E+02  0.45594000000E+02  0.51100000000E-03 0.  1.
    9900012    2    1    2    0    0 -0.18190815595E+02 -0.10737815215E+02  0.34741343408E+02  0.50528838801E+02  0.29999936019E+02 0.  0.
        -12    1    1    2    0    0  0.18190815595E+02  0.10737815215E+02 -0.34741343408E+02  0.40659161199E+02  0.00000000000E+00 0.  1.
         11    1    3    3    0    0  0.15204253281E+01  0.58070336101E+01  0.10045819463E+02  0.11702641645E+02  0.51100000000E-03 0. -1.
        -11    1    3    3    0    0 -0.19801851035E+02 -0.16986341863E+02  0.17048035551E+02  0.31165439684E+02  0.51100000000E-03 0.  1.
        -12    1    3    3    0    0  0.90610112123E-01  0.44149303756E+00  0.76474883944E+01  0.76607574715E+01  0.00000000000E+00 0.  1.
</event>
<event>
 7    1  0.9406864E-013  0.5052887E+02  0.7816164E-02  0.1300439E+00
        -11   -1    0    0    0    0  0.00000000000E+00  0.00000000000E+00  0.45593999997E+02  0.45594000000E+02  0.51100000000E-03 0.  1.
         11   -1    0    0    0    0 -0.00000000000E+00 -0.00000000000E+00 -0.45593999997E+02  0.45594000000E+02  0.51100000000E-03 0. -1.
    9900012    2    1    2    0    0 -0.13349209239E+01  0.33665446691E+01 -0.40497516891E+02  0.50528874195E+02  0.30000043604E+02 0.  0.
        -12    1    1    2    0    0  0.13349209239E+01 -0.33665446691E+01  0.40497516891E+02  0.40659125805E+02  0.00000000000E+00 0.  1.
         11    1    3    3    0    0  0.54315577900E+00 -0.24313540962E+01 -0.13638115518E+02  0.13863790826E+02  0.51100000000E-03 0. -1.
        -11    1    3    3    0    0 -0.91451186560E+01  0.12037945638E+02 -0.18961072729E+02  0.24250105355E+02  0.51100000000E-03 0.  1.
        -12    1    3    3    0    0  0.72670419531E+01 -0.62400468726E+01 -0.78983286442E+01  0.12414978014E+02  0.00000000000E+00 0.  1.
</event>
<event>
 7    1  0.9406864E-013  0.5052885E+02  0.7816164E-02  0.1300439E+00
        -11   -1    0    0    0    0  0.00000000000E+00  0.00000000000E+00  0.45593999997E+02  0.45594000000E+02  0.51100000000E-03 0. -1.
         11   -1    0    0    0    0 -0.00000000000E+00 -0.00000000000E+00 -0.45593999997E+02  0.45594000000E+02  0.51100000000E-03 0.  1.
    9900012    2    1    2    0    0 -0.13820067638E+01 -0.27840756391E+02  0.29599811729E+02  0.50528849572E+02  0.29999968761E+02 0.  0.
        -12    1    1    2    0    0  0.13820067638E+01  0.27840756391E+02 -0.29599811729E+02  0.40659150428E+02  0.00000000000E+00 0.  1.
         11    1    3    3    0    0 -0.13306331550E+01 -0.11115153776E+02  0.31020695230E+02  0.32978792592E+02  0.51100000000E-03 0. -1.
        -11    1    3    3    0    0  0.18437954796E+01 -0.53003632655E+01 -0.19911503999E+01  0.59546715017E+01  0.51100000000E-03 0.  1.
         12    1    3    3    0    0 -0.18951690884E+01 -0.11425239349E+02  0.57026689903E+00  0.11595385478E+02  0.00000000000E+00 0. -1.
</event>
<event>
 7    1  0.9406864E-013  0.5052886E+02  0.7816164E-02  0.1300439E+00
        -11   -1    0    0    0    0  0.00000000000E+00  0.00000000000E+00  0.45593999997E+02  0.45594000000E+02  0.51100000000E-03 0.  1.
         11   -1    0    0    0    0 -0.00000000000E+00 -0.00000000000E+00 -0.45593999997E+02  0.45594000000E+02  0.51100000000E-03 0. -1.
    9900012    2    1    2    0    0  0.27461756620E+02 -0.44336389279E+01 -0.29654016106E+02  0.50528857092E+02  0.29999991618E+02 0.  0.
        -12    1    1    2    0    0 -0.27461756620E+02  0.44336389279E+01  0.29654016106E+02  0.40659142908E+02  0.00000000000E+00 0.  1.
         11    1    3    3    0    0  0.18779697435E+02 -0.55351100191E+01 -0.12355350566E+02  0.23151007894E+02  0.51100000000E-03 0. -1.
        -11    1    3    3    0    0 -0.18532878007E+01 -0.28219277632E+01  0.27751968010E+01  0.43703168670E+01  0.51100000000E-03 0.  1.
        -12    1    3    3    0    0  0.10535346986E+02  0.39233988544E+01 -0.20073862341E+02  0.23007532331E+02  0.00000000000E+00 0.  1.
</event>
<event>
 7    1  0.9406864E-013  0.5052886E+02  0.7816164E-02  0.1300439E+00
        -11   -1    0    0    0    0  0.00000000000E+00  0.00000000000E+00  0.45593999997E+02  0.45594000000E+02  0.51100000000E-03 0. -1.
         11   -1    0    0    0    0 -0.00000000000E+00 -0.00000000000E+00 -0.45593999997E+02  0.45594000000E+02  0.51100000000E-03 0.  1.
    9900012    2    1    2    0    0 -0.22895693423E+02 -0.27401377589E+02  0.19445246950E+02  0.50528857116E+02  0.29999991689E+02 0.  0.
        -12    1    1    2    0    0  0.22895693423E+02  0.27401377589E+02 -0.19445246950E+02  0.40659142884E+02  0.00000000000E+00 0.  1.
         11    1    3    3    0    0 -0.11566262187E+02 -0.23183920627E+02  0.27117610610E+01  0.26050455753E+02  0.51100000000E-03 0. -1.
        -11    1    3    3    0    0 -0.11427979149E+02  0.13522364934E+01  0.76353492432E+01  0.13810351527E+02  0.51100000000E-03 0.  1.
        -12    1    3    3    0    0  0.98547912810E-01 -0.55696934559E+01  0.90981366459E+01  0.10668049836E+02  0.00000000000E+00 0.  1.
</event>
<event>
 7    1  0.9406864E-013  0.5052886E+02  0.7816164E-02  0.1300439E+00
        -11   -1    0    0    0    0  0.00000000000E+00  0.00000000000E+00  0.45593999997E+02  0.45594000000E+02  0.51100000000E-03 0.  1.
         11   -1    0    0    0    0 -0.00000000000E+00 -0.00000000000E+00 -0.45593999997E+02  0.45594000000E+02  0.51100000000E-03 0. -1.
    9900012    2    1    2    0    0 -0.11044202616E+02  0.86879642548E+01 -0.38153774692E+02  0.50528860099E+02  0.30000000756E+02 0.  0.
        -12    1    1    2    0    0  0.11044202616E+02 -0.86879642548E+01  0.38153774692E+02  0.40659139901E+02  0.00000000000E+00 0.  1.
         11    1    3    3    0    0 -0.45730160738E+01  0.10928531561E+02 -0.28642567191E+02  0.30995837360E+02  0.51100000000E-03 0. -1.
        -11    1    3    3    0    0  0.35286672897E+01 -0.48293753033E+01 -0.82705199507E+00  0.60380770055E+01  0.51100000000E-03 0.  1.
         12    1    3    3    0    0 -0.99998538316E+01  0.25888079969E+01 -0.86841555057E+01  0.13494945733E+02  0.00000000000E+00 0. -1.
</event>
<event>
 7    1  0.9406864E-013  0.5052885E+02  0.7816164E-02  0.1300439E+00
        -11   -1    0    0    0    0  0.00000000000E+00  0.00000000000E+00  0.45593999997E+02  0.45594000000E+02  0.51100000000E-03 0. -1.
         11   -1    0    0    0    0 -0.00000000000E+00 -0.00000000000E+00 -0.45593999997E+02  0.45594000000E+02  0.51100000000E-03 0.  1.
    9900012    2    1    2    0    0 -0.35441124885E+02 -0.17983049301E+02  0.85850269583E+01  0.50528854864E+02  0.29999984846E+02 0.  0.
        -12    1    1    2    0    0  0.35441124885E+02  0.17983049301E+02 -0.85850269583E+01  0.40659145136E+02  0.00000000000E+00 0.  1.
         11    1    3    3    0    0 -0.56274221674E+01  0.60646600634E+01  0.15334724383E+01  0.84142450591E+01  0.51100000000E-03 0. -1.
        -11    1    3    3    0    0 -0.18844815300E+02 -0.20008843539E+02  0.11243602144E+02  0.29696792300E+02  0.51100000000E-03 0.  1.
        -12    1    3    3    0    0 -0.10968887417E+02 -0.40388658259E+01 -0.41920476236E+01  0.12417817506E+02  0.00000000000E+00 0.  1.
</event>
<event>
 7    1  0.9406864E-013  0.5052884E+02  0.7816164E-02  0.1300439E+00
        -11   -1    0    0    0    0  0.00000000000E+00  0.00000000000E+00  0.45593999997E+02  0.45594000000E+02  0.51100000000E-03 0.  1.
         11   -1    0    0    0    0 -0.00000000000E+00 -0.00000000000E+00 -0.45593999997E+02  0.45594000000E+02  0.51100000000E-03 0. -1.
    9900012    2    1    2    0    0 -0.35731398251E+02  0.12267829023E+02 -0.15031128160E+02  0.50528840347E+02  0.29999940718E+02 0.  0.
        -12    1    1    2    0    0  0.35731398251E+02 -0.12267829023E+02  0.15031128160E+02  0.40659159653E+02  0.00000000000E+00 0.  1.
         11    1    3    3    0    0 -0.17072382303E+02  0.20751962372E+01  0.41393176011E+01  0.17689166950E+02  0.51100000000E-03 0. -1.
        -11    1    3    3    0    0 -0.15029993657E+01  0.88352087019E+01 -0.96597320265E+01  0.13176886695E+02  0.51100000000E-03 0.  1.
         12    1    3    3    0    0 -0.17156016583E+02  0.13574240839E+01 -0.95107137343E+01  0.19662786702E+02  0.00000000000E+00 0. -1.
</event>
<event>
 7    1  0.9406864E-013  0.5052885E+02  0.7816164E-02  0.1300439E+00
        -11   -1    0    0    0    0  0.00000000000E+00  0.00000000000E+00  0.45593999997E+02  0.45594000000E+02  0.51100000000E-03 0.  1.
         11   -1    0    0    0    0 -0.00000000000E+00 -0.00000000000E+00 -0.45593999997E+02  0.45594000000E+02  0.51100000000E-03 0. -1.
    9900012    2    1    2    0    0  0.23336307868E+02  0.10949841311E+01 -0.33277381753E+02  0.50528851073E+02  0.29999973321E+02 0.  0.
        -12    1    1    2    0    0 -0.23336307868E+02 -0.10949841311E+01  0.33277381753E+02  0.40659148927E+02  0.00000000000E+00 0.  1.
         11    1    3    3    0    0  0.24142009041E+02 -0.84172538991E+00 -0.24796711887E+02  0.34618232521E+02  0.51100000000E-03 0. -1.
        -11    1    3    3    0    0 -0.57350449846E+01  0.45981101634E+01 -0.69196004395E+01  0.10095257726E+02  0.51100000000E-03 0.  1.
        -12    1    3    3    0    0  0.49293438110E+01 -0.26614006423E+01 -0.15610694265E+01  0.58153608263E+01  0.00000000000E+00 0.  1.
</event>
<event>
 7    1  0.9406864E-013  0.5052886E+02  0.7816164E-02  0.1300439E+00
        -11   -1    0    0    0    0  0.00000000000E+00  0.00000000000E+00  0.45593999997E+02  0.45594000000E+02  0.51100000000E-03 0. -1.
         11   -1    0    0    0    0 -0.00000000000E+00 -0.00000000000E+00 -0.45593999997E+02  0.45594000000E+02  0.51100000000E-03 0.  1.
    9900012    2    1    2    0    0  0.30566004313E+02 -0.19580326378E+02  0.18316554398E+02  0.50528856308E+02  0.29999989235E+02 0.  0.
        -12    1    1    2    0    0 -0.30566004313E+02  0.19580326378E+02 -0.18316554398E+02  0.40659143692E+02  0.00000000000E+00 0.  1.
         11    1    3    3    0    0  0.23713396090E+02 -0.17725031530E+02  0.80612738094E+01  0.30683644381E+02  0.51100000000E-03 0. -1.
        -11    1    3    3    0    0  0.40252733347E+01 -0.26924295622E+01  0.14152544731E+02  0.14958159145E+02  0.51100000000E-03 0.  1.
        -12    1    3    3    0    0  0.28273348883E+01  0.83713471345E+00 -0.38972641427E+01  0.48870527823E+01  0.00000000000E+00 0.  1.
</event>
<event>
 7    1  0.9406864E-013  0.5052884E+02  0.7816164E-02  0.1300439E+00
        -11   -1    0    0    0    0  0.00000000000E+00  0.00000000000E+00  0.45593999997E+02  0.45594000000E+02  0.51100000000E-03 0. -1.
         11   -1    0    0    0    0 -0.00000000000E+00 -0.00000000000E+00 -0.45593999997E+02  0.45594000000E+02  0.51100000000E-03 0.  1.
    9900012    2    1    2    0    0 -0.38947342910E+01 -0.12831704076E+02  0.38384184697E+02  0.50528840890E+02  0.29999942368E+02 0.  0.
        -12    1    1    2    0    0  0.38947342910E+01  0.12831704076E+02 -0.38384184697E+02  0.40659159110E+02  0.00000000000E+00 0.  1.
         11    1    3    3    0    0 -0.20385048974E+01 -0.51389899464E+01  0.22228212477E+02  0.22905417483E+02  0.51100000000E-03 0. -1.
        -11    1    3    3    0    0  0.39689946019E+01 -0.11062942123E+01 -0.39319716888E+01  0.56953671222E+01  0.51100000000E-03 0.  1.
        -12    1    3    3    0    0 -0.58252239955E+01 -0.65864199171E+01  0.20087943909E+02  0.21928056284E+02  0.00000000000E+00 0.  1.
</event>
<event>
 7    1  0.9406864E-013  0.5052886E+02  0.7816164E-02  0.1300439E+00
        -11   -1    0    0    0    0  0.00000000000E+00  0.00000000000E+00  0.45593999997E+02  0.45594000000E+02  0.51100000000E-03 0.  1.
         11   -1    0    0    0    0 -0.00000000000E+00 -0.00000000000E+00 -0.45593999997E+02  0.45594000000E+02  0.51100000000E-03 0. -1.
    9900012    2    1    2    0    0 -0.16159700167E+02 -0.76855176437E+01  0.36509761148E+02  0.50528858961E+02  0.29999997298E+02 0.  0.
        -12    1    1    2    0    0  0.16159700167E+02  0.76855176437E+01 -0.36509761148E+02  0.40659141039E+02  0.00000000000E+00 0.  1.
         11    1    3    3    0    0 -0.13102030238E+01 -0.15779118925E+02  0.13643269588E+02  0.20900622750E+02  0.51100000000E-03 0. -1.
        -11    1    3    3    0    0 -0.61563206808E+01 -0.10006923179E+01  0.69093834605E+01  0.93081281419E+01  0.51100000000E-03 0.  1.
         12    1    3    3    0    0 -0.86931764625E+01  0.90942935990E+01  0.15957108099E+02  0.20320108070E+02  0.00000000000E+00 0. -1.
</event>
<event>
 7    1  0.9406864E-013  0.5052885E+02  0.7816164E-02  0.1300439E+00
        -11   -1    0    0    0    0  0.00000000000E+00  0.00000000000E+00  0.45593999997E+02  0.45594000000E+02  0.51100000000E-03 0. -1.
         11   -1    0    0    0    0 -0.00000000000E+00 -0.00000000000E+00 -0.45593999997E+02  0.45594000000E+02  0.51100000000E-03 0.  1.
    9900012    2    1    2    0    0  0.29773281292E+02  0.26677143509E+02 -0.74194224567E+01  0.50528854728E+02  0.29999984430E+02 0.  0.
        -12    1    1    2    0    0 -0.29773281292E+02 -0.26677143509E+02  0.74194224567E+01  0.40659145272E+02  0.00000000000E+00 0.  1.
         11    1    3    3    0    0  0.14930394599E+02  0.13361567192E+02 -0.47676885099E+01  0.20595606685E+02  0.51100000000E-03 0. -1.
        -11    1    3    3    0    0  0.36214034368E+01 -0.33566974666E+01  0.62398146445E+01  0.79572148264E+01  0.51100000000E-03 0.  1.
        -12    1    3    3    0    0  0.11221483256E+02  0.16672273784E+02 -0.88915485913E+01  0.21976033216E+02  0.00000000000E+00 0.  1.
</event>
<event>
 7    1  0.9406864E-013  0.5052887E+02  0.7816164E-02  0.1300439E+00
        -11   -1    0    0    0    0  0.00000000000E+00  0.00000000000E+00  0.45593999997E+02  0.45594000000E+02  0.51100000000E-03 0.  1.
         11   -1    0    0    0    0 -0.00000000000E+00 -0.00000000000E+00 -0.45593999997E+02  0.45594000000E+02  0.51100000000E-03 0. -1.
    9900012    2    1    2    0    0 -0.12823596128E+01  0.28534013798E+02 -0.28936668123E+02  0.50528866319E+02  0.30000019664E+02 0.  0.
        -12    1    1    2    0    0  0.12823596128E+01 -0.28534013798E+02  0.28936668123E+02  0.40659133681E+02  0.00000000000E+00 0.  1.
         11    1    3    3    0    0  0.70533540543E+01  0.20625241483E+02 -0.14979763971E+02  0.26448888795E+02  0.51100000000E-03 0. -1.
        -11    1    3    3    0    0 -0.71606759666E+00 -0.47257554678E+01 -0.44317248272E+01  0.65181057639E+01  0.51100000000E-03 0.  1.
         12    1    3    3    0    0 -0.76196460705E+01  0.12634527783E+02 -0.95251793256E+01  0.17561871760E+02  0.00000000000E+00 0. -1.
</event>
<event>
 7    1  0.9406864E-013  0.5052887E+02  0.7816164E-02  0.1300439E+00
        -11   -1    0    0    0    0  0.00000000000E+00  0.00000000000E+00  0.45593999997E+02  0.45594000000E+02  0.51100000000E-03 0.  1.
         11   -1    0    0    0    0 -0.00000000000E+00 -0.00000000000E+00 -0.45593999997E+02  0.45594000000E+02  0.51100000000E-03 0. -1.
    9900012    2    1    2    0    0 -0.40001636774E+02  0.48915437916E+01 -0.53950988364E+01  0.50528865273E+02  0.30000016484E+02 0.  0.
        -12    1    1    2    0    0  0.40001636774E+02 -0.48915437916E+01  0.53950988364E+01  0.40659134727E+02  0.00000000000E+00 0.  1.
         11    1    3    3    0    0 -0.17792797374E+02  0.14366775034E+02 -0.63553985646E+01  0.23735605205E+02  0.51100000000E-03 0. -1.
        -11    1    3    3    0    0 -0.18301801208E+02 -0.98846773809E+01 -0.32295753663E+01  0.21049772723E+02  0.51100000000E-03 0.  1.
        -12    1    3    3    0    0 -0.39070381924E+01  0.40944613829E+00  0.41898750945E+01  0.57434873452E+01  0.00000000000E+00 0.  1.
</event>
<event>
 7    1  0.9406864E-013  0.5052886E+02  0.7816164E-02  0.1300439E+00
        -11   -1    0    0    0    0  0.00000000000E+00  0.00000000000E+00  0.45593999997E+02  0.45594000000E+02  0.51100000000E-03 0.  1.
         11   -1    0    0    0    0 -0.00000000000E+00 -0.00000000000E+00 -0.45593999997E+02  0.45594000000E+02  0.51100000000E-03 0. -1.
    9900012    2    1    2    0    0 -0.25802361478E+02 -0.27297760980E+02 -0.15563941344E+02  0.50528857332E+02  0.29999992346E+02 0.  0.
        -12    1    1    2    0    0  0.25802361478E+02  0.27297760980E+02  0.15563941344E+02  0.40659142668E+02  0.00000000000E+00 0.  1.
         11    1    3    3    0    0 -0.12308652743E+02 -0.12343456564E+02 -0.43844121732E+01  0.17974618846E+02  0.51100000000E-03 0. -1.
        -11    1    3    3    0    0  0.59497658214E+01 -0.84925171989E+00  0.11359604940E+00  0.60111434966E+01  0.51100000000E-03 0.  1.
        -12    1    3    3    0    0 -0.19443474556E+02 -0.14105052696E+02 -0.11293125220E+02  0.26543094989E+02  0.00000000000E+00 0.  1.
</event>
<event>
 7    1  0.9406864E-013  0.5052886E+02  0.7816164E-02  0.1300439E+00
        -11   -1    0    0    0    0  0.00000000000E+00  0.00000000000E+00  0.45593999997E+02  0.45594000000E+02  0.51100000000E-03 0.  1.
         11   -1    0    0    0    0 -0.00000000000E+00 -0.00000000000E+00 -0.45593999997E+02  0.45594000000E+02  0.51100000000E-03 0. -1.
    9900012    2    1    2    0    0  0.98359175628E+01  0.19309432944E+02 -0.34403002244E+02  0.50528855416E+02  0.29999986522E+02 0.  0.
        -12    1    1    2    0    0 -0.98359175628E+01 -0.19309432944E+02  0.34403002244E+02  0.40659144584E+02  0.00000000000E+00 0.  1.
         11    1    3    3    0    0 -0.36892412113E+01  0.96721588601E+01 -0.27902430615E+02  0.29760826471E+02  0.51100000000E-03 0. -1.
        -11    1    3    3    0    0  0.68797310375E+01  0.10209776794E+02 -0.14395744765E+01  0.12395265881E+02  0.51100000000E-03 0.  1.
         12    1    3    3    0    0  0.66454277365E+01 -0.57250270961E+00 -0.50609971524E+01  0.83727630642E+01  0.00000000000E+00 0. -1.
</event>
<event>
 7    1  0.9406864E-013  0.5052887E+02  0.7816164E-02  0.1300439E+00
        -11   -1    0    0    0    0  0.00000000000E+00  0.00000000000E+00  0.45593999997E+02  0.45594000000E+02  0.51100000000E-03 0. -1.
         11   -1    0    0    0    0 -0.00000000000E+00 -0.00000000000E+00 -0.45593999997E+02  0.45594000000E+02  0.51100000000E-03 0.  1.
    9900012    2    1    2    0    0  0.90101338775E+01  0.36175020229E+02 -0.16228075324E+02  0.50528867818E+02  0.30000024219E+02 0.  0.
        -12    1    1    2    0    0 -0.90101338775E+01 -0.36175020229E+02  0.16228075324E+02  0.40659132182E+02  0.00000000000E+00 0.  1.
         11    1    3    3    0    0  0.28141379236E+01  0.35645269726E+02 -0.60413640443E+01  0.36262966038E+02  0.51100000000E-03 0. -1.
        -11    1    3    3    0    0  0.72229124734E+01  0.18604717096E+01 -0.54439577679E+01  0.92340942176E+01  0.51100000000E-03 0.  1.
         12    1    3    3    0    0 -0.10269165194E+01 -0.13307212062E+01 -0.47427535121E+01  0.50318075622E+01  0.00000000000E+00 0. -1.
</event>
<event>
 7    1  0.9406864E-013  0.5052886E+02  0.7816164E-02  0.1300439E+00
        -11   -1    0    0    0    0  0.00000000000E+00  0.00000000000E+00  0.45593999997E+02  0.45594000000E+02  0.51100000000E-03 0. -1.
         11   -1    0    0    0    0 -0.00000000000E+00 -0.00000000000E+00 -0.45593999997E+02  0.45594000000E+02  0.51100000000E-03 0.  1.
    9900012    2    1    2    0    0  0.32078107821E+02  0.22393738927E+02 -0.11076142633E+02  0.50528862280E+02  0.30000007386E+02 0.  0.
        -12    1    1    2    0    0 -0.32078107821E+02 -0.22393738927E+02  0.11076142633E+02  0.40659137720E+02  0.00000000000E+00 0.  1.
         11    1    3    3    0    0  0.15023683595E+02  0.18021980095E+02 -0.10094451514E+02  0.25542137478E+02  0.51100000000E-03 0. -1.
        -11    1    3    3    0    0  0.30551500898E+00 -0.53900214988E+01 -0.14676160271E+01  0.55946017054E+01  0.51100000000E-03 0.  1.
         12    1    3    3    0    0  0.16748909217E+02  0.97617803312E+01  0.48592490820E+00  0.19392123097E+02  0.00000000000E+00 0. -1.
</event>
<event>
 7    1  0.9406864E-013  0.5052886E+02  0.7816164E-02  0.1300439E+00
        -11   -1    0    0    0    0  0.00000000000E+00  0.00000000000E+00  0.45593999997E+02  0.45594000000E+02  0.51100000000E-03 0. -1.
         11   -1    0    0    0    0 -0.00000000000E+00 -0.00000000000E+00 -0.45593999997E+02  0.45594000000E+02  0.51100000000E-03 0.  1.
    9900012    2    1    2    0    0  0.28057538926E+02  0.20631671742E+02  0.20982713976E+02  0.50528860127E+02  0.30000000842E+02 0.  0.
        -12    1    1    2    0    0 -0.28057538926E+02 -0.20631671742E+02 -0.20982713976E+02  0.40659139873E+02  0.00000000000E+00 0.  1.
         11    1    3    3    0    0  0.22730870457E+02  0.19081408185E+02  0.28531988031E+01  0.29814985388E+02  0.51100000000E-03 0. -1.
        -11    1    3    3    0    0  0.19372550348E+00 -0.28022443990E+01  0.86033421780E+01  0.90502817711E+01  0.51100000000E-03 0.  1.
         12    1    3    3    0    0  0.51329429655E+01  0.43525079561E+01  0.95261729944E+01  0.11663592968E+02  0.00000000000E+00 0. -1.
</event>
<event>
 7    1  0.9406864E-013  0.5052887E+02  0.7816164E-02  0.1300439E+00
        -11   -1    0    0    0    0  0.00000000000E+00  0.00000000000E+00  0.45593999997E+02  0.45594000000E+02  0.51100000000E-03 0.  1.
         11   -1    0    0    0    0 -0.00000000000E+00 -0.00000000000E+00 -0.45593999997E+02  0.45594000000E+02  0.51100000000E-03 0. -1.
    9900012    2    1    2    0    0  0.18316706495E+01 -0.13925290230E+02 -0.38156209578E+02  0.50528867511E+02  0.30000023288E+02 0.  0.
        -12    1    1    2    0    0 -0.18316706495E+01  0.13925290230E+02  0.38156209578E+02  0.40659132489E+02  0.00000000000E+00 0.  1.
         11    1    3    3    0    0  0.66902479909E+01 -0.14507144357E+02 -0.21411501817E+02  0.26714585266E+02  0.51100000000E-03 0. -1.
        -11    1    3    3    0    0 -0.22725724822E+01 -0.12405016401E+01  0.29166475368E+01  0.39000337332E+01  0.51100000000E-03 0.  1.
         12    1    3    3    0    0 -0.25860048592E+01  0.18223557677E+01 -0.19661355298E+02  0.19914248513E+02  0.00000000000E+00 0. -1.
</event>
<event>
 7    1  0.9406864E-013  0.5052886E+02  0.7816164E-02  0.1300439E+00
        -11   -1    0    0    0    0  0.00000000000E+00  0.00000000000E+00  0.45593999997E+02  0.45594000000E+02  0.51100000000E-03 0.  1.
         11   -1    0    0    0    0 -0.00000000000E+00 -0.00000000000E+00 -0.45593999997E+02  0.45594000000E+02  0.51100000000E-03 0. -1.
    9900012    2    1    2    0    0 -0.39186320266E+02  0.91795459972E+01  0.57735267083E+01  0.50528863618E+02  0.30000011453E+02 0.  0.
        -12    1    1    2    0    0  0.39186320266E+02 -0.91795459972E+01 -0.57735267083E+01  0.40659136382E+02  0.00000000000E+00 0.  1.
         11    1    3    3    0    0  0.94476788496E+00  0.15950269753E+01 -0.21066803196E+01  0.28062073406E+01  0.51100000000E-03 0. -1.
        -11    1    3    3    0    0 -0.31579809496E+02  0.27676345384E+01  0.15509546578E+02  0.35291503284E+02  0.51100000000E-03 0.  1.
        -12    1    3    3    0    0 -0.85512786546E+01  0.48168844835E+01 -0.76293395506E+01  0.12431152993E+02  0.00000000000E+00 0.  1.
</event>
<event>
 7    1  0.9406864E-013  0.5052889E+02  0.7816164E-02  0.1300439E+00
        -11   -1    0    0    0    0  0.00000000000E+00  0.00000000000E+00  0.45593999997E+02  0.45594000000E+02  0.51100000000E-03 0.  1.
         11   -1    0    0    0    0 -0.00000000000E+00 -0.00000000000E+00 -0.45593999997E+02  0.45594000000E+02  0.51100000000E-03 0. -1.
    9900012    2    1    2    0    0  0.39090364722E+01 -0.40435498853E+02 -0.16891392695E+01  0.50528888781E+02  0.30000087938E+02 0.  0.
        -12    1    1    2    0    0 -0.39090364722E+01  0.40435498853E+02  0.16891392695E+01  0.40659111219E+02  0.00000000000E+00 0.  1.
         11    1    3    3    0    0  0.39238852268E+01 -0.21915202728E+02 -0.15009708439E+02  0.26850779012E+02  0.51100000000E-03 0. -1.
        -11    1    3    3    0    0 -0.17376528998E+01 -0.12582335310E+02  0.58594508074E+01  0.13988129378E+02  0.51100000000E-03 0.  1.
         12    1    3    3    0    0  0.17228041452E+01 -0.59379608150E+01  0.74611183620E+01  0.96899803908E+01  0.00000000000E+00 0. -1.
</event>
<event>
 7    1  0.9406864E-013  0.5052886E+02  0.7816164E-02  0.1300439E+00
        -11   -1    0    0    0    0  0.00000000000E+00  0.00000000000E+00  0.45593999997E+02  0.45594000000E+02  0.51100000000E-03 0. -1.
         11   -1    0    0    0    0 -0.00000000000E+00 -0.00000000000E+00 -0.45593999997E+02  0.45594000000E+02  0.51100000000E-03 0.  1.
    9900012    2    1    2    0    0 -0.19011745391E+02  0.33577632250E+02  0.12816459182E+02  0.50528862327E+02  0.30000007529E+02 0.  0.
        -12    1    1    2    0    0  0.19011745391E+02 -0.33577632250E+02 -0.12816459182E+02  0.40659137673E+02  0.00000000000E+00 0.  1.
         11    1    3    3    0    0 -0.12414451719E+02  0.41656364564E+01  0.67047279604E+00  0.13111852371E+02  0.51100000000E-03 0. -1.
        -11    1    3    3    0    0  0.64753147769E+01  0.11676445711E+02  0.49250788273E+01  0.14231144986E+02  0.51100000000E-03 0.  1.
        -12    1    3    3    0    0 -0.13072608449E+02  0.17735550083E+02  0.72209075591E+01  0.23185864970E+02  0.00000000000E+00 0.  1.
</event>
<event>
 7    1  0.9406864E-013  0.5052887E+02  0.7816164E-02  0.1300439E+00
        -11   -1    0    0    0    0  0.00000000000E+00  0.00000000000E+00  0.45593999997E+02  0.45594000000E+02  0.51100000000E-03 0. -1.
         11   -1    0    0    0    0 -0.00000000000E+00 -0.00000000000E+00 -0.45593999997E+02  0.45594000000E+02  0.51100000000E-03 0.  1.
    9900012    2    1    2    0    0 -0.16378131436E+02  0.35992349330E+02 -0.94589948671E+01  0.50528868387E+02  0.30000025948E+02 0.  0.
        -12    1    1    2    0    0  0.16378131436E+02 -0.35992349330E+02  0.94589948671E+01  0.40659131613E+02  0.00000000000E+00 0.  1.
         11    1    3    3    0    0 -0.46994278599E+00  0.29002152514E+02  0.48806241817E+00  0.29010065526E+02  0.51100000000E-03 0. -1.
        -11    1    3    3    0    0 -0.13982348209E+02  0.45266440546E+01 -0.10845514600E+02  0.18265315629E+02  0.51100000000E-03 0.  1.
         12    1    3    3    0    0 -0.19258404415E+01  0.24635527621E+01  0.89845731479E+00  0.32534872313E+01  0.00000000000E+00 0. -1.
</event>
<event>
 7    1  0.9406864E-013  0.5052886E+02  0.7816164E-02  0.1300439E+00
        -11   -1    0    0    0    0  0.00000000000E+00  0.00000000000E+00  0.45593999997E+02  0.45594000000E+02  0.51100000000E-03 0.  1.
         11   -1    0    0    0    0 -0.00000000000E+00 -0.00000000000E+00 -0.45593999997E+02  0.45594000000E+02  0.51100000000E-03 0. -1.
    9900012    2    1    2    0    0 -0.28258490238E+02  0.49360368102E+01 -0.28814217924E+02  0.50528857307E+02  0.29999992272E+02 0.  0.
        -12    1    1    2    0    0  0.28258490238E+02 -0.49360368102E+01  0.28814217924E+02  0.40659142693E+02  0.00000000000E+00 0.  1.
         11    1    3    3    0    0  0.23484982797E+01  0.15610691613E+01 -0.60983240924E+01  0.67187750441E+01  0.51100000000E-03 0. -1.
        -11    1    3    3    0    0 -0.24396800451E+02 -0.59155248792E+01 -0.10379828195E+02  0.27165016850E+02  0.51100000000E-03 0.  1.
         12    1    3    3    0    0 -0.62101880672E+01  0.92904925281E+01 -0.12336065636E+02  0.16645065414E+02  0.00000000000E+00 0. -1.
</event>
<event>
 7    1  0.9406864E-013  0.5052886E+02  0.7816164E-02  0.1300439E+00
        -11   -1    0    0    0    0  0.00000000000E+00  0.00000000000E+00  0.45593999997E+02  0.45594000000E+02  0.51100000000E-03 0.  1.
         11   -1    0    0    0    0 -0.00000000000E+00 -0.00000000000E+00 -0.45593999997E+02  0.45594000000E+02  0.51100000000E-03 0. -1.
    9900012    2    1    2    0    0 -0.10302781740E+02 -0.36608988375E+02 -0.14380552271E+02  0.50528860498E+02  0.30000001969E+02 0.  0.
        -12    1    1    2    0    0  0.10302781740E+02  0.36608988375E+02  0.14380552271E+02  0.40659139502E+02  0.00000000000E+00 0.  1.
         11    1    3    3    0    0  0.20205154169E+01 -0.25507510044E+02 -0.19131932903E+02  0.31949122180E+02  0.51100000000E-03 0. -1.
        -11    1    3    3    0    0 -0.49575871325E+01 -0.71169222462E+01  0.53386822431E+01  0.10184781823E+02  0.51100000000E-03 0.  1.
         12    1    3    3    0    0 -0.73657100248E+01 -0.39845560842E+01 -0.58730161169E+00  0.83949564943E+01  0.00000000000E+00 0. -1.
</event>
<event>
 7    1  0.9406864E-013  0.5052888E+02  0.7816164E-02  0.1300439E+00
        -11   -1    0    0    0    0  0.00000000000E+00  0.00000000000E+00  0.45593999997E+02  0.45594000000E+02  0.51100000000E-03 0.  1.
         11   -1    0    0    0    0 -0.00000000000E+00 -0.00000000000E+00 -0.45593999997E+02  0.45594000000E+02  0.51100000000E-03 0. -1.
    9900012    2    1    2    0    0 -0.99831714765E+01  0.27129895209E+02 -0.28591413293E+02  0.50528882439E+02  0.30000068660E+02 0.  0.
        -12    1    1    2    0    0  0.99831714765E+01 -0.27129895209E+02  0.28591413293E+02  0.40659117561E+02  0.00000000000E+00 0.  1.
         11    1    3    3    0    0 -0.44241297862E+01  0.31321544952E+02 -0.27892896925E+02  0.42173757263E+02  0.51100000000E-03 0. -1.
        -11    1    3    3    0    0  0.55810124297E+00 -0.15570352592E+01  0.35543316533E-01  0.16544181407E+01  0.51100000000E-03 0.  1.
         12    1    3    3    0    0 -0.61171429333E+01 -0.26346144838E+01 -0.73405968453E+00  0.67007070347E+01  0.00000000000E+00 0. -1.
</event>
<event>
 7    1  0.9406864E-013  0.5052886E+02  0.7816164E-02  0.1300439E+00
        -11   -1    0    0    0    0  0.00000000000E+00  0.00000000000E+00  0.45593999997E+02  0.45594000000E+02  0.51100000000E-03 0. -1.
         11   -1    0    0    0    0 -0.00000000000E+00 -0.00000000000E+00 -0.45593999997E+02  0.45594000000E+02  0.51100000000E-03 0.  1.
    9900012    2    1    2    0    0 -0.11109619743E+02 -0.19362764586E+02 -0.33982724129E+02  0.50528857825E+02  0.29999993844E+02 0.  0.
        -12    1    1    2    0    0  0.11109619743E+02  0.19362764586E+02  0.33982724129E+02  0.40659142175E+02  0.00000000000E+00 0.  1.
         11    1    3    3    0    0  0.35188564012E+01 -0.17080839243E+02 -0.13297224714E+02  0.21930654458E+02  0.51100000000E-03 0. -1.
        -11    1    3    3    0    0 -0.13468896688E+02 -0.12952865479E+01 -0.77901972209E+01  0.15613331427E+02  0.51100000000E-03 0.  1.
        -12    1    3    3    0    0 -0.11595794559E+01 -0.98663879531E+00 -0.12895302194E+02  0.12984871940E+02  0.00000000000E+00 0.  1.
</event>
<event>
 7    1  0.9822600E-013  0.5052887E+02  0.7816164E-02  0.1300439E+00
        -11   -1    0    0    0    0  0.00000000000E+00  0.00000000000E+00  0.45593999997E+02  0.45594000000E+02  0.51100000000E-03 0.  1.
         11   -1    0    0    0    0 -0.00000000000E+00 -0.00000000000E+00 -0.45593999997E+02  0.45594000000E+02  0.51100000000E-03 0. -1.
    9900012    2    1    2    0    0  0.22685579210E+01 -0.39565716871E+02 -0.90869447260E+01  0.50528869770E+02  0.30000030154E+02 0.  0.
        -12    1    1    2    0    0 -0.22685579210E+01  0.39565716871E+02  0.90869447260E+01  0.40659130230E+02  0.00000000000E+00 0.  1.
         11    1    3    3    0    0  0.12278197193E+02 -0.16739908410E+02 -0.14383745705E+01  0.20809795327E+02  0.51100000000E-03 0. -1.
        -11    1    3    3    0    0 -0.82832304569E+01 -0.15732994848E+02  0.16962082067E+01  0.17861023381E+02  0.51100000000E-03 0.  1.
         12    1    3    3    0    0 -0.17264088155E+01 -0.70928136132E+01 -0.93447783622E+01  0.11858051062E+02  0.00000000000E+00 0. -1.
</event>
<event>
 7    1  0.9406864E-013  0.5052885E+02  0.7816164E-02  0.1300439E+00
        -11   -1    0    0    0    0  0.00000000000E+00  0.00000000000E+00  0.45593999997E+02  0.45594000000E+02  0.51100000000E-03 0.  1.
         11   -1    0    0    0    0 -0.00000000000E+00 -0.00000000000E+00 -0.45593999997E+02  0.45594000000E+02  0.51100000000E-03 0. -1.
    9900012    2    1    2    0    0  0.22043047938E+02  0.33980893955E+02  0.35453202146E+01  0.50528850823E+02  0.29999972562E+02 0.  0.
        -12    1    1    2    0    0 -0.22043047938E+02 -0.33980893955E+02 -0.35453202146E+01  0.40659149177E+02  0.00000000000E+00 0.  1.
         11    1    3    3    0    0  0.11828781500E+02  0.11710624493E+02 -0.12487486918E+02  0.20808558998E+02  0.51100000000E-03 0. -1.
        -11    1    3    3    0    0  0.66770441226E+01  0.86690453625E+01  0.63128626252E+01  0.12632794643E+02  0.51100000000E-03 0.  1.
         12    1    3    3    0    0  0.35372223158E+01  0.13601224099E+02  0.97199445075E+01  0.17087497182E+02  0.00000000000E+00 0. -1.
</event>
<event>
 7    1  0.9406864E-013  0.5052886E+02  0.7816164E-02  0.1300439E+00
        -11   -1    0    0    0    0  0.00000000000E+00  0.00000000000E+00  0.45593999997E+02  0.45594000000E+02  0.51100000000E-03 0.  1.
         11   -1    0    0    0    0 -0.00000000000E+00 -0.00000000000E+00 -0.45593999997E+02  0.45594000000E+02  0.51100000000E-03 0. -1.
    9900012    2    1    2    0    0 -0.71892065382E+01  0.78836930552E+01 -0.39234275359E+02  0.50528859948E+02  0.30000000298E+02 0.  0.
        -12    1    1    2    0    0  0.71892065382E+01 -0.78836930552E+01  0.39234275359E+02  0.40659140052E+02  0.00000000000E+00 0.  1.
         11    1    3    3    0    0 -0.10185784489E+02 -0.68935181285E+01 -0.13528642307E+02  0.18283734870E+02  0.51100000000E-03 0. -1.
        -11    1    3    3    0    0  0.64298878301E+01  0.61026718016E+01 -0.68334841854E+01  0.11192969534E+02  0.51100000000E-03 0.  1.
        -12    1    3    3    0    0 -0.34333098793E+01  0.86745393821E+01 -0.18872148866E+02  0.21052155544E+02  0.00000000000E+00 0.  1.
</event>
<event>
 7    1  0.9406864E-013  0.5052884E+02  0.7816164E-02  0.1300439E+00
        -11   -1    0    0    0    0  0.00000000000E+00  0.00000000000E+00  0.45593999997E+02  0.45594000000E+02  0.51100000000E-03 0. -1.
         11   -1    0    0    0    0 -0.00000000000E+00 -0.00000000000E+00 -0.45593999997E+02  0.45594000000E+02  0.51100000000E-03 0.  1.
    9900012    2    1    2    0    0 -0.10463704247E+02  0.17753223178E+02  0.35049981961E+02  0.50528840205E+02  0.29999940287E+02 0.  0.
        -12    1    1    2    0    0  0.10463704247E+02 -0.17753223178E+02 -0.35049981961E+02  0.40659159795E+02  0.00000000000E+00 0.  1.
         11    1    3    3    0    0  0.18261429838E+01  0.19769814623E+02  0.21971528959E+02  0.29612977788E+02  0.51100000000E-03 0. -1.
        -11    1    3    3    0    0 -0.15362110570E+01 -0.30796585487E+01  0.85178570392E+01  0.91868454863E+01  0.51100000000E-03 0.  1.
         12    1    3    3    0    0 -0.10753636173E+02  0.10630671039E+01  0.45605959628E+01  0.11729016930E+02  0.00000000000E+00 0. -1.
</event>
<event>
 7    1  0.9406864E-013  0.5052886E+02  0.7816164E-02  0.1300439E+00
        -11   -1    0    0    0    0  0.00000000000E+00  0.00000000000E+00  0.45593999997E+02  0.45594000000E+02  0.51100000000E-03 0.  1.
         11   -1    0    0    0    0 -0.00000000000E+00 -0.00000000000E+00 -0.45593999997E+02  0.45594000000E+02  0.51100000000E-03 0. -1.
    9900012    2    1    2    0    0 -0.89652771701E+01 -0.18438014068E+02 -0.35111667592E+02  0.50528858856E+02  0.29999996978E+02 0.  0.
        -12    1    1    2    0    0  0.89652771701E+01  0.18438014068E+02  0.35111667592E+02  0.40659141144E+02  0.00000000000E+00 0.  1.
         11    1    3    3    0    0  0.55527946517E+01  0.30055926823E+01 -0.17671411058E+01  0.65566686483E+01  0.51100000000E-03 0. -1.
        -11    1    3    3    0    0 -0.11850553616E+02 -0.65871431901E+01 -0.15119567541E+02  0.20308308627E+02  0.51100000000E-03 0.  1.
         12    1    3    3    0    0 -0.26675182058E+01 -0.14856463560E+02 -0.18224958946E+02  0.23663881580E+02  0.00000000000E+00 0. -1.
</event>
<event>
 7    1  0.9406864E-013  0.5052887E+02  0.7816164E-02  0.1300439E+00
        -11   -1    0    0    0    0  0.00000000000E+00  0.00000000000E+00  0.45593999997E+02  0.45594000000E+02  0.51100000000E-03 0. -1.
         11   -1    0    0    0    0 -0.00000000000E+00 -0.00000000000E+00 -0.45593999997E+02  0.45594000000E+02  0.51100000000E-03 0.  1.
    9900012    2    1    2    0    0  0.36454477255E+01  0.40035277492E+02  0.60870504433E+01  0.50528869217E+02  0.30000028471E+02 0.  0.
        -12    1    1    2    0    0 -0.36454477255E+01 -0.40035277492E+02 -0.60870504433E+01  0.40659130783E+02  0.00000000000E+00 0.  1.
         11    1    3    3    0    0 -0.89994967932E+01  0.21148774680E+02  0.11214065733E+02  0.25573753802E+02  0.51100000000E-03 0. -1.
        -11    1    3    3    0    0  0.12717594344E+02  0.16366949054E+02 -0.18339646499E+01  0.20808115096E+02  0.51100000000E-03 0.  1.
        -12    1    3    3    0    0 -0.72649825534E-01  0.25195537577E+01 -0.32930506394E+01  0.41470003193E+01  0.00000000000E+00 0.  1.
</event>
<event>
 7    1  0.9406864E-013  0.5052884E+02  0.7816164E-02  0.1300439E+00
        -11   -1    0    0    0    0  0.00000000000E+00  0.00000000000E+00  0.45593999997E+02  0.45594000000E+02  0.51100000000E-03 0.  1.
         11   -1    0    0    0    0 -0.00000000000E+00 -0.00000000000E+00 -0.45593999997E+02  0.45594000000E+02  0.51100000000E-03 0. -1.
    9900012    2    1    2    0    0  0.27012085768E+02  0.65112322875E+01 -0.29683634537E+02  0.50528842572E+02  0.29999947481E+02 0.  0.
        -12    1    1    2    0    0 -0.27012085768E+02 -0.65112322875E+01  0.29683634537E+02  0.40659157428E+02  0.00000000000E+00 0.  1.
         11    1    3    3    0    0  0.25636705002E+02  0.52336633549E+01 -0.12241067560E+02  0.28887291509E+02  0.51100000000E-03 0. -1.
        -11    1    3    3    0    0 -0.32333957143E+01  0.52715968602E+01 -0.57031033698E+01  0.84124889069E+01  0.51100000000E-03 0.  1.
         12    1    3    3    0    0  0.46087764802E+01 -0.39940279276E+01 -0.11739463607E+02  0.13229062156E+02  0.00000000000E+00 0. -1.
</event>
<event>
 7    1  0.9406864E-013  0.5052887E+02  0.7816164E-02  0.1300439E+00
        -11   -1    0    0    0    0  0.00000000000E+00  0.00000000000E+00  0.45593999997E+02  0.45594000000E+02  0.51100000000E-03 0.  1.
         11   -1    0    0    0    0 -0.00000000000E+00 -0.00000000000E+00 -0.45593999997E+02  0.45594000000E+02  0.51100000000E-03 0. -1.
    9900012    2    1    2    0    0  0.67688875365E+01 -0.43442947882E+01 -0.39855670826E+02  0.50528865323E+02  0.30000016636E+02 0.  0.
        -12    1    1    2    0    0 -0.67688875365E+01  0.43442947882E+01  0.39855670826E+02  0.40659134677E+02  0.00000000000E+00 0.  1.
         11    1    3    3    0    0 -0.64347954237E+01 -0.11368739194E+02 -0.27756877483E+02  0.30677338067E+02  0.51100000000E-03 0. -1.
        -11    1    3    3    0    0  0.85277998626E+01  0.29421360143E+01 -0.95625722131E+01  0.13146190415E+02  0.51100000000E-03 0.  1.
         12    1    3    3    0    0  0.46758830977E+01  0.40823083911E+01 -0.25362211298E+01  0.67053368418E+01  0.00000000000E+00 0. -1.
</event>
<event>
 7    1  0.9406864E-013  0.5052887E+02  0.7816164E-02  0.1300439E+00
        -11   -1    0    0    0    0  0.00000000000E+00  0.00000000000E+00  0.45593999997E+02  0.45594000000E+02  0.51100000000E-03 0.  1.
         11   -1    0    0    0    0 -0.00000000000E+00 -0.00000000000E+00 -0.45593999997E+02  0.45594000000E+02  0.51100000000E-03 0. -1.
    9900012    2    1    2    0    0 -0.17732607375E+02  0.34356717196E+02  0.12583157281E+02  0.50528865381E+02  0.30000016811E+02 0.  0.
        -12    1    1    2    0    0  0.17732607375E+02 -0.34356717196E+02 -0.12583157281E+02  0.40659134619E+02  0.00000000000E+00 0.  1.
         11    1    3    3    0    0 -0.18109404488E+02  0.78781040134E+01  0.70995267491E+01  0.20986146242E+02  0.51100000000E-03 0. -1.
        -11    1    3    3    0    0  0.21253853940E+01  0.44660776247E+01  0.55854768173E+01  0.74606074793E+01  0.51100000000E-03 0.  1.
         12    1    3    3    0    0 -0.17485882814E+01  0.22012535558E+02 -0.10184628546E+00  0.22082111660E+02  0.00000000000E+00 0. -1.
</event>
<event>
 7    1  0.9406864E-013  0.5052884E+02  0.7816164E-02  0.1300439E+00
        -11   -1    0    0    0    0  0.00000000000E+00  0.00000000000E+00  0.45593999997E+02  0.45594000000E+02  0.51100000000E-03 0.  1.
         11   -1    0    0    0    0 -0.00000000000E+00 -0.00000000000E+00 -0.45593999997E+02  0.45594000000E+02  0.51100000000E-03 0. -1.
    9900012    2    1    2    0    0 -0.39769307897E+02  0.82036334784E+01 -0.20662813108E+01  0.50528843943E+02  0.29999951648E+02 0.  0.
        -12    1    1    2    0    0  0.39769307897E+02 -0.82036334784E+01  0.20662813108E+01  0.40659156057E+02  0.00000000000E+00 0.  1.
         11    1    3    3    0    0 -0.74691696341E+01 -0.23333385519E+00 -0.92524745290E+01  0.11893326906E+02  0.51100000000E-03 0. -1.
        -11    1    3    3    0    0 -0.21505535616E+02  0.45803049813E+01  0.13245951966E+02  0.25669485768E+02  0.51100000000E-03 0.  1.
        -12    1    3    3    0    0 -0.10794602647E+02  0.38566623523E+01 -0.60597587477E+01  0.12966031269E+02  0.00000000000E+00 0.  1.
</event>
<event>
 7    1  0.1300793E-012  0.5052885E+02  0.7816164E-02  0.1300439E+00
        -11   -1    0    0    0    0  0.00000000000E+00  0.00000000000E+00  0.45593999997E+02  0.45594000000E+02  0.51100000000E-03 0. -1.
         11   -1    0    0    0    0 -0.00000000000E+00 -0.00000000000E+00 -0.45593999997E+02  0.45594000000E+02  0.51100000000E-03 0.  1.
    9900012    2    1    2    0    0 -0.30512891821E+00  0.18272296544E+02  0.36320740530E+02  0.50528854444E+02  0.29999983568E+02 0.  0.
        -12    1    1    2    0    0  0.30512891821E+00 -0.18272296544E+02 -0.36320740530E+02  0.40659145556E+02  0.00000000000E+00 0.  1.
         11    1    3    3    0    0 -0.10390603424E+02  0.69614451769E+01  0.24573546536E+02  0.27573275976E+02  0.51100000000E-03 0. -1.
        -11    1    3    3    0    0  0.78437808265E+01  0.11570090112E+01  0.98332791271E+00  0.79893993235E+01  0.51100000000E-03 0.  1.
         12    1    3    3    0    0  0.22416936795E+01  0.10153842356E+02  0.10763866082E+02  0.14966179144E+02  0.00000000000E+00 0. -1.
</event>
<event>
 7    1  0.9406864E-013  0.5052887E+02  0.7816164E-02  0.1300439E+00
        -11   -1    0    0    0    0  0.00000000000E+00  0.00000000000E+00  0.45593999997E+02  0.45594000000E+02  0.51100000000E-03 0.  1.
         11   -1    0    0    0    0 -0.00000000000E+00 -0.00000000000E+00 -0.45593999997E+02  0.45594000000E+02  0.51100000000E-03 0. -1.
    9900012    2    1    2    0    0  0.29390580499E+02  0.26077367122E+02  0.10456088600E+02  0.50528867115E+02  0.30000022084E+02 0.  0.
        -12    1    1    2    0    0 -0.29390580499E+02 -0.26077367122E+02 -0.10456088600E+02  0.40659132885E+02  0.00000000000E+00 0.  1.
         11    1    3    3    0    0  0.27292599408E+02  0.11270614236E+02  0.13621585598E+02  0.32518615010E+02  0.51100000000E-03 0. -1.
        -11    1    3    3    0    0 -0.31769586776E+01  0.30981156629E+01 -0.26273536700E+01  0.51569734019E+01  0.51100000000E-03 0.  1.
         12    1    3    3    0    0  0.52749397692E+01  0.11708637223E+02 -0.53814332833E+00  0.12853278704E+02  0.00000000000E+00 0. -1.
</event>
<event>
 7    1  0.9406864E-013  0.5052886E+02  0.7816164E-02  0.1300439E+00
        -11   -1    0    0    0    0  0.00000000000E+00  0.00000000000E+00  0.45593999997E+02  0.45594000000E+02  0.51100000000E-03 0.  1.
         11   -1    0    0    0    0 -0.00000000000E+00 -0.00000000000E+00 -0.45593999997E+02  0.45594000000E+02  0.51100000000E-03 0. -1.
    9900012    2    1    2    0    0 -0.28785777582E+02  0.24954036799E+02 -0.14207054572E+02  0.50528863964E+02  0.30000012506E+02 0.  0.
        -12    1    1    2    0    0  0.28785777582E+02 -0.24954036799E+02  0.14207054572E+02  0.40659136036E+02  0.00000000000E+00 0.  1.
         11    1    3    3    0    0 -0.30877506656E+02  0.16084103095E+02 -0.17453707165E+02  0.38945483483E+02  0.51100000000E-03 0. -1.
        -11    1    3    3    0    0  0.36950303599E+01  0.32861983640E+01  0.34372865450E-01  0.49450511426E+01  0.51100000000E-03 0.  1.
         12    1    3    3    0    0 -0.16033012852E+01  0.55837353399E+01  0.32122797274E+01  0.66383293383E+01  0.00000000000E+00 0. -1.
</event>
<event>
 7    1  0.9406864E-013  0.5052886E+02  0.7816164E-02  0.1300439E+00
        -11   -1    0    0    0    0  0.00000000000E+00  0.00000000000E+00  0.45593999997E+02  0.45594000000E+02  0.51100000000E-03 0.  1.
         11   -1    0    0    0    0 -0.00000000000E+00 -0.00000000000E+00 -0.45593999997E+02  0.45594000000E+02  0.51100000000E-03 0. -1.
    9900012    2    1    2    0    0 -0.16678081329E+02 -0.12619619849E+02 -0.34867644203E+02  0.50528858171E+02  0.29999994897E+02 0.  0.
        -12    1    1    2    0    0  0.16678081329E+02  0.12619619849E+02  0.34867644203E+02  0.40659141829E+02  0.00000000000E+00 0.  1.
         11    1    3    3    0    0 -0.14274565404E+02 -0.18481379533E+02 -0.17656178997E+02  0.29275677002E+02  0.51100000000E-03 0. -1.
        -11    1    3    3    0    0 -0.40626269104E+01  0.43980421546E+01 -0.17948788400E+02  0.18921065443E+02  0.51100000000E-03 0.  1.
        -12    1    3    3    0    0  0.16591109850E+01  0.14637175291E+01  0.73732319405E+00  0.23321157257E+01  0.00000000000E+00 0.  1.
</event>
<event>
 7    1  0.9406864E-013  0.5052885E+02  0.7816164E-02  0.1300439E+00
        -11   -1    0    0    0    0  0.00000000000E+00  0.00000000000E+00  0.45593999997E+02  0.45594000000E+02  0.51100000000E-03 0. -1.
         11   -1    0    0    0    0 -0.00000000000E+00 -0.00000000000E+00 -0.45593999997E+02  0.45594000000E+02  0.51100000000E-03 0.  1.
    9900012    2    1    2    0    0  0.51093181981E+01 -0.13034115601E+01  0.40315782293E+02  0.50528852000E+02  0.29999976140E+02 0.  0.
        -12    1    1    2    0    0 -0.51093181981E+01  0.13034115601E+01 -0.40315782293E+02  0.40659148000E+02  0.00000000000E+00 0.  1.
         11    1    3    3    0    0 -0.10814442535E+02  0.36729130779E+01  0.24850648318E+02  0.27349537106E+02  0.51100000000E-03 0. -1.
        -11    1    3    3    0    0  0.89313714502E+01 -0.17814335126E+01  0.11030071641E+02  0.14304033767E+02  0.51100000000E-03 0.  1.
         12    1    3    3    0    0  0.69923892826E+01 -0.31948911254E+01  0.44350623344E+01  0.88752811275E+01  0.00000000000E+00 0. -1.
</event>
<event>
 7    1  0.9406864E-013  0.5052887E+02  0.7816164E-02  0.1300439E+00
        -11   -1    0    0    0    0  0.00000000000E+00  0.00000000000E+00  0.45593999997E+02  0.45594000000E+02  0.51100000000E-03 0. -1.
         11   -1    0    0    0    0 -0.00000000000E+00 -0.00000000000E+00 -0.45593999997E+02  0.45594000000E+02  0.51100000000E-03 0.  1.
    9900012    2    1    2    0    0  0.19023030322E+02 -0.23205728265E+02  0.27436904532E+02  0.50528865267E+02  0.30000016464E+02 0.  0.
        -12    1    1    2    0    0 -0.19023030322E+02  0.23205728265E+02 -0.27436904532E+02  0.40659134733E+02  0.00000000000E+00 0.  1.
         11    1    3    3    0    0  0.57555998088E+01 -0.23034103329E+02  0.19826601430E+02  0.30932037919E+02  0.51100000000E-03 0. -1.
        -11    1    3    3    0    0  0.45919231991E+01  0.37273333460E+01  0.81503815123E+01  0.10070128678E+02  0.51100000000E-03 0.  1.
         12    1    3    3    0    0  0.86755073141E+01 -0.38989582822E+01 -0.54007840952E+00  0.95266986691E+01  0.00000000000E+00 0. -1.
</event>
<event>
 7    1  0.9406864E-013  0.5052886E+02  0.7816164E-02  0.1300439E+00
        -11   -1    0    0    0    0  0.00000000000E+00  0.00000000000E+00  0.45593999997E+02  0.45594000000E+02  0.51100000000E-03 0. -1.
         11   -1    0    0    0    0 -0.00000000000E+00 -0.00000000000E+00 -0.45593999997E+02  0.45594000000E+02  0.51100000000E-03 0.  1.
    9900012    2    1    2    0    0  0.84757085971E+01 -0.38891729789E+02 -0.82922644442E+01  0.50528856726E+02  0.29999990503E+02 0.  0.
        -12    1    1    2    0    0 -0.84757085971E+01  0.38891729789E+02  0.82922644442E+01  0.40659143274E+02  0.00000000000E+00 0.  1.
         11    1    3    3    0    0 -0.38577460172E+01 -0.26575570676E+02 -0.14441238954E+01  0.26892910872E+02  0.51100000000E-03 0. -1.
        -11    1    3    3    0    0  0.14121704637E+02 -0.57749786132E+01 -0.22001694829E+01  0.15414722374E+02  0.51100000000E-03 0.  1.
        -12    1    3    3    0    0 -0.17882500231E+01 -0.65411804992E+01 -0.46479710659E+01  0.82212234794E+01  0.00000000000E+00 0.  1.
</event>
<event>
 7    1  0.9406864E-013  0.5052887E+02  0.7816164E-02  0.1300439E+00
        -11   -1    0    0    0    0  0.00000000000E+00  0.00000000000E+00  0.45593999997E+02  0.45594000000E+02  0.51100000000E-03 0.  1.
         11   -1    0    0    0    0 -0.00000000000E+00 -0.00000000000E+00 -0.45593999997E+02  0.45594000000E+02  0.51100000000E-03 0. -1.
    9900012    2    1    2    0    0  0.34790183846E+01  0.38631308308E+02 -0.12193592168E+02  0.50528865227E+02  0.30000016345E+02 0.  0.
        -12    1    1    2    0    0 -0.34790183846E+01 -0.38631308308E+02  0.12193592168E+02  0.40659134773E+02  0.00000000000E+00 0.  1.
         11    1    3    3    0    0 -0.21938249273E+01  0.29883234761E+01 -0.11137860457E+02  0.11738606427E+02  0.51100000000E-03 0. -1.
        -11    1    3    3    0    0 -0.40089265956E+01  0.16541490072E+02  0.20795751994E+01  0.17146924492E+02  0.51100000000E-03 0.  1.
         12    1    3    3    0    0  0.96817699075E+01  0.19101494759E+02 -0.31353069104E+01  0.21643334309E+02  0.00000000000E+00 0. -1.
</event>
<event>
 7    1  0.9406864E-013  0.5052886E+02  0.7816164E-02  0.1300439E+00
        -11   -1    0    0    0    0  0.00000000000E+00  0.00000000000E+00  0.45593999997E+02  0.45594000000E+02  0.51100000000E-03 0. -1.
         11   -1    0    0    0    0 -0.00000000000E+00 -0.00000000000E+00 -0.45593999997E+02  0.45594000000E+02  0.51100000000E-03 0.  1.
    9900012    2    1    2    0    0 -0.30922557012E+02  0.82131795965E+01  0.25089928738E+02  0.50528863569E+02  0.30000011304E+02 0.  0.
        -12    1    1    2    0    0  0.30922557012E+02 -0.82131795965E+01 -0.25089928738E+02  0.40659136431E+02  0.00000000000E+00 0.  1.
         11    1    3    3    0    0  0.12602907451E+01 -0.43407241413E+01  0.69975448902E+01  0.83304173715E+01  0.51100000000E-03 0.  1.
        -11    1    3    3    0    0 -0.25635583298E+02  0.10071924328E+02  0.20980969055E+02  0.34624093539E+02  0.51100000000E-03 0. -1.
        -12    1    3    3    0    0 -0.65472644592E+01  0.24819794100E+01 -0.28885852071E+01  0.75743526581E+01  0.00000000000E+00 0.  1.
</event>
<event>
 7    1  0.9406864E-013  0.5052886E+02  0.7816164E-02  0.1300439E+00
        -11   -1    0    0    0    0  0.00000000000E+00  0.00000000000E+00  0.45593999997E+02  0.45594000000E+02  0.51100000000E-03 0.  1.
         11   -1    0    0    0    0 -0.00000000000E+00 -0.00000000000E+00 -0.45593999997E+02  0.45594000000E+02  0.51100000000E-03 0. -1.
    9900012    2    1    2    0    0 -0.35471850232E+02  0.49271930646E+00 -0.19866323618E+02  0.50528859019E+02  0.29999997474E+02 0.  0.
        -12    1    1    2    0    0  0.35471850232E+02 -0.49271930646E+00  0.19866323618E+02  0.40659140981E+02  0.00000000000E+00 0.  1.
         11    1    3    3    0    0 -0.43271908376E+01  0.17559662371E+01 -0.33424921187E+01  0.57428435287E+01  0.51100000000E-03 0. -1.
        -11    1    3    3    0    0 -0.10247619843E+02  0.12301372049E+02 -0.10525713022E+02  0.19160587194E+02  0.51100000000E-03 0.  1.
        -12    1    3    3    0    0 -0.20897039552E+02 -0.13564618980E+02 -0.59981184771E+01  0.25625428296E+02  0.00000000000E+00 0.  1.
</event>
<event>
 7    1  0.9406864E-013  0.5052887E+02  0.7816164E-02  0.1300439E+00
        -11   -1    0    0    0    0  0.00000000000E+00  0.00000000000E+00  0.45593999997E+02  0.45594000000E+02  0.51100000000E-03 0. -1.
         11   -1    0    0    0    0 -0.00000000000E+00 -0.00000000000E+00 -0.45593999997E+02  0.45594000000E+02  0.51100000000E-03 0.  1.
    9900012    2    1    2    0    0 -0.21620613257E+02  0.12170340498E+02  0.32211750725E+02  0.50528868304E+02  0.30000025698E+02 0.  0.
        -12    1    1    2    0    0  0.21620613257E+02 -0.12170340498E+02 -0.32211750725E+02  0.40659131696E+02  0.00000000000E+00 0.  1.
         11    1    3    3    0    0 -0.21795088116E+02  0.11191898789E+02  0.33356156054E+02  0.41387408852E+02  0.51100000000E-03 0. -1.
        -11    1    3    3    0    0  0.20928658260E+01  0.31944837064E+01 -0.36519976081E+01  0.52841177416E+01  0.51100000000E-03 0.  1.
        -12    1    3    3    0    0 -0.19183909676E+01 -0.22160419974E+01  0.25075922790E+01  0.38573417112E+01  0.00000000000E+00 0.  1.
</event>
<event>
 7    1  0.9406864E-013  0.5052886E+02  0.7816164E-02  0.1300439E+00
        -11   -1    0    0    0    0  0.00000000000E+00  0.00000000000E+00  0.45593999997E+02  0.45594000000E+02  0.51100000000E-03 0.  1.
         11   -1    0    0    0    0 -0.00000000000E+00 -0.00000000000E+00 -0.45593999997E+02  0.45594000000E+02  0.51100000000E-03 0. -1.
    9900012    2    1    2    0    0 -0.37713754373E+02  0.59469375724E+01 -0.13981131296E+02  0.50528863663E+02  0.30000011589E+02 0.  0.
        -12    1    1    2    0    0  0.37713754373E+02 -0.59469375724E+01  0.13981131296E+02  0.40659136337E+02  0.00000000000E+00 0.  1.
         11    1    3    3    0    0 -0.11586712461E+02 -0.59613501565E+01  0.37231535377E+01  0.13551807033E+02  0.51100000000E-03 0. -1.
        -11    1    3    3    0    0 -0.16326545039E+02  0.37470496768E+01 -0.17495551168E+02  0.24221700294E+02  0.51100000000E-03 0.  1.
        -12    1    3    3    0    0 -0.98004968725E+01  0.81612380522E+01 -0.20873366540E+00  0.12755356335E+02  0.00000000000E+00 0.  1.
</event>
<event>
 7    1  0.9406864E-013  0.5052886E+02  0.7816164E-02  0.1300439E+00
        -11   -1    0    0    0    0  0.00000000000E+00  0.00000000000E+00  0.45593999997E+02  0.45594000000E+02  0.51100000000E-03 0. -1.
         11   -1    0    0    0    0 -0.00000000000E+00 -0.00000000000E+00 -0.45593999997E+02  0.45594000000E+02  0.51100000000E-03 0.  1.
    9900012    2    1    2    0    0 -0.36668973682E+02  0.61370215852E+01  0.16458703328E+02  0.50528861051E+02  0.30000003649E+02 0.  0.
        -12    1    1    2    0    0  0.36668973682E+02 -0.61370215852E+01 -0.16458703328E+02  0.40659138949E+02  0.00000000000E+00 0.  1.
         11    1    3    3    0    0 -0.34409375976E+02 -0.41163371413E+01  0.16660342473E+02  0.38451481092E+02  0.51100000000E-03 0. -1.
        -11    1    3    3    0    0  0.52178156035E+00  0.94677759833E+00 -0.19293851644E+01  0.22115992384E+01  0.51100000000E-03 0.  1.
         12    1    3    3    0    0 -0.27813792665E+01  0.93065811282E+01  0.17277460191E+01  0.98657807206E+01  0.00000000000E+00 0. -1.
</event>
<event>
 7    1  0.9406864E-013  0.5052886E+02  0.7816164E-02  0.1300439E+00
        -11   -1    0    0    0    0  0.00000000000E+00  0.00000000000E+00  0.45593999997E+02  0.45594000000E+02  0.51100000000E-03 0.  1.
         11   -1    0    0    0    0 -0.00000000000E+00 -0.00000000000E+00 -0.45593999997E+02  0.45594000000E+02  0.51100000000E-03 0. -1.
    9900012    2    1    2    0    0 -0.17214347675E+02 -0.49939490650E+01 -0.36495099747E+02  0.50528860822E+02  0.30000002956E+02 0.  0.
        -12    1    1    2    0    0  0.17214347675E+02  0.49939490650E+01  0.36495099747E+02  0.40659139178E+02  0.00000000000E+00 0.  1.
         11    1    3    3    0    0 -0.11027922424E+02  0.31523427745E+01 -0.24178740619E+02  0.26761237567E+02  0.51100000000E-03 0. -1.
        -11    1    3    3    0    0  0.30593553763E+01 -0.42837809763E+01  0.25424652166E+01  0.58459015054E+01  0.51100000000E-03 0.  1.
        -12    1    3    3    0    0 -0.92457806270E+01 -0.38625108631E+01 -0.14858824345E+02  0.17921721750E+02  0.00000000000E+00 0.  1.
</event>
<event>
 7    1  0.9406864E-013  0.5052886E+02  0.7816164E-02  0.1300439E+00
        -11   -1    0    0    0    0  0.00000000000E+00  0.00000000000E+00  0.45593999997E+02  0.45594000000E+02  0.51100000000E-03 0. -1.
         11   -1    0    0    0    0 -0.00000000000E+00 -0.00000000000E+00 -0.45593999997E+02  0.45594000000E+02  0.51100000000E-03 0.  1.
    9900012    2    1    2    0    0 -0.68378485421E+01 -0.91302963989E+01  0.39026240459E+02  0.50528856755E+02  0.29999990593E+02 0.  0.
        -12    1    1    2    0    0  0.68378485421E+01  0.91302963989E+01 -0.39026240459E+02  0.40659143245E+02  0.00000000000E+00 0.  1.
         11    1    3    3    0    0 -0.53059339714E+01 -0.52783267287E+01  0.29655006325E+01  0.80503330755E+01  0.51100000000E-03 0. -1.
        -11    1    3    3    0    0  0.19669658947E+01  0.89249539583E+01  0.13158390439E+02  0.16020830103E+02  0.51100000000E-03 0.  1.
        -12    1    3    3    0    0 -0.34988804655E+01 -0.12776923629E+02  0.22902349388E+02  0.26457693577E+02  0.00000000000E+00 0.  1.
</event>
<event>
 7    1  0.9406864E-013  0.5052887E+02  0.7816164E-02  0.1300439E+00
        -11   -1    0    0    0    0  0.00000000000E+00  0.00000000000E+00  0.45593999997E+02  0.45594000000E+02  0.51100000000E-03 0. -1.
         11   -1    0    0    0    0 -0.00000000000E+00 -0.00000000000E+00 -0.45593999997E+02  0.45594000000E+02  0.51100000000E-03 0.  1.
    9900012    2    1    2    0    0  0.20788702599E+02 -0.95676199025E+01  0.33607374580E+02  0.50528866555E+02  0.30000020380E+02 0.  0.
        -12    1    1    2    0    0 -0.20788702599E+02  0.95676199025E+01 -0.33607374580E+02  0.40659133445E+02  0.00000000000E+00 0.  1.
         11    1    3    3    0    0  0.18891163265E+02 -0.28360287606E+01  0.21420614089E+02  0.28701251137E+02  0.51100000000E-03 0. -1.
        -11    1    3    3    0    0 -0.13578965269E+01  0.50591156236E+01  0.64732100552E+01  0.83271233058E+01  0.51100000000E-03 0.  1.
         12    1    3    3    0    0  0.32554358608E+01 -0.11790706765E+02  0.57135504360E+01  0.13500492112E+02  0.00000000000E+00 0. -1.
</event>
<event>
 7    1  0.9406864E-013  0.5052886E+02  0.7816164E-02  0.1300439E+00
        -11   -1    0    0    0    0  0.00000000000E+00  0.00000000000E+00  0.45593999997E+02  0.45594000000E+02  0.51100000000E-03 0.  1.
         11   -1    0    0    0    0 -0.00000000000E+00 -0.00000000000E+00 -0.45593999997E+02  0.45594000000E+02  0.51100000000E-03 0. -1.
    9900012    2    1    2    0    0 -0.25622106391E+02  0.20199355212E+02 -0.24262301137E+02  0.50528861502E+02  0.30000005022E+02 0.  0.
        -12    1    1    2    0    0  0.25622106391E+02 -0.20199355212E+02  0.24262301137E+02  0.40659138498E+02  0.00000000000E+00 0.  1.
         11    1    3    3    0    0 -0.86039358044E+01  0.24317264990E+02 -0.12480118895E+02  0.28655024966E+02  0.51100000000E-03 0. -1.
        -11    1    3    3    0    0 -0.75724046834E+01 -0.45466939264E+01 -0.43419287493E+01  0.98420568925E+01  0.51100000000E-03 0.  1.
         12    1    3    3    0    0 -0.94457659036E+01  0.42878414810E+00 -0.74402534929E+01  0.12031779643E+02  0.00000000000E+00 0. -1.
</event>
<event>
 7    1  0.9406864E-013  0.5052888E+02  0.7816164E-02  0.1300439E+00
        -11   -1    0    0    0    0  0.00000000000E+00  0.00000000000E+00  0.45593999997E+02  0.45594000000E+02  0.51100000000E-03 0. -1.
         11   -1    0    0    0    0 -0.00000000000E+00 -0.00000000000E+00 -0.45593999997E+02  0.45594000000E+02  0.51100000000E-03 0.  1.
    9900012    2    1    2    0    0 -0.94407429082E+01 -0.47021973478E+00  0.39545103525E+02  0.50528881145E+02  0.30000064727E+02 0.  0.
        -12    1    1    2    0    0  0.94407429082E+01  0.47021973478E+00 -0.39545103525E+02  0.40659118855E+02  0.00000000000E+00 0.  1.
         11    1    3    3    0    0 -0.23995639497E+01 -0.75156652936E+01  0.28057530442E+02  0.29145636839E+02  0.51100000000E-03 0. -1.
        -11    1    3    3    0    0  0.25490128622E+01  0.54542138923E+01 -0.39182947018E+00  0.60331953681E+01  0.51100000000E-03 0.  1.
        -12    1    3    3    0    0 -0.95901918206E+01  0.15912316665E+01  0.11879402553E+02  0.15350048938E+02  0.00000000000E+00 0.  1.
</event>
<event>
 7    1  0.9406864E-013  0.5052889E+02  0.7816164E-02  0.1300439E+00
        -11   -1    0    0    0    0  0.00000000000E+00  0.00000000000E+00  0.45593999997E+02  0.45594000000E+02  0.51100000000E-03 0.  1.
         11   -1    0    0    0    0 -0.00000000000E+00 -0.00000000000E+00 -0.45593999997E+02  0.45594000000E+02  0.51100000000E-03 0. -1.
    9900012    2    1    2    0    0  0.28672002100E+02 -0.27296436623E+02 -0.92727753025E+01  0.50528886403E+02  0.30000080709E+02 0.  0.
        -12    1    1    2    0    0 -0.28672002100E+02  0.27296436623E+02  0.92727753025E+01  0.40659113597E+02  0.00000000000E+00 0.  1.
         11    1    3    3    0    0  0.11086067645E+02 -0.14575720739E+02 -0.17154232220E+02  0.25092234141E+02  0.51100000000E-03 0. -1.
        -11    1    3    3    0    0  0.35332392533E+01 -0.48096394702E+00  0.56316490918E+01  0.66656265792E+01  0.51100000000E-03 0.  1.
         12    1    3    3    0    0  0.14052695202E+02 -0.12239751937E+02  0.22498078257E+01  0.18771025682E+02  0.00000000000E+00 0. -1.
</event>
<event>
 7    1  0.9406864E-013  0.5052885E+02  0.7816164E-02  0.1300439E+00
        -11   -1    0    0    0    0  0.00000000000E+00  0.00000000000E+00  0.45593999997E+02  0.45594000000E+02  0.51100000000E-03 0.  1.
         11   -1    0    0    0    0 -0.00000000000E+00 -0.00000000000E+00 -0.45593999997E+02  0.45594000000E+02  0.51100000000E-03 0. -1.
    9900012    2    1    2    0    0  0.92222476623E+01  0.22527821919E+02 -0.32567064836E+02  0.50528851898E+02  0.29999975829E+02 0.  0.
        -12    1    1    2    0    0 -0.92222476623E+01 -0.22527821919E+02  0.32567064836E+02  0.40659148102E+02  0.00000000000E+00 0.  1.
         11    1    3    3    0    0  0.82160390438E+01  0.18124614800E+02 -0.27677392439E+02  0.34088751982E+02  0.51100000000E-03 0. -1.
        -11    1    3    3    0    0  0.35337609679E+01 -0.49045590418E+01 -0.16584503588E+01  0.62683828717E+01  0.51100000000E-03 0.  1.
         12    1    3    3    0    0 -0.25275523494E+01  0.93077661601E+01 -0.32312220386E+01  0.10171717044E+02  0.00000000000E+00 0. -1.
</event>
<event>
 7    1  0.9406864E-013  0.5052888E+02  0.7816164E-02  0.1300439E+00
        -11   -1    0    0    0    0  0.00000000000E+00  0.00000000000E+00  0.45593999997E+02  0.45594000000E+02  0.51100000000E-03 0. -1.
         11   -1    0    0    0    0 -0.00000000000E+00 -0.00000000000E+00 -0.45593999997E+02  0.45594000000E+02  0.51100000000E-03 0.  1.
    9900012    2    1    2    0    0  0.28215729872E+02  0.13543023926E+02  0.25954257934E+02  0.50528875389E+02  0.30000047231E+02 0.  0.
        -12    1    1    2    0    0 -0.28215729872E+02 -0.13543023926E+02 -0.25954257934E+02  0.40659124611E+02  0.00000000000E+00 0.  1.
         11    1    3    3    0    0  0.12001410989E+02  0.15087326658E+02  0.21599283419E+02  0.28951516988E+02  0.51100000000E-03 0. -1.
        -11    1    3    3    0    0  0.14823365888E+02 -0.45766292832E+01  0.72832644979E+01  0.17138367888E+02  0.51100000000E-03 0.  1.
        -12    1    3    3    0    0  0.13909529954E+01  0.30323265515E+01 -0.29282899835E+01  0.44389905133E+01  0.00000000000E+00 0.  1.
</event>
<event>
 7    1  0.9406864E-013  0.5052887E+02  0.7816164E-02  0.1300439E+00
        -11   -1    0    0    0    0  0.00000000000E+00  0.00000000000E+00  0.45593999997E+02  0.45594000000E+02  0.51100000000E-03 0.  1.
         11   -1    0    0    0    0 -0.00000000000E+00 -0.00000000000E+00 -0.45593999997E+02  0.45594000000E+02  0.51100000000E-03 0. -1.
    9900012    2    1    2    0    0 -0.13211144760E+02 -0.14063295489E+02 -0.35789027640E+02  0.50528866644E+02  0.30000020650E+02 0.  0.
        -12    1    1    2    0    0  0.13211144760E+02  0.14063295489E+02  0.35789027640E+02  0.40659133356E+02  0.00000000000E+00 0.  1.
         11    1    3    3    0    0  0.16996701089E+01 -0.97463493347E+01 -0.19640523516E+02  0.21991597670E+02  0.51100000000E-03 0. -1.
        -11    1    3    3    0    0 -0.16355253919E+02 -0.33032730052E+01 -0.18935839272E+02  0.25238303281E+02  0.51100000000E-03 0.  1.
        -12    1    3    3    0    0  0.14444390499E+01 -0.10136731488E+01  0.27873351473E+01  0.32989656932E+01  0.00000000000E+00 0.  1.
</event>
<event>
 7    1  0.9406864E-013  0.5052883E+02  0.7816164E-02  0.1300439E+00
        -11   -1    0    0    0    0  0.00000000000E+00  0.00000000000E+00  0.45593999997E+02  0.45594000000E+02  0.51100000000E-03 0. -1.
         11   -1    0    0    0    0 -0.00000000000E+00 -0.00000000000E+00 -0.45593999997E+02  0.45594000000E+02  0.51100000000E-03 0.  1.
    9900012    2    1    2    0    0 -0.14754223778E+02 -0.14080127068E+02  0.35174290493E+02  0.50528833639E+02  0.29999920329E+02 0.  0.
        -12    1    1    2    0    0  0.14754223778E+02  0.14080127068E+02 -0.35174290493E+02  0.40659166361E+02  0.00000000000E+00 0.  1.
         11    1    3    3    0    0 -0.44927576348E+01 -0.15101973067E+02  0.23840802224E+02  0.28576884236E+02  0.51100000000E-03 0. -1.
        -11    1    3    3    0    0 -0.84490594195E+01  0.74474941200E+01  0.38019000707E+01  0.11887229204E+02  0.51100000000E-03 0.  1.
        -12    1    3    3    0    0 -0.18124067235E+01 -0.64256481205E+01  0.75315881981E+01  0.10064720199E+02  0.00000000000E+00 0.  1.
</event>
<event>
 7    1  0.9406864E-013  0.5052886E+02  0.7816164E-02  0.1300439E+00
        -11   -1    0    0    0    0  0.00000000000E+00  0.00000000000E+00  0.45593999997E+02  0.45594000000E+02  0.51100000000E-03 0.  1.
         11   -1    0    0    0    0 -0.00000000000E+00 -0.00000000000E+00 -0.45593999997E+02  0.45594000000E+02  0.51100000000E-03 0. -1.
    9900012    2    1    2    0    0 -0.41500277263E+01 -0.39563211241E+02  0.84080433455E+01  0.50528860724E+02  0.30000002656E+02 0.  0.
        -12    1    1    2    0    0  0.41500277263E+01  0.39563211241E+02 -0.84080433455E+01  0.40659139276E+02  0.00000000000E+00 0.  1.
         11    1    3    3    0    0 -0.95127402211E+01 -0.13055142897E+02  0.12039364552E+02  0.20146346608E+02  0.51100000000E-03 0. -1.
        -11    1    3    3    0    0  0.88843849499E+01 -0.24288351373E+02 -0.21016273683E+01  0.25947507514E+02  0.51100000000E-03 0.  1.
        -12    1    3    3    0    0 -0.35216724551E+01 -0.22197169709E+01 -0.15296938387E+01  0.44350066011E+01  0.00000000000E+00 0.  1.
</event>
<event>
 7    1  0.9406864E-013  0.5052884E+02  0.7816164E-02  0.1300439E+00
        -11   -1    0    0    0    0  0.00000000000E+00  0.00000000000E+00  0.45593999997E+02  0.45594000000E+02  0.51100000000E-03 0. -1.
         11   -1    0    0    0    0 -0.00000000000E+00 -0.00000000000E+00 -0.45593999997E+02  0.45594000000E+02  0.51100000000E-03 0.  1.
    9900012    2    1    2    0    0  0.33005295029E+02 -0.13600830508E+02  0.19463682730E+02  0.50528843149E+02  0.29999949235E+02 0.  0.
        -12    1    1    2    0    0 -0.33005295029E+02  0.13600830508E+02 -0.19463682730E+02  0.40659156851E+02  0.00000000000E+00 0.  1.
         11    1    3    3    0    0  0.33280977446E+02 -0.13429381806E+02  0.22091485938E+02  0.42142680345E+02  0.51100000000E-03 0. -1.
        -11    1    3    3    0    0 -0.37404589203E+01  0.98921118002E+00  0.27677557699E-01  0.38691521037E+01  0.51100000000E-03 0.  1.
         12    1    3    3    0    0  0.34647765024E+01 -0.11606598813E+01 -0.26554807649E+01  0.45170107000E+01  0.00000000000E+00 0. -1.
</event>
<event>
 7    1  0.9750901E-013  0.5052886E+02  0.7816164E-02  0.1300439E+00
        -11   -1    0    0    0    0  0.00000000000E+00  0.00000000000E+00  0.45593999997E+02  0.45594000000E+02  0.51100000000E-03 0. -1.
         11   -1    0    0    0    0 -0.00000000000E+00 -0.00000000000E+00 -0.45593999997E+02  0.45594000000E+02  0.51100000000E-03 0.  1.
    9900012    2    1    2    0    0 -0.23628625810E+00 -0.15752257743E+02  0.37483013426E+02  0.50528858953E+02  0.29999997273E+02 0.  0.
        -12    1    1    2    0    0  0.23628625810E+00  0.15752257743E+02 -0.37483013426E+02  0.40659141047E+02  0.00000000000E+00 0.  1.
         11    1    3    3    0    0  0.75256405308E+01 -0.11316571176E+02  0.23788996066E+02  0.27397379121E+02  0.51100000000E-03 0. -1.
        -11    1    3    3    0    0 -0.39807530783E+01 -0.63061269171E+01 -0.12871335646E+01  0.75677172806E+01  0.51100000000E-03 0.  1.
        -12    1    3    3    0    0 -0.37811737106E+01  0.18704403504E+01  0.14981150924E+02  0.15563762551E+02  0.00000000000E+00 0.  1.
</event>
<event>
 7    1  0.9406864E-013  0.5052886E+02  0.7816164E-02  0.1300439E+00
        -11   -1    0    0    0    0  0.00000000000E+00  0.00000000000E+00  0.45593999997E+02  0.45594000000E+02  0.51100000000E-03 0.  1.
         11   -1    0    0    0    0 -0.00000000000E+00 -0.00000000000E+00 -0.45593999997E+02  0.45594000000E+02  0.51100000000E-03 0. -1.
    9900012    2    1    2    0    0 -0.24693328200E+02 -0.20102883505E+02 -0.25283974876E+02  0.50528858736E+02  0.29999996613E+02 0.  0.
        -12    1    1    2    0    0  0.24693328200E+02  0.20102883505E+02  0.25283974876E+02  0.40659141264E+02  0.00000000000E+00 0.  1.
         11    1    3    3    0    0 -0.72315259330E+01 -0.15241786689E+02 -0.25107093939E+02  0.30248523850E+02  0.51100000000E-03 0. -1.
        -11    1    3    3    0    0 -0.99174929901E+01 -0.18653116338E+01 -0.45389606643E+01  0.11065180472E+02  0.51100000000E-03 0.  1.
         12    1    3    3    0    0 -0.75443092771E+01 -0.29957851820E+01  0.43620797268E+01  0.92151544137E+01  0.00000000000E+00 0. -1.
</event>
<event>
 7    1  0.9406864E-013  0.5052886E+02  0.7816164E-02  0.1300439E+00
        -11   -1    0    0    0    0  0.00000000000E+00  0.00000000000E+00  0.45593999997E+02  0.45594000000E+02  0.51100000000E-03 0. -1.
         11   -1    0    0    0    0 -0.00000000000E+00 -0.00000000000E+00 -0.45593999997E+02  0.45594000000E+02  0.51100000000E-03 0.  1.
    9900012    2    1    2    0    0  0.21223619735E+02  0.20354651239E+02  0.28078675189E+02  0.50528857583E+02  0.29999993109E+02 0.  0.
        -12    1    1    2    0    0 -0.21223619735E+02 -0.20354651239E+02 -0.28078675189E+02  0.40659142417E+02  0.00000000000E+00 0.  1.
         11    1    3    3    0    0  0.55511608032E+01  0.62846620870E+01  0.22936635116E+02  0.24421334823E+02  0.51100000000E-03 0. -1.
        -11    1    3    3    0    0  0.13625361284E+02  0.32613848336E+01  0.11044559595E+00  0.14010685195E+02  0.51100000000E-03 0.  1.
         12    1    3    3    0    0  0.20470976484E+01  0.10808604318E+02  0.50315944767E+01  0.12096837565E+02  0.00000000000E+00 0. -1.
</event>
<event>
 7    1  0.9406864E-013  0.5052886E+02  0.7816164E-02  0.1300439E+00
        -11   -1    0    0    0    0  0.00000000000E+00  0.00000000000E+00  0.45593999997E+02  0.45594000000E+02  0.51100000000E-03 0.  1.
         11   -1    0    0    0    0 -0.00000000000E+00 -0.00000000000E+00 -0.45593999997E+02  0.45594000000E+02  0.51100000000E-03 0. -1.
    9900012    2    1    2    0    0  0.33500340941E+02  0.22984150037E+02  0.16191575815E+01  0.50528859978E+02  0.30000000388E+02 0.  0.
        -12    1    1    2    0    0 -0.33500340941E+02 -0.22984150037E+02 -0.16191575815E+01  0.40659140022E+02  0.00000000000E+00 0.  1.
         11    1    3    3    0    0  0.36792656776E+01  0.10668531763E+01 -0.98549534872E+01  0.10573328715E+02  0.51100000000E-03 0. -1.
        -11    1    3    3    0    0  0.58776695269E+01  0.14619499027E+01  0.48872572197E+01  0.77826460782E+01  0.51100000000E-03 0.  1.
         12    1    3    3    0    0  0.23943405736E+02  0.20455346958E+02  0.65868538490E+01  0.32172885184E+02  0.00000000000E+00 0. -1.
</event>
<event>
 7    1  0.9406864E-013  0.5052886E+02  0.7816164E-02  0.1300439E+00
        -11   -1    0    0    0    0  0.00000000000E+00  0.00000000000E+00  0.45593999997E+02  0.45594000000E+02  0.51100000000E-03 0.  1.
         11   -1    0    0    0    0 -0.00000000000E+00 -0.00000000000E+00 -0.45593999997E+02  0.45594000000E+02  0.51100000000E-03 0. -1.
    9900012    2    1    2    0    0  0.12860938956E+02  0.17863346829E+02 -0.34185707619E+02  0.50528861836E+02  0.30000006038E+02 0.  0.
        -12    1    1    2    0    0 -0.12860938956E+02 -0.17863346829E+02  0.34185707619E+02  0.40659138164E+02  0.00000000000E+00 0.  1.
         11    1    3    3    0    0  0.19532142331E+02  0.17370025036E+02 -0.30837243951E+02  0.40424719771E+02  0.51100000000E-03 0. -1.
        -11    1    3    3    0    0 -0.11490901642E+01 -0.10154409688E+01 -0.40558691481E+01  0.43360815691E+01  0.51100000000E-03 0.  1.
         12    1    3    3    0    0 -0.55221132106E+01  0.15087627615E+01  0.70740547939E+00  0.57680604967E+01  0.00000000000E+00 0. -1.
</event>
<event>
 7    1  0.9406864E-013  0.5052881E+02  0.7816164E-02  0.1300439E+00
        -11   -1    0    0    0    0  0.00000000000E+00  0.00000000000E+00  0.45593999997E+02  0.45594000000E+02  0.51100000000E-03 0. -1.
         11   -1    0    0    0    0 -0.00000000000E+00 -0.00000000000E+00 -0.45593999997E+02  0.45594000000E+02  0.51100000000E-03 0.  1.
    9900012    2    1    2    0    0 -0.26699478798E+02 -0.26158616940E+02  0.16001077587E+02  0.50528808023E+02  0.29999842466E+02 0.  0.
        -12    1    1    2    0    0  0.26699478798E+02  0.26158616940E+02 -0.16001077587E+02  0.40659191977E+02  0.00000000000E+00 0.  1.
         11    1    3    3    0    0  0.52957396243E+01 -0.10906870105E+00  0.38290236680E+01  0.65359143707E+01  0.51100000000E-03 0. -1.
        -11    1    3    3    0    0 -0.24212597668E+02 -0.20241442506E+02  0.13239260640E+02  0.34223440843E+02  0.51100000000E-03 0.  1.
        -12    1    3    3    0    0 -0.77826207542E+01 -0.58081057331E+01 -0.10672067209E+01  0.97694528094E+01  0.00000000000E+00 0.  1.
</event>
<event>
 7    1  0.9406864E-013  0.5052886E+02  0.7816164E-02  0.1300439E+00
        -11   -1    0    0    0    0  0.00000000000E+00  0.00000000000E+00  0.45593999997E+02  0.45594000000E+02  0.51100000000E-03 0.  1.
         11   -1    0    0    0    0 -0.00000000000E+00 -0.00000000000E+00 -0.45593999997E+02  0.45594000000E+02  0.51100000000E-03 0. -1.
    9900012    2    1    2    0    0 -0.19858706064E+02 -0.13252200856E+02 -0.32911649379E+02  0.50528859590E+02  0.29999999209E+02 0.  0.
        -12    1    1    2    0    0  0.19858706064E+02  0.13252200856E+02  0.32911649379E+02  0.40659140410E+02  0.00000000000E+00 0.  1.
         11    1    3    3    0    0 -0.35445958378E+01 -0.74452907497E+01 -0.15070839989E+02  0.17179252959E+02  0.51100000000E-03 0. -1.
        -11    1    3    3    0    0 -0.24025714760E+01 -0.91466493818E+01  0.12001114674E+01  0.95327756926E+01  0.51100000000E-03 0.  1.
        -12    1    3    3    0    0 -0.13911538750E+02  0.33397392755E+01 -0.19040920857E+02  0.23816830938E+02  0.00000000000E+00 0.  1.
</event>
<event>
 7    1  0.9406864E-013  0.5052886E+02  0.7816164E-02  0.1300439E+00
        -11   -1    0    0    0    0  0.00000000000E+00  0.00000000000E+00  0.45593999997E+02  0.45594000000E+02  0.51100000000E-03 0. -1.
         11   -1    0    0    0    0 -0.00000000000E+00 -0.00000000000E+00 -0.45593999997E+02  0.45594000000E+02  0.51100000000E-03 0.  1.
    9900012    2    1    2    0    0  0.38613948191E+02 -0.28464074820E+01 -0.12410761479E+02  0.50528855507E+02  0.29999986799E+02 0.  0.
        -12    1    1    2    0    0 -0.38613948191E+02  0.28464074820E+01  0.12410761479E+02  0.40659144493E+02  0.00000000000E+00 0.  1.
         11    1    3    3    0    0  0.19327058431E+02 -0.13068398252E+02 -0.14402099795E+02  0.27417853659E+02  0.51100000000E-03 0. -1.
        -11    1    3    3    0    0  0.11572252844E+02  0.79362006513E+01  0.44106915036E+01  0.14708994407E+02  0.51100000000E-03 0.  1.
         12    1    3    3    0    0  0.77146369155E+01  0.22857901188E+01 -0.24193531878E+01  0.84020074419E+01  0.00000000000E+00 0. -1.
</event>
<event>
 7    1  0.9406864E-013  0.5052887E+02  0.7816164E-02  0.1300439E+00
        -11   -1    0    0    0    0  0.00000000000E+00  0.00000000000E+00  0.45593999997E+02  0.45594000000E+02  0.51100000000E-03 0. -1.
         11   -1    0    0    0    0 -0.00000000000E+00 -0.00000000000E+00 -0.45593999997E+02  0.45594000000E+02  0.51100000000E-03 0.  1.
    9900012    2    1    2    0    0 -0.27922261274E+01 -0.14322015381E+02  0.37950600925E+02  0.50528871113E+02  0.30000034234E+02 0.  0.
        -12    1    1    2    0    0  0.27922261274E+01  0.14322015381E+02 -0.37950600925E+02  0.40659128887E+02  0.00000000000E+00 0.  1.
         11    1    3    3    0    0 -0.44074616997E+01  0.14207002706E+01  0.13661570159E+02  0.14425068713E+02  0.51100000000E-03 0. -1.
        -11    1    3    3    0    0  0.80395095762E+01 -0.13654875986E+02  0.24689384564E+02  0.29336923199E+02  0.51100000000E-03 0.  1.
        -12    1    3    3    0    0 -0.64242740039E+01 -0.20878396657E+01 -0.40035379822E+00  0.67668792002E+01  0.00000000000E+00 0.  1.
</event>
<event>
 7    1  0.9406864E-013  0.5052888E+02  0.7816164E-02  0.1300439E+00
        -11   -1    0    0    0    0  0.00000000000E+00  0.00000000000E+00  0.45593999997E+02  0.45594000000E+02  0.51100000000E-03 0.  1.
         11   -1    0    0    0    0 -0.00000000000E+00 -0.00000000000E+00 -0.45593999997E+02  0.45594000000E+02  0.51100000000E-03 0. -1.
    9900012    2    1    2    0    0  0.26659652780E+02 -0.29899732978E+02 -0.69593476374E+01  0.50528884933E+02  0.30000076243E+02 0.  0.
        -12    1    1    2    0    0 -0.26659652780E+02  0.29899732978E+02  0.69593476374E+01  0.40659115067E+02  0.00000000000E+00 0.  1.
         11    1    3    3    0    0  0.81983908057E+00 -0.83789469213E+01 -0.94308272680E+01  0.12641969421E+02  0.51100000000E-03 0. -1.
        -11    1    3    3    0    0  0.84924467691E+01  0.10722810558E+01  0.38128402355E+01  0.93706557780E+01  0.51100000000E-03 0.  1.
         12    1    3    3    0    0  0.17347366930E+02 -0.22593067112E+02 -0.13413606050E+01  0.28516259734E+02  0.00000000000E+00 0. -1.
</event>
<event>
 7    1  0.9406864E-013  0.5052886E+02  0.7816164E-02  0.1300439E+00
        -11   -1    0    0    0    0  0.00000000000E+00  0.00000000000E+00  0.45593999997E+02  0.45594000000E+02  0.51100000000E-03 0.  1.
         11   -1    0    0    0    0 -0.00000000000E+00 -0.00000000000E+00 -0.45593999997E+02  0.45594000000E+02  0.51100000000E-03 0. -1.
    9900012    2    1    2    0    0 -0.35667708663E+02  0.34658771945E+01 -0.19208536019E+02  0.50528860782E+02  0.30000002832E+02 0.  0.
        -12    1    1    2    0    0  0.35667708663E+02 -0.34658771945E+01  0.19208536019E+02  0.40659139218E+02  0.00000000000E+00 0.  1.
         11    1    3    3    0    0 -0.18282577680E+02  0.11907914976E+02 -0.73280836312E+01  0.23016339754E+02  0.51100000000E-03 0. -1.
        -11    1    3    3    0    0 -0.18365605651E+02 -0.11371991090E+02 -0.94339080538E+01  0.23571514031E+02  0.51100000000E-03 0.  1.
        -12    1    3    3    0    0  0.98047466817E+00  0.29299533089E+01 -0.24465443344E+01  0.39410069966E+01  0.00000000000E+00 0.  1.
</event>
<event>
 7    1  0.9406864E-013  0.5052887E+02  0.7816164E-02  0.1300439E+00
        -11   -1    0    0    0    0  0.00000000000E+00  0.00000000000E+00  0.45593999997E+02  0.45594000000E+02  0.51100000000E-03 0.  1.
         11   -1    0    0    0    0 -0.00000000000E+00 -0.00000000000E+00 -0.45593999997E+02  0.45594000000E+02  0.51100000000E-03 0. -1.
    9900012    2    1    2    0    0 -0.16824155700E+02 -0.16354827134E+02 -0.33205910735E+02  0.50528867037E+02  0.30000021845E+02 0.  0.
        -12    1    1    2    0    0  0.16824155700E+02  0.16354827134E+02  0.33205910735E+02  0.40659132963E+02  0.00000000000E+00 0.  1.
         11    1    3    3    0    0 -0.67225694940E+01 -0.68623491929E+01 -0.65019981403E+01  0.11600032635E+02  0.51100000000E-03 0. -1.
        -11    1    3    3    0    0 -0.74721354454E+01  0.60170054970E+01 -0.22528371447E+01  0.98545643601E+01  0.51100000000E-03 0.  1.
        -12    1    3    3    0    0 -0.26294507604E+01 -0.15509483438E+02 -0.24451075450E+02  0.29074270042E+02  0.00000000000E+00 0.  1.
</event>
<event>
 7    1  0.9406864E-013  0.5052886E+02  0.7816164E-02  0.1300439E+00
        -11   -1    0    0    0    0  0.00000000000E+00  0.00000000000E+00  0.45593999997E+02  0.45594000000E+02  0.51100000000E-03 0.  1.
         11   -1    0    0    0    0 -0.00000000000E+00 -0.00000000000E+00 -0.45593999997E+02  0.45594000000E+02  0.51100000000E-03 0. -1.
    9900012    2    1    2    0    0  0.44545403337E+01 -0.17169433353E+02 -0.36585974078E+02  0.50528857480E+02  0.29999992797E+02 0.  0.
        -12    1    1    2    0    0 -0.44545403337E+01  0.17169433353E+02  0.36585974078E+02  0.40659142520E+02  0.00000000000E+00 0.  1.
         11    1    3    3    0    0  0.34089724556E+01 -0.13439312276E+02 -0.30297285858E+01  0.14192091574E+02  0.51100000000E-03 0. -1.
        -11    1    3    3    0    0 -0.59271900288E+01 -0.11334989890E+01 -0.10510908885E+02  0.12120049812E+02  0.51100000000E-03 0.  1.
         12    1    3    3    0    0  0.69727579069E+01 -0.25966220872E+01 -0.23045336607E+02  0.24216716095E+02  0.00000000000E+00 0. -1.
</event>
<event>
 7    1  0.9406864E-013  0.5052886E+02  0.7816164E-02  0.1300439E+00
        -11   -1    0    0    0    0  0.00000000000E+00  0.00000000000E+00  0.45593999997E+02  0.45594000000E+02  0.51100000000E-03 0.  1.
         11   -1    0    0    0    0 -0.00000000000E+00 -0.00000000000E+00 -0.45593999997E+02  0.45594000000E+02  0.51100000000E-03 0. -1.
    9900012    2    1    2    0    0 -0.37737541672E+02  0.14516975217E+02 -0.42779685170E+01  0.50528860369E+02  0.30000001576E+02 0.  0.
        -12    1    1    2    0    0  0.37737541672E+02 -0.14516975217E+02  0.42779685170E+01  0.40659139631E+02  0.00000000000E+00 0.  1.
         11    1    3    3    0    0 -0.15349462864E+02 -0.51299952694E+00 -0.99802707641E+01  0.18315976182E+02  0.51100000000E-03 0.  1.
        -11    1    3    3    0    0 -0.25143170255E+02  0.13662890867E+02  0.48746219137E+01  0.29027840711E+02  0.51100000000E-03 0. -1.
        -12    1    3    3    0    0  0.27550914461E+01  0.13670838773E+01  0.82768033333E+00  0.31850434751E+01  0.00000000000E+00 0.  1.
</event>
<event>
 7    1  0.9406864E-013  0.5052886E+02  0.7816164E-02  0.1300439E+00
        -11   -1    0    0    0    0  0.00000000000E+00  0.00000000000E+00  0.45593999997E+02  0.45594000000E+02  0.51100000000E-03 0.  1.
         11   -1    0    0    0    0 -0.00000000000E+00 -0.00000000000E+00 -0.45593999997E+02  0.45594000000E+02  0.51100000000E-03 0. -1.
    9900012    2    1    2    0    0  0.39873642667E+02 -0.57341748698E+01 -0.55115670756E+01  0.50528861880E+02  0.30000006172E+02 0.  0.
        -12    1    1    2    0    0 -0.39873642667E+02  0.57341748698E+01  0.55115670756E+01  0.40659138120E+02  0.00000000000E+00 0.  1.
         11    1    3    3    0    0  0.13418558620E+02  0.41950830079E+01  0.22669976989E+01  0.14240636071E+02  0.51100000000E-03 0. -1.
        -11    1    3    3    0    0  0.65924637536E+01 -0.12422360768E+02 -0.81732882073E+01  0.16265861974E+02  0.51100000000E-03 0.  1.
        -12    1    3    3    0    0  0.19862620293E+02  0.24931028900E+01  0.39472343285E+00  0.20022363835E+02  0.00000000000E+00 0.  1.
</event>
<event>
 7    1  0.9406864E-013  0.5052886E+02  0.7816164E-02  0.1300439E+00
        -11   -1    0    0    0    0  0.00000000000E+00  0.00000000000E+00  0.45593999997E+02  0.45594000000E+02  0.51100000000E-03 0. -1.
         11   -1    0    0    0    0 -0.00000000000E+00 -0.00000000000E+00 -0.45593999997E+02  0.45594000000E+02  0.51100000000E-03 0.  1.
    9900012    2    1    2    0    0  0.19534051533E+02  0.21973558303E+02  0.28084677871E+02  0.50528861238E+02  0.30000004218E+02 0.  0.
        -12    1    1    2    0    0 -0.19534051533E+02 -0.21973558303E+02 -0.28084677871E+02  0.40659138762E+02  0.00000000000E+00 0.  1.
         11    1    3    3    0    0 -0.13448841025E+00  0.12292918349E+00  0.12991871325E+02  0.12993148945E+02  0.51100000000E-03 0. -1.
        -11    1    3    3    0    0  0.21385595056E+02  0.20505333534E+02  0.17400938298E+02  0.34359933544E+02  0.51100000000E-03 0.  1.
        -12    1    3    3    0    0 -0.17170551128E+01  0.13452955860E+01 -0.23081317523E+01  0.31757787486E+01  0.00000000000E+00 0.  1.
</event>
<event>
 7    1  0.9406864E-013  0.5052886E+02  0.7816164E-02  0.1300439E+00
        -11   -1    0    0    0    0  0.00000000000E+00  0.00000000000E+00  0.45593999997E+02  0.45594000000E+02  0.51100000000E-03 0. -1.
         11   -1    0    0    0    0 -0.00000000000E+00 -0.00000000000E+00 -0.45593999997E+02  0.45594000000E+02  0.51100000000E-03 0.  1.
    9900012    2    1    2    0    0  0.11632718275E+02 -0.19102744720E+02  0.33954828495E+02  0.50528863654E+02  0.30000011563E+02 0.  0.
        -12    1    1    2    0    0 -0.11632718275E+02  0.19102744720E+02 -0.33954828495E+02  0.40659136346E+02  0.00000000000E+00 0.  1.
         11    1    3    3    0    0  0.16896323328E+02 -0.12153140787E+02  0.16145748188E+02  0.26341407666E+02  0.51100000000E-03 0. -1.
        -11    1    3    3    0    0 -0.98705956590E+01 -0.34608784490E+01  0.99843078714E+01  0.14460039496E+02  0.51100000000E-03 0.  1.
        -12    1    3    3    0    0  0.46069906057E+01 -0.34887254841E+01  0.78247724350E+01  0.97274164918E+01  0.00000000000E+00 0.  1.
</event>
<event>
 7    1  0.9406864E-013  0.5052886E+02  0.7816164E-02  0.1300439E+00
        -11   -1    0    0    0    0  0.00000000000E+00  0.00000000000E+00  0.45593999997E+02  0.45594000000E+02  0.51100000000E-03 0. -1.
         11   -1    0    0    0    0 -0.00000000000E+00 -0.00000000000E+00 -0.45593999997E+02  0.45594000000E+02  0.51100000000E-03 0.  1.
    9900012    2    1    2    0    0  0.35083152123E+01 -0.26520983034E+02  0.30618532411E+02  0.50528863958E+02  0.30000012486E+02 0.  0.
        -12    1    1    2    0    0 -0.35083152123E+01  0.26520983034E+02 -0.30618532411E+02  0.40659136042E+02  0.00000000000E+00 0.  1.
         11    1    3    3    0    0 -0.75210276342E+00 -0.71187765534E+01 -0.32700132682E+01  0.78699190097E+01  0.51100000000E-03 0.  1.
        -11    1    3    3    0    0  0.26882817704E+00 -0.62361280207E+01  0.26127976882E+02  0.26863222768E+02  0.51100000000E-03 0. -1.
        -12    1    3    3    0    0  0.39915897987E+01 -0.13166078460E+02  0.77605687970E+01  0.15795722180E+02  0.00000000000E+00 0.  1.
</event>
<event>
 7    1  0.9406864E-013  0.5052886E+02  0.7816164E-02  0.1300439E+00
        -11   -1    0    0    0    0  0.00000000000E+00  0.00000000000E+00  0.45593999997E+02  0.45594000000E+02  0.51100000000E-03 0.  1.
         11   -1    0    0    0    0 -0.00000000000E+00 -0.00000000000E+00 -0.45593999997E+02  0.45594000000E+02  0.51100000000E-03 0. -1.
    9900012    2    1    2    0    0  0.26711366375E+02  0.68513229497E+01 -0.29878553520E+02  0.50528859820E+02  0.29999999908E+02 0.  0.
        -12    1    1    2    0    0 -0.26711366375E+02 -0.68513229497E+01  0.29878553520E+02  0.40659140180E+02  0.00000000000E+00 0.  1.
         11    1    3    3    0    0  0.60897685359E+01 -0.43805018925E+01 -0.15628142693E+02  0.17335308533E+02  0.51100000000E-03 0. -1.
        -11    1    3    3    0    0  0.22273318920E+02  0.95848005674E+01 -0.16980664036E+02  0.29602568959E+02  0.51100000000E-03 0.  1.
        -12    1    3    3    0    0 -0.16517210808E+01  0.16470242749E+01  0.27302532088E+01  0.35909823273E+01  0.00000000000E+00 0.  1.
</event>
<event>
 7    1  0.9406864E-013  0.5052885E+02  0.7816164E-02  0.1300439E+00
        -11   -1    0    0    0    0  0.00000000000E+00  0.00000000000E+00  0.45593999997E+02  0.45594000000E+02  0.51100000000E-03 0. -1.
         11   -1    0    0    0    0 -0.00000000000E+00 -0.00000000000E+00 -0.45593999997E+02  0.45594000000E+02  0.51100000000E-03 0.  1.
    9900012    2    1    2    0    0  0.32937342794E+02 -0.47607298107E+00  0.23834242836E+02  0.50528851861E+02  0.29999975716E+02 0.  0.
        -12    1    1    2    0    0 -0.32937342794E+02  0.47607298107E+00 -0.23834242836E+02  0.40659148139E+02  0.00000000000E+00 0.  1.
         11    1    3    3    0    0  0.30702450376E+01  0.55997290177E+01  0.96903867892E+01  0.11605471384E+02  0.51100000000E-03 0. -1.
        -11    1    3    3    0    0  0.22757286633E+02  0.20242128765E+01  0.23830640795E+01  0.22971080238E+02  0.51100000000E-03 0.  1.
        -12    1    3    3    0    0  0.71098111243E+01 -0.81000148753E+01  0.11760791967E+02  0.15952300238E+02  0.00000000000E+00 0.  1.
</event>
<event>
 7    1  0.9406864E-013  0.5052885E+02  0.7816164E-02  0.1300439E+00
        -11   -1    0    0    0    0  0.00000000000E+00  0.00000000000E+00  0.45593999997E+02  0.45594000000E+02  0.51100000000E-03 0.  1.
         11   -1    0    0    0    0 -0.00000000000E+00 -0.00000000000E+00 -0.45593999997E+02  0.45594000000E+02  0.51100000000E-03 0. -1.
    9900012    2    1    2    0    0  0.45713215010E+01 -0.93240521669E+01 -0.39310700777E+02  0.50528854354E+02  0.29999983295E+02 0.  0.
        -12    1    1    2    0    0 -0.45713215010E+01  0.93240521669E+01  0.39310700777E+02  0.40659145646E+02  0.00000000000E+00 0.  1.
         11    1    3    3    0    0  0.19393747232E-01  0.27081188739E+00 -0.32700124127E+02  0.32701251251E+02  0.51100000000E-03 0. -1.
        -11    1    3    3    0    0 -0.12520767116E+01 -0.10490780021E+02 -0.52571402117E+01  0.11800918820E+02  0.51100000000E-03 0.  1.
        -12    1    3    3    0    0  0.58040044654E+01  0.89591596671E+00 -0.13534364385E+01  0.60266842830E+01  0.00000000000E+00 0.  1.
</event>
<event>
 7    1  0.9406864E-013  0.5052893E+02  0.7816164E-02  0.1300439E+00
        -11   -1    0    0    0    0  0.00000000000E+00  0.00000000000E+00  0.45593999997E+02  0.45594000000E+02  0.51100000000E-03 0.  1.
         11   -1    0    0    0    0 -0.00000000000E+00 -0.00000000000E+00 -0.45593999997E+02  0.45594000000E+02  0.51100000000E-03 0. -1.
    9900012    2    1    2    0    0  0.15044461497E+02 -0.23909632639E+02 -0.29243010920E+02  0.50528929151E+02  0.30000210646E+02 0.  0.
        -12    1    1    2    0    0 -0.15044461497E+02  0.23909632639E+02  0.29243010920E+02  0.40659070849E+02  0.00000000000E+00 0.  1.
         11    1    3    3    0    0  0.83753973522E+01 -0.71428006118E+01 -0.10531164300E+02  0.15233919495E+02  0.51100000000E-03 0. -1.
        -11    1    3    3    0    0 -0.69125458752E+01  0.15851064767E+01 -0.41996557013E+01  0.82421454300E+01  0.51100000000E-03 0.  1.
        -12    1    3    3    0    0  0.13581610020E+02 -0.18351938504E+02 -0.14512190918E+02  0.27052864226E+02  0.00000000000E+00 0.  1.
</event>
<event>
 7    1  0.9406864E-013  0.5052886E+02  0.7816164E-02  0.1300439E+00
        -11   -1    0    0    0    0  0.00000000000E+00  0.00000000000E+00  0.45593999997E+02  0.45594000000E+02  0.51100000000E-03 0. -1.
         11   -1    0    0    0    0 -0.00000000000E+00 -0.00000000000E+00 -0.45593999997E+02  0.45594000000E+02  0.51100000000E-03 0.  1.
    9900012    2    1    2    0    0  0.19061140295E+01  0.39674736820E+02  0.86860681412E+01  0.50528858442E+02  0.29999995722E+02 0.  0.
        -12    1    1    2    0    0 -0.19061140295E+01 -0.39674736820E+02 -0.86860681412E+01  0.40659141558E+02  0.00000000000E+00 0.  1.
         11    1    3    3    0    0  0.56980179039E+01  0.21561305535E+02  0.14902793437E+02  0.26822575508E+02  0.51100000000E-03 0. -1.
        -11    1    3    3    0    0 -0.18099933441E+01  0.18056807466E+02 -0.90258136008E+01  0.20267947187E+02  0.51100000000E-03 0.  1.
         12    1    3    3    0    0 -0.19819105303E+01  0.56623820107E-01  0.28090883054E+01  0.34383357478E+01  0.00000000000E+00 0. -1.
</event>
<event>
 7    1  0.9406864E-013  0.5052881E+02  0.7816164E-02  0.1300439E+00
        -11   -1    0    0    0    0  0.00000000000E+00  0.00000000000E+00  0.45593999997E+02  0.45594000000E+02  0.51100000000E-03 0. -1.
         11   -1    0    0    0    0 -0.00000000000E+00 -0.00000000000E+00 -0.45593999997E+02  0.45594000000E+02  0.51100000000E-03 0.  1.
    9900012    2    1    2    0    0 -0.31063928758E+02  0.25265946138E+02 -0.70593142045E+01  0.50528811356E+02  0.29999852599E+02 0.  0.
        -12    1    1    2    0    0  0.31063928758E+02 -0.25265946138E+02  0.70593142045E+01  0.40659188644E+02  0.00000000000E+00 0.  1.
         11    1    3    3    0    0 -0.17857180140E+02  0.52135015811E+01 -0.48442576170E+01  0.19223067221E+02  0.51100000000E-03 0. -1.
        -11    1    3    3    0    0 -0.44642442848E+01  0.11516096721E+02  0.85495497568E+01  0.15021476693E+02  0.51100000000E-03 0.  1.
        -12    1    3    3    0    0 -0.87425043335E+01  0.85363478358E+01 -0.10764606344E+02  0.16284267443E+02  0.00000000000E+00 0.  1.
</event>
<event>
 7    1  0.9406864E-013  0.5052886E+02  0.7816164E-02  0.1300439E+00
        -11   -1    0    0    0    0  0.00000000000E+00  0.00000000000E+00  0.45593999997E+02  0.45594000000E+02  0.51100000000E-03 0.  1.
         11   -1    0    0    0    0 -0.00000000000E+00 -0.00000000000E+00 -0.45593999997E+02  0.45594000000E+02  0.51100000000E-03 0. -1.
    9900012    2    1    2    0    0 -0.58021975709E+01  0.12282815767E+02 -0.38322745158E+02  0.50528857655E+02  0.29999993327E+02 0.  0.
        -12    1    1    2    0    0  0.58021975709E+01 -0.12282815767E+02  0.38322745158E+02  0.40659142345E+02  0.00000000000E+00 0.  1.
         11    1    3    3    0    0  0.15776388849E+01  0.57405786073E+01 -0.53016109401E+01  0.79718420719E+01  0.51100000000E-03 0. -1.
        -11    1    3    3    0    0 -0.12095050832E+02 -0.81232239380E+00 -0.48400198949E+01  0.13052812538E+02  0.51100000000E-03 0.  1.
        -12    1    3    3    0    0  0.47152143763E+01  0.73545595531E+01 -0.28181114323E+02  0.29504203045E+02  0.00000000000E+00 0.  1.
</event>
<event>
 7    1  0.9406864E-013  0.5052884E+02  0.7816164E-02  0.1300439E+00
        -11   -1    0    0    0    0  0.00000000000E+00  0.00000000000E+00  0.45593999997E+02  0.45594000000E+02  0.51100000000E-03 0. -1.
         11   -1    0    0    0    0 -0.00000000000E+00 -0.00000000000E+00 -0.45593999997E+02  0.45594000000E+02  0.51100000000E-03 0.  1.
    9900012    2    1    2    0    0 -0.53149647745E+01  0.80824628110E+01  0.39491673512E+02  0.50528839502E+02  0.29999938151E+02 0.  0.
        -12    1    1    2    0    0  0.53149647745E+01 -0.80824628110E+01 -0.39491673512E+02  0.40659160498E+02  0.00000000000E+00 0.  1.
         11    1    3    3    0    0  0.57603806838E+00 -0.56466898781E+01  0.97722803371E+00  0.57595053023E+01  0.51100000000E-03 0. -1.
        -11    1    3    3    0    0  0.30559579918E+01  0.12238546756E+02  0.28997445910E+02  0.31622346142E+02  0.51100000000E-03 0.  1.
        -12    1    3    3    0    0 -0.89469608347E+01  0.14906059334E+01  0.95169995676E+01  0.13146988058E+02  0.00000000000E+00 0.  1.
</event>
<event>
 7    1  0.9406864E-013  0.5052886E+02  0.7816164E-02  0.1300439E+00
        -11   -1    0    0    0    0  0.00000000000E+00  0.00000000000E+00  0.45593999997E+02  0.45594000000E+02  0.51100000000E-03 0.  1.
         11   -1    0    0    0    0 -0.00000000000E+00 -0.00000000000E+00 -0.45593999997E+02  0.45594000000E+02  0.51100000000E-03 0. -1.
    9900012    2    1    2    0    0 -0.15542326162E+02  0.12649907044E+01 -0.37549984744E+02  0.50528862549E+02  0.30000008203E+02 0.  0.
        -12    1    1    2    0    0  0.15542326162E+02 -0.12649907044E+01  0.37549984744E+02  0.40659137451E+02  0.00000000000E+00 0.  1.
         11    1    3    3    0    0 -0.16253750127E+02  0.64957580370E+01 -0.23907254415E+02  0.29629986156E+02  0.51100000000E-03 0. -1.
        -11    1    3    3    0    0  0.55374226825E+01  0.27842452122E+01 -0.73944415652E+01  0.96484629702E+01  0.51100000000E-03 0.  1.
         12    1    3    3    0    0 -0.48259987170E+01 -0.80150125448E+01 -0.62482887641E+01  0.11250413423E+02  0.00000000000E+00 0. -1.
</event>
<event>
 7    1  0.9406864E-013  0.5052886E+02  0.7816164E-02  0.1300439E+00
        -11   -1    0    0    0    0  0.00000000000E+00  0.00000000000E+00  0.45593999997E+02  0.45594000000E+02  0.51100000000E-03 0.  1.
         11   -1    0    0    0    0 -0.00000000000E+00 -0.00000000000E+00 -0.45593999997E+02  0.45594000000E+02  0.51100000000E-03 0. -1.
    9900012    2    1    2    0    0  0.24531545252E+02  0.17981066720E+02 -0.26982407991E+02  0.50528858177E+02  0.29999994913E+02 0.  0.
        -12    1    1    2    0    0 -0.24531545252E+02 -0.17981066720E+02  0.26982407991E+02  0.40659141823E+02  0.00000000000E+00 0.  1.
         11    1    3    3    0    0  0.13983525639E+01  0.17148217021E+02 -0.11088628734E+02  0.20468864755E+02  0.51100000000E-03 0. -1.
        -11    1    3    3    0    0  0.20385925601E+02 -0.30315058811E+01 -0.14186278268E+02  0.25020521215E+02  0.51100000000E-03 0.  1.
        -12    1    3    3    0    0  0.27472670870E+01  0.38643555801E+01 -0.17075009892E+01  0.50394722070E+01  0.00000000000E+00 0.  1.
</event>
<event>
 7    1  0.9406864E-013  0.5052886E+02  0.7816164E-02  0.1300439E+00
        -11   -1    0    0    0    0  0.00000000000E+00  0.00000000000E+00  0.45593999997E+02  0.45594000000E+02  0.51100000000E-03 0. -1.
         11   -1    0    0    0    0 -0.00000000000E+00 -0.00000000000E+00 -0.45593999997E+02  0.45594000000E+02  0.51100000000E-03 0.  1.
    9900012    2    1    2    0    0 -0.19819162141E+02 -0.35707240884E+01  0.35321610472E+02  0.50528862960E+02  0.30000009454E+02 0.  0.
        -12    1    1    2    0    0  0.19819162141E+02  0.35707240884E+01 -0.35321610472E+02  0.40659137040E+02  0.00000000000E+00 0.  1.
         11    1    3    3    0    0  0.67479813636E+00  0.99445117754E+00  0.24671804009E+02  0.24701056637E+02  0.51100000000E-03 0. -1.
        -11    1    3    3    0    0 -0.87016945990E+01  0.10683042116E+01 -0.30880144354E+00  0.87724638145E+01  0.51100000000E-03 0.  1.
         12    1    3    3    0    0 -0.11792265678E+02 -0.56334794776E+01  0.10958607906E+02  0.17055342509E+02  0.00000000000E+00 0. -1.
</event>
<event>
 7    1  0.9406864E-013  0.5052886E+02  0.7816164E-02  0.1300439E+00
        -11   -1    0    0    0    0  0.00000000000E+00  0.00000000000E+00  0.45593999997E+02  0.45594000000E+02  0.51100000000E-03 0. -1.
         11   -1    0    0    0    0 -0.00000000000E+00 -0.00000000000E+00 -0.45593999997E+02  0.45594000000E+02  0.51100000000E-03 0.  1.
    9900012    2    1    2    0    0 -0.39679989970E+02 -0.54893048985E+01  0.69664661490E+01  0.50528859295E+02  0.29999998313E+02 0.  0.
        -12    1    1    2    0    0  0.39679989970E+02  0.54893048985E+01 -0.69664661490E+01  0.40659140705E+02  0.00000000000E+00 0.  1.
         11    1    3    3    0    0 -0.35309988751E+02 -0.17983163202E+01 -0.18355947195E+01  0.35403370679E+02  0.51100000000E-03 0. -1.
        -11    1    3    3    0    0  0.29826417527E+00 -0.36845112911E+01 -0.13629104414E+01  0.39398109225E+01  0.51100000000E-03 0.  1.
         12    1    3    3    0    0 -0.46682653941E+01 -0.64772872635E-02  0.10164971310E+02  0.11185677694E+02  0.00000000000E+00 0. -1.
</event>
<event>
 7    1  0.9406864E-013  0.5052886E+02  0.7816164E-02  0.1300439E+00
        -11   -1    0    0    0    0  0.00000000000E+00  0.00000000000E+00  0.45593999997E+02  0.45594000000E+02  0.51100000000E-03 0.  1.
         11   -1    0    0    0    0 -0.00000000000E+00 -0.00000000000E+00 -0.45593999997E+02  0.45594000000E+02  0.51100000000E-03 0. -1.
    9900012    2    1    2    0    0 -0.14278587329E+02  0.37824497376E+02 -0.43122243652E+01  0.50528856664E+02  0.29999990317E+02 0.  0.
        -12    1    1    2    0    0  0.14278587329E+02 -0.37824497376E+02  0.43122243652E+01  0.40659143336E+02  0.00000000000E+00 0.  1.
         11    1    3    3    0    0 -0.92563089585E+01  0.71031880363E+01 -0.28187722674E+01  0.12003333419E+02  0.51100000000E-03 0. -1.
        -11    1    3    3    0    0  0.15635951434E+01  0.70027201754E+01  0.92168723011E+01  0.11680481792E+02  0.51100000000E-03 0.  1.
        -12    1    3    3    0    0 -0.65858735140E+01  0.23718589164E+02 -0.10710324399E+02  0.26845041453E+02  0.00000000000E+00 0.  1.
</event>
<event>
 7    1  0.9406864E-013  0.5052887E+02  0.7816164E-02  0.1300439E+00
        -11   -1    0    0    0    0  0.00000000000E+00  0.00000000000E+00  0.45593999997E+02  0.45594000000E+02  0.51100000000E-03 0. -1.
         11   -1    0    0    0    0 -0.00000000000E+00 -0.00000000000E+00 -0.45593999997E+02  0.45594000000E+02  0.51100000000E-03 0.  1.
    9900012    2    1    2    0    0  0.91515661364E+00  0.40040657771E+02  0.70051928462E+01  0.50528874171E+02  0.30000043530E+02 0.  0.
        -12    1    1    2    0    0 -0.91515661364E+00 -0.40040657771E+02 -0.70051928462E+01  0.40659125829E+02  0.00000000000E+00 0.  1.
         11    1    3    3    0    0 -0.86789318381E+01  0.12209319348E+02  0.11577543442E+02  0.18932270049E+02  0.51100000000E-03 0. -1.
        -11    1    3    3    0    0  0.89880925432E+01  0.28757553710E+02 -0.46539716713E+01  0.30486753772E+02  0.51100000000E-03 0.  1.
        -12    1    3    3    0    0  0.60599590861E+00 -0.92621528724E+00  0.81621075251E-01  0.11098503500E+01  0.00000000000E+00 0.  1.
</event>
<event>
 7    1  0.9406864E-013  0.5052886E+02  0.7816164E-02  0.1300439E+00
        -11   -1    0    0    0    0  0.00000000000E+00  0.00000000000E+00  0.45593999997E+02  0.45594000000E+02  0.51100000000E-03 0.  1.
         11   -1    0    0    0    0 -0.00000000000E+00 -0.00000000000E+00 -0.45593999997E+02  0.45594000000E+02  0.51100000000E-03 0. -1.
    9900012    2    1    2    0    0 -0.10234859228E+02  0.38927920318E+02  0.57472148825E+01  0.50528858314E+02  0.29999995332E+02 0.  0.
        -12    1    1    2    0    0  0.10234859228E+02 -0.38927920318E+02 -0.57472148825E+01  0.40659141686E+02  0.00000000000E+00 0.  1.
         11    1    3    3    0    0 -0.60046354045E+01  0.19118348043E+02  0.96801944116E+01  0.22254730786E+02  0.51100000000E-03 0. -1.
        -11    1    3    3    0    0  0.39616507524E+01  0.11007272502E+02 -0.94556505674E+01  0.15042076071E+02  0.51100000000E-03 0.  1.
        -12    1    3    3    0    0 -0.81918745763E+01  0.88022997732E+01  0.55226710382E+01  0.13232051457E+02  0.00000000000E+00 0.  1.
</event>
<event>
 7    1  0.9406864E-013  0.5052886E+02  0.7816164E-02  0.1300439E+00
        -11   -1    0    0    0    0  0.00000000000E+00  0.00000000000E+00  0.45593999997E+02  0.45594000000E+02  0.51100000000E-03 0. -1.
         11   -1    0    0    0    0 -0.00000000000E+00 -0.00000000000E+00 -0.45593999997E+02  0.45594000000E+02  0.51100000000E-03 0.  1.
    9900012    2    1    2    0    0  0.30429065274E+02  0.26335038370E+02  0.58054915986E+01  0.50528855984E+02  0.29999988250E+02 0.  0.
        -12    1    1    2    0    0 -0.30429065274E+02 -0.26335038370E+02 -0.58054915986E+01  0.40659144016E+02  0.00000000000E+00 0.  1.
         11    1    3    3    0    0  0.12171321705E+02  0.37093181442E+01 -0.28197527289E+01  0.13032694229E+02  0.51100000000E-03 0. -1.
        -11    1    3    3    0    0 -0.29973349670E+01 -0.19454408385E+01  0.26829161971E+01  0.44684221536E+01  0.51100000000E-03 0.  1.
        -12    1    3    3    0    0  0.21255078535E+02  0.24571161065E+02  0.59423281304E+01  0.33027739602E+02  0.00000000000E+00 0.  1.
</event>
<event>
 7    1  0.9406864E-013  0.5052887E+02  0.7816164E-02  0.1300439E+00
        -11   -1    0    0    0    0  0.00000000000E+00  0.00000000000E+00  0.45593999997E+02  0.45594000000E+02  0.51100000000E-03 0.  1.
         11   -1    0    0    0    0 -0.00000000000E+00 -0.00000000000E+00 -0.45593999997E+02  0.45594000000E+02  0.51100000000E-03 0. -1.
    9900012    2    1    2    0    0  0.23822220569E+02 -0.32947494194E+02  0.35975382963E+00  0.50528868315E+02  0.30000025732E+02 0.  0.
        -12    1    1    2    0    0 -0.23822220569E+02  0.32947494194E+02 -0.35975382963E+00  0.40659131685E+02  0.00000000000E+00 0.  1.
         11    1    3    3    0    0  0.14917155137E+02 -0.15694511199E+02 -0.15175726222E+01  0.21705810883E+02  0.51100000000E-03 0. -1.
        -11    1    3    3    0    0 -0.14270065602E+01 -0.42293333917E+01  0.95288118325E+01  0.10522445717E+02  0.51100000000E-03 0.  1.
        -12    1    3    3    0    0  0.10332071992E+02 -0.13023649604E+02 -0.76514853807E+01  0.18300611716E+02  0.00000000000E+00 0.  1.
</event>
<event>
 7    1  0.1395373E-012  0.5052886E+02  0.7816164E-02  0.1300439E+00
        -11   -1    0    0    0    0  0.00000000000E+00  0.00000000000E+00  0.45593999997E+02  0.45594000000E+02  0.51100000000E-03 0. -1.
         11   -1    0    0    0    0 -0.00000000000E+00 -0.00000000000E+00 -0.45593999997E+02  0.45594000000E+02  0.51100000000E-03 0.  1.
    9900012    2    1    2    0    0  0.34491058573E+02  0.15829160125E+02  0.14593499378E+02  0.50528860119E+02  0.30000000818E+02 0.  0.
        -12    1    1    2    0    0 -0.34491058573E+02 -0.15829160125E+02 -0.14593499378E+02  0.40659139881E+02  0.00000000000E+00 0.  1.
         11    1    3    3    0    0  0.28326047506E+02  0.36846450346E+01  0.15875323283E+02  0.32679771510E+02  0.51100000000E-03 0. -1.
        -11    1    3    3    0    0 -0.21998438457E+01  0.67607897616E+00 -0.27413821560E+01  0.35793256507E+01  0.51100000000E-03 0.  1.
         12    1    3    3    0    0  0.83648549127E+01  0.11468436114E+02  0.14595582513E+01  0.14269762959E+02  0.00000000000E+00 0. -1.
</event>
<event>
 7    1  0.9406864E-013  0.5052887E+02  0.7816164E-02  0.1300439E+00
        -11   -1    0    0    0    0  0.00000000000E+00  0.00000000000E+00  0.45593999997E+02  0.45594000000E+02  0.51100000000E-03 0.  1.
         11   -1    0    0    0    0 -0.00000000000E+00 -0.00000000000E+00 -0.45593999997E+02  0.45594000000E+02  0.51100000000E-03 0. -1.
    9900012    2    1    2    0    0  0.12039590408E+02 -0.50295932887E+01 -0.38508656830E+02  0.50528865766E+02  0.30000017982E+02 0.  0.
        -12    1    1    2    0    0 -0.12039590408E+02  0.50295932887E+01  0.38508656830E+02  0.40659134234E+02  0.00000000000E+00 0.  1.
         11    1    3    3    0    0  0.56375083920E+01  0.56109473661E+01 -0.26999479771E+02  0.28146689670E+02  0.51100000000E-03 0. -1.
        -11    1    3    3    0    0  0.10730713874E+02 -0.63922175492E+01 -0.49141354850E+01  0.13422272284E+02  0.51100000000E-03 0.  1.
        -12    1    3    3    0    0 -0.43286318576E+01 -0.42483231055E+01 -0.65950415734E+01  0.89599038122E+01  0.00000000000E+00 0.  1.
</event>
<event>
 7    1  0.9406864E-013  0.5052887E+02  0.7816164E-02  0.1300439E+00
        -11   -1    0    0    0    0  0.00000000000E+00  0.00000000000E+00  0.45593999997E+02  0.45594000000E+02  0.51100000000E-03 0. -1.
         11   -1    0    0    0    0 -0.00000000000E+00 -0.00000000000E+00 -0.45593999997E+02  0.45594000000E+02  0.51100000000E-03 0.  1.
    9900012    2    1    2    0    0  0.18782733479E+02  0.35277849442E+02 -0.74730751569E+01  0.50528873220E+02  0.30000040640E+02 0.  0.
        -12    1    1    2    0    0 -0.18782733479E+02 -0.35277849442E+02  0.74730751569E+01  0.40659126780E+02  0.00000000000E+00 0.  1.
         11    1    3    3    0    0 -0.67001879608E+00  0.17114301208E+02  0.39593005664E+01  0.17579086787E+02  0.51100000000E-03 0. -1.
        -11    1    3    3    0    0  0.19943787497E+02  0.19019378697E+02 -0.13478371971E+02  0.30678297492E+02  0.51100000000E-03 0.  1.
        -12    1    3    3    0    0 -0.49103522165E+00 -0.85583046270E+00  0.20459962475E+01  0.22714889422E+01  0.00000000000E+00 0.  1.
</event>
<event>
 7    1  0.9406864E-013  0.5052887E+02  0.7816164E-02  0.1300439E+00
        -11   -1    0    0    0    0  0.00000000000E+00  0.00000000000E+00  0.45593999997E+02  0.45594000000E+02  0.51100000000E-03 0.  1.
         11   -1    0    0    0    0 -0.00000000000E+00 -0.00000000000E+00 -0.45593999997E+02  0.45594000000E+02  0.51100000000E-03 0. -1.
    9900012    2    1    2    0    0  0.99142396058E+01  0.39344425180E+02  0.26246645408E+01  0.50528870599E+02  0.30000032673E+02 0.  0.
        -12    1    1    2    0    0 -0.99142396058E+01 -0.39344425180E+02 -0.26246645408E+01  0.40659129401E+02  0.00000000000E+00 0.  1.
         11    1    3    3    0    0  0.91089517303E+01  0.19399434882E+02 -0.12476947449E+02  0.24798897017E+02  0.51100000000E-03 0. -1.
        -11    1    3    3    0    0 -0.10519077379E+01  0.73506977647E+01  0.88337962578E+01  0.11540157022E+02  0.51100000000E-03 0.  1.
         12    1    3    3    0    0  0.18571956135E+01  0.12594292533E+02  0.62678157317E+01  0.14189816560E+02  0.00000000000E+00 0. -1.
</event>
<event>
 7    1  0.9406864E-013  0.5052886E+02  0.7816164E-02  0.1300439E+00
        -11   -1    0    0    0    0  0.00000000000E+00  0.00000000000E+00  0.45593999997E+02  0.45594000000E+02  0.51100000000E-03 0.  1.
         11   -1    0    0    0    0 -0.00000000000E+00 -0.00000000000E+00 -0.45593999997E+02  0.45594000000E+02  0.51100000000E-03 0. -1.
    9900012    2    1    2    0    0  0.12672041880E+02  0.12645939886E+02 -0.36505683065E+02  0.50528864039E+02  0.30000012733E+02 0.  0.
        -12    1    1    2    0    0 -0.12672041880E+02 -0.12645939886E+02  0.36505683065E+02  0.40659135961E+02  0.00000000000E+00 0.  1.
         11    1    3    3    0    0  0.64415544640E+01  0.66234744927E+01 -0.10251328647E+02  0.13800499178E+02  0.51100000000E-03 0. -1.
        -11    1    3    3    0    0 -0.61475340696E+01 -0.35836013922E+01 -0.12561812100E+01  0.72258124504E+01  0.51100000000E-03 0.  1.
        -12    1    3    3    0    0  0.12378021486E+02  0.96060667859E+01 -0.24998173209E+02  0.29502552411E+02  0.00000000000E+00 0.  1.
</event>
<event>
 7    1  0.9406864E-013  0.5052886E+02  0.7816164E-02  0.1300439E+00
        -11   -1    0    0    0    0  0.00000000000E+00  0.00000000000E+00  0.45593999997E+02  0.45594000000E+02  0.51100000000E-03 0.  1.
         11   -1    0    0    0    0 -0.00000000000E+00 -0.00000000000E+00 -0.45593999997E+02  0.45594000000E+02  0.51100000000E-03 0. -1.
    9900012    2    1    2    0    0  0.26821135947E+02 -0.30557197743E+02  0.22361807901E+00  0.50528859915E+02  0.30000000196E+02 0.  0.
        -12    1    1    2    0    0 -0.26821135947E+02  0.30557197743E+02 -0.22361807901E+00  0.40659140085E+02  0.00000000000E+00 0.  1.
         11    1    3    3    0    0  0.10253894598E+02 -0.83130985301E+01  0.12349814803E+02  0.18076722256E+02  0.51100000000E-03 0. -1.
        -11    1    3    3    0    0  0.83298356542E+01 -0.24865441793E+01 -0.33163371221E+01  0.93041472554E+01  0.51100000000E-03 0.  1.
         12    1    3    3    0    0  0.82374056949E+01 -0.19757555034E+02 -0.88098596016E+01  0.23147990403E+02  0.00000000000E+00 0. -1.
</event>
<event>
 7    1  0.9406864E-013  0.5052882E+02  0.7816164E-02  0.1300439E+00
        -11   -1    0    0    0    0  0.00000000000E+00  0.00000000000E+00  0.45593999997E+02  0.45594000000E+02  0.51100000000E-03 0.  1.
         11   -1    0    0    0    0 -0.00000000000E+00 -0.00000000000E+00 -0.45593999997E+02  0.45594000000E+02  0.51100000000E-03 0. -1.
    9900012    2    1    2    0    0  0.19369917055E+02 -0.16629796686E+02 -0.31645302313E+02  0.50528819203E+02  0.29999876450E+02 0.  0.
        -12    1    1    2    0    0 -0.19369917055E+02  0.16629796686E+02  0.31645302313E+02  0.40659180797E+02  0.00000000000E+00 0.  1.
         11    1    3    3    0    0  0.43302337623E+01 -0.60655166861E+01 -0.32901634500E+01  0.81465693942E+01  0.51100000000E-03 0. -1.
        -11    1    3    3    0    0 -0.21250115374E+01 -0.42438837796E+01 -0.22766799293E+02  0.23256254510E+02  0.51100000000E-03 0.  1.
        -12    1    3    3    0    0  0.17164694830E+02 -0.63203962205E+01 -0.55883395710E+01  0.19125995299E+02  0.00000000000E+00 0.  1.
</event>
<event>
 7    1  0.9406864E-013  0.5052886E+02  0.7816164E-02  0.1300439E+00
        -11   -1    0    0    0    0  0.00000000000E+00  0.00000000000E+00  0.45593999997E+02  0.45594000000E+02  0.51100000000E-03 0.  1.
         11   -1    0    0    0    0 -0.00000000000E+00 -0.00000000000E+00 -0.45593999997E+02  0.45594000000E+02  0.51100000000E-03 0. -1.
    9900012    2    1    2    0    0  0.12415163518E+02 -0.11983629813E+02 -0.36816056722E+02  0.50528859562E+02  0.29999999123E+02 0.  0.
        -12    1    1    2    0    0 -0.12415163518E+02  0.11983629813E+02  0.36816056722E+02  0.40659140438E+02  0.00000000000E+00 0.  1.
         11    1    3    3    0    0  0.11819360573E+02 -0.18078460621E+02 -0.35583174425E+02  0.41625596995E+02  0.51100000000E-03 0. -1.
        -11    1    3    3    0    0  0.22127382122E+01  0.60095052539E+01  0.63023322074E+00  0.64348704701E+01  0.51100000000E-03 0.  1.
        -12    1    3    3    0    0 -0.16169352676E+01  0.85325554308E-01 -0.18631155174E+01  0.24683920962E+01  0.00000000000E+00 0.  1.
</event>
<event>
 7    1  0.9406864E-013  0.5052886E+02  0.7816164E-02  0.1300439E+00
        -11   -1    0    0    0    0  0.00000000000E+00  0.00000000000E+00  0.45593999997E+02  0.45594000000E+02  0.51100000000E-03 0.  1.
         11   -1    0    0    0    0 -0.00000000000E+00 -0.00000000000E+00 -0.45593999997E+02  0.45594000000E+02  0.51100000000E-03 0. -1.
    9900012    2    1    2    0    0  0.28935806574E+02  0.20260926131E+02 -0.20134034418E+02  0.50528863613E+02  0.30000011439E+02 0.  0.
        -12    1    1    2    0    0 -0.28935806574E+02 -0.20260926131E+02  0.20134034418E+02  0.40659136387E+02  0.00000000000E+00 0.  1.
         11    1    3    3    0    0  0.27955043832E+02  0.58704140311E+01 -0.20113248141E+02  0.34935497529E+02  0.51100000000E-03 0. -1.
        -11    1    3    3    0    0  0.66903994717E+00  0.65912849111E+01  0.29361055159E+01  0.72466107313E+01  0.51100000000E-03 0.  1.
         12    1    3    3    0    0  0.31172279455E+00  0.77992271887E+01 -0.29568917926E+01  0.83467553525E+01  0.00000000000E+00 0. -1.
</event>
<event>
 7    1  0.9406864E-013  0.5052886E+02  0.7816164E-02  0.1300439E+00
        -11   -1    0    0    0    0  0.00000000000E+00  0.00000000000E+00  0.45593999997E+02  0.45594000000E+02  0.51100000000E-03 0.  1.
         11   -1    0    0    0    0 -0.00000000000E+00 -0.00000000000E+00 -0.45593999997E+02  0.45594000000E+02  0.51100000000E-03 0. -1.
    9900012    2    1    2    0    0 -0.25185765369E+02  0.21300196713E+02 -0.23772769288E+02  0.50528859369E+02  0.29999998538E+02 0.  0.
        -12    1    1    2    0    0  0.25185765369E+02 -0.21300196713E+02  0.23772769288E+02  0.40659140631E+02  0.00000000000E+00 0.  1.
         11    1    3    3    0    0 -0.16140913317E+02  0.16141685313E+02 -0.22569743618E+02  0.32101034480E+02  0.51100000000E-03 0. -1.
        -11    1    3    3    0    0 -0.13233206500E+02  0.26330158359E+01 -0.10736821638E+01  0.13535262107E+02  0.51100000000E-03 0.  1.
        -12    1    3    3    0    0  0.41883544485E+01  0.25254955645E+01 -0.12934350674E+00  0.48925627820E+01  0.00000000000E+00 0.  1.
</event>
<event>
 7    1  0.9406864E-013  0.5052886E+02  0.7816164E-02  0.1300439E+00
        -11   -1    0    0    0    0  0.00000000000E+00  0.00000000000E+00  0.45593999997E+02  0.45594000000E+02  0.51100000000E-03 0. -1.
         11   -1    0    0    0    0 -0.00000000000E+00 -0.00000000000E+00 -0.45593999997E+02  0.45594000000E+02  0.51100000000E-03 0.  1.
    9900012    2    1    2    0    0  0.19917566258E+02 -0.31554577655E+02  0.16148206080E+02  0.50528863558E+02  0.30000011270E+02 0.  0.
        -12    1    1    2    0    0 -0.19917566258E+02  0.31554577655E+02 -0.16148206080E+02  0.40659136442E+02  0.00000000000E+00 0.  1.
         11    1    3    3    0    0  0.63696153690E+01 -0.31181240990E+02  0.15072980954E+02  0.35214152620E+02  0.51100000000E-03 0. -1.
        -11    1    3    3    0    0  0.48874059170E+01  0.21179044859E+01 -0.21487566838E+01  0.57436409669E+01  0.51100000000E-03 0.  1.
         12    1    3    3    0    0  0.86605449719E+01 -0.24912411512E+01  0.32239818094E+01  0.95710699711E+01  0.00000000000E+00 0. -1.
</event>
<event>
 7    1  0.9406864E-013  0.5052886E+02  0.7816164E-02  0.1300439E+00
        -11   -1    0    0    0    0  0.00000000000E+00  0.00000000000E+00  0.45593999997E+02  0.45594000000E+02  0.51100000000E-03 0.  1.
         11   -1    0    0    0    0 -0.00000000000E+00 -0.00000000000E+00 -0.45593999997E+02  0.45594000000E+02  0.51100000000E-03 0. -1.
    9900012    2    1    2    0    0  0.15078768398E+02 -0.25565825652E+02 -0.27788211562E+02  0.50528863271E+02  0.30000010400E+02 0.  0.
        -12    1    1    2    0    0 -0.15078768398E+02  0.25565825652E+02  0.27788211562E+02  0.40659136729E+02  0.00000000000E+00 0.  1.
         11    1    3    3    0    0  0.84171134163E+01 -0.22771623362E+01  0.19240073162E+01  0.89294496461E+01  0.51100000000E-03 0. -1.
        -11    1    3    3    0    0  0.57149140302E+00 -0.17942943598E+02 -0.10618677737E+02  0.20857424207E+02  0.51100000000E-03 0.  1.
         12    1    3    3    0    0  0.60901635785E+01 -0.53457197180E+01 -0.19093541141E+02  0.20741989418E+02  0.00000000000E+00 0. -1.
</event>
<event>
 7    1  0.9406864E-013  0.5052885E+02  0.7816164E-02  0.1300439E+00
        -11   -1    0    0    0    0  0.00000000000E+00  0.00000000000E+00  0.45593999997E+02  0.45594000000E+02  0.51100000000E-03 0. -1.
         11   -1    0    0    0    0 -0.00000000000E+00 -0.00000000000E+00 -0.45593999997E+02  0.45594000000E+02  0.51100000000E-03 0.  1.
    9900012    2    1    2    0    0  0.37175113043E+02  0.12189994049E+02  0.11071663992E+02  0.50528846932E+02  0.29999960734E+02 0.  0.
        -12    1    1    2    0    0 -0.37175113043E+02 -0.12189994049E+02 -0.11071663992E+02  0.40659153068E+02  0.00000000000E+00 0.  1.
         11    1    3    3    0    0  0.13316755542E+02  0.25104337706E+01  0.19094246030E+02  0.23414279566E+02  0.51100000000E-03 0. -1.
        -11    1    3    3    0    0  0.63800250550E+01  0.12939221701E+01 -0.17915099861E+01  0.67519228799E+01  0.51100000000E-03 0.  1.
         12    1    3    3    0    0  0.17478332446E+02  0.83856381086E+01 -0.62310720511E+01  0.20362644486E+02  0.00000000000E+00 0. -1.
</event>
<event>
 7    1  0.9406864E-013  0.5052886E+02  0.7816164E-02  0.1300439E+00
        -11   -1    0    0    0    0  0.00000000000E+00  0.00000000000E+00  0.45593999997E+02  0.45594000000E+02  0.51100000000E-03 0.  1.
         11   -1    0    0    0    0 -0.00000000000E+00 -0.00000000000E+00 -0.45593999997E+02  0.45594000000E+02  0.51100000000E-03 0. -1.
    9900012    2    1    2    0    0  0.10025503618E+02  0.37597384193E+02 -0.11793694911E+02  0.50528864979E+02  0.30000015591E+02 0.  0.
        -12    1    1    2    0    0 -0.10025503618E+02 -0.37597384193E+02  0.11793694911E+02  0.40659135021E+02  0.00000000000E+00 0.  1.
         11    1    3    3    0    0  0.90254065105E+01  0.22876768141E+02 -0.40440070205E+00  0.24596097728E+02  0.51100000000E-03 0. -1.
        -11    1    3    3    0    0 -0.78692121841E+01  0.92121744483E+01 -0.93280845046E+01  0.15290579428E+02  0.51100000000E-03 0.  1.
        -12    1    3    3    0    0  0.88693092917E+01  0.55084416044E+01 -0.20612097043E+01  0.10642187823E+02  0.00000000000E+00 0.  1.
</event>
<event>
 7    1  0.9406864E-013  0.5052884E+02  0.7816164E-02  0.1300439E+00
        -11   -1    0    0    0    0  0.00000000000E+00  0.00000000000E+00  0.45593999997E+02  0.45594000000E+02  0.51100000000E-03 0.  1.
         11   -1    0    0    0    0 -0.00000000000E+00 -0.00000000000E+00 -0.45593999997E+02  0.45594000000E+02  0.51100000000E-03 0. -1.
    9900012    2    1    2    0    0 -0.13872674240E+02 -0.29368757787E+01 -0.38106308179E+02  0.50528842939E+02  0.29999948596E+02 0.  0.
        -12    1    1    2    0    0  0.13872674240E+02  0.29368757787E+01  0.38106308179E+02  0.40659157061E+02  0.00000000000E+00 0.  1.
         11    1    3    3    0    0 -0.19404287941E+02  0.55748893355E+01 -0.29505055450E+02  0.35751280802E+02  0.51100000000E-03 0. -1.
        -11    1    3    3    0    0  0.26233686463E+01 -0.33248480979E+01  0.10241866337E+00  0.42364097739E+01  0.51100000000E-03 0.  1.
        -12    1    3    3    0    0  0.29082450550E+01 -0.51869170163E+01 -0.87036713924E+01  0.10541152363E+02  0.00000000000E+00 0.  1.
</event>
<event>
 7    1  0.9406864E-013  0.5052886E+02  0.7816164E-02  0.1300439E+00
        -11   -1    0    0    0    0  0.00000000000E+00  0.00000000000E+00  0.45593999997E+02  0.45594000000E+02  0.51100000000E-03 0. -1.
         11   -1    0    0    0    0 -0.00000000000E+00 -0.00000000000E+00 -0.45593999997E+02  0.45594000000E+02  0.51100000000E-03 0.  1.
    9900012    2    1    2    0    0  0.35258246152E+02 -0.20104596161E+02  0.24138818549E+01  0.50528861616E+02  0.30000005368E+02 0.  0.
        -12    1    1    2    0    0 -0.35258246152E+02  0.20104596161E+02 -0.24138818549E+01  0.40659138384E+02  0.00000000000E+00 0.  1.
         11    1    3    3    0    0  0.17321618283E+02 -0.11215592823E+02 -0.10567767626E+02  0.23184169064E+02  0.51100000000E-03 0. -1.
        -11    1    3    3    0    0  0.71032182665E-01  0.27390268679E-01  0.62837651144E+01  0.62842262906E+01  0.51100000000E-03 0.  1.
         12    1    3    3    0    0  0.17865595686E+02 -0.89163936066E+01  0.66978843664E+01  0.21060466262E+02  0.00000000000E+00 0. -1.
</event>
<event>
 7    1  0.9406864E-013  0.5052887E+02  0.7816164E-02  0.1300439E+00
        -11   -1    0    0    0    0  0.00000000000E+00  0.00000000000E+00  0.45593999997E+02  0.45594000000E+02  0.51100000000E-03 0.  1.
         11   -1    0    0    0    0 -0.00000000000E+00 -0.00000000000E+00 -0.45593999997E+02  0.45594000000E+02  0.51100000000E-03 0. -1.
    9900012    2    1    2    0    0  0.32286435577E+02 -0.14547124351E+02 -0.19978299701E+02  0.50528865625E+02  0.30000017554E+02 0.  0.
        -12    1    1    2    0    0 -0.32286435577E+02  0.14547124351E+02  0.19978299701E+02  0.40659134375E+02  0.00000000000E+00 0.  1.
         11    1    3    3    0    0  0.17251015539E+02 -0.12099351479E+02 -0.12130389499E+02  0.24313333646E+02  0.51100000000E-03 0. -1.
        -11    1    3    3    0    0  0.44137682056E+01  0.42542508690E+01  0.52485721929E+01  0.80701617428E+01  0.51100000000E-03 0.  1.
        -12    1    3    3    0    0  0.10621651832E+02 -0.67020237412E+01 -0.13096482395E+02  0.18145370236E+02  0.00000000000E+00 0.  1.
</event>
<event>
 7    1  0.9406864E-013  0.5052886E+02  0.7816164E-02  0.1300439E+00
        -11   -1    0    0    0    0  0.00000000000E+00  0.00000000000E+00  0.45593999997E+02  0.45594000000E+02  0.51100000000E-03 0.  1.
         11   -1    0    0    0    0 -0.00000000000E+00 -0.00000000000E+00 -0.45593999997E+02  0.45594000000E+02  0.51100000000E-03 0. -1.
    9900012    2    1    2    0    0 -0.37918598816E+02 -0.70285873347E+00 -0.14657808819E+02  0.50528861962E+02  0.30000006421E+02 0.  0.
        -12    1    1    2    0    0  0.37918598816E+02  0.70285873347E+00  0.14657808819E+02  0.40659138038E+02  0.00000000000E+00 0.  1.
         11    1    3    3    0    0 -0.32792364690E+01  0.28648932061E+01 -0.32619793438E+01  0.54407273781E+01  0.51100000000E-03 0. -1.
        -11    1    3    3    0    0 -0.36188586195E+02  0.49161093806E+00 -0.38701875896E+01  0.36398266502E+02  0.51100000000E-03 0.  1.
        -12    1    3    3    0    0  0.15492238476E+01 -0.40593628777E+01 -0.75256418855E+01  0.86898680825E+01  0.00000000000E+00 0.  1.
</event>
<event>
 7    1  0.9406864E-013  0.5052886E+02  0.7816164E-02  0.1300439E+00
        -11   -1    0    0    0    0  0.00000000000E+00  0.00000000000E+00  0.45593999997E+02  0.45594000000E+02  0.51100000000E-03 0.  1.
         11   -1    0    0    0    0 -0.00000000000E+00 -0.00000000000E+00 -0.45593999997E+02  0.45594000000E+02  0.51100000000E-03 0. -1.
    9900012    2    1    2    0    0 -0.36337788434E+02 -0.12539286801E+02  0.13247546544E+02  0.50528855012E+02  0.29999985295E+02 0.  0.
        -12    1    1    2    0    0  0.36337788434E+02  0.12539286801E+02 -0.13247546544E+02  0.40659144988E+02  0.00000000000E+00 0.  1.
         11    1    3    3    0    0 -0.36123039470E+02 -0.63974695687E+01  0.13283216555E+02  0.39015963909E+02  0.51100000000E-03 0. -1.
        -11    1    3    3    0    0  0.28241012527E-01  0.29445831815E+00  0.39352333885E+01  0.39463356851E+01  0.51100000000E-03 0.  1.
         12    1    3    3    0    0 -0.24298997654E+00 -0.64362755503E+01 -0.39709034000E+01  0.75665554185E+01  0.00000000000E+00 0. -1.
</event>
<event>
 7    1  0.9406864E-013  0.5052886E+02  0.7816164E-02  0.1300439E+00
        -11   -1    0    0    0    0  0.00000000000E+00  0.00000000000E+00  0.45593999997E+02  0.45594000000E+02  0.51100000000E-03 0.  1.
         11   -1    0    0    0    0 -0.00000000000E+00 -0.00000000000E+00 -0.45593999997E+02  0.45594000000E+02  0.51100000000E-03 0. -1.
    9900012    2    1    2    0    0  0.23290521152E+02  0.94621338579E+01 -0.31955993008E+02  0.50528857832E+02  0.29999993867E+02 0.  0.
        -12    1    1    2    0    0 -0.23290521152E+02 -0.94621338579E+01  0.31955993008E+02  0.40659142168E+02  0.00000000000E+00 0.  1.
         11    1    3    3    0    0  0.64501317237E+01  0.92512458206E+01 -0.10555289381E+02  0.15446808171E+02  0.51100000000E-03 0. -1.
        -11    1    3    3    0    0  0.13058881864E+02 -0.10235499523E+02 -0.14235981338E+02  0.21862365172E+02  0.51100000000E-03 0.  1.
        -12    1    3    3    0    0  0.37815075644E+01  0.10446387560E+02 -0.71647222894E+01  0.13219684489E+02  0.00000000000E+00 0.  1.
</event>
<event>
 7    1  0.9406864E-013  0.5052886E+02  0.7816164E-02  0.1300439E+00
        -11   -1    0    0    0    0  0.00000000000E+00  0.00000000000E+00  0.45593999997E+02  0.45594000000E+02  0.51100000000E-03 0.  1.
         11   -1    0    0    0    0 -0.00000000000E+00 -0.00000000000E+00 -0.45593999997E+02  0.45594000000E+02  0.51100000000E-03 0. -1.
    9900012    2    1    2    0    0 -0.11827230174E+02  0.18273784769E+02 -0.34341680922E+02  0.50528860414E+02  0.30000001714E+02 0.  0.
        -12    1    1    2    0    0  0.11827230174E+02 -0.18273784769E+02  0.34341680922E+02  0.40659139586E+02  0.00000000000E+00 0.  1.
         11    1    3    3    0    0 -0.20730771270E+01  0.75843985398E+01 -0.55988221377E+01  0.96523344107E+01  0.51100000000E-03 0. -1.
        -11    1    3    3    0    0 -0.10642787409E+02 -0.60740504056E+01 -0.12940228841E+02  0.17821687207E+02  0.51100000000E-03 0.  1.
        -12    1    3    3    0    0  0.88863436186E+00  0.16763436635E+02 -0.15802629943E+02  0.23054838797E+02  0.00000000000E+00 0.  1.
</event>
<event>
 7    1  0.9695796E-013  0.5052884E+02  0.7816164E-02  0.1300439E+00
        -11   -1    0    0    0    0  0.00000000000E+00  0.00000000000E+00  0.45593999997E+02  0.45594000000E+02  0.51100000000E-03 0.  1.
         11   -1    0    0    0    0 -0.00000000000E+00 -0.00000000000E+00 -0.45593999997E+02  0.45594000000E+02  0.51100000000E-03 0. -1.
    9900012    2    1    2    0    0  0.10318779241E+01 -0.32596902288E+02 -0.24280536123E+02  0.50528840574E+02  0.29999941409E+02 0.  0.
        -12    1    1    2    0    0 -0.10318779241E+01  0.32596902288E+02  0.24280536123E+02  0.40659159426E+02  0.00000000000E+00 0.  1.
         11    1    3    3    0    0 -0.41285687241E+01 -0.24307485644E+02 -0.19373590732E+02  0.31356577558E+02  0.51100000000E-03 0. -1.
        -11    1    3    3    0    0 -0.32056007683E+00 -0.27292040355E+01  0.55082114448E+01  0.61556240148E+01  0.51100000000E-03 0.  1.
        -12    1    3    3    0    0  0.54810067250E+01 -0.55602126083E+01 -0.10415156836E+02  0.13016639001E+02  0.00000000000E+00 0.  1.
</event>
<event>
 7    1  0.9406864E-013  0.5052878E+02  0.7816164E-02  0.1300439E+00
        -11   -1    0    0    0    0  0.00000000000E+00  0.00000000000E+00  0.45593999997E+02  0.45594000000E+02  0.51100000000E-03 0. -1.
         11   -1    0    0    0    0 -0.00000000000E+00 -0.00000000000E+00 -0.45593999997E+02  0.45594000000E+02  0.51100000000E-03 0.  1.
    9900012    2    1    2    0    0  0.85846634618E+01  0.21641090389E+02  0.33333747915E+02  0.50528782225E+02  0.29999764051E+02 0.  0.
        -12    1    1    2    0    0 -0.85846634618E+01 -0.21641090389E+02 -0.33333747915E+02  0.40659217775E+02  0.00000000000E+00 0.  1.
         11    1    3    3    0    0  0.13929295112E+02  0.17701756502E+02  0.31829343233E+02  0.38993390933E+02  0.51100000000E-03 0. -1.
        -11    1    3    3    0    0 -0.70026437619E+01  0.32610028041E+01  0.38119836902E+01  0.86140802678E+01  0.51100000000E-03 0.  1.
         12    1    3    3    0    0  0.16580121115E+01  0.67833108298E+00 -0.23075790081E+01  0.29213110240E+01  0.00000000000E+00 0. -1.
</event>
<event>
 7    1  0.9406864E-013  0.5052885E+02  0.7816164E-02  0.1300439E+00
        -11   -1    0    0    0    0  0.00000000000E+00  0.00000000000E+00  0.45593999997E+02  0.45594000000E+02  0.51100000000E-03 0.  1.
         11   -1    0    0    0    0 -0.00000000000E+00 -0.00000000000E+00 -0.45593999997E+02  0.45594000000E+02  0.51100000000E-03 0. -1.
    9900012    2    1    2    0    0 -0.94530731811E+01  0.46578151244E+01 -0.39269713762E+02  0.50528852773E+02  0.29999978488E+02 0.  0.
        -12    1    1    2    0    0  0.94530731811E+01 -0.46578151244E+01  0.39269713762E+02  0.40659147227E+02  0.00000000000E+00 0.  1.
         11    1    3    3    0    0 -0.80954935251E+01  0.39893188486E+01 -0.85243801513E+01  0.12414376244E+02  0.51100000000E-03 0. -1.
        -11    1    3    3    0    0 -0.42127056663E+01 -0.24539021745E+01 -0.32973968883E+02  0.33332433891E+02  0.51100000000E-03 0.  1.
        -12    1    3    3    0    0  0.28551260103E+01  0.31223984502E+01  0.22286352728E+01  0.47820426384E+01  0.00000000000E+00 0.  1.
</event>
<event>
 7    1  0.9406864E-013  0.5052886E+02  0.7816164E-02  0.1300439E+00
        -11   -1    0    0    0    0  0.00000000000E+00  0.00000000000E+00  0.45593999997E+02  0.45594000000E+02  0.51100000000E-03 0. -1.
         11   -1    0    0    0    0 -0.00000000000E+00 -0.00000000000E+00 -0.45593999997E+02  0.45594000000E+02  0.51100000000E-03 0.  1.
    9900012    2    1    2    0    0 -0.26306741602E+02 -0.30365847587E+02  0.62479121127E+01  0.50528858848E+02  0.29999996956E+02 0.  0.
        -12    1    1    2    0    0  0.26306741602E+02  0.30365847587E+02 -0.62479121127E+01  0.40659141152E+02  0.00000000000E+00 0.  1.
         11    1    3    3    0    0 -0.83735229500E+01 -0.85630457625E+01  0.16308445611E+02  0.20233809276E+02  0.51100000000E-03 0. -1.
        -11    1    3    3    0    0 -0.12643685621E+02 -0.18232292291E+02 -0.75407916663E+01  0.23433796267E+02  0.51100000000E-03 0.  1.
         12    1    3    3    0    0 -0.52895330308E+01 -0.35705095338E+01 -0.25197418318E+01  0.68612533049E+01  0.00000000000E+00 0. -1.
</event>
<event>
 7    1  0.9406864E-013  0.5052885E+02  0.7816164E-02  0.1300439E+00
        -11   -1    0    0    0    0  0.00000000000E+00  0.00000000000E+00  0.45593999997E+02  0.45594000000E+02  0.51100000000E-03 0. -1.
         11   -1    0    0    0    0 -0.00000000000E+00 -0.00000000000E+00 -0.45593999997E+02  0.45594000000E+02  0.51100000000E-03 0.  1.
    9900012    2    1    2    0    0  0.18238884767E+02 -0.10232059379E+02  0.34868526631E+02  0.50528854582E+02  0.29999983988E+02 0.  0.
        -12    1    1    2    0    0 -0.18238884767E+02  0.10232059379E+02 -0.34868526631E+02  0.40659145418E+02  0.00000000000E+00 0.  1.
         11    1    3    3    0    0  0.10030785547E+02 -0.76637928491E+01  0.81764311060E+01  0.15040093265E+02  0.51100000000E-03 0. -1.
        -11    1    3    3    0    0 -0.67925700023E+01 -0.36590627354E+01  0.13170162762E+02  0.15263713008E+02  0.51100000000E-03 0.  1.
         12    1    3    3    0    0  0.15000669222E+02  0.10907962052E+01  0.13521932763E+02  0.20225048309E+02  0.00000000000E+00 0. -1.
</event>
<event>
 7    1  0.9406864E-013  0.5052886E+02  0.7816164E-02  0.1300439E+00
        -11   -1    0    0    0    0  0.00000000000E+00  0.00000000000E+00  0.45593999997E+02  0.45594000000E+02  0.51100000000E-03 0.  1.
         11   -1    0    0    0    0 -0.00000000000E+00 -0.00000000000E+00 -0.45593999997E+02  0.45594000000E+02  0.51100000000E-03 0. -1.
    9900012    2    1    2    0    0 -0.28312464956E+02 -0.24160864491E+02 -0.16365294617E+02  0.50528856960E+02  0.29999991217E+02 0.  0.
        -12    1    1    2    0    0  0.28312464956E+02  0.24160864491E+02  0.16365294617E+02  0.40659143040E+02  0.00000000000E+00 0.  1.
         11    1    3    3    0    0 -0.15425165488E+02 -0.19537161207E+02 -0.17732129256E+02  0.30562473829E+02  0.51100000000E-03 0. -1.
        -11    1    3    3    0    0 -0.65532454219E+01 -0.50655882678E+01  0.74740973080E+01  0.11156493216E+02  0.51100000000E-03 0.  1.
         12    1    3    3    0    0 -0.63340540457E+01  0.44188498399E+00 -0.61072626692E+01  0.88098899144E+01  0.00000000000E+00 0. -1.
</event>
<event>
 7    1  0.9406864E-013  0.5052886E+02  0.7816164E-02  0.1300439E+00
        -11   -1    0    0    0    0  0.00000000000E+00  0.00000000000E+00  0.45593999997E+02  0.45594000000E+02  0.51100000000E-03 0.  1.
         11   -1    0    0    0    0 -0.00000000000E+00 -0.00000000000E+00 -0.45593999997E+02  0.45594000000E+02  0.51100000000E-03 0. -1.
    9900012    2    1    2    0    0  0.14815075161E+02 -0.23054686054E+02 -0.30035993225E+02  0.50528857239E+02  0.29999992064E+02 0.  0.
        -12    1    1    2    0    0 -0.14815075161E+02  0.23054686054E+02  0.30035993225E+02  0.40659142761E+02  0.00000000000E+00 0.  1.
         11    1    3    3    0    0  0.13526582257E+01 -0.93496858410E+00 -0.10986490110E+01  0.19775946095E+01  0.51100000000E-03 0. -1.
        -11    1    3    3    0    0  0.15281858883E+02 -0.16363119734E+02 -0.38130875385E+01  0.22711814881E+02  0.51100000000E-03 0.  1.
        -12    1    3    3    0    0 -0.18194419473E+01 -0.57565977361E+01 -0.25124256675E+02  0.25839447749E+02  0.00000000000E+00 0.  1.
</event>
<event>
 7    1  0.9406864E-013  0.5052886E+02  0.7816164E-02  0.1300439E+00
        -11   -1    0    0    0    0  0.00000000000E+00  0.00000000000E+00  0.45593999997E+02  0.45594000000E+02  0.51100000000E-03 0. -1.
         11   -1    0    0    0    0 -0.00000000000E+00 -0.00000000000E+00 -0.45593999997E+02  0.45594000000E+02  0.51100000000E-03 0.  1.
    9900012    2    1    2    0    0  0.26572498807E+02  0.12423623149E+02  0.28155307176E+02  0.50528862931E+02  0.30000009365E+02 0.  0.
        -12    1    1    2    0    0 -0.26572498807E+02 -0.12423623149E+02 -0.28155307176E+02  0.40659137069E+02  0.00000000000E+00 0.  1.
         11    1    3    3    0    0  0.14625805585E+02  0.21783535847E+01  0.19822840591E+02  0.24730637329E+02  0.51100000000E-03 0. -1.
        -11    1    3    3    0    0  0.69248914212E+00  0.34724809773E+01 -0.56157698638E+01  0.66388656241E+01  0.51100000000E-03 0.  1.
        -12    1    3    3    0    0  0.11254204080E+02  0.67727885868E+01  0.13948236449E+02  0.19159359978E+02  0.00000000000E+00 0.  1.
</event>
<event>
 7    1  0.1286348E-012  0.5052887E+02  0.7816164E-02  0.1300439E+00
        -11   -1    0    0    0    0  0.00000000000E+00  0.00000000000E+00  0.45593999997E+02  0.45594000000E+02  0.51100000000E-03 0.  1.
         11   -1    0    0    0    0 -0.00000000000E+00 -0.00000000000E+00 -0.45593999997E+02  0.45594000000E+02  0.51100000000E-03 0. -1.
    9900012    2    1    2    0    0  0.71680588199E+01  0.39674871202E+02  0.52619832754E+01  0.50528868921E+02  0.30000027572E+02 0.  0.
        -12    1    1    2    0    0 -0.71680588199E+01 -0.39674871202E+02 -0.52619832754E+01  0.40659131079E+02  0.00000000000E+00 0.  1.
         11    1    3    3    0    0 -0.79184310075E+01  0.22171689341E+02  0.17788722261E+01  0.23610373663E+02  0.51100000000E-03 0. -1.
        -11    1    3    3    0    0  0.30930359078E+01 -0.18125520964E+01 -0.10480514521E+01  0.37350539938E+01  0.51100000000E-03 0.  1.
         12    1    3    3    0    0  0.11993453920E+02  0.19315733958E+02  0.45311625014E+01  0.23183441264E+02  0.00000000000E+00 0. -1.
</event>
<event>
 7    1  0.9406864E-013  0.5052886E+02  0.7816164E-02  0.1300439E+00
        -11   -1    0    0    0    0  0.00000000000E+00  0.00000000000E+00  0.45593999997E+02  0.45594000000E+02  0.51100000000E-03 0.  1.
         11   -1    0    0    0    0 -0.00000000000E+00 -0.00000000000E+00 -0.45593999997E+02  0.45594000000E+02  0.51100000000E-03 0. -1.
    9900012    2    1    2    0    0 -0.17371140508E+02 -0.15930603147E+02 -0.33130418516E+02  0.50528864862E+02  0.30000015233E+02 0.  0.
        -12    1    1    2    0    0  0.17371140508E+02  0.15930603147E+02  0.33130418516E+02  0.40659135138E+02  0.00000000000E+00 0.  1.
         11    1    3    3    0    0 -0.13891089835E+02 -0.17899692974E+02 -0.25289036331E+02  0.33954333217E+02  0.51100000000E-03 0. -1.
        -11    1    3    3    0    0  0.44464395287E+01 -0.21544109333E+01 -0.53847293229E+01  0.73080517988E+01  0.51100000000E-03 0.  1.
         12    1    3    3    0    0 -0.79264902023E+01  0.41235007609E+01 -0.24566528616E+01  0.92664798459E+01  0.00000000000E+00 0. -1.
</event>
<event>
 7    1  0.9406864E-013  0.5052885E+02  0.7816164E-02  0.1300439E+00
        -11   -1    0    0    0    0  0.00000000000E+00  0.00000000000E+00  0.45593999997E+02  0.45594000000E+02  0.51100000000E-03 0.  1.
         11   -1    0    0    0    0 -0.00000000000E+00 -0.00000000000E+00 -0.45593999997E+02  0.45594000000E+02  0.51100000000E-03 0. -1.
    9900012    2    1    2    0    0 -0.18304620446E+02  0.87626181515E+01 -0.35232425555E+02  0.50528850759E+02  0.29999972366E+02 0.  0.
        -12    1    1    2    0    0  0.18304620446E+02 -0.87626181515E+01  0.35232425555E+02  0.40659149241E+02  0.00000000000E+00 0.  1.
         11    1    3    3    0    0 -0.11624684830E+01 -0.80432257657E+01 -0.14444777511E+02  0.16573967880E+02  0.51100000000E-03 0. -1.
        -11    1    3    3    0    0 -0.10163651841E+01  0.86390797640E+01 -0.79484648399E+01  0.11783241953E+02  0.51100000000E-03 0.  1.
         12    1    3    3    0    0 -0.16125786779E+02  0.81667641532E+01 -0.12839183205E+02  0.22171640925E+02  0.00000000000E+00 0. -1.
</event>
<event>
 7    1  0.1359929E-012  0.5052889E+02  0.7816164E-02  0.1300439E+00
        -11   -1    0    0    0    0  0.00000000000E+00  0.00000000000E+00  0.45593999997E+02  0.45594000000E+02  0.51100000000E-03 0. -1.
         11   -1    0    0    0    0 -0.00000000000E+00 -0.00000000000E+00 -0.45593999997E+02  0.45594000000E+02  0.51100000000E-03 0.  1.
    9900012    2    1    2    0    0  0.32931134118E+02  0.23800875293E+02  0.14907036220E+01  0.50528887168E+02  0.30000083035E+02 0.  0.
        -12    1    1    2    0    0 -0.32931134118E+02 -0.23800875293E+02 -0.14907036220E+01  0.40659112832E+02  0.00000000000E+00 0.  1.
         11    1    3    3    0    0  0.36585429859E+01  0.15871012202E+02 -0.43865607016E+01  0.16867598529E+02  0.51100000000E-03 0. -1.
        -11    1    3    3    0    0  0.40465813951E+01 -0.27259854474E+01  0.38259288535E+01  0.62002862434E+01  0.51100000000E-03 0.  1.
         12    1    3    3    0    0  0.25226009737E+02  0.10655848539E+02  0.20513354701E+01  0.27461002395E+02  0.00000000000E+00 0. -1.
</event>
<event>
 7    1  0.9406864E-013  0.5052887E+02  0.7816164E-02  0.1300439E+00
        -11   -1    0    0    0    0  0.00000000000E+00  0.00000000000E+00  0.45593999997E+02  0.45594000000E+02  0.51100000000E-03 0.  1.
         11   -1    0    0    0    0 -0.00000000000E+00 -0.00000000000E+00 -0.45593999997E+02  0.45594000000E+02  0.51100000000E-03 0. -1.
    9900012    2    1    2    0    0 -0.13637145057E+02  0.28948418729E+02 -0.25083502562E+02  0.50528870976E+02  0.30000033819E+02 0.  0.
        -12    1    1    2    0    0  0.13637145057E+02 -0.28948418729E+02  0.25083502562E+02  0.40659129024E+02  0.00000000000E+00 0.  1.
         11    1    3    3    0    0 -0.17843426304E+02  0.43224837282E+01 -0.11048555670E+02  0.21427606271E+02  0.51100000000E-03 0. -1.
        -11    1    3    3    0    0  0.40352370060E+01  0.15401477810E+02 -0.65307065278E+01  0.17208683402E+02  0.51100000000E-03 0.  1.
         12    1    3    3    0    0  0.17104424090E+00  0.92244571905E+01 -0.75042403642E+01  0.11892581302E+02  0.00000000000E+00 0. -1.
</event>
<event>
 7    1  0.9406864E-013  0.5052886E+02  0.7816164E-02  0.1300439E+00
        -11   -1    0    0    0    0  0.00000000000E+00  0.00000000000E+00  0.45593999997E+02  0.45594000000E+02  0.51100000000E-03 0. -1.
         11   -1    0    0    0    0 -0.00000000000E+00 -0.00000000000E+00 -0.45593999997E+02  0.45594000000E+02  0.51100000000E-03 0.  1.
    9900012    2    1    2    0    0 -0.38816815219E+02 -0.47509652191E+01  0.11128738880E+02  0.50528860273E+02  0.30000001287E+02 0.  0.
        -12    1    1    2    0    0  0.38816815219E+02  0.47509652191E+01 -0.11128738880E+02  0.40659139727E+02  0.00000000000E+00 0.  1.
         11    1    3    3    0    0 -0.81367928364E+01 -0.22364004352E+01  0.65404791250E+01  0.10676457840E+02  0.51100000000E-03 0. -1.
        -11    1    3    3    0    0 -0.58593968579E+01  0.71635248694E+01 -0.61684801541E+01  0.11121994775E+02  0.51100000000E-03 0.  1.
        -12    1    3    3    0    0 -0.24820625525E+02 -0.96780896533E+01  0.10756739909E+02  0.28730407659E+02  0.00000000000E+00 0.  1.
</event>
<event>
 7    1  0.9406864E-013  0.5052885E+02  0.7816164E-02  0.1300439E+00
        -11   -1    0    0    0    0  0.00000000000E+00  0.00000000000E+00  0.45593999997E+02  0.45594000000E+02  0.51100000000E-03 0.  1.
         11   -1    0    0    0    0 -0.00000000000E+00 -0.00000000000E+00 -0.45593999997E+02  0.45594000000E+02  0.51100000000E-03 0. -1.
    9900012    2    1    2    0    0  0.31904948636E+02  0.84436354939E+00 -0.25189832578E+02  0.50528851428E+02  0.29999974401E+02 0.  0.
        -12    1    1    2    0    0 -0.31904948636E+02 -0.84436354939E+00  0.25189832578E+02  0.40659148572E+02  0.00000000000E+00 0.  1.
         11    1    3    3    0    0  0.10637532998E+02  0.27947255868E+01  0.39548173646E+01  0.11687950207E+02  0.51100000000E-03 0. -1.
        -11    1    3    3    0    0  0.78789437433E+01 -0.72572934852E+01 -0.16519866986E+02  0.19688881856E+02  0.51100000000E-03 0.  1.
         12    1    3    3    0    0  0.13388471895E+02  0.53069314478E+01 -0.12624782956E+02  0.19152019365E+02  0.00000000000E+00 0. -1.
</event>
<event>
 7    1  0.9406864E-013  0.5052885E+02  0.7816164E-02  0.1300439E+00
        -11   -1    0    0    0    0  0.00000000000E+00  0.00000000000E+00  0.45593999997E+02  0.45594000000E+02  0.51100000000E-03 0.  1.
         11   -1    0    0    0    0 -0.00000000000E+00 -0.00000000000E+00 -0.45593999997E+02  0.45594000000E+02  0.51100000000E-03 0. -1.
    9900012    2    1    2    0    0  0.86851161087E+00 -0.22831519251E+02 -0.33632328612E+02  0.50528854515E+02  0.29999983782E+02 0.  0.
        -12    1    1    2    0    0 -0.86851161087E+00  0.22831519251E+02  0.33632328612E+02  0.40659145485E+02  0.00000000000E+00 0.  1.
         11    1    3    3    0    0  0.10211371658E+02 -0.10310922078E+02 -0.31352687421E+02  0.34548201603E+02  0.51100000000E-03 0. -1.
        -11    1    3    3    0    0 -0.18839617722E+01 -0.21579014916E+01  0.51479996544E+00  0.29104759185E+01  0.51100000000E-03 0.  1.
         12    1    3    3    0    0 -0.74588982744E+01 -0.10362695681E+02 -0.27944411567E+01  0.13070176993E+02  0.00000000000E+00 0. -1.
</event>
<event>
 7    1  0.9406864E-013  0.5052885E+02  0.7816164E-02  0.1300439E+00
        -11   -1    0    0    0    0  0.00000000000E+00  0.00000000000E+00  0.45593999997E+02  0.45594000000E+02  0.51100000000E-03 0.  1.
         11   -1    0    0    0    0 -0.00000000000E+00 -0.00000000000E+00 -0.45593999997E+02  0.45594000000E+02  0.51100000000E-03 0. -1.
    9900012    2    1    2    0    0  0.15513936226E+02  0.33869871696E+02 -0.16288522579E+02  0.50528851045E+02  0.29999973236E+02 0.  0.
        -12    1    1    2    0    0 -0.15513936226E+02 -0.33869871696E+02  0.16288522579E+02  0.40659148955E+02  0.00000000000E+00 0.  1.
         11    1    3    3    0    0  0.77375620793E+01  0.52194455746E+01  0.16681321354E+01  0.94813049798E+01  0.51100000000E-03 0. -1.
        -11    1    3    3    0    0 -0.41192347921E+01  0.23205195621E+02 -0.91752833503E+01  0.25291006779E+02  0.51100000000E-03 0.  1.
        -12    1    3    3    0    0  0.11895608939E+02  0.54452305004E+01 -0.87813713641E+01  0.15756539286E+02  0.00000000000E+00 0.  1.
</event>
<event>
 7    1  0.9406864E-013  0.5052886E+02  0.7816164E-02  0.1300439E+00
        -11   -1    0    0    0    0  0.00000000000E+00  0.00000000000E+00  0.45593999997E+02  0.45594000000E+02  0.51100000000E-03 0.  1.
         11   -1    0    0    0    0 -0.00000000000E+00 -0.00000000000E+00 -0.45593999997E+02  0.45594000000E+02  0.51100000000E-03 0. -1.
    9900012    2    1    2    0    0 -0.88743907443E+01 -0.31867660857E+02 -0.23640288010E+02  0.50528857894E+02  0.29999994054E+02 0.  0.
        -12    1    1    2    0    0  0.88743907443E+01  0.31867660857E+02  0.23640288010E+02  0.40659142106E+02  0.00000000000E+00 0.  1.
         11    1    3    3    0    0 -0.71333262008E+01 -0.13857830303E+02 -0.94282147747E+01  0.18215790883E+02  0.51100000000E-03 0. -1.
        -11    1    3    3    0    0  0.93338547695E+01 -0.25937898846E+01 -0.24860168238E+01  0.10001443433E+02  0.51100000000E-03 0.  1.
        -12    1    3    3    0    0 -0.11074919313E+02 -0.15416040670E+02 -0.11726056412E+02  0.22311623579E+02  0.00000000000E+00 0.  1.
</event>
<event>
 7    1  0.9406864E-013  0.5052886E+02  0.7816164E-02  0.1300439E+00
        -11   -1    0    0    0    0  0.00000000000E+00  0.00000000000E+00  0.45593999997E+02  0.45594000000E+02  0.51100000000E-03 0.  1.
         11   -1    0    0    0    0 -0.00000000000E+00 -0.00000000000E+00 -0.45593999997E+02  0.45594000000E+02  0.51100000000E-03 0. -1.
    9900012    2    1    2    0    0 -0.26545281138E+02 -0.16485028462E+01 -0.30753800290E+02  0.50528859027E+02  0.29999997499E+02 0.  0.
        -12    1    1    2    0    0  0.26545281138E+02  0.16485028462E+01  0.30753800290E+02  0.40659140973E+02  0.00000000000E+00 0.  1.
         11    1    3    3    0    0 -0.25056265228E+02 -0.91094446463E+01 -0.18660331221E+02  0.32542378071E+02  0.51100000000E-03 0. -1.
        -11    1    3    3    0    0 -0.35471283795E+01  0.71035197836E+00  0.39786024337E+00  0.36393698230E+01  0.51100000000E-03 0.  1.
         12    1    3    3    0    0  0.20581124696E+01  0.67505898217E+01 -0.12491329312E+02  0.14347111133E+02  0.00000000000E+00 0. -1.
</event>
<event>
 7    1  0.9406864E-013  0.5052884E+02  0.7816164E-02  0.1300439E+00
        -11   -1    0    0    0    0  0.00000000000E+00  0.00000000000E+00  0.45593999997E+02  0.45594000000E+02  0.51100000000E-03 0. -1.
         11   -1    0    0    0    0 -0.00000000000E+00 -0.00000000000E+00 -0.45593999997E+02  0.45594000000E+02  0.51100000000E-03 0.  1.
    9900012    2    1    2    0    0 -0.25153640675E+02  0.31912329390E+02  0.14369248055E+01  0.50528841632E+02  0.29999944624E+02 0.  0.
        -12    1    1    2    0    0  0.25153640675E+02 -0.31912329390E+02 -0.14369248055E+01  0.40659158368E+02  0.00000000000E+00 0.  1.
         11    1    3    3    0    0 -0.18176960063E+02  0.10236471895E+02  0.11296675214E+02  0.23723450532E+02  0.51100000000E-03 0. -1.
        -11    1    3    3    0    0 -0.91526868119E+01  0.12496529043E+02 -0.59388568135E+01  0.16589301809E+02  0.51100000000E-03 0.  1.
         12    1    3    3    0    0  0.21760061993E+01  0.91793284524E+01 -0.39208935953E+01  0.10216089291E+02  0.00000000000E+00 0. -1.
</event>
<event>
 7    1  0.9406864E-013  0.5052887E+02  0.7816164E-02  0.1300439E+00
        -11   -1    0    0    0    0  0.00000000000E+00  0.00000000000E+00  0.45593999997E+02  0.45594000000E+02  0.51100000000E-03 0.  1.
         11   -1    0    0    0    0 -0.00000000000E+00 -0.00000000000E+00 -0.45593999997E+02  0.45594000000E+02  0.51100000000E-03 0. -1.
    9900012    2    1    2    0    0  0.21733317807E+02  0.29322397798E+02 -0.17917172663E+02  0.50528865827E+02  0.30000018167E+02 0.  0.
        -12    1    1    2    0    0 -0.21733317807E+02 -0.29322397798E+02  0.17917172663E+02  0.40659134173E+02  0.00000000000E+00 0.  1.
         11    1    3    3    0    0  0.17045823678E+02  0.24789628249E+02 -0.18490560116E+02  0.35312697253E+02  0.51100000000E-03 0. -1.
        -11    1    3    3    0    0  0.81120686565E+01 -0.23965287066E+00 -0.26228182633E+01  0.85289077430E+01  0.51100000000E-03 0.  1.
         12    1    3    3    0    0 -0.34245745281E+01  0.47724224188E+01  0.31962057162E+01  0.66872608310E+01  0.00000000000E+00 0. -1.
</event>
<event>
 7    1  0.9406864E-013  0.5052885E+02  0.7816164E-02  0.1300439E+00
        -11   -1    0    0    0    0  0.00000000000E+00  0.00000000000E+00  0.45593999997E+02  0.45594000000E+02  0.51100000000E-03 0.  1.
         11   -1    0    0    0    0 -0.00000000000E+00 -0.00000000000E+00 -0.45593999997E+02  0.45594000000E+02  0.51100000000E-03 0. -1.
    9900012    2    1    2    0    0 -0.31873601519E+02 -0.46454907159E+00 -0.25239332381E+02  0.50528853690E+02  0.29999981277E+02 0.  0.
        -12    1    1    2    0    0  0.31873601519E+02  0.46454907159E+00  0.25239332381E+02  0.40659146310E+02  0.00000000000E+00 0.  1.
         11    1    3    3    0    0 -0.21731390449E+02 -0.34275568558E+01 -0.20921119473E+02  0.30359425507E+02  0.51100000000E-03 0. -1.
        -11    1    3    3    0    0 -0.25746213200E+01  0.92719871048E+01 -0.36587274291E+01  0.10294887395E+02  0.51100000000E-03 0.  1.
        -12    1    3    3    0    0 -0.75675897495E+01 -0.63089793205E+01 -0.65948547856E+00  0.98745407883E+01  0.00000000000E+00 0.  1.
</event>
<event>
 7    1  0.9406864E-013  0.5052886E+02  0.7816164E-02  0.1300439E+00
        -11   -1    0    0    0    0  0.00000000000E+00  0.00000000000E+00  0.45593999997E+02  0.45594000000E+02  0.51100000000E-03 0.  1.
         11   -1    0    0    0    0 -0.00000000000E+00 -0.00000000000E+00 -0.45593999997E+02  0.45594000000E+02  0.51100000000E-03 0. -1.
    9900012    2    1    2    0    0  0.24814476593E+02 -0.12203091277E+02 -0.29807579836E+02  0.50528862024E+02  0.30000006607E+02 0.  0.
        -12    1    1    2    0    0 -0.24814476593E+02  0.12203091277E+02  0.29807579836E+02  0.40659137976E+02  0.00000000000E+00 0.  1.
         11    1    3    3    0    0  0.25707699063E+01  0.10652002509E+01 -0.22058272815E+02  0.22233103907E+02  0.51100000000E-03 0. -1.
        -11    1    3    3    0    0  0.68488432899E+01 -0.31323806564E+00 -0.36307772941E+01  0.77580484992E+01  0.51100000000E-03 0.  1.
         12    1    3    3    0    0  0.15394863397E+02 -0.12955053462E+02 -0.41185297262E+01  0.20537709618E+02  0.00000000000E+00 0. -1.
</event>
<event>
 7    1  0.9406864E-013  0.5052886E+02  0.7816164E-02  0.1300439E+00
        -11   -1    0    0    0    0  0.00000000000E+00  0.00000000000E+00  0.45593999997E+02  0.45594000000E+02  0.51100000000E-03 0.  1.
         11   -1    0    0    0    0 -0.00000000000E+00 -0.00000000000E+00 -0.45593999997E+02  0.45594000000E+02  0.51100000000E-03 0. -1.
    9900012    2    1    2    0    0 -0.17269743862E+02  0.24824714787E+02 -0.27178210235E+02  0.50528860451E+02  0.30000001826E+02 0.  0.
        -12    1    1    2    0    0  0.17269743862E+02 -0.24824714787E+02  0.27178210235E+02  0.40659139549E+02  0.00000000000E+00 0.  1.
         11    1    3    3    0    0 -0.21935330073E+02  0.92775000506E+01 -0.18404672440E+02  0.30099213951E+02  0.51100000000E-03 0. -1.
        -11    1    3    3    0    0 -0.21748249529E+01  0.26313128838E+01 -0.60868231872E-01  0.34142900098E+01  0.51100000000E-03 0.  1.
         12    1    3    3    0    0  0.68404111635E+01  0.12915901853E+02 -0.87126695626E+01  0.17015356489E+02  0.00000000000E+00 0. -1.
</event>
<event>
 7    1  0.9406864E-013  0.5052886E+02  0.7816164E-02  0.1300439E+00
        -11   -1    0    0    0    0  0.00000000000E+00  0.00000000000E+00  0.45593999997E+02  0.45594000000E+02  0.51100000000E-03 0.  1.
         11   -1    0    0    0    0 -0.00000000000E+00 -0.00000000000E+00 -0.45593999997E+02  0.45594000000E+02  0.51100000000E-03 0. -1.
    9900012    2    1    2    0    0  0.24122384095E+02  0.31351102082E+02 -0.94013257805E+01  0.50528856593E+02  0.29999990099E+02 0.  0.
        -12    1    1    2    0    0 -0.24122384095E+02 -0.31351102082E+02  0.94013257805E+01  0.40659143407E+02  0.00000000000E+00 0.  1.
         11    1    3    3    0    0  0.81608695196E+01  0.16171476936E+01 -0.89573681857E-04  0.83195527673E+01  0.51100000000E-03 0. -1.
        -11    1    3    3    0    0  0.17725602338E+02  0.30925866376E+02 -0.33596138442E+01  0.35803536065E+02  0.51100000000E-03 0.  1.
        -12    1    3    3    0    0 -0.17640877628E+01 -0.11919119871E+01 -0.60416223627E+01  0.64057677598E+01  0.00000000000E+00 0.  1.
</event>
<event>
 7    1  0.9406864E-013  0.5052886E+02  0.7816164E-02  0.1300439E+00
        -11   -1    0    0    0    0  0.00000000000E+00  0.00000000000E+00  0.45593999997E+02  0.45594000000E+02  0.51100000000E-03 0.  1.
         11   -1    0    0    0    0 -0.00000000000E+00 -0.00000000000E+00 -0.45593999997E+02  0.45594000000E+02  0.51100000000E-03 0. -1.
    9900012    2    1    2    0    0  0.15179299373E+02  0.90111827349E+00 -0.37708656473E+02  0.50528856913E+02  0.29999991073E+02 0.  0.
        -12    1    1    2    0    0 -0.15179299373E+02 -0.90111827349E+00  0.37708656473E+02  0.40659143087E+02  0.00000000000E+00 0.  1.
         11    1    3    3    0    0  0.78472840917E+00 -0.51629137379E+00 -0.58279778534E+01  0.59031924905E+01  0.51100000000E-03 0. -1.
        -11    1    3    3    0    0 -0.37001487623E+01 -0.68443128433E+01 -0.93243346595E+00  0.78361439235E+01  0.51100000000E-03 0.  1.
        -12    1    3    3    0    0  0.18094719726E+02  0.82617224906E+01 -0.30948245153E+02  0.36789520499E+02  0.00000000000E+00 0.  1.
</event>
<event>
 7    1  0.9406864E-013  0.5052885E+02  0.7816164E-02  0.1300439E+00
        -11   -1    0    0    0    0  0.00000000000E+00  0.00000000000E+00  0.45593999997E+02  0.45594000000E+02  0.51100000000E-03 0. -1.
         11   -1    0    0    0    0 -0.00000000000E+00 -0.00000000000E+00 -0.45593999997E+02  0.45594000000E+02  0.51100000000E-03 0.  1.
    9900012    2    1    2    0    0  0.34913665950E+02  0.18775910385E+02 -0.90369976543E+01  0.50528853336E+02  0.29999980200E+02 0.  0.
        -12    1    1    2    0    0 -0.34913665950E+02 -0.18775910385E+02  0.90369976543E+01  0.40659146664E+02  0.00000000000E+00 0.  1.
         11    1    3    3    0    0  0.12449873424E+01  0.12317216385E+02  0.22409685074E+01  0.12581166602E+02  0.51100000000E-03 0. -1.
        -11    1    3    3    0    0  0.22514732139E+02 -0.14449544274E+01 -0.68462216806E+01  0.23576933815E+02  0.51100000000E-03 0.  1.
         12    1    3    3    0    0  0.11153946469E+02  0.79036484274E+01 -0.44317444810E+01  0.14370752918E+02  0.00000000000E+00 0. -1.
</event>
<event>
 7    1  0.9406864E-013  0.5052886E+02  0.7816164E-02  0.1300439E+00
        -11   -1    0    0    0    0  0.00000000000E+00  0.00000000000E+00  0.45593999997E+02  0.45594000000E+02  0.51100000000E-03 0.  1.
         11   -1    0    0    0    0 -0.00000000000E+00 -0.00000000000E+00 -0.45593999997E+02  0.45594000000E+02  0.51100000000E-03 0. -1.
    9900012    2    1    2    0    0  0.40545004107E+01 -0.16232064913E+02 -0.37057349252E+02  0.50528855414E+02  0.29999986515E+02 0.  0.
        -12    1    1    2    0    0 -0.40545004107E+01  0.16232064913E+02  0.37057349252E+02  0.40659144586E+02  0.00000000000E+00 0.  1.
         11    1    3    3    0    0  0.87845224721E+01 -0.58128128486E+01 -0.12291575757E+01  0.10605067510E+02  0.51100000000E-03 0. -1.
        -11    1    3    3    0    0 -0.11203455151E+01 -0.12233245099E+02 -0.19059748433E+02  0.22675569901E+02  0.51100000000E-03 0.  1.
         12    1    3    3    0    0 -0.36096765463E+01  0.18139930346E+01 -0.16768443243E+02  0.17248218003E+02  0.00000000000E+00 0. -1.
</event>
<event>
 7    1  0.9406864E-013  0.5052886E+02  0.7816164E-02  0.1300439E+00
        -11   -1    0    0    0    0  0.00000000000E+00  0.00000000000E+00  0.45593999997E+02  0.45594000000E+02  0.51100000000E-03 0.  1.
         11   -1    0    0    0    0 -0.00000000000E+00 -0.00000000000E+00 -0.45593999997E+02  0.45594000000E+02  0.51100000000E-03 0. -1.
    9900012    2    1    2    0    0  0.19361771278E+02 -0.30156537723E+02 -0.19206013466E+02  0.50528857021E+02  0.29999991403E+02 0.  0.
        -12    1    1    2    0    0 -0.19361771278E+02  0.30156537723E+02  0.19206013466E+02  0.40659142979E+02  0.00000000000E+00 0.  1.
         11    1    3    3    0    0  0.10613376374E+02 -0.11024998138E+02 -0.84926021178E+00  0.15326956162E+02  0.51100000000E-03 0. -1.
        -11    1    3    3    0    0  0.93550363796E+01 -0.50221606223E+01 -0.18209157903E+02  0.21078715207E+02  0.51100000000E-03 0.  1.
        -12    1    3    3    0    0 -0.60664147559E+00 -0.14109378963E+02 -0.14759535100E+00  0.14123185653E+02  0.00000000000E+00 0.  1.
</event>
<event>
 7    1  0.9406864E-013  0.5052886E+02  0.7816164E-02  0.1300439E+00
        -11   -1    0    0    0    0  0.00000000000E+00  0.00000000000E+00  0.45593999997E+02  0.45594000000E+02  0.51100000000E-03 0. -1.
         11   -1    0    0    0    0 -0.00000000000E+00 -0.00000000000E+00 -0.45593999997E+02  0.45594000000E+02  0.51100000000E-03 0.  1.
    9900012    2    1    2    0    0 -0.92609127858E+01 -0.38793154774E+02  0.79052250247E+01  0.50528856556E+02  0.29999989987E+02 0.  0.
        -12    1    1    2    0    0  0.92609127858E+01  0.38793154774E+02 -0.79052250247E+01  0.40659143444E+02  0.00000000000E+00 0.  1.
         11    1    3    3    0    0  0.17453183804E+01 -0.14113205445E+02  0.15793257114E+02  0.21252192233E+02  0.51100000000E-03 0.  1.
        -11    1    3    3    0    0 -0.12218765541E+02 -0.21551229900E+02 -0.75768588100E+01  0.25906804729E+02  0.51100000000E-03 0. -1.
         12    1    3    3    0    0  0.12125343750E+01 -0.31287194287E+01 -0.31117327947E+00  0.33698595941E+01  0.00000000000E+00 0. -1.
</event>
<event>
 7    1  0.9406864E-013  0.5052887E+02  0.7816164E-02  0.1300439E+00
        -11   -1    0    0    0    0  0.00000000000E+00  0.00000000000E+00  0.45593999997E+02  0.45594000000E+02  0.51100000000E-03 0.  1.
         11   -1    0    0    0    0 -0.00000000000E+00 -0.00000000000E+00 -0.45593999997E+02  0.45594000000E+02  0.51100000000E-03 0. -1.
    9900012    2    1    2    0    0  0.13902265975E+02 -0.12364110544E+02 -0.36152744040E+02  0.50528866581E+02  0.30000020459E+02 0.  0.
        -12    1    1    2    0    0 -0.13902265975E+02  0.12364110544E+02  0.36152744040E+02  0.40659133419E+02  0.00000000000E+00 0.  1.
         11    1    3    3    0    0  0.13823190753E+02 -0.45868371384E+01 -0.20716163028E+02  0.25323488867E+02  0.51100000000E-03 0. -1.
        -11    1    3    3    0    0  0.13121513597E+00  0.48834376248E+01  0.43276548626E+00  0.49043314197E+01  0.51100000000E-03 0.  1.
        -12    1    3    3    0    0 -0.52139914039E-01 -0.12660711030E+02 -0.15869346498E+02  0.20301046294E+02  0.00000000000E+00 0.  1.
</event>
<event>
 7    1  0.9406864E-013  0.5052887E+02  0.7816164E-02  0.1300439E+00
        -11   -1    0    0    0    0  0.00000000000E+00  0.00000000000E+00  0.45593999997E+02  0.45594000000E+02  0.51100000000E-03 0.  1.
         11   -1    0    0    0    0 -0.00000000000E+00 -0.00000000000E+00 -0.45593999997E+02  0.45594000000E+02  0.51100000000E-03 0. -1.
    9900012    2    1    2    0    0 -0.36618810473E+02 -0.33088680843E+01  0.17357389772E+02  0.50528869806E+02  0.30000030261E+02 0.  0.
        -12    1    1    2    0    0  0.36618810473E+02  0.33088680843E+01 -0.17357389772E+02  0.40659130194E+02  0.00000000000E+00 0.  1.
         11    1    3    3    0    0 -0.35509919697E+02 -0.16446421822E+01  0.36942024064E+01  0.35739423281E+02  0.51100000000E-03 0. -1.
        -11    1    3    3    0    0  0.15381457562E+01 -0.24356368210E+01  0.63139904071E+01  0.69400788333E+01  0.51100000000E-03 0.  1.
        -12    1    3    3    0    0 -0.26470365322E+01  0.77141091887E+00  0.73491969586E+01  0.78493676907E+01  0.00000000000E+00 0.  1.
</event>
<event>
 7    1  0.9406864E-013  0.5052886E+02  0.7816164E-02  0.1300439E+00
        -11   -1    0    0    0    0  0.00000000000E+00  0.00000000000E+00  0.45593999997E+02  0.45594000000E+02  0.51100000000E-03 0.  1.
         11   -1    0    0    0    0 -0.00000000000E+00 -0.00000000000E+00 -0.45593999997E+02  0.45594000000E+02  0.51100000000E-03 0. -1.
    9900012    2    1    2    0    0  0.36835094039E+02 -0.16047234777E+02 -0.62312093967E+01  0.50528857518E+02  0.29999992912E+02 0.  0.
        -12    1    1    2    0    0 -0.36835094039E+02  0.16047234777E+02  0.62312093967E+01  0.40659142482E+02  0.00000000000E+00 0.  1.
         11    1    3    3    0    0  0.16706966319E+02 -0.22443793163E+02 -0.26088294506E+01  0.28100757401E+02  0.51100000000E-03 0. -1.
        -11    1    3    3    0    0  0.64779381229E+01  0.37761458629E+00  0.14906016686E+01  0.66579402743E+01  0.51100000000E-03 0.  1.
         12    1    3    3    0    0  0.13650189596E+02  0.60189437995E+01 -0.51129816146E+01  0.15770159843E+02  0.00000000000E+00 0. -1.
</event>
<event>
 7    1  0.9406864E-013  0.5052882E+02  0.7816164E-02  0.1300439E+00
        -11   -1    0    0    0    0  0.00000000000E+00  0.00000000000E+00  0.45593999997E+02  0.45594000000E+02  0.51100000000E-03 0.  1.
         11   -1    0    0    0    0 -0.00000000000E+00 -0.00000000000E+00 -0.45593999997E+02  0.45594000000E+02  0.51100000000E-03 0. -1.
    9900012    2    1    2    0    0 -0.14120771261E+02  0.88245808875E+01 -0.37093116748E+02  0.50528822451E+02  0.29999886323E+02 0.  0.
        -12    1    1    2    0    0  0.14120771261E+02 -0.88245808875E+01  0.37093116748E+02  0.40659177549E+02  0.00000000000E+00 0.  1.
         11    1    3    3    0    0 -0.14248635160E+02  0.11965771634E+02 -0.67505838812E+01  0.19793273547E+02  0.51100000000E-03 0. -1.
        -11    1    3    3    0    0  0.79826272002E+00  0.64312497183E+00 -0.50857312389E+01  0.51880146101E+01  0.51100000000E-03 0.  1.
         12    1    3    3    0    0 -0.67039882157E+00 -0.37843157181E+01 -0.25256801628E+02  0.25547534294E+02  0.00000000000E+00 0. -1.
</event>
<event>
 7    1  0.9406864E-013  0.5052885E+02  0.7816164E-02  0.1300439E+00
        -11   -1    0    0    0    0  0.00000000000E+00  0.00000000000E+00  0.45593999997E+02  0.45594000000E+02  0.51100000000E-03 0. -1.
         11   -1    0    0    0    0 -0.00000000000E+00 -0.00000000000E+00 -0.45593999997E+02  0.45594000000E+02  0.51100000000E-03 0.  1.
    9900012    2    1    2    0    0  0.28405350798E+02  0.28738537628E+02  0.45164821212E+01  0.50528854538E+02  0.29999983854E+02 0.  0.
        -12    1    1    2    0    0 -0.28405350798E+02 -0.28738537628E+02 -0.45164821212E+01  0.40659145462E+02  0.00000000000E+00 0.  1.
         11    1    3    3    0    0  0.17413918048E+02  0.30283750721E+02  0.62917868721E+01  0.35495586794E+02  0.51100000000E-03 0. -1.
        -11    1    3    3    0    0  0.19286900245E+01 -0.47270740195E+01  0.59525899389E+00  0.51399812770E+01  0.51100000000E-03 0.  1.
         12    1    3    3    0    0  0.90627427253E+01  0.31818609263E+01 -0.23705637448E+01  0.98932864674E+01  0.00000000000E+00 0. -1.
</event>
<event>
 7    1  0.9406864E-013  0.5052886E+02  0.7816164E-02  0.1300439E+00
        -11   -1    0    0    0    0  0.00000000000E+00  0.00000000000E+00  0.45593999997E+02  0.45594000000E+02  0.51100000000E-03 0. -1.
         11   -1    0    0    0    0 -0.00000000000E+00 -0.00000000000E+00 -0.45593999997E+02  0.45594000000E+02  0.51100000000E-03 0.  1.
    9900012    2    1    2    0    0 -0.17930405658E+02  0.14672382600E+02  0.33412383037E+02  0.50528860826E+02  0.30000002965E+02 0.  0.
        -12    1    1    2    0    0  0.17930405658E+02 -0.14672382600E+02 -0.33412383037E+02  0.40659139174E+02  0.00000000000E+00 0.  1.
         11    1    3    3    0    0 -0.20860229209E+01  0.12994807317E+01  0.11087549521E+02  0.11356667489E+02  0.51100000000E-03 0. -1.
        -11    1    3    3    0    0 -0.16454184655E+02 -0.14083926516E+01  0.72014942069E+01  0.18016250487E+02  0.51100000000E-03 0.  1.
        -12    1    3    3    0    0  0.60980191756E+00  0.14781294519E+02  0.15123339308E+02  0.21155942850E+02  0.00000000000E+00 0.  1.
</event>
<event>
 7    1  0.9406864E-013  0.5052883E+02  0.7816164E-02  0.1300439E+00
        -11   -1    0    0    0    0  0.00000000000E+00  0.00000000000E+00  0.45593999997E+02  0.45594000000E+02  0.51100000000E-03 0.  1.
         11   -1    0    0    0    0 -0.00000000000E+00 -0.00000000000E+00 -0.45593999997E+02  0.45594000000E+02  0.51100000000E-03 0. -1.
    9900012    2    1    2    0    0 -0.29987335990E+02 -0.26095789606E+02 -0.85403287347E+01  0.50528834123E+02  0.29999921801E+02 0.  0.
        -12    1    1    2    0    0  0.29987335990E+02  0.26095789606E+02  0.85403287347E+01  0.40659165877E+02  0.00000000000E+00 0.  1.
         11    1    3    3    0    0 -0.16716228264E+02 -0.83486234460E+01 -0.16347943851E+01  0.18756448325E+02  0.51100000000E-03 0. -1.
        -11    1    3    3    0    0 -0.61389195216E+01 -0.14564013363E+02 -0.14080000499E+02  0.21167031734E+02  0.51100000000E-03 0.  1.
        -12    1    3    3    0    0 -0.71321882040E+01 -0.31831527965E+01  0.71744661493E+01  0.10605354064E+02  0.00000000000E+00 0.  1.
</event>
<event>
 7    1  0.1800150E-012  0.5052885E+02  0.7816164E-02  0.1300439E+00
        -11   -1    0    0    0    0  0.00000000000E+00  0.00000000000E+00  0.45593999997E+02  0.45594000000E+02  0.51100000000E-03 0. -1.
         11   -1    0    0    0    0 -0.00000000000E+00 -0.00000000000E+00 -0.45593999997E+02  0.45594000000E+02  0.51100000000E-03 0.  1.
    9900012    2    1    2    0    0  0.12866216929E+02 -0.11397401569E+02  0.36847334568E+02  0.50528851394E+02  0.29999974296E+02 0.  0.
        -12    1    1    2    0    0 -0.12866216929E+02  0.11397401569E+02 -0.36847334568E+02  0.40659148606E+02  0.00000000000E+00 0.  1.
         11    1    3    3    0    0  0.12278199210E+02 -0.13936282745E+02  0.24598047688E+02  0.30822688120E+02  0.51100000000E-03 0. -1.
        -11    1    3    3    0    0 -0.52189008936E+01 -0.31366677004E+01  0.15656080674E+01  0.62870294800E+01  0.51100000000E-03 0.  1.
         12    1    3    3    0    0  0.58069186123E+01  0.56755488757E+01  0.10683678813E+02  0.13419133794E+02  0.00000000000E+00 0. -1.
</event>
<event>
 7    1  0.9406864E-013  0.5052886E+02  0.7816164E-02  0.1300439E+00
        -11   -1    0    0    0    0  0.00000000000E+00  0.00000000000E+00  0.45593999997E+02  0.45594000000E+02  0.51100000000E-03 0. -1.
         11   -1    0    0    0    0 -0.00000000000E+00 -0.00000000000E+00 -0.45593999997E+02  0.45594000000E+02  0.51100000000E-03 0.  1.
    9900012    2    1    2    0    0  0.16911020670E+01 -0.70728508676E+01  0.40003505282E+02  0.50528862277E+02  0.30000007376E+02 0.  0.
        -12    1    1    2    0    0 -0.16911020670E+01  0.70728508676E+01 -0.40003505282E+02  0.40659137723E+02  0.00000000000E+00 0.  1.
         11    1    3    3    0    0  0.37373947694E+01 -0.38219047326E+01  0.21205392764E+02  0.21868785014E+02  0.51100000000E-03 0. -1.
        -11    1    3    3    0    0 -0.36531212250E+01 -0.20310066761E+01 -0.39926048056E+01  0.57802401505E+01  0.51100000000E-03 0.  1.
        -12    1    3    3    0    0  0.16068285226E+01 -0.12199394589E+01  0.22790717323E+02  0.22879837112E+02  0.00000000000E+00 0.  1.
</event>
<event>
 7    1  0.9406864E-013  0.5052886E+02  0.7816164E-02  0.1300439E+00
        -11   -1    0    0    0    0  0.00000000000E+00  0.00000000000E+00  0.45593999997E+02  0.45594000000E+02  0.51100000000E-03 0. -1.
         11   -1    0    0    0    0 -0.00000000000E+00 -0.00000000000E+00 -0.45593999997E+02  0.45594000000E+02  0.51100000000E-03 0.  1.
    9900012    2    1    2    0    0  0.13203534980E+02  0.31738306037E+02  0.21714336612E+02  0.50528858094E+02  0.29999994661E+02 0.  0.
        -12    1    1    2    0    0 -0.13203534980E+02 -0.31738306037E+02 -0.21714336612E+02  0.40659141906E+02  0.00000000000E+00 0.  1.
         11    1    3    3    0    0 -0.22202888797E+00  0.58257643324E+01 -0.62044666577E+01  0.85137673007E+01  0.51100000000E-03 0. -1.
        -11    1    3    3    0    0  0.93565566905E+01  0.60986494114E+01  0.97321621578E+01  0.14813968350E+02  0.51100000000E-03 0.  1.
         12    1    3    3    0    0  0.40690071775E+01  0.19813892294E+02  0.18186641112E+02  0.27201122443E+02  0.00000000000E+00 0. -1.
</event>
<event>
 7    1  0.9406864E-013  0.5052886E+02  0.7816164E-02  0.1300439E+00
        -11   -1    0    0    0    0  0.00000000000E+00  0.00000000000E+00  0.45593999997E+02  0.45594000000E+02  0.51100000000E-03 0.  1.
         11   -1    0    0    0    0 -0.00000000000E+00 -0.00000000000E+00 -0.45593999997E+02  0.45594000000E+02  0.51100000000E-03 0. -1.
    9900012    2    1    2    0    0 -0.33170490430E+02  0.90103620973E+01 -0.21718600172E+02  0.50528860143E+02  0.30000000890E+02 0.  0.
        -12    1    1    2    0    0  0.33170490430E+02 -0.90103620973E+01  0.21718600172E+02  0.40659139857E+02  0.00000000000E+00 0.  1.
         11    1    3    3    0    0 -0.11324779696E+02 -0.35772392473E+01 -0.17646795234E+02  0.21271028609E+02  0.51100000000E-03 0. -1.
        -11    1    3    3    0    0 -0.21632168822E+02  0.14439359110E+02 -0.58755405210E+01  0.26663979375E+02  0.51100000000E-03 0.  1.
        -12    1    3    3    0    0 -0.21354191289E+00 -0.18517577653E+01  0.18037355827E+01  0.25938521589E+01  0.00000000000E+00 0.  1.
</event>
<event>
 7    1  0.9406864E-013  0.5052885E+02  0.7816164E-02  0.1300439E+00
        -11   -1    0    0    0    0  0.00000000000E+00  0.00000000000E+00  0.45593999997E+02  0.45594000000E+02  0.51100000000E-03 0. -1.
         11   -1    0    0    0    0 -0.00000000000E+00 -0.00000000000E+00 -0.45593999997E+02  0.45594000000E+02  0.51100000000E-03 0.  1.
    9900012    2    1    2    0    0  0.39020646882E+02 -0.11253615512E+02 -0.19778473312E+01  0.50528848198E+02  0.29999964583E+02 0.  0.
        -12    1    1    2    0    0 -0.39020646882E+02  0.11253615512E+02  0.19778473312E+01  0.40659151802E+02  0.00000000000E+00 0.  1.
         11    1    3    3    0    0  0.19075039583E+02 -0.16306473855E+01  0.12258080189E+01  0.19183814834E+02  0.51100000000E-03 0. -1.
        -11    1    3    3    0    0 -0.96461312751E+00 -0.87422955459E+01  0.33537025888E+01  0.94130511107E+01  0.51100000000E-03 0.  1.
        -12    1    3    3    0    0  0.20910220426E+02 -0.88067258096E+00 -0.65573579389E+01  0.21931982254E+02  0.00000000000E+00 0.  1.
</event>
<event>
 7    1  0.9406864E-013  0.5052886E+02  0.7816164E-02  0.1300439E+00
        -11   -1    0    0    0    0  0.00000000000E+00  0.00000000000E+00  0.45593999997E+02  0.45594000000E+02  0.51100000000E-03 0.  1.
         11   -1    0    0    0    0 -0.00000000000E+00 -0.00000000000E+00 -0.45593999997E+02  0.45594000000E+02  0.51100000000E-03 0. -1.
    9900012    2    1    2    0    0 -0.17976029304E+02  0.14509632996E+02 -0.33458909036E+02  0.50528859907E+02  0.30000000173E+02 0.  0.
        -12    1    1    2    0    0  0.17976029304E+02 -0.14509632996E+02  0.33458909036E+02  0.40659140093E+02  0.00000000000E+00 0.  1.
         11    1    3    3    0    0 -0.92378123081E+01 -0.35876453976E+01 -0.18958877146E+02  0.21392694983E+02  0.51100000000E-03 0. -1.
        -11    1    3    3    0    0 -0.25552095870E+01  0.47505883864E+01  0.30820012258E+01  0.62125612969E+01  0.51100000000E-03 0.  1.
         12    1    3    3    0    0 -0.61830074092E+01  0.13346690007E+02 -0.17582033116E+02  0.22923603627E+02  0.00000000000E+00 0. -1.
</event>
<event>
 7    1  0.9406864E-013  0.5052882E+02  0.7816164E-02  0.1300439E+00
        -11   -1    0    0    0    0  0.00000000000E+00  0.00000000000E+00  0.45593999997E+02  0.45594000000E+02  0.51100000000E-03 0.  1.
         11   -1    0    0    0    0 -0.00000000000E+00 -0.00000000000E+00 -0.45593999997E+02  0.45594000000E+02  0.51100000000E-03 0. -1.
    9900012    2    1    2    0    0 -0.28679045011E+02  0.28348218758E+02 -0.52018804776E+01  0.50528822808E+02  0.29999887406E+02 0.  0.
        -12    1    1    2    0    0  0.28679045011E+02 -0.28348218758E+02  0.52018804776E+01  0.40659177192E+02  0.00000000000E+00 0.  1.
         11    1    3    3    0    0 -0.10912429260E+02  0.17072585056E+02 -0.89053590077E+01  0.22132774164E+02  0.51100000000E-03 0. -1.
        -11    1    3    3    0    0 -0.10797473523E+02  0.94146054174E+01  0.11056171009E+02  0.18095832318E+02  0.51100000000E-03 0.  1.
        -12    1    3    3    0    0 -0.69691422272E+01  0.18610282842E+01 -0.73526924791E+01  0.10300216325E+02  0.00000000000E+00 0.  1.
</event>
<event>
 7    1  0.9406864E-013  0.5052885E+02  0.7816164E-02  0.1300439E+00
        -11   -1    0    0    0    0  0.00000000000E+00  0.00000000000E+00  0.45593999997E+02  0.45594000000E+02  0.51100000000E-03 0.  1.
         11   -1    0    0    0    0 -0.00000000000E+00 -0.00000000000E+00 -0.45593999997E+02  0.45594000000E+02  0.51100000000E-03 0. -1.
    9900012    2    1    2    0    0  0.14503247593E+02 -0.25724521868E+02 -0.27947651294E+02  0.50528850612E+02  0.29999971921E+02 0.  0.
        -12    1    1    2    0    0 -0.14503247593E+02  0.25724521868E+02  0.27947651294E+02  0.40659149388E+02  0.00000000000E+00 0.  1.
         11    1    3    3    0    0  0.81522101169E+01 -0.29102486082E+02 -0.20835821213E+02  0.36708918151E+02  0.51100000000E-03 0. -1.
        -11    1    3    3    0    0  0.19541115870E+01  0.22769705093E+01  0.20254575519E+01  0.36201692433E+01  0.51100000000E-03 0.  1.
         12    1    3    3    0    0  0.43969258892E+01  0.11009937046E+01 -0.91372876334E+01  0.10199763218E+02  0.00000000000E+00 0. -1.
</event>
<event>
 7    1  0.9406864E-013  0.5052886E+02  0.7816164E-02  0.1300439E+00
        -11   -1    0    0    0    0  0.00000000000E+00  0.00000000000E+00  0.45593999997E+02  0.45594000000E+02  0.51100000000E-03 0.  1.
         11   -1    0    0    0    0 -0.00000000000E+00 -0.00000000000E+00 -0.45593999997E+02  0.45594000000E+02  0.51100000000E-03 0. -1.
    9900012    2    1    2    0    0  0.29706457880E+02  0.88346727342E+00 -0.27747277083E+02  0.50528861547E+02  0.30000005158E+02 0.  0.
        -12    1    1    2    0    0 -0.29706457880E+02 -0.88346727342E+00  0.27747277083E+02  0.40659138453E+02  0.00000000000E+00 0.  1.
         11    1    3    3    0    0  0.13365261923E+01  0.54961832136E+01 -0.12053642896E+02  0.13314827806E+02  0.51100000000E-03 0. -1.
        -11    1    3    3    0    0  0.83781086055E+01  0.97036530419E+00  0.33210300025E+01  0.90644113526E+01  0.51100000000E-03 0.  1.
         12    1    3    3    0    0  0.19991823082E+02 -0.55830812444E+01 -0.19014664190E+02  0.28149622388E+02  0.00000000000E+00 0. -1.
</event>
<event>
 7    1  0.9406864E-013  0.5052886E+02  0.7816164E-02  0.1300439E+00
        -11   -1    0    0    0    0  0.00000000000E+00  0.00000000000E+00  0.45593999997E+02  0.45594000000E+02  0.51100000000E-03 0.  1.
         11   -1    0    0    0    0 -0.00000000000E+00 -0.00000000000E+00 -0.45593999997E+02  0.45594000000E+02  0.51100000000E-03 0. -1.
    9900012    2    1    2    0    0 -0.11377204823E+02 -0.22443380748E+02 -0.31937750226E+02  0.50528855660E+02  0.29999987263E+02 0.  0.
        -12    1    1    2    0    0  0.11377204823E+02  0.22443380748E+02  0.31937750226E+02  0.40659144340E+02  0.00000000000E+00 0.  1.
         11    1    3    3    0    0  0.42709814697E+01 -0.75274443299E+01 -0.15181575009E+02  0.17475237363E+02  0.51100000000E-03 0. -1.
        -11    1    3    3    0    0 -0.17549792675E+02 -0.49381157910E+01 -0.93978118094E+01  0.20510950187E+02  0.51100000000E-03 0.  1.
         12    1    3    3    0    0  0.19016063818E+01 -0.99778206266E+01 -0.73583634075E+01  0.12542668110E+02  0.00000000000E+00 0. -1.
</event>
<event>
 7    1  0.9406864E-013  0.5052886E+02  0.7816164E-02  0.1300439E+00
        -11   -1    0    0    0    0  0.00000000000E+00  0.00000000000E+00  0.45593999997E+02  0.45594000000E+02  0.51100000000E-03 0. -1.
         11   -1    0    0    0    0 -0.00000000000E+00 -0.00000000000E+00 -0.45593999997E+02  0.45594000000E+02  0.51100000000E-03 0.  1.
    9900012    2    1    2    0    0  0.14169321242E+02 -0.19063713719E+02  0.32999562117E+02  0.50528856561E+02  0.29999990004E+02 0.  0.
        -12    1    1    2    0    0 -0.14169321242E+02  0.19063713719E+02 -0.32999562117E+02  0.40659143439E+02  0.00000000000E+00 0.  1.
         11    1    3    3    0    0  0.19463950681E+01 -0.44684507450E+00  0.48037582999E+01  0.52023281659E+01  0.51100000000E-03 0. -1.
        -11    1    3    3    0    0  0.62966147505E+01 -0.10188856714E+02  0.32136191225E+02  0.34295698639E+02  0.51100000000E-03 0.  1.
        -12    1    3    3    0    0  0.59263114231E+01 -0.84280119309E+01 -0.39403874072E+01  0.11030829756E+02  0.00000000000E+00 0.  1.
</event>
<event>
 7    1  0.9406864E-013  0.5052885E+02  0.7816164E-02  0.1300439E+00
        -11   -1    0    0    0    0  0.00000000000E+00  0.00000000000E+00  0.45593999997E+02  0.45594000000E+02  0.51100000000E-03 0.  1.
         11   -1    0    0    0    0 -0.00000000000E+00 -0.00000000000E+00 -0.45593999997E+02  0.45594000000E+02  0.51100000000E-03 0. -1.
    9900012    2    1    2    0    0 -0.32698367648E+02  0.22937346347E+02 -0.76066515707E+01  0.50528852784E+02  0.29999978521E+02 0.  0.
        -12    1    1    2    0    0  0.32698367648E+02 -0.22937346347E+02  0.76066515707E+01  0.40659147216E+02  0.00000000000E+00 0.  1.
         11    1    3    3    0    0 -0.29695712472E+02  0.22946324489E+02 -0.49655389528E+01  0.37855326232E+02  0.51100000000E-03 0. -1.
        -11    1    3    3    0    0 -0.36554051231E+01 -0.35114754770E+01  0.30818752224E+01  0.59321498454E+01  0.51100000000E-03 0.  1.
        -12    1    3    3    0    0  0.65274994756E+00  0.35024973342E+01 -0.57229878403E+01  0.67413767059E+01  0.00000000000E+00 0.  1.
</event>
<event>
 7    1  0.9406864E-013  0.5052886E+02  0.7816164E-02  0.1300439E+00
        -11   -1    0    0    0    0  0.00000000000E+00  0.00000000000E+00  0.45593999997E+02  0.45594000000E+02  0.51100000000E-03 0. -1.
         11   -1    0    0    0    0 -0.00000000000E+00 -0.00000000000E+00 -0.45593999997E+02  0.45594000000E+02  0.51100000000E-03 0.  1.
    9900012    2    1    2    0    0 -0.22247989386E+02 -0.95665908019E+01  0.32659958846E+02  0.50528860768E+02  0.30000002790E+02 0.  0.
        -12    1    1    2    0    0  0.22247989386E+02  0.95665908019E+01 -0.32659958846E+02  0.40659139232E+02  0.00000000000E+00 0.  1.
         11    1    3    3    0    0  0.59721443738E+00  0.54421005374E+00  0.18536863691E+02  0.18554464299E+02  0.51100000000E-03 0. -1.
        -11    1    3    3    0    0 -0.16138657229E+02 -0.13618530758E+02  0.10283636991E+02  0.23487737805E+02  0.51100000000E-03 0.  1.
        -12    1    3    3    0    0 -0.67065465944E+01  0.35077299021E+01  0.38394581635E+01  0.84866586639E+01  0.00000000000E+00 0.  1.
</event>
<event>
 7    1  0.9406864E-013  0.5052887E+02  0.7816164E-02  0.1300439E+00
        -11   -1    0    0    0    0  0.00000000000E+00  0.00000000000E+00  0.45593999997E+02  0.45594000000E+02  0.51100000000E-03 0.  1.
         11   -1    0    0    0    0 -0.00000000000E+00 -0.00000000000E+00 -0.45593999997E+02  0.45594000000E+02  0.51100000000E-03 0. -1.
    9900012    2    1    2    0    0  0.28530501279E+02 -0.10088957859E+02 -0.27154900464E+02  0.50528865810E+02  0.30000018115E+02 0.  0.
        -12    1    1    2    0    0 -0.28530501279E+02  0.10088957859E+02  0.27154900464E+02  0.40659134190E+02  0.00000000000E+00 0.  1.
         11    1    3    3    0    0  0.10279016674E+02  0.66483548055E+01 -0.18010627770E+02  0.21777087003E+02  0.51100000000E-03 0. -1.
        -11    1    3    3    0    0  0.15437978031E+02 -0.13263337410E+02 -0.11825368391E+02  0.23539044644E+02  0.51100000000E-03 0.  1.
        -12    1    3    3    0    0  0.28135065745E+01 -0.34739752539E+01  0.26810956969E+01  0.52127341622E+01  0.00000000000E+00 0.  1.
</event>
<event>
 7    1  0.9406864E-013  0.5052885E+02  0.7816164E-02  0.1300439E+00
        -11   -1    0    0    0    0  0.00000000000E+00  0.00000000000E+00  0.45593999997E+02  0.45594000000E+02  0.51100000000E-03 0.  1.
         11   -1    0    0    0    0 -0.00000000000E+00 -0.00000000000E+00 -0.45593999997E+02  0.45594000000E+02  0.51100000000E-03 0. -1.
    9900012    2    1    2    0    0 -0.16387946303E+02  0.99540612917E+01 -0.35854122528E+02  0.50528853151E+02  0.29999979639E+02 0.  0.
        -12    1    1    2    0    0  0.16387946303E+02 -0.99540612917E+01  0.35854122528E+02  0.40659146849E+02  0.00000000000E+00 0.  1.
         11    1    3    3    0    0 -0.19885809953E+02  0.17845035721E+02 -0.28756483282E+02  0.39253357415E+02  0.51100000000E-03 0. -1.
        -11    1    3    3    0    0  0.21057361912E+01 -0.49131157239E+01 -0.53062321094E+01  0.75318610239E+01  0.51100000000E-03 0.  1.
         12    1    3    3    0    0  0.13921274589E+01 -0.29778587050E+01 -0.17914071361E+01  0.37436347119E+01  0.00000000000E+00 0. -1.
</event>
<event>
 7    1  0.9406864E-013  0.5052886E+02  0.7816164E-02  0.1300439E+00
        -11   -1    0    0    0    0  0.00000000000E+00  0.00000000000E+00  0.45593999997E+02  0.45594000000E+02  0.51100000000E-03 0.  1.
         11   -1    0    0    0    0 -0.00000000000E+00 -0.00000000000E+00 -0.45593999997E+02  0.45594000000E+02  0.51100000000E-03 0. -1.
    9900012    2    1    2    0    0  0.16510467849E+01 -0.31946009493E+02 -0.25097656803E+02  0.50528857670E+02  0.29999993375E+02 0.  0.
        -12    1    1    2    0    0 -0.16510467849E+01  0.31946009493E+02  0.25097656803E+02  0.40659142330E+02  0.00000000000E+00 0.  1.
         11    1    3    3    0    0  0.12197319910E+02 -0.23725343016E+02 -0.25268510823E+02  0.36744579922E+02  0.51100000000E-03 0. -1.
        -11    1    3    3    0    0 -0.87899019903E+01 -0.81894577437E+01 -0.49775363294E-01  0.12013828407E+02  0.51100000000E-03 0.  1.
         12    1    3    3    0    0 -0.17563711344E+01 -0.31208733463E-01  0.22062938339E+00  0.17704493418E+01  0.00000000000E+00 0. -1.
</event>
<event>
 7    1  0.9406864E-013  0.5052886E+02  0.7816164E-02  0.1300439E+00
        -11   -1    0    0    0    0  0.00000000000E+00  0.00000000000E+00  0.45593999997E+02  0.45594000000E+02  0.51100000000E-03 0.  1.
         11   -1    0    0    0    0 -0.00000000000E+00 -0.00000000000E+00 -0.45593999997E+02  0.45594000000E+02  0.51100000000E-03 0. -1.
    9900012    2    1    2    0    0  0.33955626552E+02 -0.77174660508E+01 -0.20990993366E+02  0.50528860077E+02  0.30000000689E+02 0.  0.
        -12    1    1    2    0    0 -0.33955626552E+02  0.77174660508E+01  0.20990993366E+02  0.40659139923E+02  0.00000000000E+00 0.  1.
         11    1    3    3    0    0  0.76779255960E+01 -0.14910003429E+02 -0.78706881361E+01  0.18525832659E+02  0.51100000000E-03 0. -1.
        -11    1    3    3    0    0  0.17451710253E+02  0.16389392914E+01 -0.12552822691E+02  0.21559723341E+02  0.51100000000E-03 0.  1.
         12    1    3    3    0    0  0.88259907032E+01  0.55535980872E+01 -0.56748253874E+00  0.10443304077E+02  0.00000000000E+00 0. -1.
</event>
<event>
 7    1  0.9406864E-013  0.5052886E+02  0.7816164E-02  0.1300439E+00
        -11   -1    0    0    0    0  0.00000000000E+00  0.00000000000E+00  0.45593999997E+02  0.45594000000E+02  0.51100000000E-03 0.  1.
         11   -1    0    0    0    0 -0.00000000000E+00 -0.00000000000E+00 -0.45593999997E+02  0.45594000000E+02  0.51100000000E-03 0. -1.
    9900012    2    1    2    0    0  0.37798046367E+02  0.70054481262E+01  0.13243757812E+02  0.50528859163E+02  0.29999997912E+02 0.  0.
        -12    1    1    2    0    0 -0.37798046367E+02 -0.70054481262E+01 -0.13243757812E+02  0.40659140837E+02  0.00000000000E+00 0.  1.
         11    1    3    3    0    0  0.23521895496E+02  0.73406302302E+00 -0.14173061149E+01  0.23575987215E+02  0.51100000000E-03 0. -1.
        -11    1    3    3    0    0  0.27707158550E+01  0.28522428271E+01  0.14408862841E+02  0.14947490897E+02  0.51100000000E-03 0.  1.
        -12    1    3    3    0    0  0.11505435016E+02  0.34191422761E+01  0.25220108662E+00  0.12005381052E+02  0.00000000000E+00 0.  1.
</event>
<event>
 7    1  0.9406864E-013  0.5052888E+02  0.7816164E-02  0.1300439E+00
        -11   -1    0    0    0    0  0.00000000000E+00  0.00000000000E+00  0.45593999997E+02  0.45594000000E+02  0.51100000000E-03 0.  1.
         11   -1    0    0    0    0 -0.00000000000E+00 -0.00000000000E+00 -0.45593999997E+02  0.45594000000E+02  0.51100000000E-03 0. -1.
    9900012    2    1    2    0    0  0.14397380643E+02 -0.35278868836E+02 -0.14187362685E+02  0.50528875369E+02  0.30000047173E+02 0.  0.
        -12    1    1    2    0    0 -0.14397380643E+02  0.35278868836E+02  0.14187362685E+02  0.40659124631E+02  0.00000000000E+00 0.  1.
         11    1    3    3    0    0  0.11836186552E+02 -0.51426630738E+01 -0.39017640081E+01  0.13482064316E+02  0.51100000000E-03 0. -1.
        -11    1    3    3    0    0 -0.79178061361E+01 -0.10349204145E+02 -0.55372555586E+01  0.14158350180E+02  0.51100000000E-03 0.  1.
         12    1    3    3    0    0  0.10479000227E+02 -0.19787001618E+02 -0.47483431187E+01  0.22888460873E+02  0.00000000000E+00 0. -1.
</event>
<event>
 7    1  0.9406864E-013  0.5052886E+02  0.7816164E-02  0.1300439E+00
        -11   -1    0    0    0    0  0.00000000000E+00  0.00000000000E+00  0.45593999997E+02  0.45594000000E+02  0.51100000000E-03 0. -1.
         11   -1    0    0    0    0 -0.00000000000E+00 -0.00000000000E+00 -0.45593999997E+02  0.45594000000E+02  0.51100000000E-03 0.  1.
    9900012    2    1    2    0    0  0.24224948465E+02 -0.20409543302E+02  0.25490546921E+02  0.50528861196E+02  0.30000004092E+02 0.  0.
        -12    1    1    2    0    0 -0.24224948465E+02  0.20409543302E+02 -0.25490546921E+02  0.40659138804E+02  0.00000000000E+00 0.  1.
         11    1    3    3    0    0  0.20362916692E+01 -0.48484780959E+01  0.85223090793E+01  0.10014188730E+02  0.51100000000E-03 0. -1.
        -11    1    3    3    0    0  0.26474062044E+02 -0.74152315386E+01  0.11442397274E+02  0.29779020728E+02  0.51100000000E-03 0.  1.
        -12    1    3    3    0    0 -0.42854052480E+01 -0.81458336674E+01  0.55258405680E+01  0.10735651739E+02  0.00000000000E+00 0.  1.
</event>
<event>
 7    1  0.9406864E-013  0.5052886E+02  0.7816164E-02  0.1300439E+00
        -11   -1    0    0    0    0  0.00000000000E+00  0.00000000000E+00  0.45593999997E+02  0.45594000000E+02  0.51100000000E-03 0. -1.
         11   -1    0    0    0    0 -0.00000000000E+00 -0.00000000000E+00 -0.45593999997E+02  0.45594000000E+02  0.51100000000E-03 0.  1.
    9900012    2    1    2    0    0 -0.20340191235E+02  0.10549677507E+02  0.33587897313E+02  0.50528856860E+02  0.29999990911E+02 0.  0.
        -12    1    1    2    0    0  0.20340191235E+02 -0.10549677507E+02 -0.33587897313E+02  0.40659143140E+02  0.00000000000E+00 0.  1.
         11    1    3    3    0    0 -0.85478975563E+01  0.14109175825E+01  0.21884889724E+02  0.23537324392E+02  0.51100000000E-03 0. -1.
        -11    1    3    3    0    0 -0.87168206567E+01  0.93097626283E+01 -0.20327941556E+01  0.12914600067E+02  0.51100000000E-03 0.  1.
        -12    1    3    3    0    0 -0.30754730216E+01 -0.17100270368E+00  0.13735801745E+02  0.14076932400E+02  0.00000000000E+00 0.  1.
</event>
<event>
 7    1  0.9406864E-013  0.5052886E+02  0.7816164E-02  0.1300439E+00
        -11   -1    0    0    0    0  0.00000000000E+00  0.00000000000E+00  0.45593999997E+02  0.45594000000E+02  0.51100000000E-03 0.  1.
         11   -1    0    0    0    0 -0.00000000000E+00 -0.00000000000E+00 -0.45593999997E+02  0.45594000000E+02  0.51100000000E-03 0. -1.
    9900012    2    1    2    0    0  0.30968220032E+02  0.25649883404E+02 -0.60181915866E+01  0.50528858340E+02  0.29999995410E+02 0.  0.
        -12    1    1    2    0    0 -0.30968220032E+02 -0.25649883404E+02  0.60181915866E+01  0.40659141660E+02  0.00000000000E+00 0.  1.
         11    1    3    3    0    0  0.25502213562E+02  0.26763344185E+02  0.10048147639E+01  0.36981740650E+02  0.51100000000E-03 0. -1.
        -11    1    3    3    0    0 -0.19867420400E+01  0.93824048112E+00 -0.51417096109E+01  0.55914771857E+01  0.51100000000E-03 0.  1.
        -12    1    3    3    0    0  0.74527485091E+01 -0.20517012619E+01 -0.18812967395E+01  0.79556405041E+01  0.00000000000E+00 0.  1.
</event>
<event>
 7    1  0.9406864E-013  0.5052886E+02  0.7816164E-02  0.1300439E+00
        -11   -1    0    0    0    0  0.00000000000E+00  0.00000000000E+00  0.45593999997E+02  0.45594000000E+02  0.51100000000E-03 0.  1.
         11   -1    0    0    0    0 -0.00000000000E+00 -0.00000000000E+00 -0.45593999997E+02  0.45594000000E+02  0.51100000000E-03 0. -1.
    9900012    2    1    2    0    0  0.38675179384E+02 -0.12444822997E+02 -0.15882584071E+01  0.50528859766E+02  0.29999999746E+02 0.  0.
        -12    1    1    2    0    0 -0.38675179384E+02  0.12444822997E+02  0.15882584071E+01  0.40659140234E+02  0.00000000000E+00 0.  1.
         11    1    3    3    0    0  0.35219119891E+00  0.44447154630E+01  0.51900987350E+01  0.68422700420E+01  0.51100000000E-03 0.  1.
        -11    1    3    3    0    0  0.13276403943E+01  0.12623972760E+01  0.35236631066E+00  0.18655932506E+01  0.51100000000E-03 0. -1.
         12    1    3    3    0    0  0.36995347790E+02 -0.18151935736E+02 -0.71307234527E+01  0.41820996474E+02  0.00000000000E+00 0. -1.
</event>
<event>
 7    1  0.9406864E-013  0.5052881E+02  0.7816164E-02  0.1300439E+00
        -11   -1    0    0    0    0  0.00000000000E+00  0.00000000000E+00  0.45593999997E+02  0.45594000000E+02  0.51100000000E-03 0.  1.
         11   -1    0    0    0    0 -0.00000000000E+00 -0.00000000000E+00 -0.45593999997E+02  0.45594000000E+02  0.51100000000E-03 0. -1.
    9900012    2    1    2    0    0 -0.21747094694E+02 -0.41578885240E+01 -0.34101984561E+02  0.50528812655E+02  0.29999856545E+02 0.  0.
        -12    1    1    2    0    0  0.21747094694E+02  0.41578885240E+01  0.34101984561E+02  0.40659187345E+02  0.00000000000E+00 0.  1.
         11    1    3    3    0    0 -0.23540857853E+02 -0.54984709007E+01 -0.29162996156E+02  0.37879882732E+02  0.51100000000E-03 0. -1.
        -11    1    3    3    0    0 -0.13490498261E+00  0.50693879192E+01 -0.64343030118E+01  0.81925056447E+01  0.51100000000E-03 0.  1.
         12    1    3    3    0    0  0.19286681419E+01 -0.37288055425E+01  0.14953146068E+01  0.44564242784E+01  0.00000000000E+00 0. -1.
</event>
<event>
 7    1  0.9406864E-013  0.5052886E+02  0.7816164E-02  0.1300439E+00
        -11   -1    0    0    0    0  0.00000000000E+00  0.00000000000E+00  0.45593999997E+02  0.45594000000E+02  0.51100000000E-03 0.  1.
         11   -1    0    0    0    0 -0.00000000000E+00 -0.00000000000E+00 -0.45593999997E+02  0.45594000000E+02  0.51100000000E-03 0. -1.
    9900012    2    1    2    0    0 -0.60090010695E+01  0.77747114035E+00 -0.40205136993E+02  0.50528860857E+02  0.30000003060E+02 0.  0.
        -12    1    1    2    0    0  0.60090010695E+01 -0.77747114035E+00  0.40205136993E+02  0.40659139143E+02  0.00000000000E+00 0.  1.
         11    1    3    3    0    0 -0.15405124916E+02  0.34789692173E+01 -0.13190532139E+02  0.20576958932E+02  0.51100000000E-03 0. -1.
        -11    1    3    3    0    0  0.76731039779E+01 -0.33671362259E+01 -0.10984327063E+02  0.13815555447E+02  0.51100000000E-03 0.  1.
         12    1    3    3    0    0  0.17230198686E+01  0.66563814899E+00 -0.16030277791E+02  0.16136346478E+02  0.00000000000E+00 0. -1.
</event>
<event>
 7    1  0.9406864E-013  0.5052885E+02  0.7816164E-02  0.1300439E+00
        -11   -1    0    0    0    0  0.00000000000E+00  0.00000000000E+00  0.45593999997E+02  0.45594000000E+02  0.51100000000E-03 0. -1.
         11   -1    0    0    0    0 -0.00000000000E+00 -0.00000000000E+00 -0.45593999997E+02  0.45594000000E+02  0.51100000000E-03 0.  1.
    9900012    2    1    2    0    0 -0.23561987290E+02  0.19556240031E+02  0.26749820437E+02  0.50528847739E+02  0.29999963187E+02 0.  0.
        -12    1    1    2    0    0  0.23561987290E+02 -0.19556240031E+02 -0.26749820437E+02  0.40659152261E+02  0.00000000000E+00 0.  1.
         11    1    3    3    0    0 -0.14362146887E+02  0.16483265054E+02  0.32330103235E+02  0.39028257269E+02  0.51100000000E-03 0. -1.
        -11    1    3    3    0    0 -0.39329455360E+01  0.26921632981E+01 -0.24007140233E+01  0.53365936603E+01  0.51100000000E-03 0.  1.
         12    1    3    3    0    0 -0.52668948667E+01  0.38081167936E+00 -0.31795687747E+01  0.61639968093E+01  0.00000000000E+00 0. -1.
</event>
<event>
 7    1  0.9406864E-013  0.5052885E+02  0.7816164E-02  0.1300439E+00
        -11   -1    0    0    0    0  0.00000000000E+00  0.00000000000E+00  0.45593999997E+02  0.45594000000E+02  0.51100000000E-03 0. -1.
         11   -1    0    0    0    0 -0.00000000000E+00 -0.00000000000E+00 -0.45593999997E+02  0.45594000000E+02  0.51100000000E-03 0.  1.
    9900012    2    1    2    0    0 -0.27915497352E+02  0.18138614066E+02  0.23342715948E+02  0.50528847273E+02  0.29999961770E+02 0.  0.
        -12    1    1    2    0    0  0.27915497352E+02 -0.18138614066E+02 -0.23342715948E+02  0.40659152727E+02  0.00000000000E+00 0.  1.
         11    1    3    3    0    0 -0.20209749523E+02  0.23284668557E+01  0.45565028782E+01  0.20847480721E+02  0.51100000000E-03 0. -1.
        -11    1    3    3    0    0 -0.23396825584E+01  0.17746755194E+01  0.13401400189E+02  0.13719370065E+02  0.51100000000E-03 0.  1.
         12    1    3    3    0    0 -0.53660652704E+01  0.14035471691E+02  0.53848128809E+01  0.15961996487E+02  0.00000000000E+00 0. -1.
</event>
<event>
 7    1  0.9406864E-013  0.5052886E+02  0.7816164E-02  0.1300439E+00
        -11   -1    0    0    0    0  0.00000000000E+00  0.00000000000E+00  0.45593999997E+02  0.45594000000E+02  0.51100000000E-03 0.  1.
         11   -1    0    0    0    0 -0.00000000000E+00 -0.00000000000E+00 -0.45593999997E+02  0.45594000000E+02  0.51100000000E-03 0. -1.
    9900012    2    1    2    0    0 -0.37823854432E+02  0.14907951344E+02 -0.52390348806E+00  0.50528862623E+02  0.30000008429E+02 0.  0.
        -12    1    1    2    0    0  0.37823854432E+02 -0.14907951344E+02  0.52390348806E+00  0.40659137377E+02  0.00000000000E+00 0.  1.
         11    1    3    3    0    0 -0.34619815944E+02  0.46376072621E+01 -0.43036954131E+01  0.35193193256E+02  0.51100000000E-03 0. -1.
        -11    1    3    3    0    0  0.13653170001E+01  0.54206941555E+00  0.43312532976E+01  0.45735855902E+01  0.51100000000E-03 0.  1.
         12    1    3    3    0    0 -0.45693554879E+01  0.97282746667E+01 -0.55146137256E+00  0.10762083776E+02  0.00000000000E+00 0. -1.
</event>
<event>
 7    1  0.9406864E-013  0.5052885E+02  0.7816164E-02  0.1300439E+00
        -11   -1    0    0    0    0  0.00000000000E+00  0.00000000000E+00  0.45593999997E+02  0.45594000000E+02  0.51100000000E-03 0. -1.
         11   -1    0    0    0    0 -0.00000000000E+00 -0.00000000000E+00 -0.45593999997E+02  0.45594000000E+02  0.51100000000E-03 0.  1.
    9900012    2    1    2    0    0  0.19689423596E+02  0.35366804494E+02 -0.38317761337E+01  0.50528846418E+02  0.29999959171E+02 0.  0.
        -12    1    1    2    0    0 -0.19689423596E+02 -0.35366804494E+02  0.38317761337E+01  0.40659153582E+02  0.00000000000E+00 0.  1.
         11    1    3    3    0    0 -0.51746310582E+01  0.11902249252E+02 -0.68713063172E+01  0.14685203254E+02  0.51100000000E-03 0. -1.
        -11    1    3    3    0    0  0.13208445774E+02  0.12009802445E+02 -0.35873855503E+01  0.18209001342E+02  0.51100000000E-03 0.  1.
         12    1    3    3    0    0  0.11655608881E+02  0.11454752798E+02  0.66269157338E+01  0.17634641822E+02  0.00000000000E+00 0. -1.
</event>
<event>
 7    1  0.9406864E-013  0.5052886E+02  0.7816164E-02  0.1300439E+00
        -11   -1    0    0    0    0  0.00000000000E+00  0.00000000000E+00  0.45593999997E+02  0.45594000000E+02  0.51100000000E-03 0. -1.
         11   -1    0    0    0    0 -0.00000000000E+00 -0.00000000000E+00 -0.45593999997E+02  0.45594000000E+02  0.51100000000E-03 0.  1.
    9900012    2    1    2    0    0  0.13495611938E+02 -0.35851513555E+02  0.13627285635E+02  0.50528862287E+02  0.30000007409E+02 0.  0.
        -12    1    1    2    0    0 -0.13495611938E+02  0.35851513555E+02 -0.13627285635E+02  0.40659137713E+02  0.00000000000E+00 0.  1.
         11    1    3    3    0    0 -0.15349059693E+01 -0.33916887527E+01  0.12473638010E+02  0.13017339759E+02  0.51100000000E-03 0. -1.
        -11    1    3    3    0    0  0.13152827260E+02 -0.16720104631E+02 -0.19379703148E+01  0.21361518977E+02  0.51100000000E-03 0.  1.
         12    1    3    3    0    0  0.18776906470E+01 -0.15739720171E+02  0.30916179399E+01  0.16150003551E+02  0.00000000000E+00 0. -1.
</event>
<event>
 7    1  0.9406864E-013  0.5052885E+02  0.7816164E-02  0.1300439E+00
        -11   -1    0    0    0    0  0.00000000000E+00  0.00000000000E+00  0.45593999997E+02  0.45594000000E+02  0.51100000000E-03 0.  1.
         11   -1    0    0    0    0 -0.00000000000E+00 -0.00000000000E+00 -0.45593999997E+02  0.45594000000E+02  0.51100000000E-03 0. -1.
    9900012    2    1    2    0    0 -0.23762911962E+02  0.83545253242E+01 -0.31916954916E+02  0.50528854787E+02  0.29999984611E+02 0.  0.
        -12    1    1    2    0    0  0.23762911962E+02 -0.83545253242E+01  0.31916954916E+02  0.40659145213E+02  0.00000000000E+00 0.  1.
         11    1    3    3    0    0 -0.15786593212E+02  0.47646462932E+01 -0.97389142969E+01  0.19151105229E+02  0.51100000000E-03 0. -1.
        -11    1    3    3    0    0  0.49629101488E+00 -0.77765954008E+01 -0.57861036101E+01  0.97057063651E+01  0.51100000000E-03 0.  1.
        -12    1    3    3    0    0 -0.84726097652E+01  0.11366474432E+02 -0.16391937009E+02  0.21672043193E+02  0.00000000000E+00 0.  1.
</event>
<event>
 7    1  0.9406864E-013  0.5052884E+02  0.7816164E-02  0.1300439E+00
        -11   -1    0    0    0    0  0.00000000000E+00  0.00000000000E+00  0.45593999997E+02  0.45594000000E+02  0.51100000000E-03 0. -1.
         11   -1    0    0    0    0 -0.00000000000E+00 -0.00000000000E+00 -0.45593999997E+02  0.45594000000E+02  0.51100000000E-03 0.  1.
    9900012    2    1    2    0    0  0.30224905771E+02  0.26244840169E+02 -0.71295396560E+01  0.50528844819E+02  0.29999954310E+02 0.  0.
        -12    1    1    2    0    0 -0.30224905771E+02 -0.26244840169E+02  0.71295396560E+01  0.40659155181E+02  0.00000000000E+00 0.  1.
         11    1    3    3    0    0  0.13970370047E+02  0.62036474290E+01 -0.74036643250E+01  0.16984425995E+02  0.51100000000E-03 0. -1.
        -11    1    3    3    0    0  0.14222577320E+02  0.19855706218E+02  0.78846482238E+01  0.25665121331E+02  0.51100000000E-03 0.  1.
        -12    1    3    3    0    0  0.20319584035E+01  0.18548652198E+00 -0.76105235549E+01  0.78792974929E+01  0.00000000000E+00 0.  1.
</event>
<event>
 7    1  0.9406864E-013  0.5052887E+02  0.7816164E-02  0.1300439E+00
        -11   -1    0    0    0    0  0.00000000000E+00  0.00000000000E+00  0.45593999997E+02  0.45594000000E+02  0.51100000000E-03 0.  1.
         11   -1    0    0    0    0 -0.00000000000E+00 -0.00000000000E+00 -0.45593999997E+02  0.45594000000E+02  0.51100000000E-03 0. -1.
    9900012    2    1    2    0    0 -0.21266180663E+02 -0.20239284553E+02 -0.28129800287E+02  0.50528871340E+02  0.30000034925E+02 0.  0.
        -12    1    1    2    0    0  0.21266180663E+02  0.20239284553E+02  0.28129800287E+02  0.40659128660E+02  0.00000000000E+00 0.  1.
         11    1    3    3    0    0 -0.50639563814E+01  0.60992129607E+01 -0.74420023250E+01  0.10873244771E+02  0.51100000000E-03 0. -1.
        -11    1    3    3    0    0 -0.63242983925E+01 -0.85940903459E+01 -0.65969631271E-02  0.10670294411E+02  0.51100000000E-03 0.  1.
         12    1    3    3    0    0 -0.98779258888E+01 -0.17744407168E+02 -0.20681200999E+02  0.28985332159E+02  0.00000000000E+00 0. -1.
</event>
<event>
 7    1  0.1307579E-012  0.5052885E+02  0.7816164E-02  0.1300439E+00
        -11   -1    0    0    0    0  0.00000000000E+00  0.00000000000E+00  0.45593999997E+02  0.45594000000E+02  0.51100000000E-03 0. -1.
         11   -1    0    0    0    0 -0.00000000000E+00 -0.00000000000E+00 -0.45593999997E+02  0.45594000000E+02  0.51100000000E-03 0.  1.
    9900012    2    1    2    0    0  0.16817803668E+02 -0.29991985820E+02  0.21698121507E+02  0.50528853298E+02  0.29999980084E+02 0.  0.
        -12    1    1    2    0    0 -0.16817803668E+02  0.29991985820E+02 -0.21698121507E+02  0.40659146702E+02  0.00000000000E+00 0.  1.
         11    1    3    3    0    0  0.14797211675E+02 -0.19447719647E+02  0.23366589833E+02  0.33810779250E+02  0.51100000000E-03 0. -1.
        -11    1    3    3    0    0  0.26763680661E+01 -0.13362025079E+02 -0.21155961856E+01  0.13790663788E+02  0.51100000000E-03 0.  1.
        -12    1    3    3    0    0 -0.65577607356E+00  0.28177589053E+01  0.44712785914E+00  0.29274102599E+01  0.00000000000E+00 0.  1.
</event>
<event>
 7    1  0.9406864E-013  0.5052885E+02  0.7816164E-02  0.1300439E+00
        -11   -1    0    0    0    0  0.00000000000E+00  0.00000000000E+00  0.45593999997E+02  0.45594000000E+02  0.51100000000E-03 0. -1.
         11   -1    0    0    0    0 -0.00000000000E+00 -0.00000000000E+00 -0.45593999997E+02  0.45594000000E+02  0.51100000000E-03 0.  1.
    9900012    2    1    2    0    0 -0.38811886612E+02 -0.98929887593E+00 -0.12075816548E+02  0.50528848509E+02  0.29999965528E+02 0.  0.
        -12    1    1    2    0    0  0.38811886612E+02  0.98929887593E+00  0.12075816548E+02  0.40659151491E+02  0.00000000000E+00 0.  1.
         11    1    3    3    0    0 -0.14207974385E+02  0.44423765675E+01  0.83483102989E+01  0.17067382072E+02  0.51100000000E-03 0. -1.
        -11    1    3    3    0    0 -0.11095645334E+02 -0.28816059558E+01 -0.14521090853E+02  0.18500785878E+02  0.51100000000E-03 0.  1.
         12    1    3    3    0    0 -0.13508266893E+02 -0.25500694876E+01 -0.59030359933E+01  0.14960680559E+02  0.00000000000E+00 0. -1.
</event>
<event>
 7    1  0.9406864E-013  0.5052886E+02  0.7816164E-02  0.1300439E+00
        -11   -1    0    0    0    0  0.00000000000E+00  0.00000000000E+00  0.45593999997E+02  0.45594000000E+02  0.51100000000E-03 0.  1.
         11   -1    0    0    0    0 -0.00000000000E+00 -0.00000000000E+00 -0.45593999997E+02  0.45594000000E+02  0.51100000000E-03 0. -1.
    9900012    2    1    2    0    0  0.30224564764E+02 -0.67634231244E+01 -0.26341936706E+02  0.50528857892E+02  0.29999994049E+02 0.  0.
        -12    1    1    2    0    0 -0.30224564764E+02  0.67634231244E+01  0.26341936706E+02  0.40659142108E+02  0.00000000000E+00 0.  1.
         11    1    3    3    0    0  0.35492820994E+01 -0.67833829173E+01 -0.60637523282E+01  0.97663084010E+01  0.51100000000E-03 0. -1.
        -11    1    3    3    0    0  0.25421614169E+02  0.78440354750E+01 -0.19102354202E+02  0.32751905224E+02  0.51100000000E-03 0.  1.
        -12    1    3    3    0    0  0.12536684960E+01 -0.78240756820E+01 -0.11758301758E+01  0.80106442674E+01  0.00000000000E+00 0.  1.
</event>
<event>
 7    1  0.9406864E-013  0.5052888E+02  0.7816164E-02  0.1300439E+00
        -11   -1    0    0    0    0  0.00000000000E+00  0.00000000000E+00  0.45593999997E+02  0.45594000000E+02  0.51100000000E-03 0.  1.
         11   -1    0    0    0    0 -0.00000000000E+00 -0.00000000000E+00 -0.45593999997E+02  0.45594000000E+02  0.51100000000E-03 0. -1.
    9900012    2    1    2    0    0  0.80735838640E+01  0.18661463290E+01 -0.39805763399E+02  0.50528879765E+02  0.30000060533E+02 0.  0.
        -12    1    1    2    0    0 -0.80735838640E+01 -0.18661463290E+01  0.39805763399E+02  0.40659120235E+02  0.00000000000E+00 0.  1.
         11    1    3    3    0    0  0.97902232164E+01  0.75704082843E+00 -0.67987977397E+01  0.11943417953E+02  0.51100000000E-03 0. -1.
        -11    1    3    3    0    0 -0.10502399527E+02 -0.14094178618E+01 -0.20715305966E+02  0.23268234915E+02  0.51100000000E-03 0.  1.
         12    1    3    3    0    0  0.87857601751E+01  0.25185233624E+01 -0.12291659693E+02  0.15317226896E+02  0.00000000000E+00 0. -1.
</event>
<event>
 7    1  0.9406864E-013  0.5052886E+02  0.7816164E-02  0.1300439E+00
        -11   -1    0    0    0    0  0.00000000000E+00  0.00000000000E+00  0.45593999997E+02  0.45594000000E+02  0.51100000000E-03 0.  1.
         11   -1    0    0    0    0 -0.00000000000E+00 -0.00000000000E+00 -0.45593999997E+02  0.45594000000E+02  0.51100000000E-03 0. -1.
    9900012    2    1    2    0    0 -0.18186199574E+02 -0.23645420824E+02 -0.27628281750E+02  0.50528859166E+02  0.29999997922E+02 0.  0.
        -12    1    1    2    0    0  0.18186199574E+02  0.23645420824E+02  0.27628281750E+02  0.40659140834E+02  0.00000000000E+00 0.  1.
         11    1    3    3    0    0 -0.16157772475E+02 -0.15392554786E+02 -0.18978378480E+02  0.29294764109E+02  0.51100000000E-03 0. -1.
        -11    1    3    3    0    0 -0.77530155740E+01 -0.49079217825E+00  0.70157682130E+00  0.78001498543E+01  0.51100000000E-03 0.  1.
         12    1    3    3    0    0  0.57245884756E+01 -0.77620738591E+01 -0.93514800916E+01  0.13433945203E+02  0.00000000000E+00 0. -1.
</event>
<event>
 7    1  0.9406864E-013  0.5052887E+02  0.7816164E-02  0.1300439E+00
        -11   -1    0    0    0    0  0.00000000000E+00  0.00000000000E+00  0.45593999997E+02  0.45594000000E+02  0.51100000000E-03 0. -1.
         11   -1    0    0    0    0 -0.00000000000E+00 -0.00000000000E+00 -0.45593999997E+02  0.45594000000E+02  0.51100000000E-03 0.  1.
    9900012    2    1    2    0    0  0.14746808854E+02  0.25149531286E+02  0.28340738692E+02  0.50528871076E+02  0.30000034122E+02 0.  0.
        -12    1    1    2    0    0 -0.14746808854E+02 -0.25149531286E+02 -0.28340738692E+02  0.40659128924E+02  0.00000000000E+00 0.  1.
         11    1    3    3    0    0  0.90249131696E+01  0.12404083702E+02  0.18592103382E+02  0.24103457400E+02  0.51100000000E-03 0. -1.
        -11    1    3    3    0    0  0.82219220243E+01 -0.23793992993E+01  0.65182604358E+01  0.10758683106E+02  0.51100000000E-03 0.  1.
        -12    1    3    3    0    0 -0.25000263402E+01  0.15124846883E+02  0.32303748743E+01  0.15666730570E+02  0.00000000000E+00 0.  1.
</event>
<event>
 7    1  0.1387565E-012  0.5052885E+02  0.7816164E-02  0.1300439E+00
        -11   -1    0    0    0    0  0.00000000000E+00  0.00000000000E+00  0.45593999997E+02  0.45594000000E+02  0.51100000000E-03 0.  1.
         11   -1    0    0    0    0 -0.00000000000E+00 -0.00000000000E+00 -0.45593999997E+02  0.45594000000E+02  0.51100000000E-03 0. -1.
    9900012    2    1    2    0    0 -0.24826631780E+01  0.25713636762E+02 -0.31397634548E+02  0.50528853585E+02  0.29999980957E+02 0.  0.
        -12    1    1    2    0    0  0.24826631780E+01 -0.25713636762E+02  0.31397634548E+02  0.40659146415E+02  0.00000000000E+00 0.  1.
         11    1    3    3    0    0 -0.51132901642E+01  0.20036866686E+02 -0.25272312880E+02  0.32654426369E+02  0.51100000000E-03 0. -1.
        -11    1    3    3    0    0 -0.28704798551E+01 -0.42473783677E+01 -0.35598185620E+01  0.62411686448E+01  0.51100000000E-03 0.  1.
        -12    1    3    3    0    0  0.55011068413E+01  0.99241484437E+01 -0.25655031059E+01  0.11633258572E+02  0.00000000000E+00 0.  1.
</event>
<event>
 7    1  0.9406864E-013  0.5052886E+02  0.7816164E-02  0.1300439E+00
        -11   -1    0    0    0    0  0.00000000000E+00  0.00000000000E+00  0.45593999997E+02  0.45594000000E+02  0.51100000000E-03 0.  1.
         11   -1    0    0    0    0 -0.00000000000E+00 -0.00000000000E+00 -0.45593999997E+02  0.45594000000E+02  0.51100000000E-03 0. -1.
    9900012    2    1    2    0    0 -0.35139845221E+02 -0.19334606634E+02  0.66730873051E+01  0.50528857977E+02  0.29999994307E+02 0.  0.
        -12    1    1    2    0    0  0.35139845221E+02  0.19334606634E+02 -0.66730873051E+01  0.40659142023E+02  0.00000000000E+00 0.  1.
         11    1    3    3    0    0 -0.10472122696E+02 -0.29141931515E+01  0.53523102312E+01  0.12116315470E+02  0.51100000000E-03 0. -1.
        -11    1    3    3    0    0 -0.35632007901E+01 -0.16851816446E+02 -0.44256442341E+00  0.17230089406E+02  0.51100000000E-03 0.  1.
        -12    1    3    3    0    0 -0.21104521735E+02  0.43140296370E+00  0.17633414973E+01  0.21182453102E+02  0.00000000000E+00 0.  1.
</event>
<event>
 7    1  0.9406864E-013  0.5052886E+02  0.7816164E-02  0.1300439E+00
        -11   -1    0    0    0    0  0.00000000000E+00  0.00000000000E+00  0.45593999997E+02  0.45594000000E+02  0.51100000000E-03 0.  1.
         11   -1    0    0    0    0 -0.00000000000E+00 -0.00000000000E+00 -0.45593999997E+02  0.45594000000E+02  0.51100000000E-03 0. -1.
    9900012    2    1    2    0    0 -0.10127014095E+01  0.30600451448E+02 -0.26753557765E+02  0.50528855320E+02  0.29999986232E+02 0.  0.
        -12    1    1    2    0    0  0.10127014095E+01 -0.30600451448E+02  0.26753557765E+02  0.40659144680E+02  0.00000000000E+00 0.  1.
         11    1    3    3    0    0 -0.83705930638E+01  0.15267828273E+02 -0.71784198792E+01  0.18833563673E+02  0.51100000000E-03 0. -1.
        -11    1    3    3    0    0  0.12202927953E+02  0.96546674457E+01 -0.69791209161E+01  0.17053802600E+02  0.51100000000E-03 0.  1.
        -12    1    3    3    0    0 -0.48450362986E+01  0.56779557296E+01 -0.12596016970E+02  0.14641489047E+02  0.00000000000E+00 0.  1.
</event>
<event>
 7    1  0.9406864E-013  0.5052886E+02  0.7816164E-02  0.1300439E+00
        -11   -1    0    0    0    0  0.00000000000E+00  0.00000000000E+00  0.45593999997E+02  0.45594000000E+02  0.51100000000E-03 0. -1.
         11   -1    0    0    0    0 -0.00000000000E+00 -0.00000000000E+00 -0.45593999997E+02  0.45594000000E+02  0.51100000000E-03 0.  1.
    9900012    2    1    2    0    0  0.99285484582E+01  0.39401857848E+02 -0.14432996331E+01  0.50528860926E+02  0.30000003271E+02 0.  0.
        -12    1    1    2    0    0 -0.99285484582E+01 -0.39401857848E+02  0.14432996331E+01  0.40659139074E+02  0.00000000000E+00 0.  1.
         11    1    3    3    0    0  0.10313042101E+02  0.92044501116E+01 -0.17239054749E+01  0.13930276005E+02  0.51100000000E-03 0. -1.
        -11    1    3    3    0    0 -0.29986672246E+01  0.30015251693E+02  0.55894939261E+01  0.30678164578E+02  0.51100000000E-03 0.  1.
        -12    1    3    3    0    0  0.26141735818E+01  0.18215604421E+00 -0.53088880843E+01  0.59204203425E+01  0.00000000000E+00 0.  1.
</event>
<event>
 7    1  0.9406864E-013  0.5052885E+02  0.7816164E-02  0.1300439E+00
        -11   -1    0    0    0    0  0.00000000000E+00  0.00000000000E+00  0.45593999997E+02  0.45594000000E+02  0.51100000000E-03 0. -1.
         11   -1    0    0    0    0 -0.00000000000E+00 -0.00000000000E+00 -0.45593999997E+02  0.45594000000E+02  0.51100000000E-03 0.  1.
    9900012    2    1    2    0    0 -0.11945253533E+02  0.69293302640E+01  0.38242143319E+02  0.50528853114E+02  0.29999979526E+02 0.  0.
        -12    1    1    2    0    0  0.11945253533E+02 -0.69293302640E+01 -0.38242143319E+02  0.40659146886E+02  0.00000000000E+00 0.  1.
         11    1    3    3    0    0 -0.69902251686E+01  0.16407609871E+02  0.25408713363E+02  0.31043125240E+02  0.51100000000E-03 0.  1.
        -11    1    3    3    0    0 -0.29624797406E+01 -0.10767186489E+02  0.12962051079E+02  0.17109160106E+02  0.51100000000E-03 0. -1.
         12    1    3    3    0    0 -0.19925486234E+01  0.12889068813E+01 -0.12862112401E+00  0.23765677686E+01  0.00000000000E+00 0. -1.
</event>
<event>
 7    1  0.9406864E-013  0.5052886E+02  0.7816164E-02  0.1300439E+00
        -11   -1    0    0    0    0  0.00000000000E+00  0.00000000000E+00  0.45593999997E+02  0.45594000000E+02  0.51100000000E-03 0.  1.
         11   -1    0    0    0    0 -0.00000000000E+00 -0.00000000000E+00 -0.45593999997E+02  0.45594000000E+02  0.51100000000E-03 0. -1.
    9900012    2    1    2    0    0 -0.17438735624E+02  0.10380018925E+02 -0.35232252605E+02  0.50528856912E+02  0.29999991070E+02 0.  0.
        -12    1    1    2    0    0  0.17438735624E+02 -0.10380018925E+02  0.35232252605E+02  0.40659143088E+02  0.00000000000E+00 0.  1.
         11    1    3    3    0    0 -0.11805236164E+02  0.56478348113E+01 -0.15885915922E+02  0.20582127292E+02  0.51100000000E-03 0. -1.
        -11    1    3    3    0    0 -0.41746987071E+01  0.29282885003E+01  0.40027523402E+01  0.64826699279E+01  0.51100000000E-03 0.  1.
        -12    1    3    3    0    0 -0.14588007529E+01  0.18038956132E+01 -0.23349089023E+02  0.23464059692E+02  0.00000000000E+00 0.  1.
</event>
<event>
 7    1  0.9406864E-013  0.5052886E+02  0.7816164E-02  0.1300439E+00
        -11   -1    0    0    0    0  0.00000000000E+00  0.00000000000E+00  0.45593999997E+02  0.45594000000E+02  0.51100000000E-03 0.  1.
         11   -1    0    0    0    0 -0.00000000000E+00 -0.00000000000E+00 -0.45593999997E+02  0.45594000000E+02  0.51100000000E-03 0. -1.
    9900012    2    1    2    0    0  0.40515155128E+01 -0.19657193988E+02 -0.35360224437E+02  0.50528861720E+02  0.30000005685E+02 0.  0.
        -12    1    1    2    0    0 -0.40515155128E+01  0.19657193988E+02  0.35360224437E+02  0.40659138280E+02  0.00000000000E+00 0.  1.
         11    1    3    3    0    0  0.24682472220E+01 -0.13883822273E+02 -0.24722645110E+02  0.28461587214E+02  0.51100000000E-03 0. -1.
        -11    1    3    3    0    0 -0.72830785315E+01  0.83364370050E+00 -0.99840198038E+00  0.73983107187E+01  0.51100000000E-03 0.  1.
        -12    1    3    3    0    0  0.88663468223E+01 -0.66070154154E+01 -0.96391773468E+01  0.14668963787E+02  0.00000000000E+00 0.  1.
</event>
<event>
 7    1  0.9406864E-013  0.5052886E+02  0.7816164E-02  0.1300439E+00
        -11   -1    0    0    0    0  0.00000000000E+00  0.00000000000E+00  0.45593999997E+02  0.45594000000E+02  0.51100000000E-03 0. -1.
         11   -1    0    0    0    0 -0.00000000000E+00 -0.00000000000E+00 -0.45593999997E+02  0.45594000000E+02  0.51100000000E-03 0.  1.
    9900012    2    1    2    0    0  0.16346412209E+02  0.30303557980E+02  0.21625335908E+02  0.50528856238E+02  0.29999989020E+02 0.  0.
        -12    1    1    2    0    0 -0.16346412209E+02 -0.30303557980E+02 -0.21625335908E+02  0.40659143762E+02  0.00000000000E+00 0.  1.
         11    1    3    3    0    0  0.74430220043E+01  0.66338901324E-01  0.65826256780E+01  0.99364952817E+01  0.51100000000E-03 0. -1.
        -11    1    3    3    0    0  0.63303623365E+01  0.29749345349E+02  0.18988839568E+02  0.35856283471E+02  0.51100000000E-03 0.  1.
        -12    1    3    3    0    0  0.25730278687E+01  0.48787372993E+00 -0.39461293377E+01  0.47360774845E+01  0.00000000000E+00 0.  1.
</event>
<event>
 7    1  0.9406864E-013  0.5052886E+02  0.7816164E-02  0.1300439E+00
        -11   -1    0    0    0    0  0.00000000000E+00  0.00000000000E+00  0.45593999997E+02  0.45594000000E+02  0.51100000000E-03 0.  1.
         11   -1    0    0    0    0 -0.00000000000E+00 -0.00000000000E+00 -0.45593999997E+02  0.45594000000E+02  0.51100000000E-03 0. -1.
    9900012    2    1    2    0    0 -0.18043770151E+02  0.95942738468E+01 -0.35150216853E+02  0.50528862322E+02  0.30000007515E+02 0.  0.
        -12    1    1    2    0    0  0.18043770151E+02 -0.95942738468E+01  0.35150216853E+02  0.40659137678E+02  0.00000000000E+00 0.  1.
         11    1    3    3    0    0 -0.43095202902E+01  0.11525990732E+02 -0.14209806687E+02  0.18797314537E+02  0.51100000000E-03 0. -1.
        -11    1    3    3    0    0 -0.17814749127E+02 -0.51259245076E+01 -0.17630120423E+02  0.25582445836E+02  0.51100000000E-03 0.  1.
        -12    1    3    3    0    0  0.40804992670E+01  0.31942076228E+01 -0.33102897428E+01  0.61491019496E+01  0.00000000000E+00 0.  1.
</event>
<event>
 7    1  0.9406864E-013  0.5052886E+02  0.7816164E-02  0.1300439E+00
        -11   -1    0    0    0    0  0.00000000000E+00  0.00000000000E+00  0.45593999997E+02  0.45594000000E+02  0.51100000000E-03 0.  1.
         11   -1    0    0    0    0 -0.00000000000E+00 -0.00000000000E+00 -0.45593999997E+02  0.45594000000E+02  0.51100000000E-03 0. -1.
    9900012    2    1    2    0    0 -0.27087777271E+02 -0.28334527114E+02  0.10796880735E+02  0.50528859111E+02  0.29999997753E+02 0.  0.
        -12    1    1    2    0    0  0.27087777271E+02  0.28334527114E+02 -0.10796880735E+02  0.40659140889E+02  0.00000000000E+00 0.  1.
         11    1    3    3    0    0 -0.29693144956E+02 -0.13889646658E+02  0.24437808352E+01  0.32872134198E+02  0.51100000000E-03 0. -1.
        -11    1    3    3    0    0  0.33556345718E+01 -0.46746811868E+01  0.32448825891E+01  0.66062236456E+01  0.51100000000E-03 0.  1.
         12    1    3    3    0    0 -0.75026688614E+00 -0.97701992694E+01  0.51082173110E+01  0.11050501267E+02  0.00000000000E+00 0. -1.
</event>
<event>
 7    1  0.9406864E-013  0.5052886E+02  0.7816164E-02  0.1300439E+00
        -11   -1    0    0    0    0  0.00000000000E+00  0.00000000000E+00  0.45593999997E+02  0.45594000000E+02  0.51100000000E-03 0. -1.
         11   -1    0    0    0    0 -0.00000000000E+00 -0.00000000000E+00 -0.45593999997E+02  0.45594000000E+02  0.51100000000E-03 0.  1.
    9900012    2    1    2    0    0  0.21772429829E+02  0.31149386989E+02  0.14451390063E+02  0.50528859758E+02  0.29999999720E+02 0.  0.
        -12    1    1    2    0    0 -0.21772429829E+02 -0.31149386989E+02 -0.14451390063E+02  0.40659140242E+02  0.00000000000E+00 0.  1.
         11    1    3    3    0    0 -0.25282750068E+01  0.11455816028E+02  0.84303150319E+01  0.14446387340E+02  0.51100000000E-03 0. -1.
        -11    1    3    3    0    0  0.19815657627E+02  0.53170240179E+01  0.34427964911E+01  0.20803458356E+02  0.51100000000E-03 0.  1.
        -12    1    3    3    0    0  0.44850472086E+01  0.14376546944E+02  0.25782785401E+01  0.15279014062E+02  0.00000000000E+00 0.  1.
</event>
<event>
 7    1  0.9406864E-013  0.5052886E+02  0.7816164E-02  0.1300439E+00
        -11   -1    0    0    0    0  0.00000000000E+00  0.00000000000E+00  0.45593999997E+02  0.45594000000E+02  0.51100000000E-03 0.  1.
         11   -1    0    0    0    0 -0.00000000000E+00 -0.00000000000E+00 -0.45593999997E+02  0.45594000000E+02  0.51100000000E-03 0. -1.
    9900012    2    1    2    0    0 -0.46188707498E+01  0.47046674605E+01 -0.40121039284E+02  0.50528860116E+02  0.30000000808E+02 0.  0.
        -12    1    1    2    0    0  0.46188707498E+01 -0.47046674605E+01  0.40121039284E+02  0.40659139884E+02  0.00000000000E+00 0.  1.
         11    1    3    3    0    0 -0.91540753472E+01  0.39071351752E+01 -0.66246958672E+01  0.11956144710E+02  0.51100000000E-03 0. -1.
        -11    1    3    3    0    0  0.10709821197E+02  0.50857365841E+00 -0.29029648662E+02  0.30946395895E+02  0.51100000000E-03 0.  1.
        -12    1    3    3    0    0 -0.61746165993E+01  0.28895862693E+00 -0.44666947549E+01  0.76263195101E+01  0.00000000000E+00 0.  1.
</event>
<event>
 7    1  0.9406864E-013  0.5052888E+02  0.7816164E-02  0.1300439E+00
        -11   -1    0    0    0    0  0.00000000000E+00  0.00000000000E+00  0.45593999997E+02  0.45594000000E+02  0.51100000000E-03 0. -1.
         11   -1    0    0    0    0 -0.00000000000E+00 -0.00000000000E+00 -0.45593999997E+02  0.45594000000E+02  0.51100000000E-03 0.  1.
    9900012    2    1    2    0    0  0.26283420117E+02  0.30783002541E+02 -0.38409572910E+01  0.50528875914E+02  0.30000048828E+02 0.  0.
        -12    1    1    2    0    0 -0.26283420117E+02 -0.30783002541E+02  0.38409572910E+01  0.40659124086E+02  0.00000000000E+00 0.  1.
         11    1    3    3    0    0  0.10444513238E+02  0.20532184432E+02  0.35943894979E+00  0.23038829201E+02  0.51100000000E-03 0. -1.
        -11    1    3    3    0    0  0.61291493871E+01  0.38597466593E+01 -0.11625033991E+02  0.13696916881E+02  0.51100000000E-03 0.  1.
        -12    1    3    3    0    0  0.97097574921E+01  0.63910714504E+01  0.74246377505E+01  0.13793129832E+02  0.00000000000E+00 0.  1.
</event>
<event>
 7    1  0.9406864E-013  0.5052886E+02  0.7816164E-02  0.1300439E+00
        -11   -1    0    0    0    0  0.00000000000E+00  0.00000000000E+00  0.45593999997E+02  0.45594000000E+02  0.51100000000E-03 0. -1.
         11   -1    0    0    0    0 -0.00000000000E+00 -0.00000000000E+00 -0.45593999997E+02  0.45594000000E+02  0.51100000000E-03 0.  1.
    9900012    2    1    2    0    0 -0.29833989104E+02 -0.42190364987E+01  0.27300155605E+02  0.50528859934E+02  0.30000000255E+02 0.  0.
        -12    1    1    2    0    0  0.29833989104E+02  0.42190364987E+01 -0.27300155605E+02  0.40659140066E+02  0.00000000000E+00 0.  1.
         11    1    3    3    0    0 -0.20259577901E+02 -0.11786776145E+01  0.32530687775E+02  0.38341693038E+02  0.51100000000E-03 0. -1.
        -11    1    3    3    0    0 -0.15154170105E+01 -0.13860395285E+01 -0.30484216865E+01  0.36756590335E+01  0.51100000000E-03 0.  1.
         12    1    3    3    0    0 -0.80589941930E+01 -0.16543193558E+01 -0.21821104835E+01  0.85115078627E+01  0.00000000000E+00 0. -1.
</event>
<event>
 7    1  0.9406864E-013  0.5052886E+02  0.7816164E-02  0.1300439E+00
        -11   -1    0    0    0    0  0.00000000000E+00  0.00000000000E+00  0.45593999997E+02  0.45594000000E+02  0.51100000000E-03 0.  1.
         11   -1    0    0    0    0 -0.00000000000E+00 -0.00000000000E+00 -0.45593999997E+02  0.45594000000E+02  0.51100000000E-03 0. -1.
    9900012    2    1    2    0    0  0.21845775353E+02  0.27146614650E+02 -0.20952072762E+02  0.50528856615E+02  0.29999990167E+02 0.  0.
        -12    1    1    2    0    0 -0.21845775353E+02 -0.27146614650E+02  0.20952072762E+02  0.40659143385E+02  0.00000000000E+00 0.  1.
         11    1    3    3    0    0  0.72941603931E+01  0.13183808231E+02 -0.28418190039E+01  0.15332759400E+02  0.51100000000E-03 0. -1.
        -11    1    3    3    0    0  0.40388814995E+01  0.14982915261E+02 -0.19075305761E+02  0.24589989907E+02  0.51100000000E-03 0.  1.
        -12    1    3    3    0    0  0.10512733461E+02 -0.10201088419E+01  0.96505200240E+00  0.10606107308E+02  0.00000000000E+00 0.  1.
</event>
<event>
 7    1  0.9406864E-013  0.5052887E+02  0.7816164E-02  0.1300439E+00
        -11   -1    0    0    0    0  0.00000000000E+00  0.00000000000E+00  0.45593999997E+02  0.45594000000E+02  0.51100000000E-03 0.  1.
         11   -1    0    0    0    0 -0.00000000000E+00 -0.00000000000E+00 -0.45593999997E+02  0.45594000000E+02  0.51100000000E-03 0. -1.
    9900012    2    1    2    0    0  0.76789183392E+01 -0.27990537683E+02 -0.28473300215E+02  0.50528870499E+02  0.30000032368E+02 0.  0.
        -12    1    1    2    0    0 -0.76789183392E+01  0.27990537683E+02  0.28473300215E+02  0.40659129501E+02  0.00000000000E+00 0.  1.
         11    1    3    3    0    0  0.38668805430E+01 -0.14366819588E+02 -0.96026559214E+01  0.17707887260E+02  0.51100000000E-03 0. -1.
        -11    1    3    3    0    0 -0.78498859073E+00  0.21498236696E+01  0.40310491390E+01  0.46354402510E+01  0.51100000000E-03 0.  1.
        -12    1    3    3    0    0  0.45970263869E+01 -0.15773541765E+02 -0.22901693433E+02  0.28185542988E+02  0.00000000000E+00 0.  1.
</event>
<event>
 7    1  0.9406864E-013  0.5052886E+02  0.7816164E-02  0.1300439E+00
        -11   -1    0    0    0    0  0.00000000000E+00  0.00000000000E+00  0.45593999997E+02  0.45594000000E+02  0.51100000000E-03 0. -1.
         11   -1    0    0    0    0 -0.00000000000E+00 -0.00000000000E+00 -0.45593999997E+02  0.45594000000E+02  0.51100000000E-03 0.  1.
    9900012    2    1    2    0    0  0.16304959147E+02 -0.35600478178E+02  0.10950785726E+02  0.50528862684E+02  0.30000008613E+02 0.  0.
        -12    1    1    2    0    0 -0.16304959147E+02  0.35600478178E+02 -0.10950785726E+02  0.40659137316E+02  0.00000000000E+00 0.  1.
         11    1    3    3    0    0 -0.78184508626E+01 -0.90928107805E+01 -0.81885725146E+00  0.12019896391E+02  0.51100000000E-03 0.  1.
        -11    1    3    3    0    0  0.93203962724E+01 -0.63707793683E+01  0.62870207487E+01  0.12922199758E+02  0.51100000000E-03 0. -1.
         12    1    3    3    0    0  0.14803013737E+02 -0.20136888029E+02  0.54826222290E+01  0.25586766535E+02  0.00000000000E+00 0. -1.
</event>
<event>
 7    1  0.9406864E-013  0.5052886E+02  0.7816164E-02  0.1300439E+00
        -11   -1    0    0    0    0  0.00000000000E+00  0.00000000000E+00  0.45593999997E+02  0.45594000000E+02  0.51100000000E-03 0. -1.
         11   -1    0    0    0    0 -0.00000000000E+00 -0.00000000000E+00 -0.45593999997E+02  0.45594000000E+02  0.51100000000E-03 0.  1.
    9900012    2    1    2    0    0  0.10798767320E+02  0.33678428082E+02  0.20057805185E+02  0.50528862742E+02  0.30000008792E+02 0.  0.
        -12    1    1    2    0    0 -0.10798767320E+02 -0.33678428082E+02 -0.20057805185E+02  0.40659137258E+02  0.00000000000E+00 0.  1.
         11    1    3    3    0    0  0.15624866150E+01  0.17570613235E+01  0.16766192926E+01  0.28878506593E+01  0.51100000000E-03 0. -1.
        -11    1    3    3    0    0  0.10318166864E+02  0.11319667612E+02  0.21888131248E+02  0.26714972058E+02  0.51100000000E-03 0.  1.
        -12    1    3    3    0    0 -0.10818861591E+01  0.20601699147E+02 -0.35069453558E+01  0.20926040025E+02  0.00000000000E+00 0.  1.
</event>
<event>
 7    1  0.9406864E-013  0.5052885E+02  0.7816164E-02  0.1300439E+00
        -11   -1    0    0    0    0  0.00000000000E+00  0.00000000000E+00  0.45593999997E+02  0.45594000000E+02  0.51100000000E-03 0.  1.
         11   -1    0    0    0    0 -0.00000000000E+00 -0.00000000000E+00 -0.45593999997E+02  0.45594000000E+02  0.51100000000E-03 0. -1.
    9900012    2    1    2    0    0 -0.22130750696E+02  0.15488601046E+02 -0.30389131132E+02  0.50528853677E+02  0.29999981238E+02 0.  0.
        -12    1    1    2    0    0  0.22130750696E+02 -0.15488601046E+02  0.30389131132E+02  0.40659146323E+02  0.00000000000E+00 0.  1.
         11    1    3    3    0    0 -0.17897051557E+02  0.73032791225E+01 -0.16138331487E+01  0.19397082205E+02  0.51100000000E-03 0. -1.
        -11    1    3    3    0    0  0.14644002985E+01 -0.30285209022E+00 -0.57052955318E+01  0.58980153432E+01  0.51100000000E-03 0.  1.
         12    1    3    3    0    0 -0.56980994378E+01  0.84881740135E+01 -0.23070002452E+02  0.25233756130E+02  0.00000000000E+00 0. -1.
</event>
<event>
 7    1  0.9406864E-013  0.5052889E+02  0.7816164E-02  0.1300439E+00
        -11   -1    0    0    0    0  0.00000000000E+00  0.00000000000E+00  0.45593999997E+02  0.45594000000E+02  0.51100000000E-03 0. -1.
         11   -1    0    0    0    0 -0.00000000000E+00 -0.00000000000E+00 -0.45593999997E+02  0.45594000000E+02  0.51100000000E-03 0.  1.
    9900012    2    1    2    0    0  0.29912768058E+02 -0.23415808748E+02  0.14494468194E+02  0.50528887855E+02  0.30000085123E+02 0.  0.
        -12    1    1    2    0    0 -0.29912768058E+02  0.23415808748E+02 -0.14494468194E+02  0.40659112145E+02  0.00000000000E+00 0.  1.
         11    1    3    3    0    0  0.28533146552E+02 -0.19135423392E+02  0.22427086382E+02  0.41027784298E+02  0.51100000000E-03 0. -1.
        -11    1    3    3    0    0  0.18694071091E+01 -0.42750122076E+01 -0.66115786959E+01  0.80921805113E+01  0.51100000000E-03 0.  1.
         12    1    3    3    0    0 -0.48978560269E+00 -0.53731476175E-02 -0.13210394924E+01  0.14089230454E+01  0.00000000000E+00 0. -1.
</event>
<event>
 7    1  0.9406864E-013  0.5052886E+02  0.7816164E-02  0.1300439E+00
        -11   -1    0    0    0    0  0.00000000000E+00  0.00000000000E+00  0.45593999997E+02  0.45594000000E+02  0.51100000000E-03 0. -1.
         11   -1    0    0    0    0 -0.00000000000E+00 -0.00000000000E+00 -0.45593999997E+02  0.45594000000E+02  0.51100000000E-03 0.  1.
    9900012    2    1    2    0    0  0.21923648700E+02  0.21121452308E+01  0.34176869919E+02  0.50528856290E+02  0.29999989178E+02 0.  0.
        -12    1    1    2    0    0 -0.21923648700E+02 -0.21121452308E+01 -0.34176869919E+02  0.40659143710E+02  0.00000000000E+00 0.  1.
         11    1    3    3    0    0 -0.20353157850E+01 -0.45079197639E+01  0.12396077777E+02  0.13346407586E+02  0.51100000000E-03 0.  1.
        -11    1    3    3    0    0  0.20587744432E+02  0.89052947374E+01  0.23741596312E+02  0.32662254834E+02  0.51100000000E-03 0. -1.
        -12    1    3    3    0    0  0.33712200530E+01 -0.22852297427E+01 -0.19608041702E+01  0.45201938694E+01  0.00000000000E+00 0.  1.
</event>
<event>
 7    1  0.9406864E-013  0.5052886E+02  0.7816164E-02  0.1300439E+00
        -11   -1    0    0    0    0  0.00000000000E+00  0.00000000000E+00  0.45593999997E+02  0.45594000000E+02  0.51100000000E-03 0. -1.
         11   -1    0    0    0    0 -0.00000000000E+00 -0.00000000000E+00 -0.45593999997E+02  0.45594000000E+02  0.51100000000E-03 0.  1.
    9900012    2    1    2    0    0 -0.29767619422E+02 -0.19568084187E+02 -0.19599601213E+02  0.50528862620E+02  0.30000008419E+02 0.  0.
        -12    1    1    2    0    0  0.29767619422E+02  0.19568084187E+02  0.19599601213E+02  0.40659137380E+02  0.00000000000E+00 0.  1.
         11    1    3    3    0    0 -0.95972384521E+01  0.43151819884E+01 -0.12291323525E+02  0.16180371311E+02  0.51100000000E-03 0. -1.
        -11    1    3    3    0    0 -0.14893101148E+02 -0.20133000085E+02 -0.10470249881E+02  0.27143475958E+02  0.51100000000E-03 0.  1.
         12    1    3    3    0    0 -0.52772798219E+01 -0.37502660902E+01  0.31619721930E+01  0.72050153515E+01  0.00000000000E+00 0. -1.
</event>
<event>
 7    1  0.9406864E-013  0.5052885E+02  0.7816164E-02  0.1300439E+00
        -11   -1    0    0    0    0  0.00000000000E+00  0.00000000000E+00  0.45593999997E+02  0.45594000000E+02  0.51100000000E-03 0. -1.
         11   -1    0    0    0    0 -0.00000000000E+00 -0.00000000000E+00 -0.45593999997E+02  0.45594000000E+02  0.51100000000E-03 0.  1.
    9900012    2    1    2    0    0 -0.12492680112E+02  0.23629207118E+02  0.30639191694E+02  0.50528849086E+02  0.29999967281E+02 0.  0.
        -12    1    1    2    0    0  0.12492680112E+02 -0.23629207118E+02 -0.30639191694E+02  0.40659150914E+02  0.00000000000E+00 0.  1.
         11    1    3    3    0    0  0.21885212829E+01  0.70129237333E+01  0.80393243861E+01  0.10890429814E+02  0.51100000000E-03 0. -1.
        -11    1    3    3    0    0 -0.13779138730E+02  0.31933155991E+01  0.22021604598E+02  0.26172752969E+02  0.51100000000E-03 0.  1.
        -12    1    3    3    0    0 -0.90206266476E+00  0.13422967785E+02  0.57826271065E+00  0.13465666303E+02  0.00000000000E+00 0.  1.
</event>
<event>
 7    1  0.9406864E-013  0.5052887E+02  0.7816164E-02  0.1300439E+00
        -11   -1    0    0    0    0  0.00000000000E+00  0.00000000000E+00  0.45593999997E+02  0.45594000000E+02  0.51100000000E-03 0.  1.
         11   -1    0    0    0    0 -0.00000000000E+00 -0.00000000000E+00 -0.45593999997E+02  0.45594000000E+02  0.51100000000E-03 0. -1.
    9900012    2    1    2    0    0  0.34971291447E+02 -0.15002882381E+02 -0.14320870723E+02  0.50528867650E+02  0.30000023708E+02 0.  0.
        -12    1    1    2    0    0 -0.34971291447E+02  0.15002882381E+02  0.14320870723E+02  0.40659132350E+02  0.00000000000E+00 0.  1.
         11    1    3    3    0    0  0.17697493544E+02 -0.89626899463E+01 -0.28231943776E+01  0.20037502728E+02  0.51100000000E-03 0. -1.
        -11    1    3    3    0    0  0.10855407127E+02  0.72473583234E+01 -0.27567194139E+01  0.13340298676E+02  0.51100000000E-03 0.  1.
        -12    1    3    3    0    0  0.64183907759E+01 -0.13287550759E+02 -0.87409569312E+01  0.17151066246E+02  0.00000000000E+00 0.  1.
</event>
<event>
 7    1  0.9406864E-013  0.5052886E+02  0.7816164E-02  0.1300439E+00
        -11   -1    0    0    0    0  0.00000000000E+00  0.00000000000E+00  0.45593999997E+02  0.45594000000E+02  0.51100000000E-03 0.  1.
         11   -1    0    0    0    0 -0.00000000000E+00 -0.00000000000E+00 -0.45593999997E+02  0.45594000000E+02  0.51100000000E-03 0. -1.
    9900012    2    1    2    0    0  0.97706151083E+01  0.72715813577E+01 -0.38792073630E+02  0.50528858451E+02  0.29999995747E+02 0.  0.
        -12    1    1    2    0    0 -0.97706151083E+01 -0.72715813577E+01  0.38792073630E+02  0.40659141549E+02  0.00000000000E+00 0.  1.
         11    1    3    3    0    0 -0.36507707496E+01 -0.51342514780E+01 -0.10745924763E+02  0.12456466778E+02  0.51100000000E-03 0. -1.
        -11    1    3    3    0    0  0.14582871225E+01  0.12569228247E+02 -0.19956452045E+02  0.23629897980E+02  0.51100000000E-03 0.  1.
        -12    1    3    3    0    0  0.11963098735E+02 -0.16339541123E+00 -0.80896968220E+01  0.14442493693E+02  0.00000000000E+00 0.  1.
</event>
<event>
 7    1  0.9406864E-013  0.5052886E+02  0.7816164E-02  0.1300439E+00
        -11   -1    0    0    0    0  0.00000000000E+00  0.00000000000E+00  0.45593999997E+02  0.45594000000E+02  0.51100000000E-03 0.  1.
         11   -1    0    0    0    0 -0.00000000000E+00 -0.00000000000E+00 -0.45593999997E+02  0.45594000000E+02  0.51100000000E-03 0. -1.
    9900012    2    1    2    0    0 -0.72055481951E+01  0.39601637612E+02  0.57407447348E+01  0.50528858636E+02  0.29999996310E+02 0.  0.
        -12    1    1    2    0    0  0.72055481951E+01 -0.39601637612E+02 -0.57407447348E+01  0.40659141364E+02  0.00000000000E+00 0.  1.
         11    1    3    3    0    0 -0.13353918325E+02  0.89661194068E+01 -0.58952000804E+01  0.17131019120E+02  0.51100000000E-03 0. -1.
        -11    1    3    3    0    0  0.41206893132E+01  0.22538596872E+02  0.93230792454E+01  0.24736374760E+02  0.51100000000E-03 0.  1.
         12    1    3    3    0    0  0.20276808168E+01  0.80969213335E+01  0.23128655697E+01  0.86614647560E+01  0.00000000000E+00 0. -1.
</event>
<event>
 7    1  0.9406864E-013  0.5052886E+02  0.7816164E-02  0.1300439E+00
        -11   -1    0    0    0    0  0.00000000000E+00  0.00000000000E+00  0.45593999997E+02  0.45594000000E+02  0.51100000000E-03 0. -1.
         11   -1    0    0    0    0 -0.00000000000E+00 -0.00000000000E+00 -0.45593999997E+02  0.45594000000E+02  0.51100000000E-03 0.  1.
    9900012    2    1    2    0    0 -0.21228208254E+02  0.33338392218E+02 -0.95436020914E+01  0.50528861270E+02  0.30000004317E+02 0.  0.
        -12    1    1    2    0    0  0.21228208254E+02 -0.33338392218E+02  0.95436020914E+01  0.40659138730E+02  0.00000000000E+00 0.  1.
         11    1    3    3    0    0 -0.20405088804E+02  0.14077279050E+02  0.48463721529E+01  0.25259151962E+02  0.51100000000E-03 0. -1.
        -11    1    3    3    0    0 -0.30708951286E+01  0.17444116929E+02 -0.11158255405E+02  0.20934045865E+02  0.51100000000E-03 0.  1.
         12    1    3    3    0    0  0.22477756789E+01  0.18169962390E+01 -0.32317188397E+01  0.43356634434E+01  0.00000000000E+00 0. -1.
</event>
<event>
 7    1  0.9406864E-013  0.5052884E+02  0.7816164E-02  0.1300439E+00
        -11   -1    0    0    0    0  0.00000000000E+00  0.00000000000E+00  0.45593999997E+02  0.45594000000E+02  0.51100000000E-03 0. -1.
         11   -1    0    0    0    0 -0.00000000000E+00 -0.00000000000E+00 -0.45593999997E+02  0.45594000000E+02  0.51100000000E-03 0.  1.
    9900012    2    1    2    0    0  0.10358299479E+02 -0.12145243772E+02  0.37394731415E+02  0.50528840491E+02  0.29999941156E+02 0.  0.
        -12    1    1    2    0    0 -0.10358299479E+02  0.12145243772E+02 -0.37394731415E+02  0.40659159509E+02  0.00000000000E+00 0.  1.
         11    1    3    3    0    0  0.77465602743E+01  0.15364035941E+01  0.60198209697E+01  0.99301549261E+01  0.51100000000E-03 0. -1.
        -11    1    3    3    0    0 -0.92379049265E+01 -0.77745353496E+01  0.11211312714E+02  0.16476523309E+02  0.51100000000E-03 0.  1.
        -12    1    3    3    0    0  0.11849644131E+02 -0.59071120169E+01  0.20163597731E+02  0.24122162256E+02  0.00000000000E+00 0.  1.
</event>
<event>
 7    1  0.9406864E-013  0.5052886E+02  0.7816164E-02  0.1300439E+00
        -11   -1    0    0    0    0  0.00000000000E+00  0.00000000000E+00  0.45593999997E+02  0.45594000000E+02  0.51100000000E-03 0.  1.
         11   -1    0    0    0    0 -0.00000000000E+00 -0.00000000000E+00 -0.45593999997E+02  0.45594000000E+02  0.51100000000E-03 0. -1.
    9900012    2    1    2    0    0 -0.20387975502E+01 -0.24796604489E+02 -0.32158003396E+02  0.50528862379E+02  0.30000007687E+02 0.  0.
        -12    1    1    2    0    0  0.20387975502E+01  0.24796604489E+02  0.32158003396E+02  0.40659137621E+02  0.00000000000E+00 0.  1.
         11    1    3    3    0    0 -0.11148071741E+01 -0.18774843146E+02 -0.15555002197E+02  0.24406876568E+02  0.51100000000E-03 0. -1.
        -11    1    3    3    0    0 -0.60810560413E+01  0.50622276162E+01 -0.58397892664E+01  0.98340495195E+01  0.51100000000E-03 0.  1.
        -12    1    3    3    0    0  0.51570656652E+01 -0.11083988960E+02 -0.10763211933E+02  0.16287936292E+02  0.00000000000E+00 0.  1.
</event>
<event>
 7    1  0.9406864E-013  0.5052886E+02  0.7816164E-02  0.1300439E+00
        -11   -1    0    0    0    0  0.00000000000E+00  0.00000000000E+00  0.45593999997E+02  0.45594000000E+02  0.51100000000E-03 0.  1.
         11   -1    0    0    0    0 -0.00000000000E+00 -0.00000000000E+00 -0.45593999997E+02  0.45594000000E+02  0.51100000000E-03 0. -1.
    9900012    2    1    2    0    0  0.93426113777E+01  0.27117485857E+02 -0.28818798639E+02  0.50528861032E+02  0.30000003594E+02 0.  0.
        -12    1    1    2    0    0 -0.93426113777E+01 -0.27117485857E+02  0.28818798639E+02  0.40659138968E+02  0.00000000000E+00 0.  1.
         11    1    3    3    0    0  0.68451606071E+01  0.13410055514E+02 -0.22746444420E+02  0.27277949824E+02  0.51100000000E-03 0. -1.
        -11    1    3    3    0    0 -0.74619680199E+01  0.71469406917E+01 -0.43101133196E+01  0.11195392136E+02  0.51100000000E-03 0.  1.
         12    1    3    3    0    0  0.99594187904E+01  0.65604896521E+01 -0.17622408999E+01  0.12055519073E+02  0.00000000000E+00 0. -1.
</event>
<event>
 7    1  0.9406864E-013  0.5052886E+02  0.7816164E-02  0.1300439E+00
        -11   -1    0    0    0    0  0.00000000000E+00  0.00000000000E+00  0.45593999997E+02  0.45594000000E+02  0.51100000000E-03 0. -1.
         11   -1    0    0    0    0 -0.00000000000E+00 -0.00000000000E+00 -0.45593999997E+02  0.45594000000E+02  0.51100000000E-03 0.  1.
    9900012    2    1    2    0    0  0.16170052722E+02 -0.17421540984E+02  0.32987654283E+02  0.50528855513E+02  0.29999986817E+02 0.  0.
        -12    1    1    2    0    0 -0.16170052722E+02  0.17421540984E+02 -0.32987654283E+02  0.40659144487E+02  0.00000000000E+00 0.  1.
         11    1    3    3    0    0  0.87490657196E+01  0.35668253844E+01  0.11972539934E+02  0.15251560806E+02  0.51100000000E-03 0. -1.
        -11    1    3    3    0    0  0.45230773588E+01 -0.60645389064E+01 -0.18789700871E+01  0.77953441098E+01  0.51100000000E-03 0.  1.
         12    1    3    3    0    0  0.28979096439E+01 -0.14923827462E+02  0.22894084436E+02  0.27481950597E+02  0.00000000000E+00 0. -1.
</event>
<event>
 7    1  0.9406864E-013  0.5052887E+02  0.7816164E-02  0.1300439E+00
        -11   -1    0    0    0    0  0.00000000000E+00  0.00000000000E+00  0.45593999997E+02  0.45594000000E+02  0.51100000000E-03 0.  1.
         11   -1    0    0    0    0 -0.00000000000E+00 -0.00000000000E+00 -0.45593999997E+02  0.45594000000E+02  0.51100000000E-03 0. -1.
    9900012    2    1    2    0    0  0.24897235770E+02  0.12681145314E+02 -0.29537788838E+02  0.50528871075E+02  0.30000034120E+02 0.  0.
        -12    1    1    2    0    0 -0.24897235770E+02 -0.12681145314E+02  0.29537788838E+02  0.40659128925E+02  0.00000000000E+00 0.  1.
         11    1    3    3    0    0  0.93636626443E+01 -0.43532300447E+01 -0.11490832111E+01  0.10389859596E+02  0.51100000000E-03 0. -1.
        -11    1    3    3    0    0  0.43642777456E+01  0.97703293049E-01  0.95121567811E+00  0.44678045729E+01  0.51100000000E-03 0.  1.
         12    1    3    3    0    0  0.11169295380E+02  0.16936672065E+02 -0.29339921305E+02  0.35671206906E+02  0.00000000000E+00 0. -1.
</event>
<event>
 7    1  0.9720103E-013  0.5052885E+02  0.7816164E-02  0.1300439E+00
        -11   -1    0    0    0    0  0.00000000000E+00  0.00000000000E+00  0.45593999997E+02  0.45594000000E+02  0.51100000000E-03 0. -1.
         11   -1    0    0    0    0 -0.00000000000E+00 -0.00000000000E+00 -0.45593999997E+02  0.45594000000E+02  0.51100000000E-03 0.  1.
    9900012    2    1    2    0    0  0.11085676364E+02  0.29983629388E+02  0.25124809738E+02  0.50528852000E+02  0.29999976140E+02 0.  0.
        -12    1    1    2    0    0 -0.11085676364E+02 -0.29983629388E+02 -0.25124809738E+02  0.40659148000E+02  0.00000000000E+00 0.  1.
         11    1    3    3    0    0  0.46160825828E+01  0.22015871099E+02  0.56845854069E+01  0.23201752309E+02  0.51100000000E-03 0. -1.
        -11    1    3    3    0    0  0.90703814509E+01 -0.20660988895E+00  0.45668106288E+01  0.10157276549E+02  0.51100000000E-03 0.  1.
         12    1    3    3    0    0 -0.26007876696E+01  0.81743681772E+01  0.14873413702E+02  0.17169823143E+02  0.00000000000E+00 0. -1.
</event>
<event>
 7    1  0.9406864E-013  0.5052889E+02  0.7816164E-02  0.1300439E+00
        -11   -1    0    0    0    0  0.00000000000E+00  0.00000000000E+00  0.45593999997E+02  0.45594000000E+02  0.51100000000E-03 0.  1.
         11   -1    0    0    0    0 -0.00000000000E+00 -0.00000000000E+00 -0.45593999997E+02  0.45594000000E+02  0.51100000000E-03 0. -1.
    9900012    2    1    2    0    0 -0.32612844259E+02 -0.82248985455E+01 -0.22845498708E+02  0.50528888131E+02  0.30000085963E+02 0.  0.
        -12    1    1    2    0    0  0.32612844259E+02  0.82248985455E+01  0.22845498708E+02  0.40659111869E+02  0.00000000000E+00 0.  1.
         11    1    3    3    0    0 -0.15665031962E+02 -0.74032505677E+01 -0.27638615408E+02  0.32620459948E+02  0.51100000000E-03 0. -1.
        -11    1    3    3    0    0 -0.11850816746E+02  0.63956171372E+00  0.24844948773E+01  0.12125329348E+02  0.51100000000E-03 0.  1.
        -12    1    3    3    0    0 -0.50969955516E+01 -0.14612096916E+01  0.23086218227E+01  0.57830988350E+01  0.00000000000E+00 0.  1.
</event>
<event>
 7    1  0.9406864E-013  0.5052886E+02  0.7816164E-02  0.1300439E+00
        -11   -1    0    0    0    0  0.00000000000E+00  0.00000000000E+00  0.45593999997E+02  0.45594000000E+02  0.51100000000E-03 0.  1.
         11   -1    0    0    0    0 -0.00000000000E+00 -0.00000000000E+00 -0.45593999997E+02  0.45594000000E+02  0.51100000000E-03 0. -1.
    9900012    2    1    2    0    0  0.31211480055E+02  0.21862376420E+02 -0.14179063754E+02  0.50528857869E+02  0.29999993978E+02 0.  0.
        -12    1    1    2    0    0 -0.31211480055E+02 -0.21862376420E+02  0.14179063754E+02  0.40659142131E+02  0.00000000000E+00 0.  1.
         11    1    3    3    0    0  0.40273254408E+00  0.30130584857E+01 -0.99977970816E+01  0.10449720651E+02  0.51100000000E-03 0. -1.
        -11    1    3    3    0    0  0.12658662971E+02  0.34617277023E+01  0.57078132332E+01  0.14310990149E+02  0.51100000000E-03 0.  1.
        -12    1    3    3    0    0  0.18150084540E+02  0.15387590232E+02 -0.98890799055E+01  0.25768147068E+02  0.00000000000E+00 0.  1.
</event>
<event>
 7    1  0.9406864E-013  0.5052885E+02  0.7816164E-02  0.1300439E+00
        -11   -1    0    0    0    0  0.00000000000E+00  0.00000000000E+00  0.45593999997E+02  0.45594000000E+02  0.51100000000E-03 0. -1.
         11   -1    0    0    0    0 -0.00000000000E+00 -0.00000000000E+00 -0.45593999997E+02  0.45594000000E+02  0.51100000000E-03 0.  1.
    9900012    2    1    2    0    0 -0.94329358416E+01 -0.18960844024E+02  0.34708388878E+02  0.50528854126E+02  0.29999982601E+02 0.  0.
        -12    1    1    2    0    0  0.94329358416E+01  0.18960844024E+02 -0.34708388878E+02  0.40659145874E+02  0.00000000000E+00 0.  1.
         11    1    3    3    0    0 -0.19444781486E+02 -0.10851171044E+02  0.19334847725E+02  0.29490401436E+02  0.51100000000E-03 0. -1.
        -11    1    3    3    0    0  0.87602469284E+01 -0.32948255277E+01  0.94048188550E+01  0.13268323913E+02  0.51100000000E-03 0.  1.
         12    1    3    3    0    0  0.12515987156E+01 -0.48148474521E+01  0.59687222987E+01  0.77701287770E+01  0.00000000000E+00 0. -1.
</event>
<event>
 7    1  0.9406864E-013  0.5052886E+02  0.7816164E-02  0.1300439E+00
        -11   -1    0    0    0    0  0.00000000000E+00  0.00000000000E+00  0.45593999997E+02  0.45594000000E+02  0.51100000000E-03 0.  1.
         11   -1    0    0    0    0 -0.00000000000E+00 -0.00000000000E+00 -0.45593999997E+02  0.45594000000E+02  0.51100000000E-03 0. -1.
    9900012    2    1    2    0    0  0.95784681041E+01 -0.16182295595E+02 -0.36049303081E+02  0.50528855954E+02  0.29999988158E+02 0.  0.
        -12    1    1    2    0    0 -0.95784681041E+01  0.16182295595E+02  0.36049303081E+02  0.40659144046E+02  0.00000000000E+00 0.  1.
         11    1    3    3    0    0 -0.62316467426E+01 -0.94745946718E+01 -0.10478728873E+02  0.15440373194E+02  0.51100000000E-03 0. -1.
        -11    1    3    3    0    0  0.17339694128E+01  0.52664997371E+01 -0.61446156393E+01  0.82764105155E+01  0.51100000000E-03 0.  1.
        -12    1    3    3    0    0  0.14076145434E+02 -0.11974200660E+02 -0.19425958569E+02  0.26812072244E+02  0.00000000000E+00 0.  1.
</event>
<event>
 7    1  0.9406864E-013  0.5052886E+02  0.7816164E-02  0.1300439E+00
        -11   -1    0    0    0    0  0.00000000000E+00  0.00000000000E+00  0.45593999997E+02  0.45594000000E+02  0.51100000000E-03 0.  1.
         11   -1    0    0    0    0 -0.00000000000E+00 -0.00000000000E+00 -0.45593999997E+02  0.45594000000E+02  0.51100000000E-03 0. -1.
    9900012    2    1    2    0    0 -0.24306608851E+01 -0.34196999845E+02  0.21859153483E+02  0.50528862014E+02  0.30000006579E+02 0.  0.
        -12    1    1    2    0    0  0.24306608851E+01  0.34196999845E+02 -0.21859153483E+02  0.40659137986E+02  0.00000000000E+00 0.  1.
         11    1    3    3    0    0  0.77735982931E+01 -0.37751947769E+00 -0.14062296292E+01  0.79087820434E+01  0.51100000000E-03 0. -1.
        -11    1    3    3    0    0 -0.67339804692E+01 -0.13480100810E+02  0.10267166644E+02  0.18233878413E+02  0.51100000000E-03 0.  1.
         12    1    3    3    0    0 -0.34702787090E+01 -0.20339379557E+02  0.12998216468E+02  0.24386201558E+02  0.00000000000E+00 0. -1.
</event>
<event>
 7    1  0.9406864E-013  0.5052886E+02  0.7816164E-02  0.1300439E+00
        -11   -1    0    0    0    0  0.00000000000E+00  0.00000000000E+00  0.45593999997E+02  0.45594000000E+02  0.51100000000E-03 0. -1.
         11   -1    0    0    0    0 -0.00000000000E+00 -0.00000000000E+00 -0.45593999997E+02  0.45594000000E+02  0.51100000000E-03 0.  1.
    9900012    2    1    2    0    0  0.17291163901E+02 -0.32004506802E+00  0.36797805935E+02  0.50528864501E+02  0.30000014139E+02 0.  0.
        -12    1    1    2    0    0 -0.17291163901E+02  0.32004506802E+00 -0.36797805935E+02  0.40659135499E+02  0.00000000000E+00 0.  1.
         11    1    3    3    0    0  0.10455007612E+02 -0.49314364204E+01  0.13770542699E+01  0.11641414350E+02  0.51100000000E-03 0. -1.
        -11    1    3    3    0    0  0.39724203909E+01  0.25662914724E+01  0.35028881708E+02  0.35346690505E+02  0.51100000000E-03 0.  1.
        -12    1    3    3    0    0  0.28637358976E+01  0.20450998800E+01  0.39186995656E+00  0.35407596464E+01  0.00000000000E+00 0.  1.
</event>
<event>
 7    1  0.9406864E-013  0.5052887E+02  0.7816164E-02  0.1300439E+00
        -11   -1    0    0    0    0  0.00000000000E+00  0.00000000000E+00  0.45593999997E+02  0.45594000000E+02  0.51100000000E-03 0.  1.
         11   -1    0    0    0    0 -0.00000000000E+00 -0.00000000000E+00 -0.45593999997E+02  0.45594000000E+02  0.51100000000E-03 0. -1.
    9900012    2    1    2    0    0  0.47717998136E+01 -0.10746819987E+02 -0.38921729238E+02  0.50528865477E+02  0.30000017103E+02 0.  0.
        -12    1    1    2    0    0 -0.47717998136E+01  0.10746819987E+02  0.38921729238E+02  0.40659134523E+02  0.00000000000E+00 0.  1.
         11    1    3    3    0    0 -0.39457823776E+01 -0.91873993816E+01 -0.25501121324E+02  0.27391325178E+02  0.51100000000E-03 0.  1.
        -11    1    3    3    0    0  0.53985229883E+00 -0.77815150126E+00  0.38755664174E+01  0.39896084495E+01  0.51100000000E-03 0. -1.
         12    1    3    3    0    0  0.81777298924E+01 -0.78126910456E+00 -0.17296174331E+02  0.19147931849E+02  0.00000000000E+00 0. -1.
</event>
<event>
 7    1  0.2312675E-012  0.5052886E+02  0.7816164E-02  0.1300439E+00
        -11   -1    0    0    0    0  0.00000000000E+00  0.00000000000E+00  0.45593999997E+02  0.45594000000E+02  0.51100000000E-03 0.  1.
         11   -1    0    0    0    0 -0.00000000000E+00 -0.00000000000E+00 -0.45593999997E+02  0.45594000000E+02  0.51100000000E-03 0. -1.
    9900012    2    1    2    0    0  0.36992662414E+02 -0.38376416322E+01 -0.16431100856E+02  0.50528860301E+02  0.30000001370E+02 0.  0.
        -12    1    1    2    0    0 -0.36992662414E+02  0.38376416322E+01  0.16431100856E+02  0.40659139699E+02  0.00000000000E+00 0.  1.
         11    1    3    3    0    0  0.21771307432E+02 -0.11371411001E+02 -0.61361808534E+01  0.25317020582E+02  0.51100000000E-03 0. -1.
        -11    1    3    3    0    0 -0.28608918967E+01  0.16987437483E+01  0.49132961496E+00  0.33633075712E+01  0.51100000000E-03 0.  1.
         12    1    3    3    0    0  0.18082246879E+02  0.58350256206E+01 -0.10786249617E+02  0.21848532147E+02  0.00000000000E+00 0. -1.
</event>
<event>
 7    1  0.9406864E-013  0.5052886E+02  0.7816164E-02  0.1300439E+00
        -11   -1    0    0    0    0  0.00000000000E+00  0.00000000000E+00  0.45593999997E+02  0.45594000000E+02  0.51100000000E-03 0. -1.
         11   -1    0    0    0    0 -0.00000000000E+00 -0.00000000000E+00 -0.45593999997E+02  0.45594000000E+02  0.51100000000E-03 0.  1.
    9900012    2    1    2    0    0 -0.23845906137E+02 -0.27910254717E+02 -0.17480153605E+02  0.50528864152E+02  0.30000013077E+02 0.  0.
        -12    1    1    2    0    0  0.23845906137E+02  0.27910254717E+02  0.17480153605E+02  0.40659135848E+02  0.00000000000E+00 0.  1.
         11    1    3    3    0    0 -0.41386318944E+01 -0.91747016125E+01 -0.68475616628E+01  0.12173435202E+02  0.51100000000E-03 0. -1.
        -11    1    3    3    0    0 -0.19533263692E+02 -0.11665793374E+02  0.30481454560E+01  0.22954962786E+02  0.51100000000E-03 0.  1.
        -12    1    3    3    0    0 -0.17401055036E+00 -0.70697597299E+01 -0.13680737399E+02  0.15400466164E+02  0.00000000000E+00 0.  1.
</event>
<event>
 7    1  0.9406864E-013  0.5052886E+02  0.7816164E-02  0.1300439E+00
        -11   -1    0    0    0    0  0.00000000000E+00  0.00000000000E+00  0.45593999997E+02  0.45594000000E+02  0.51100000000E-03 0. -1.
         11   -1    0    0    0    0 -0.00000000000E+00 -0.00000000000E+00 -0.45593999997E+02  0.45594000000E+02  0.51100000000E-03 0.  1.
    9900012    2    1    2    0    0  0.25721472509E+02 -0.21121567945E+02  0.23354897229E+02  0.50528855825E+02  0.29999987765E+02 0.  0.
        -12    1    1    2    0    0 -0.25721472509E+02  0.21121567945E+02 -0.23354897229E+02  0.40659144175E+02  0.00000000000E+00 0.  1.
         11    1    3    3    0    0  0.19669388356E+02 -0.94052815384E+00  0.21355881949E+02  0.29048978047E+02  0.51100000000E-03 0. -1.
        -11    1    3    3    0    0  0.39640321088E+01 -0.72683729334E+01  0.24776443179E+00  0.82827642206E+01  0.51100000000E-03 0.  1.
         12    1    3    3    0    0  0.20880520451E+01 -0.12912666857E+02  0.17512508476E+01  0.13197113557E+02  0.00000000000E+00 0. -1.
</event>
<event>
 7    1  0.9406864E-013  0.5052886E+02  0.7816164E-02  0.1300439E+00
        -11   -1    0    0    0    0  0.00000000000E+00  0.00000000000E+00  0.45593999997E+02  0.45594000000E+02  0.51100000000E-03 0.  1.
         11   -1    0    0    0    0 -0.00000000000E+00 -0.00000000000E+00 -0.45593999997E+02  0.45594000000E+02  0.51100000000E-03 0. -1.
    9900012    2    1    2    0    0  0.38920480385E+01  0.26094447333E+02 -0.30936996953E+02  0.50528855887E+02  0.29999987954E+02 0.  0.
        -12    1    1    2    0    0 -0.38920480385E+01 -0.26094447333E+02  0.30936996953E+02  0.40659144113E+02  0.00000000000E+00 0.  1.
         11    1    3    3    0    0  0.70478825889E+01  0.63588685509E+01 -0.22698668981E+02  0.24603606077E+02  0.51100000000E-03 0. -1.
        -11    1    3    3    0    0 -0.86452067862E+01  0.88429752298E+01 -0.36649194474E+01  0.12898428048E+02  0.51100000000E-03 0.  1.
        -12    1    3    3    0    0  0.54893722358E+01  0.10892603552E+02 -0.45734085250E+01  0.13026821762E+02  0.00000000000E+00 0.  1.
</event>
<event>
 7    1  0.9406864E-013  0.5052885E+02  0.7816164E-02  0.1300439E+00
        -11   -1    0    0    0    0  0.00000000000E+00  0.00000000000E+00  0.45593999997E+02  0.45594000000E+02  0.51100000000E-03 0.  1.
         11   -1    0    0    0    0 -0.00000000000E+00 -0.00000000000E+00 -0.45593999997E+02  0.45594000000E+02  0.51100000000E-03 0. -1.
    9900012    2    1    2    0    0 -0.15478866038E+02 -0.94419803088E+01 -0.36392580020E+02  0.50528853840E+02  0.29999981731E+02 0.  0.
        -12    1    1    2    0    0  0.15478866038E+02  0.94419803088E+01  0.36392580020E+02  0.40659146160E+02  0.00000000000E+00 0.  1.
         11    1    3    3    0    0 -0.23424986719E+01 -0.68026274713E+01 -0.46634239625E+01  0.85738301743E+01  0.51100000000E-03 0. -1.
        -11    1    3    3    0    0 -0.38857321787E+01  0.10594611027E+02 -0.12301045594E+02  0.16693124942E+02  0.51100000000E-03 0.  1.
        -12    1    3    3    0    0 -0.92506351871E+01 -0.13233963864E+02 -0.19428110464E+02  0.25261898723E+02  0.00000000000E+00 0.  1.
</event>
<event>
 7    1  0.9406864E-013  0.5052887E+02  0.7816164E-02  0.1300439E+00
        -11   -1    0    0    0    0  0.00000000000E+00  0.00000000000E+00  0.45593999997E+02  0.45594000000E+02  0.51100000000E-03 0. -1.
         11   -1    0    0    0    0 -0.00000000000E+00 -0.00000000000E+00 -0.45593999997E+02  0.45594000000E+02  0.51100000000E-03 0.  1.
    9900012    2    1    2    0    0  0.90139107938E+00  0.37191286473E+02  0.16406115551E+02  0.50528869133E+02  0.30000028217E+02 0.  0.
        -12    1    1    2    0    0 -0.90139107938E+00 -0.37191286473E+02 -0.16406115551E+02  0.40659130867E+02  0.00000000000E+00 0.  1.
         11    1    3    3    0    0 -0.87786040943E-01  0.30538394232E+02  0.19918309268E+02  0.36460118939E+02  0.51100000000E-03 0. -1.
        -11    1    3    3    0    0  0.57610910998E+01  0.17396589624E+01  0.65169216217E+00  0.60532046802E+01  0.51100000000E-03 0.  1.
         12    1    3    3    0    0 -0.47719139795E+01  0.49132332780E+01 -0.41638858793E+01  0.80155455140E+01  0.00000000000E+00 0. -1.
</event>
<event>
 7    1  0.9406864E-013  0.5052884E+02  0.7816164E-02  0.1300439E+00
        -11   -1    0    0    0    0  0.00000000000E+00  0.00000000000E+00  0.45593999997E+02  0.45594000000E+02  0.51100000000E-03 0.  1.
         11   -1    0    0    0    0 -0.00000000000E+00 -0.00000000000E+00 -0.45593999997E+02  0.45594000000E+02  0.51100000000E-03 0. -1.
    9900012    2    1    2    0    0  0.46961184201E+01 -0.37098548012E+02 -0.15962810137E+02  0.50528842356E+02  0.29999946826E+02 0.  0.
        -12    1    1    2    0    0 -0.46961184201E+01  0.37098548012E+02  0.15962810137E+02  0.40659157644E+02  0.00000000000E+00 0.  1.
         11    1    3    3    0    0 -0.96808844586E+01 -0.64878842440E+01 -0.14367827088E+01  0.11742082893E+02  0.51100000000E-03 0. -1.
        -11    1    3    3    0    0  0.13160792959E+02 -0.16152243922E+02 -0.49906046535E+01  0.21424462423E+02  0.51100000000E-03 0.  1.
         12    1    3    3    0    0  0.12162099195E+01 -0.14458419846E+02 -0.95354227747E+01  0.17362297040E+02  0.00000000000E+00 0. -1.
</event>
<event>
 7    1  0.9406864E-013  0.5052886E+02  0.7816164E-02  0.1300439E+00
        -11   -1    0    0    0    0  0.00000000000E+00  0.00000000000E+00  0.45593999997E+02  0.45594000000E+02  0.51100000000E-03 0.  1.
         11   -1    0    0    0    0 -0.00000000000E+00 -0.00000000000E+00 -0.45593999997E+02  0.45594000000E+02  0.51100000000E-03 0. -1.
    9900012    2    1    2    0    0 -0.24201973247E+01  0.37012938956E+02  0.16653850634E+02  0.50528859009E+02  0.29999997443E+02 0.  0.
        -12    1    1    2    0    0  0.24201973247E+01 -0.37012938956E+02 -0.16653850634E+02  0.40659140991E+02  0.00000000000E+00 0.  1.
         11    1    3    3    0    0  0.54055688116E+01  0.30515779597E+02  0.74853688336E+01  0.31882028251E+02  0.51100000000E-03 0. -1.
        -11    1    3    3    0    0 -0.23784864835E+01  0.62686919791E+01  0.11011122306E+02  0.12891800176E+02  0.51100000000E-03 0.  1.
         12    1    3    3    0    0 -0.54472796528E+01  0.22846737995E+00 -0.18426405061E+01  0.57550305815E+01  0.00000000000E+00 0. -1.
</event>
<event>
 7    1  0.9406864E-013  0.5052886E+02  0.7816164E-02  0.1300439E+00
        -11   -1    0    0    0    0  0.00000000000E+00  0.00000000000E+00  0.45593999997E+02  0.45594000000E+02  0.51100000000E-03 0.  1.
         11   -1    0    0    0    0 -0.00000000000E+00 -0.00000000000E+00 -0.45593999997E+02  0.45594000000E+02  0.51100000000E-03 0. -1.
    9900012    2    1    2    0    0 -0.18272926407E+02 -0.83073228163E+01 -0.35358932445E+02  0.50528861353E+02  0.30000004569E+02 0.  0.
        -12    1    1    2    0    0  0.18272926407E+02  0.83073228163E+01  0.35358932445E+02  0.40659138647E+02  0.00000000000E+00 0.  1.
         11    1    3    3    0    0  0.36144403480E+01  0.23839851097E+01 -0.11072696333E+02  0.11889161803E+02  0.51100000000E-03 0. -1.
        -11    1    3    3    0    0 -0.23188690440E+02 -0.48597091026E+01 -0.16717191354E+02  0.28996493303E+02  0.51100000000E-03 0.  1.
        -12    1    3    3    0    0  0.13013236844E+01 -0.58315988233E+01 -0.75690447579E+01  0.96432062466E+01  0.00000000000E+00 0.  1.
</event>
<event>
 7    1  0.9406864E-013  0.5052886E+02  0.7816164E-02  0.1300439E+00
        -11   -1    0    0    0    0  0.00000000000E+00  0.00000000000E+00  0.45593999997E+02  0.45594000000E+02  0.51100000000E-03 0.  1.
         11   -1    0    0    0    0 -0.00000000000E+00 -0.00000000000E+00 -0.45593999997E+02  0.45594000000E+02  0.51100000000E-03 0. -1.
    9900012    2    1    2    0    0  0.64828337747E+01 -0.35727833473E+02 -0.18293732744E+02  0.50528857410E+02  0.29999992584E+02 0.  0.
        -12    1    1    2    0    0 -0.64828337747E+01  0.35727833473E+02  0.18293732744E+02  0.40659142590E+02  0.00000000000E+00 0.  1.
         11    1    3    3    0    0  0.74908456530E+01 -0.33058423591E+02 -0.17763243711E+02  0.38268851124E+02  0.51100000000E-03 0. -1.
        -11    1    3    3    0    0 -0.46968201789E+01 -0.33514092521E+01  0.35043227740E+01  0.67507290076E+01  0.51100000000E-03 0.  1.
        -12    1    3    3    0    0  0.36888083006E+01  0.68199936993E+00 -0.40348118070E+01  0.55092772790E+01  0.00000000000E+00 0.  1.
</event>
<event>
 7    1  0.9406864E-013  0.5052887E+02  0.7816164E-02  0.1300439E+00
        -11   -1    0    0    0    0  0.00000000000E+00  0.00000000000E+00  0.45593999997E+02  0.45594000000E+02  0.51100000000E-03 0.  1.
         11   -1    0    0    0    0 -0.00000000000E+00 -0.00000000000E+00 -0.45593999997E+02  0.45594000000E+02  0.51100000000E-03 0. -1.
    9900012    2    1    2    0    0  0.24265584309E+02  0.29675552275E+02 -0.13553880155E+02  0.50528872464E+02  0.30000038343E+02 0.  0.
        -12    1    1    2    0    0 -0.24265584309E+02 -0.29675552275E+02  0.13553880155E+02  0.40659127536E+02  0.00000000000E+00 0.  1.
         11    1    3    3    0    0  0.11963983721E+02  0.42133336952E+01  0.41799380178E+01  0.13355185113E+02  0.51100000000E-03 0. -1.
        -11    1    3    3    0    0  0.62611877960E+01  0.12408245907E+02 -0.18056802652E+02  0.22786293278E+02  0.51100000000E-03 0.  1.
        -12    1    3    3    0    0  0.60404127920E+01  0.13053972673E+02  0.32298447843E+00  0.14387394073E+02  0.00000000000E+00 0.  1.
</event>
<event>
 7    1  0.1453527E-012  0.5052882E+02  0.7816164E-02  0.1300439E+00
        -11   -1    0    0    0    0  0.00000000000E+00  0.00000000000E+00  0.45593999997E+02  0.45594000000E+02  0.51100000000E-03 0. -1.
         11   -1    0    0    0    0 -0.00000000000E+00 -0.00000000000E+00 -0.45593999997E+02  0.45594000000E+02  0.51100000000E-03 0.  1.
    9900012    2    1    2    0    0 -0.44951387140E+01  0.34640105773E+02  0.20809260751E+02  0.50528824738E+02  0.29999893273E+02 0.  0.
        -12    1    1    2    0    0  0.44951387140E+01 -0.34640105773E+02 -0.20809260751E+02  0.40659175262E+02  0.00000000000E+00 0.  1.
         11    1    3    3    0    0 -0.10806041446E+02  0.25598167168E+02  0.17052342770E+02  0.32600906250E+02  0.51100000000E-03 0. -1.
        -11    1    3    3    0    0  0.24816880446E+01  0.24368401233E+01 -0.51387634670E+01  0.62051475057E+01  0.51100000000E-03 0.  1.
         12    1    3    3    0    0  0.38292146877E+01  0.66050984812E+01  0.88956814487E+01  0.11722770982E+02  0.00000000000E+00 0. -1.
</event>
<event>
 7    1  0.9406864E-013  0.5052886E+02  0.7816164E-02  0.1300439E+00
        -11   -1    0    0    0    0  0.00000000000E+00  0.00000000000E+00  0.45593999997E+02  0.45594000000E+02  0.51100000000E-03 0.  1.
         11   -1    0    0    0    0 -0.00000000000E+00 -0.00000000000E+00 -0.45593999997E+02  0.45594000000E+02  0.51100000000E-03 0. -1.
    9900012    2    1    2    0    0  0.82783097163E+01 -0.38643176492E+02 -0.95572110670E+01  0.50528858537E+02  0.29999996008E+02 0.  0.
        -12    1    1    2    0    0 -0.82783097163E+01  0.38643176492E+02  0.95572110670E+01  0.40659141463E+02  0.00000000000E+00 0.  1.
         11    1    3    3    0    0 -0.81959446430E+01 -0.13680826193E+02 -0.86093575260E+01  0.18123453070E+02  0.51100000000E-03 0. -1.
        -11    1    3    3    0    0  0.36310551580E+01  0.69511381881E+00  0.10746292477E-01  0.36970069686E+01  0.51100000000E-03 0.  1.
         12    1    3    3    0    0  0.12843199201E+02 -0.25657464118E+02 -0.95859983346E+00  0.28708398498E+02  0.00000000000E+00 0. -1.
</event>
<event>
 7    1  0.9950524E-013  0.5052884E+02  0.7816164E-02  0.1300439E+00
        -11   -1    0    0    0    0  0.00000000000E+00  0.00000000000E+00  0.45593999997E+02  0.45594000000E+02  0.51100000000E-03 0. -1.
         11   -1    0    0    0    0 -0.00000000000E+00 -0.00000000000E+00 -0.45593999997E+02  0.45594000000E+02  0.51100000000E-03 0.  1.
    9900012    2    1    2    0    0  0.92104794432E+01 -0.57359393465E+01  0.39184601173E+02  0.50528844809E+02  0.29999954283E+02 0.  0.
        -12    1    1    2    0    0 -0.92104794432E+01  0.57359393465E+01 -0.39184601173E+02  0.40659155191E+02  0.00000000000E+00 0.  1.
         11    1    3    3    0    0  0.32665506359E+01  0.78221782990E+00  0.29358127893E+02  0.29549651291E+02  0.51100000000E-03 0. -1.
        -11    1    3    3    0    0 -0.56755776736E+00  0.19620395090E+01 -0.34033251539E+01  0.39691741230E+01  0.51100000000E-03 0.  1.
         12    1    3    3    0    0  0.65114865746E+01 -0.84801966854E+01  0.13229798434E+02  0.17010019396E+02  0.00000000000E+00 0. -1.
</event>
<event>
 7    1  0.9406864E-013  0.5052884E+02  0.7816164E-02  0.1300439E+00
        -11   -1    0    0    0    0  0.00000000000E+00  0.00000000000E+00  0.45593999997E+02  0.45594000000E+02  0.51100000000E-03 0. -1.
         11   -1    0    0    0    0 -0.00000000000E+00 -0.00000000000E+00 -0.45593999997E+02  0.45594000000E+02  0.51100000000E-03 0.  1.
    9900012    2    1    2    0    0 -0.23334299953E+02  0.33165272452E+02 -0.29567055328E+01  0.50528844097E+02  0.29999952117E+02 0.  0.
        -12    1    1    2    0    0  0.23334299953E+02 -0.33165272452E+02  0.29567055328E+01  0.40659155903E+02  0.00000000000E+00 0.  1.
         11    1    3    3    0    0 -0.10252539319E+02  0.19129467590E+02 -0.92047983586E+01  0.23574974143E+02  0.51100000000E-03 0. -1.
        -11    1    3    3    0    0 -0.12128171215E+02  0.14072235124E+02  0.11345515764E+02  0.21767890725E+02  0.51100000000E-03 0.  1.
        -12    1    3    3    0    0 -0.95358941983E+00 -0.36430261582E-01 -0.50974229387E+01  0.51859792288E+01  0.00000000000E+00 0.  1.
</event>
<event>
 7    1  0.9406864E-013  0.5052887E+02  0.7816164E-02  0.1300439E+00
        -11   -1    0    0    0    0  0.00000000000E+00  0.00000000000E+00  0.45593999997E+02  0.45594000000E+02  0.51100000000E-03 0.  1.
         11   -1    0    0    0    0 -0.00000000000E+00 -0.00000000000E+00 -0.45593999997E+02  0.45594000000E+02  0.51100000000E-03 0. -1.
    9900012    2    1    2    0    0 -0.38978514467E+02 -0.80545498683E+01 -0.83044772540E+01  0.50528871799E+02  0.30000036320E+02 0.  0.
        -12    1    1    2    0    0  0.38978514467E+02  0.80545498683E+01  0.83044772540E+01  0.40659128201E+02  0.00000000000E+00 0.  1.
         11    1    3    3    0    0 -0.18348678604E+02 -0.10534083194E+02 -0.16326795770E+02  0.26724617408E+02  0.51100000000E-03 0. -1.
        -11    1    3    3    0    0 -0.18243334676E+02  0.44267239606E+01  0.48638492666E+01  0.19392580413E+02  0.51100000000E-03 0.  1.
         12    1    3    3    0    0 -0.23865011869E+01 -0.19471906354E+01  0.31584692495E+01  0.44116739777E+01  0.00000000000E+00 0. -1.
</event>
<event>
 7    1  0.9406864E-013  0.5052887E+02  0.7816164E-02  0.1300439E+00
        -11   -1    0    0    0    0  0.00000000000E+00  0.00000000000E+00  0.45593999997E+02  0.45594000000E+02  0.51100000000E-03 0.  1.
         11   -1    0    0    0    0 -0.00000000000E+00 -0.00000000000E+00 -0.45593999997E+02  0.45594000000E+02  0.51100000000E-03 0. -1.
    9900012    2    1    2    0    0 -0.93896396196E+00 -0.41583706091E+01 -0.40435027953E+02  0.50528865910E+02  0.30000018419E+02 0.  0.
        -12    1    1    2    0    0  0.93896396196E+00  0.41583706091E+01  0.40435027953E+02  0.40659134090E+02  0.00000000000E+00 0.  1.
         11    1    3    3    0    0 -0.53147334613E+01 -0.79575301725E+01 -0.36771352181E+02  0.37996065845E+02  0.51100000000E-03 0. -1.
        -11    1    3    3    0    0  0.35338270493E+01  0.74316682517E+01 -0.29110816049E+01  0.87288042130E+01  0.51100000000E-03 0.  1.
        -12    1    3    3    0    0  0.84194245004E+00 -0.36325086883E+01 -0.75259416679E+00  0.38039958517E+01  0.00000000000E+00 0.  1.
</event>
<event>
 7    1  0.9406864E-013  0.5052883E+02  0.7816164E-02  0.1300439E+00
        -11   -1    0    0    0    0  0.00000000000E+00  0.00000000000E+00  0.45593999997E+02  0.45594000000E+02  0.51100000000E-03 0.  1.
         11   -1    0    0    0    0 -0.00000000000E+00 -0.00000000000E+00 -0.45593999997E+02  0.45594000000E+02  0.51100000000E-03 0. -1.
    9900012    2    1    2    0    0 -0.26875489963E+02 -0.11289840275E+02 -0.28344588858E+02  0.50528829180E+02  0.29999906776E+02 0.  0.
        -12    1    1    2    0    0  0.26875489963E+02  0.11289840275E+02  0.28344588858E+02  0.40659170820E+02  0.00000000000E+00 0.  1.
         11    1    3    3    0    0 -0.28271603441E+00  0.30194399432E-01 -0.20250881273E+02  0.20252877145E+02  0.51100000000E-03 0. -1.
        -11    1    3    3    0    0 -0.14312946633E+02 -0.39953962999E+01 -0.46181185225E+01  0.15561190567E+02  0.51100000000E-03 0.  1.
         12    1    3    3    0    0 -0.12279827295E+02 -0.73246383750E+01 -0.34755890630E+01  0.14714761468E+02  0.00000000000E+00 0. -1.
</event>
<event>
 7    1  0.9406864E-013  0.5052885E+02  0.7816164E-02  0.1300439E+00
        -11   -1    0    0    0    0  0.00000000000E+00  0.00000000000E+00  0.45593999997E+02  0.45594000000E+02  0.51100000000E-03 0.  1.
         11   -1    0    0    0    0 -0.00000000000E+00 -0.00000000000E+00 -0.45593999997E+02  0.45594000000E+02  0.51100000000E-03 0. -1.
    9900012    2    1    2    0    0 -0.60742825074E+01  0.40163007895E+02  0.17894039044E+01  0.50528854934E+02  0.29999985058E+02 0.  0.
        -12    1    1    2    0    0  0.60742825074E+01 -0.40163007895E+02 -0.17894039044E+01  0.40659145066E+02  0.00000000000E+00 0.  1.
         11    1    3    3    0    0 -0.14175067959E+02  0.33929686270E+02  0.24735356049E+01  0.36854776362E+02  0.51100000000E-03 0. -1.
        -11    1    3    3    0    0  0.84813159686E+01  0.12045738141E+01 -0.97987618973E+00  0.86222895011E+01  0.51100000000E-03 0.  1.
        -12    1    3    3    0    0 -0.38053051733E+00  0.50287478107E+01  0.29574448924E+00  0.50517890713E+01  0.00000000000E+00 0.  1.
</event>
<event>
 7    1  0.9406864E-013  0.5052888E+02  0.7816164E-02  0.1300439E+00
        -11   -1    0    0    0    0  0.00000000000E+00  0.00000000000E+00  0.45593999997E+02  0.45594000000E+02  0.51100000000E-03 0.  1.
         11   -1    0    0    0    0 -0.00000000000E+00 -0.00000000000E+00 -0.45593999997E+02  0.45594000000E+02  0.51100000000E-03 0. -1.
    9900012    2    1    2    0    0  0.11568299770E+02  0.22155204881E+01 -0.38915677611E+02  0.50528879811E+02  0.30000060673E+02 0.  0.
        -12    1    1    2    0    0 -0.11568299770E+02 -0.22155204881E+01  0.38915677611E+02  0.40659120189E+02  0.00000000000E+00 0.  1.
         11    1    3    3    0    0  0.19397568202E+02  0.29501989880E+01 -0.19535488290E+02  0.27687625922E+02  0.51100000000E-03 0. -1.
        -11    1    3    3    0    0 -0.46862909241E+01 -0.49559385787E+01 -0.10616207082E+02  0.12618498440E+02  0.51100000000E-03 0.  1.
        -12    1    3    3    0    0 -0.31429775075E+01  0.42212600788E+01 -0.87639822398E+01  0.10222755449E+02  0.00000000000E+00 0.  1.
</event>
<event>
 7    1  0.9406864E-013  0.5052886E+02  0.7816164E-02  0.1300439E+00
        -11   -1    0    0    0    0  0.00000000000E+00  0.00000000000E+00  0.45593999997E+02  0.45594000000E+02  0.51100000000E-03 0. -1.
         11   -1    0    0    0    0 -0.00000000000E+00 -0.00000000000E+00 -0.45593999997E+02  0.45594000000E+02  0.51100000000E-03 0.  1.
    9900012    2    1    2    0    0 -0.24976427839E+02  0.94356663312E+01  0.30664510216E+02  0.50528856705E+02  0.29999990441E+02 0.  0.
        -12    1    1    2    0    0  0.24976427839E+02 -0.94356663312E+01 -0.30664510216E+02  0.40659143295E+02  0.00000000000E+00 0.  1.
         11    1    3    3    0    0 -0.70558084782E+01 -0.14787398501E+00  0.98861159255E+01  0.12146669846E+02  0.51100000000E-03 0. -1.
        -11    1    3    3    0    0  0.57989050889E+01  0.44610004142E+01  0.84051808736E+01  0.11143378783E+02  0.51100000000E-03 0.  1.
        -12    1    3    3    0    0 -0.23719524449E+02  0.51225399020E+01  0.12373213416E+02  0.27238808076E+02  0.00000000000E+00 0.  1.
</event>
<event>
 7    1  0.9406864E-013  0.5052885E+02  0.7816164E-02  0.1300439E+00
        -11   -1    0    0    0    0  0.00000000000E+00  0.00000000000E+00  0.45593999997E+02  0.45594000000E+02  0.51100000000E-03 0.  1.
         11   -1    0    0    0    0 -0.00000000000E+00 -0.00000000000E+00 -0.45593999997E+02  0.45594000000E+02  0.51100000000E-03 0. -1.
    9900012    2    1    2    0    0 -0.31143319122E+02  0.57296951813E+01 -0.25503543226E+02  0.50528850355E+02  0.29999971138E+02 0.  0.
        -12    1    1    2    0    0  0.31143319122E+02 -0.57296951813E+01  0.25503543226E+02  0.40659149645E+02  0.00000000000E+00 0.  1.
         11    1    3    3    0    0 -0.18755850128E+02  0.60758643745E+00 -0.24717705832E+01  0.18927776557E+02  0.51100000000E-03 0. -1.
        -11    1    3    3    0    0  0.11910033618E+01  0.38154284301E+01 -0.15523998782E+02  0.16030300108E+02  0.51100000000E-03 0.  1.
        -12    1    3    3    0    0 -0.13578472356E+02  0.13066803138E+01 -0.75077738616E+01  0.15570773690E+02  0.00000000000E+00 0.  1.
</event>
<event>
 7    1  0.9406864E-013  0.5052886E+02  0.7816164E-02  0.1300439E+00
        -11   -1    0    0    0    0  0.00000000000E+00  0.00000000000E+00  0.45593999997E+02  0.45594000000E+02  0.51100000000E-03 0.  1.
         11   -1    0    0    0    0 -0.00000000000E+00 -0.00000000000E+00 -0.45593999997E+02  0.45594000000E+02  0.51100000000E-03 0. -1.
    9900012    2    1    2    0    0 -0.33311164962E+02  0.35195825200E+01 -0.23046571511E+02  0.50528860429E+02  0.30000001761E+02 0.  0.
        -12    1    1    2    0    0  0.33311164962E+02 -0.35195825200E+01  0.23046571511E+02  0.40659139571E+02  0.00000000000E+00 0.  1.
         11    1    3    3    0    0  0.45192046012E+01  0.57349146552E+00  0.96076036701E+00  0.46556592908E+01  0.51100000000E-03 0. -1.
        -11    1    3    3    0    0 -0.14152318274E+02  0.39347292170E+01 -0.50763535113E+01  0.15541543416E+02  0.51100000000E-03 0.  1.
         12    1    3    3    0    0 -0.23678051289E+02 -0.98863816245E+00 -0.18930978367E+02  0.30331657722E+02  0.00000000000E+00 0. -1.
</event>
<event>
 7    1  0.9406864E-013  0.5052886E+02  0.7816164E-02  0.1300439E+00
        -11   -1    0    0    0    0  0.00000000000E+00  0.00000000000E+00  0.45593999997E+02  0.45594000000E+02  0.51100000000E-03 0.  1.
         11   -1    0    0    0    0 -0.00000000000E+00 -0.00000000000E+00 -0.45593999997E+02  0.45594000000E+02  0.51100000000E-03 0. -1.
    9900012    2    1    2    0    0 -0.33735459021E+02 -0.30997113945E-01  0.22695446262E+02  0.50528862808E+02  0.30000008991E+02 0.  0.
        -12    1    1    2    0    0  0.33735459021E+02  0.30997113945E-01 -0.22695446262E+02  0.40659137192E+02  0.00000000000E+00 0.  1.
         11    1    3    3    0    0 -0.27304144081E+02  0.33798129914E+00  0.54735591754E+01  0.27849423076E+02  0.51100000000E-03 0. -1.
        -11    1    3    3    0    0  0.10046690554E+01  0.48303529584E+01  0.97431345512E+01  0.10921096133E+02  0.51100000000E-03 0.  1.
        -12    1    3    3    0    0 -0.74359839956E+01 -0.51993313715E+01  0.74787525358E+01  0.11758343599E+02  0.00000000000E+00 0.  1.
</event>
<event>
 7    1  0.9406864E-013  0.5052884E+02  0.7816164E-02  0.1300439E+00
        -11   -1    0    0    0    0  0.00000000000E+00  0.00000000000E+00  0.45593999997E+02  0.45594000000E+02  0.51100000000E-03 0. -1.
         11   -1    0    0    0    0 -0.00000000000E+00 -0.00000000000E+00 -0.45593999997E+02  0.45594000000E+02  0.51100000000E-03 0.  1.
    9900012    2    1    2    0    0 -0.18350234927E+02  0.34621861996E+02  0.10851851259E+02  0.50528842044E+02  0.29999945876E+02 0.  0.
        -12    1    1    2    0    0  0.18350234927E+02 -0.34621861996E+02 -0.10851851259E+02  0.40659157956E+02  0.00000000000E+00 0.  1.
         11    1    3    3    0    0 -0.75016671735E+01  0.16021934674E+02 -0.71860578052E+01  0.19094942475E+02  0.51100000000E-03 0.  1.
        -11    1    3    3    0    0  0.10556629243E+01  0.77419677798E+01  0.11807964895E+02  0.14159114539E+02  0.51100000000E-03 0. -1.
        -12    1    3    3    0    0 -0.11904230678E+02  0.10857959542E+02  0.62299441697E+01  0.17274785029E+02  0.00000000000E+00 0.  1.
</event>
<event>
 7    1  0.9406864E-013  0.5052886E+02  0.7816164E-02  0.1300439E+00
        -11   -1    0    0    0    0  0.00000000000E+00  0.00000000000E+00  0.45593999997E+02  0.45594000000E+02  0.51100000000E-03 0. -1.
         11   -1    0    0    0    0 -0.00000000000E+00 -0.00000000000E+00 -0.45593999997E+02  0.45594000000E+02  0.51100000000E-03 0.  1.
    9900012    2    1    2    0    0 -0.52517890946E+01 -0.28564836924E+02  0.28454069345E+02  0.50528864994E+02  0.30000015634E+02 0.  0.
        -12    1    1    2    0    0  0.52517890946E+01  0.28564836924E+02 -0.28454069345E+02  0.40659135006E+02  0.00000000000E+00 0.  1.
         11    1    3    3    0    0  0.20060089720E+01 -0.93085613852E+01  0.69361330410E+01  0.11780633637E+02  0.51100000000E-03 0. -1.
        -11    1    3    3    0    0 -0.90534094975E+01  0.14221154132E+01  0.13877509781E+02  0.16630451400E+02  0.51100000000E-03 0.  1.
        -12    1    3    3    0    0  0.17956114309E+01 -0.20678390952E+02  0.76404265225E+01  0.22117779957E+02  0.00000000000E+00 0.  1.
</event>
<event>
 7    1  0.9406864E-013  0.5052886E+02  0.7816164E-02  0.1300439E+00
        -11   -1    0    0    0    0  0.00000000000E+00  0.00000000000E+00  0.45593999997E+02  0.45594000000E+02  0.51100000000E-03 0. -1.
         11   -1    0    0    0    0 -0.00000000000E+00 -0.00000000000E+00 -0.45593999997E+02  0.45594000000E+02  0.51100000000E-03 0.  1.
    9900012    2    1    2    0    0 -0.42819380467E+01 -0.11094892331E+00  0.40432886761E+02  0.50528860377E+02  0.30000001601E+02 0.  0.
        -12    1    1    2    0    0  0.42819380467E+01  0.11094892331E+00 -0.40432886761E+02  0.40659139623E+02  0.00000000000E+00 0.  1.
         11    1    3    3    0    0  0.47199234413E+01 -0.83282398208E+01  0.22337672727E+01  0.98299019474E+01  0.51100000000E-03 0. -1.
        -11    1    3    3    0    0  0.59080186885E+00  0.75950918710E+00  0.48845339292E+00  0.10791144664E+01  0.51100000000E-03 0.  1.
         12    1    3    3    0    0 -0.95926633569E+01  0.74577817104E+01  0.37710666095E+02  0.39619843963E+02  0.00000000000E+00 0. -1.
</event>
<event>
 7    1  0.9406864E-013  0.5052888E+02  0.7816164E-02  0.1300439E+00
        -11   -1    0    0    0    0  0.00000000000E+00  0.00000000000E+00  0.45593999997E+02  0.45594000000E+02  0.51100000000E-03 0.  1.
         11   -1    0    0    0    0 -0.00000000000E+00 -0.00000000000E+00 -0.45593999997E+02  0.45594000000E+02  0.51100000000E-03 0. -1.
    9900012    2    1    2    0    0 -0.19810717963E+02  0.27354607809E+02 -0.22636805636E+02  0.50528879449E+02  0.30000059574E+02 0.  0.
        -12    1    1    2    0    0  0.19810717963E+02 -0.27354607809E+02  0.22636805636E+02  0.40659120551E+02  0.00000000000E+00 0.  1.
         11    1    3    3    0    0  0.85858807120E+00  0.71642019286E+01  0.17671901379E+01  0.74287229046E+01  0.51100000000E-03 0. -1.
        -11    1    3    3    0    0 -0.21114496481E+02  0.85884352842E+01 -0.10824991665E+02  0.25234175776E+02  0.51100000000E-03 0.  1.
        -12    1    3    3    0    0  0.44519044701E+00  0.11601970596E+02 -0.13579004108E+02  0.17865980769E+02  0.00000000000E+00 0.  1.
</event>
<event>
 7    1  0.9406864E-013  0.5052886E+02  0.7816164E-02  0.1300439E+00
        -11   -1    0    0    0    0  0.00000000000E+00  0.00000000000E+00  0.45593999997E+02  0.45594000000E+02  0.51100000000E-03 0.  1.
         11   -1    0    0    0    0 -0.00000000000E+00 -0.00000000000E+00 -0.45593999997E+02  0.45594000000E+02  0.51100000000E-03 0. -1.
    9900012    2    1    2    0    0  0.86208270405E+01  0.31839891015E+02 -0.23771159117E+02  0.50528864194E+02  0.30000013205E+02 0.  0.
        -12    1    1    2    0    0 -0.86208270405E+01 -0.31839891015E+02  0.23771159117E+02  0.40659135806E+02  0.00000000000E+00 0.  1.
         11    1    3    3    0    0  0.11667415899E+02  0.32240889861E+02 -0.17113618175E+02  0.38320745036E+02  0.51100000000E-03 0. -1.
        -11    1    3    3    0    0 -0.19735566356E+01 -0.23149841363E+01 -0.86962333268E+01  0.92129556430E+01  0.51100000000E-03 0.  1.
        -12    1    3    3    0    0 -0.10730322234E+01  0.19139852899E+01  0.20386923852E+01  0.29951635154E+01  0.00000000000E+00 0.  1.
</event>
<event>
 7    1  0.9406864E-013  0.5052886E+02  0.7816164E-02  0.1300439E+00
        -11   -1    0    0    0    0  0.00000000000E+00  0.00000000000E+00  0.45593999997E+02  0.45594000000E+02  0.51100000000E-03 0.  1.
         11   -1    0    0    0    0 -0.00000000000E+00 -0.00000000000E+00 -0.45593999997E+02  0.45594000000E+02  0.51100000000E-03 0. -1.
    9900012    2    1    2    0    0 -0.44767610054E+01  0.16798614326E+02 -0.36755011227E+02  0.50528859790E+02  0.29999999817E+02 0.  0.
        -12    1    1    2    0    0  0.44767610054E+01 -0.16798614326E+02  0.36755011227E+02  0.40659140210E+02  0.00000000000E+00 0.  1.
         11    1    3    3    0    0 -0.65004790034E+01  0.19891105157E+01 -0.10204111176E+01  0.68741564594E+01  0.51100000000E-03 0.  1.
        -11    1    3    3    0    0  0.55919592286E+01  0.18173324352E+02 -0.32875844777E+02  0.37978426719E+02  0.51100000000E-03 0. -1.
         12    1    3    3    0    0 -0.35682412306E+01 -0.33638205416E+01 -0.28587553322E+01  0.56762766110E+01  0.00000000000E+00 0. -1.
</event>
<event>
 7    1  0.9406864E-013  0.5052887E+02  0.7816164E-02  0.1300439E+00
        -11   -1    0    0    0    0  0.00000000000E+00  0.00000000000E+00  0.45593999997E+02  0.45594000000E+02  0.51100000000E-03 0.  1.
         11   -1    0    0    0    0 -0.00000000000E+00 -0.00000000000E+00 -0.45593999997E+02  0.45594000000E+02  0.51100000000E-03 0. -1.
    9900012    2    1    2    0    0  0.26758078559E+02  0.11489879412E+02 -0.28375216257E+02  0.50528868250E+02  0.30000025533E+02 0.  0.
        -12    1    1    2    0    0 -0.26758078559E+02 -0.11489879412E+02  0.28375216257E+02  0.40659131750E+02  0.00000000000E+00 0.  1.
         11    1    3    3    0    0  0.14243470468E+02 -0.32754257998E+01 -0.74210202287E+01  0.16391351580E+02  0.51100000000E-03 0. -1.
        -11    1    3    3    0    0  0.72455667680E+01  0.18806068190E+02 -0.17287674773E+02  0.26552403617E+02  0.51100000000E-03 0.  1.
        -12    1    3    3    0    0  0.52690413231E+01 -0.40407629776E+01 -0.36665212552E+01  0.75851130526E+01  0.00000000000E+00 0.  1.
</event>
<event>
 7    1  0.9406864E-013  0.5052886E+02  0.7816164E-02  0.1300439E+00
        -11   -1    0    0    0    0  0.00000000000E+00  0.00000000000E+00  0.45593999997E+02  0.45594000000E+02  0.51100000000E-03 0. -1.
         11   -1    0    0    0    0 -0.00000000000E+00 -0.00000000000E+00 -0.45593999997E+02  0.45594000000E+02  0.51100000000E-03 0.  1.
    9900012    2    1    2    0    0 -0.31003415794E+02 -0.22497851256E+02  0.13630863702E+02  0.50528861455E+02  0.30000004878E+02 0.  0.
        -12    1    1    2    0    0  0.31003415794E+02  0.22497851256E+02 -0.13630863702E+02  0.40659138545E+02  0.00000000000E+00 0.  1.
         11    1    3    3    0    0 -0.14867459663E+02 -0.24885575966E+01 -0.61032219883E+01  0.16262951597E+02  0.51100000000E-03 0. -1.
        -11    1    3    3    0    0 -0.45921129883E+01 -0.10437153045E+02  0.29901520693E+01  0.11788243086E+02  0.51100000000E-03 0.  1.
         12    1    3    3    0    0 -0.11543843142E+02 -0.95721406141E+01  0.16743933621E+02  0.22477666772E+02  0.00000000000E+00 0. -1.
</event>
<event>
 7    1  0.9406864E-013  0.5052891E+02  0.7816164E-02  0.1300439E+00
        -11   -1    0    0    0    0  0.00000000000E+00  0.00000000000E+00  0.45593999997E+02  0.45594000000E+02  0.51100000000E-03 0.  1.
         11   -1    0    0    0    0 -0.00000000000E+00 -0.00000000000E+00 -0.45593999997E+02  0.45594000000E+02  0.51100000000E-03 0. -1.
    9900012    2    1    2    0    0 -0.26421042621E+02  0.13115458546E+02 -0.27983477627E+02  0.50528907952E+02  0.30000146212E+02 0.  0.
        -12    1    1    2    0    0  0.26421042621E+02 -0.13115458546E+02  0.27983477627E+02  0.40659092048E+02  0.00000000000E+00 0.  1.
         11    1    3    3    0    0  0.15709324574E+01  0.45022083447E+01 -0.10096978459E+02  0.11166319135E+02  0.51100000000E-03 0. -1.
        -11    1    3    3    0    0 -0.27237431342E+02  0.60724426552E+01 -0.21253188452E+02  0.35077774239E+02  0.51100000000E-03 0.  1.
        -12    1    3    3    0    0 -0.75454373623E+00  0.25408075461E+01  0.33666892841E+01  0.42848145785E+01  0.00000000000E+00 0.  1.
</event>
<event>
 7    1  0.9406864E-013  0.5052887E+02  0.7816164E-02  0.1300439E+00
        -11   -1    0    0    0    0  0.00000000000E+00  0.00000000000E+00  0.45593999997E+02  0.45594000000E+02  0.51100000000E-03 0.  1.
         11   -1    0    0    0    0 -0.00000000000E+00 -0.00000000000E+00 -0.45593999997E+02  0.45594000000E+02  0.51100000000E-03 0. -1.
    9900012    2    1    2    0    0 -0.18148358451E+02  0.21093417314E+02 -0.29645734312E+02  0.50528871488E+02  0.30000035376E+02 0.  0.
        -12    1    1    2    0    0  0.18148358451E+02 -0.21093417314E+02  0.29645734312E+02  0.40659128512E+02  0.00000000000E+00 0.  1.
         11    1    3    3    0    0  0.17921307006E+01 -0.15012405602E+01  0.28351705360E+01  0.36747309965E+01  0.51100000000E-03 0. -1.
        -11    1    3    3    0    0 -0.12120434780E+02  0.70875888037E+01 -0.23315505200E+02  0.27216752880E+02  0.51100000000E-03 0.  1.
         12    1    3    3    0    0 -0.78200543721E+01  0.15507069071E+02 -0.91653996472E+01  0.19637387612E+02  0.00000000000E+00 0. -1.
</event>
<event>
 7    1  0.9406864E-013  0.5052875E+02  0.7816164E-02  0.1300439E+00
        -11   -1    0    0    0    0  0.00000000000E+00  0.00000000000E+00  0.45593999997E+02  0.45594000000E+02  0.51100000000E-03 0.  1.
         11   -1    0    0    0    0 -0.00000000000E+00 -0.00000000000E+00 -0.45593999997E+02  0.45594000000E+02  0.51100000000E-03 0. -1.
    9900012    2    1    2    0    0 -0.37254368444E+02  0.61604513265E+01 -0.15077642000E+02  0.50528752380E+02  0.29999673334E+02 0.  0.
        -12    1    1    2    0    0  0.37254368444E+02 -0.61604513265E+01  0.15077642000E+02  0.40659247620E+02  0.00000000000E+00 0.  1.
         11    1    3    3    0    0 -0.22815276579E+02 -0.88416191741E+01 -0.14794746829E+02  0.28593628818E+02  0.51100000000E-03 0. -1.
        -11    1    3    3    0    0 -0.43124414999E+01  0.72128720553E+01 -0.29075940004E+01  0.88925124744E+01  0.51100000000E-03 0.  1.
         12    1    3    3    0    0 -0.10126650365E+02  0.77891984453E+01  0.26246988296E+01  0.13042611088E+02  0.00000000000E+00 0. -1.
</event>
<event>
 7    1  0.9406864E-013  0.5052889E+02  0.7816164E-02  0.1300439E+00
        -11   -1    0    0    0    0  0.00000000000E+00  0.00000000000E+00  0.45593999997E+02  0.45594000000E+02  0.51100000000E-03 0. -1.
         11   -1    0    0    0    0 -0.00000000000E+00 -0.00000000000E+00 -0.45593999997E+02  0.45594000000E+02  0.51100000000E-03 0.  1.
    9900012    2    1    2    0    0 -0.16110848366E+02  0.30833245072E+02  0.21045536210E+02  0.50528892397E+02  0.30000098929E+02 0.  0.
        -12    1    1    2    0    0  0.16110848366E+02 -0.30833245072E+02 -0.21045536210E+02  0.40659107603E+02  0.00000000000E+00 0.  1.
         11    1    3    3    0    0 -0.48449504246E+01  0.44999458384E+01  0.74588282866E+01  0.99678070224E+01  0.51100000000E-03 0. -1.
        -11    1    3    3    0    0 -0.19479391923E+01  0.16078768768E+02 -0.53852966456E+01  0.17068177771E+02  0.51100000000E-03 0.  1.
        -12    1    3    3    0    0 -0.93179587495E+01  0.10254530465E+02  0.18972004569E+02  0.23492907604E+02  0.00000000000E+00 0.  1.
</event>
<event>
 7    1  0.9406864E-013  0.5052886E+02  0.7816164E-02  0.1300439E+00
        -11   -1    0    0    0    0  0.00000000000E+00  0.00000000000E+00  0.45593999997E+02  0.45594000000E+02  0.51100000000E-03 0. -1.
         11   -1    0    0    0    0 -0.00000000000E+00 -0.00000000000E+00 -0.45593999997E+02  0.45594000000E+02  0.51100000000E-03 0.  1.
    9900012    2    1    2    0    0 -0.24298390377E+02  0.50326854577E+01  0.32209102807E+02  0.50528855869E+02  0.29999987901E+02 0.  0.
        -12    1    1    2    0    0  0.24298390377E+02 -0.50326854577E+01 -0.32209102807E+02  0.40659144131E+02  0.00000000000E+00 0.  1.
         11    1    3    3    0    0 -0.19956666509E+01  0.60953608671E+00  0.94632094623E+01  0.96905393664E+01  0.51100000000E-03 0. -1.
        -11    1    3    3    0    0 -0.92207530436E+01 -0.10266885870E+02  0.61756937107E+01  0.15118545738E+02  0.51100000000E-03 0.  1.
        -12    1    3    3    0    0 -0.13081970682E+02  0.14690035241E+02  0.16570199634E+02  0.25719770765E+02  0.00000000000E+00 0.  1.
</event>
<event>
 7    1  0.9406864E-013  0.5052887E+02  0.7816164E-02  0.1300439E+00
        -11   -1    0    0    0    0  0.00000000000E+00  0.00000000000E+00  0.45593999997E+02  0.45594000000E+02  0.51100000000E-03 0.  1.
         11   -1    0    0    0    0 -0.00000000000E+00 -0.00000000000E+00 -0.45593999997E+02  0.45594000000E+02  0.51100000000E-03 0. -1.
    9900012    2    1    2    0    0  0.17553224020E+02  0.10471728078E+01 -0.36659963939E+02  0.50528865720E+02  0.30000017842E+02 0.  0.
        -12    1    1    2    0    0 -0.17553224020E+02 -0.10471728078E+01  0.36659963939E+02  0.40659134280E+02  0.00000000000E+00 0.  1.
         11    1    3    3    0    0  0.22524672168E+01 -0.43390545669E+01 -0.19959226201E+02  0.20549250933E+02  0.51100000000E-03 0. -1.
        -11    1    3    3    0    0  0.17030222335E+02  0.96820511938E+01 -0.16004797734E+02  0.25296721899E+02  0.51100000000E-03 0.  1.
        -12    1    3    3    0    0 -0.17294655311E+01 -0.42958238192E+01 -0.69594000374E+00  0.46828928877E+01  0.00000000000E+00 0.  1.
</event>
<event>
 7    1  0.9406864E-013  0.5052886E+02  0.7816164E-02  0.1300439E+00
        -11   -1    0    0    0    0  0.00000000000E+00  0.00000000000E+00  0.45593999997E+02  0.45594000000E+02  0.51100000000E-03 0. -1.
         11   -1    0    0    0    0 -0.00000000000E+00 -0.00000000000E+00 -0.45593999997E+02  0.45594000000E+02  0.51100000000E-03 0.  1.
    9900012    2    1    2    0    0  0.40617208019E+02  0.17025765434E+01 -0.71353638616E+00  0.50528862180E+02  0.30000007081E+02 0.  0.
        -12    1    1    2    0    0 -0.40617208019E+02 -0.17025765434E+01  0.71353638616E+00  0.40659137820E+02  0.00000000000E+00 0.  1.
         11    1    3    3    0    0  0.23185575244E+02  0.82934210187E+01 -0.30251458495E+01  0.24809337744E+02  0.51100000000E-03 0. -1.
        -11    1    3    3    0    0 -0.12041437647E+01 -0.67522705724E+01 -0.47794704895E+00  0.68754311669E+01  0.51100000000E-03 0.  1.
         12    1    3    3    0    0  0.18635776539E+02  0.16142609714E+00  0.27895565123E+01  0.18844093269E+02  0.00000000000E+00 0. -1.
</event>
<event>
 7    1  0.9406864E-013  0.5052886E+02  0.7816164E-02  0.1300439E+00
        -11   -1    0    0    0    0  0.00000000000E+00  0.00000000000E+00  0.45593999997E+02  0.45594000000E+02  0.51100000000E-03 0.  1.
         11   -1    0    0    0    0 -0.00000000000E+00 -0.00000000000E+00 -0.45593999997E+02  0.45594000000E+02  0.51100000000E-03 0. -1.
    9900012    2    1    2    0    0  0.38718738947E+02 -0.18562625436E+00 -0.12409284215E+02  0.50528861575E+02  0.30000005243E+02 0.  0.
        -12    1    1    2    0    0 -0.38718738947E+02  0.18562625436E+00  0.12409284215E+02  0.40659138425E+02  0.00000000000E+00 0.  1.
         11    1    3    3    0    0  0.22651590389E+02  0.20353311828E+01 -0.14971230785E+02  0.27228199935E+02  0.51100000000E-03 0. -1.
        -11    1    3    3    0    0  0.85083607220E+01  0.40983875230E+01  0.77034777110E+01  0.12187393141E+02  0.51100000000E-03 0.  1.
         12    1    3    3    0    0  0.75587878356E+01 -0.63193449602E+01 -0.51415311405E+01  0.11113268499E+02  0.00000000000E+00 0. -1.
</event>
<event>
 7    1  0.9406864E-013  0.5052886E+02  0.7816164E-02  0.1300439E+00
        -11   -1    0    0    0    0  0.00000000000E+00  0.00000000000E+00  0.45593999997E+02  0.45594000000E+02  0.51100000000E-03 0.  1.
         11   -1    0    0    0    0 -0.00000000000E+00 -0.00000000000E+00 -0.45593999997E+02  0.45594000000E+02  0.51100000000E-03 0. -1.
    9900012    2    1    2    0    0 -0.29767165737E+02 -0.19745643535E+02 -0.19421413720E+02  0.50528857049E+02  0.29999991488E+02 0.  0.
        -12    1    1    2    0    0  0.29767165737E+02  0.19745643535E+02  0.19421413720E+02  0.40659142951E+02  0.00000000000E+00 0.  1.
         11    1    3    3    0    0 -0.29542638564E+02 -0.13570368160E+02 -0.17367758124E+02  0.36858668015E+02  0.51100000000E-03 0. -1.
        -11    1    3    3    0    0 -0.43257367372E+01 -0.61556732139E+00  0.28334980105E+01  0.52076513597E+01  0.51100000000E-03 0.  1.
         12    1    3    3    0    0  0.41012095644E+01 -0.55597080536E+01 -0.48871536060E+01  0.84625376750E+01  0.00000000000E+00 0. -1.
</event>
<event>
 7    1  0.9406864E-013  0.5052886E+02  0.7816164E-02  0.1300439E+00
        -11   -1    0    0    0    0  0.00000000000E+00  0.00000000000E+00  0.45593999997E+02  0.45594000000E+02  0.51100000000E-03 0. -1.
         11   -1    0    0    0    0 -0.00000000000E+00 -0.00000000000E+00 -0.45593999997E+02  0.45594000000E+02  0.51100000000E-03 0.  1.
    9900012    2    1    2    0    0  0.39037037541E+02  0.39142244667E+01 -0.10674945699E+02  0.50528856885E+02  0.29999990988E+02 0.  0.
        -12    1    1    2    0    0 -0.39037037541E+02 -0.39142244667E+01  0.10674945699E+02  0.40659143115E+02  0.00000000000E+00 0.  1.
         11    1    3    3    0    0  0.75770293926E+01  0.69890453315E+01  0.55161014899E+01  0.11691257630E+02  0.51100000000E-03 0.  1.
        -11    1    3    3    0    0  0.31868553514E+02 -0.38194989048E+01 -0.18028507649E+02  0.36813317743E+02  0.51100000000E-03 0. -1.
        -12    1    3    3    0    0 -0.40854536541E+00  0.74467803998E+00  0.18374604596E+01  0.20242815119E+01  0.00000000000E+00 0.  1.
</event>
<event>
 7    1  0.9406864E-013  0.5052887E+02  0.7816164E-02  0.1300439E+00
        -11   -1    0    0    0    0  0.00000000000E+00  0.00000000000E+00  0.45593999997E+02  0.45594000000E+02  0.51100000000E-03 0.  1.
         11   -1    0    0    0    0 -0.00000000000E+00 -0.00000000000E+00 -0.45593999997E+02  0.45594000000E+02  0.51100000000E-03 0. -1.
    9900012    2    1    2    0    0 -0.26522121835E+02  0.12443574564E+02 -0.28193956026E+02  0.50528872476E+02  0.30000038379E+02 0.  0.
        -12    1    1    2    0    0  0.26522121835E+02 -0.12443574564E+02  0.28193956026E+02  0.40659127524E+02  0.00000000000E+00 0.  1.
         11    1    3    3    0    0 -0.59515246004E+01  0.71682784580E+01 -0.13618520850E+02  0.16500574885E+02  0.51100000000E-03 0. -1.
        -11    1    3    3    0    0 -0.15618815777E+02 -0.65937007459E+01 -0.12354134797E+02  0.20977343556E+02  0.51100000000E-03 0.  1.
        -12    1    3    3    0    0 -0.49517814577E+01  0.11868996852E+02 -0.22213003791E+01  0.13050954036E+02  0.00000000000E+00 0.  1.
</event>
<event>
 7    1  0.9406864E-013  0.5052889E+02  0.7816164E-02  0.1300439E+00
        -11   -1    0    0    0    0  0.00000000000E+00  0.00000000000E+00  0.45593999997E+02  0.45594000000E+02  0.51100000000E-03 0. -1.
         11   -1    0    0    0    0 -0.00000000000E+00 -0.00000000000E+00 -0.45593999997E+02  0.45594000000E+02  0.51100000000E-03 0.  1.
    9900012    2    1    2    0    0 -0.32176037725E+02  0.78505744213E+01  0.23584623783E+02  0.50528887843E+02  0.30000085088E+02 0.  0.
        -12    1    1    2    0    0  0.32176037725E+02 -0.78505744213E+01 -0.23584623783E+02  0.40659112157E+02  0.00000000000E+00 0.  1.
         11    1    3    3    0    0 -0.10437417049E+02  0.91203168817E+01  0.59336716963E+01  0.15077410744E+02  0.51100000000E-03 0. -1.
        -11    1    3    3    0    0 -0.97830065135E+01 -0.91517363965E+01  0.16254592285E+02  0.21063553027E+02  0.51100000000E-03 0.  1.
        -12    1    3    3    0    0 -0.11955614162E+02  0.78819939361E+01  0.13963598013E+01  0.14387924072E+02  0.00000000000E+00 0.  1.
</event>
<event>
 7    1  0.9406864E-013  0.5052886E+02  0.7816164E-02  0.1300439E+00
        -11   -1    0    0    0    0  0.00000000000E+00  0.00000000000E+00  0.45593999997E+02  0.45594000000E+02  0.51100000000E-03 0.  1.
         11   -1    0    0    0    0 -0.00000000000E+00 -0.00000000000E+00 -0.45593999997E+02  0.45594000000E+02  0.51100000000E-03 0. -1.
    9900012    2    1    2    0    0 -0.20124015697E+02 -0.19742072761E+02 -0.29299144146E+02  0.50528864589E+02  0.30000014405E+02 0.  0.
        -12    1    1    2    0    0  0.20124015697E+02  0.19742072761E+02  0.29299144146E+02  0.40659135411E+02  0.00000000000E+00 0.  1.
         11    1    3    3    0    0 -0.13591086372E+02  0.27068740003E-01 -0.21141504906E+02  0.25133276576E+02  0.51100000000E-03 0. -1.
        -11    1    3    3    0    0 -0.57682645685E+01 -0.60264511736E+01  0.16384723441E+01  0.85015046764E+01  0.51100000000E-03 0.  1.
         12    1    3    3    0    0 -0.76466475587E+00 -0.13742690327E+02 -0.97961115844E+01  0.16894083337E+02  0.00000000000E+00 0. -1.
</event>
<event>
 7    1  0.9406864E-013  0.5052886E+02  0.7816164E-02  0.1300439E+00
        -11   -1    0    0    0    0  0.00000000000E+00  0.00000000000E+00  0.45593999997E+02  0.45594000000E+02  0.51100000000E-03 0.  1.
         11   -1    0    0    0    0 -0.00000000000E+00 -0.00000000000E+00 -0.45593999997E+02  0.45594000000E+02  0.51100000000E-03 0. -1.
    9900012    2    1    2    0    0 -0.19997882093E+02 -0.54547759192E+01 -0.34978502141E+02  0.50528862275E+02  0.30000007372E+02 0.  0.
        -12    1    1    2    0    0  0.19997882093E+02  0.54547759192E+01  0.34978502141E+02  0.40659137725E+02  0.00000000000E+00 0.  1.
         11    1    3    3    0    0 -0.16536446388E+02 -0.12871635264E+02 -0.35272319681E+02  0.41027668585E+02  0.51100000000E-03 0. -1.
        -11    1    3    3    0    0  0.96129067657E+00  0.19675943683E+01  0.10753023363E+01  0.24396275819E+01  0.51100000000E-03 0.  1.
         12    1    3    3    0    0 -0.44227263811E+01  0.54492649761E+01 -0.78148479543E+00  0.70615661087E+01  0.00000000000E+00 0. -1.
</event>
<event>
 7    1  0.9406864E-013  0.5052886E+02  0.7816164E-02  0.1300439E+00
        -11   -1    0    0    0    0  0.00000000000E+00  0.00000000000E+00  0.45593999997E+02  0.45594000000E+02  0.51100000000E-03 0.  1.
         11   -1    0    0    0    0 -0.00000000000E+00 -0.00000000000E+00 -0.45593999997E+02  0.45594000000E+02  0.51100000000E-03 0. -1.
    9900012    2    1    2    0    0  0.56301816467E+01  0.35424449636E+02 -0.19146149045E+02  0.50528860798E+02  0.30000002883E+02 0.  0.
        -12    1    1    2    0    0 -0.56301816467E+01 -0.35424449636E+02  0.19146149045E+02  0.40659139202E+02  0.00000000000E+00 0.  1.
         11    1    3    3    0    0  0.11913852825E+02  0.66139296952E+01 -0.13737558377E+01  0.13695662106E+02  0.51100000000E-03 0. -1.
        -11    1    3    3    0    0 -0.95274378789E+01  0.14506933050E+02 -0.73903159736E+01  0.18863720458E+02  0.51100000000E-03 0.  1.
        -12    1    3    3    0    0  0.32437667003E+01  0.14303586890E+02 -0.10382077234E+02  0.17969478234E+02  0.00000000000E+00 0.  1.
</event>
<event>
 7    1  0.9406864E-013  0.5052886E+02  0.7816164E-02  0.1300439E+00
        -11   -1    0    0    0    0  0.00000000000E+00  0.00000000000E+00  0.45593999997E+02  0.45594000000E+02  0.51100000000E-03 0.  1.
         11   -1    0    0    0    0 -0.00000000000E+00 -0.00000000000E+00 -0.45593999997E+02  0.45594000000E+02  0.51100000000E-03 0. -1.
    9900012    2    1    2    0    0  0.67046130833E+01  0.25750556619E+02 -0.30742849164E+02  0.50528858623E+02  0.29999996272E+02 0.  0.
        -12    1    1    2    0    0 -0.67046130833E+01 -0.25750556619E+02  0.30742849164E+02  0.40659141377E+02  0.00000000000E+00 0.  1.
         11    1    3    3    0    0 -0.48054567684E+01  0.18305153483E+02 -0.91772298484E+01  0.21033131169E+02  0.51100000000E-03 0. -1.
        -11    1    3    3    0    0  0.99798934943E+01  0.11744596909E+02 -0.18053039785E+02  0.23737019115E+02  0.51100000000E-03 0.  1.
         12    1    3    3    0    0  0.15301763574E+01 -0.42991937738E+01 -0.35125795305E+01  0.57587083402E+01  0.00000000000E+00 0. -1.
</event>
<event>
 7    1  0.9406864E-013  0.5052886E+02  0.7816164E-02  0.1300439E+00
        -11   -1    0    0    0    0  0.00000000000E+00  0.00000000000E+00  0.45593999997E+02  0.45594000000E+02  0.51100000000E-03 0.  1.
         11   -1    0    0    0    0 -0.00000000000E+00 -0.00000000000E+00 -0.45593999997E+02  0.45594000000E+02  0.51100000000E-03 0. -1.
    9900012    2    1    2    0    0 -0.28093248546E+02 -0.80523127355E+01 -0.28268268252E+02  0.50528863951E+02  0.30000012466E+02 0.  0.
        -12    1    1    2    0    0  0.28093248546E+02  0.80523127355E+01  0.28268268252E+02  0.40659136049E+02  0.00000000000E+00 0.  1.
         11    1    3    3    0    0 -0.24373181124E+02 -0.88136793924E+01 -0.25393758835E+02  0.36284650895E+02  0.51100000000E-03 0. -1.
        -11    1    3    3    0    0  0.41555815488E+00  0.65059904759E+01 -0.29728971738E+01  0.71651042226E+01  0.51100000000E-03 0.  1.
        -12    1    3    3    0    0 -0.41356255769E+01 -0.57446238191E+01  0.98387756373E-01  0.70791088341E+01  0.00000000000E+00 0.  1.
</event>
<event>
 7    1  0.9406864E-013  0.5052884E+02  0.7816164E-02  0.1300439E+00
        -11   -1    0    0    0    0  0.00000000000E+00  0.00000000000E+00  0.45593999997E+02  0.45594000000E+02  0.51100000000E-03 0.  1.
         11   -1    0    0    0    0 -0.00000000000E+00 -0.00000000000E+00 -0.45593999997E+02  0.45594000000E+02  0.51100000000E-03 0. -1.
    9900012    2    1    2    0    0 -0.37373917870E+02  0.13317829395E+02 -0.88877801673E+01  0.50528844167E+02  0.29999952329E+02 0.  0.
        -12    1    1    2    0    0  0.37373917870E+02 -0.13317829395E+02  0.88877801673E+01  0.40659155833E+02  0.00000000000E+00 0.  1.
         11    1    3    3    0    0 -0.23601252631E+01 -0.27120827593E+01 -0.11309895650E+02  0.11867574479E+02  0.51100000000E-03 0. -1.
        -11    1    3    3    0    0 -0.21993629703E+02  0.10717288721E+02  0.25495676471E+01  0.24598380445E+02  0.51100000000E-03 0.  1.
         12    1    3    3    0    0 -0.13020162904E+02  0.53126234333E+01 -0.12745216454E+00  0.14062889243E+02  0.00000000000E+00 0. -1.
</event>
<event>
 7    1  0.9406864E-013  0.5052885E+02  0.7816164E-02  0.1300439E+00
        -11   -1    0    0    0    0  0.00000000000E+00  0.00000000000E+00  0.45593999997E+02  0.45594000000E+02  0.51100000000E-03 0.  1.
         11   -1    0    0    0    0 -0.00000000000E+00 -0.00000000000E+00 -0.45593999997E+02  0.45594000000E+02  0.51100000000E-03 0. -1.
    9900012    2    1    2    0    0 -0.21946042843E+02  0.14438940419E+02 -0.31033116412E+02  0.50528854520E+02  0.29999983800E+02 0.  0.
        -12    1    1    2    0    0  0.21946042843E+02 -0.14438940419E+02  0.31033116412E+02  0.40659145480E+02  0.00000000000E+00 0.  1.
         11    1    3    3    0    0 -0.52464744496E+01  0.35647565762E+00 -0.12056075504E+02  0.13153004443E+02  0.51100000000E-03 0. -1.
        -11    1    3    3    0    0  0.19379498008E+01  0.12787725049E+02 -0.11310195986E+02  0.17181446239E+02  0.51100000000E-03 0.  1.
        -12    1    3    3    0    0 -0.18637518194E+02  0.12947397128E+01 -0.76668449223E+01  0.20194403839E+02  0.00000000000E+00 0.  1.
</event>
<event>
 7    1  0.9406864E-013  0.5052886E+02  0.7816164E-02  0.1300439E+00
        -11   -1    0    0    0    0  0.00000000000E+00  0.00000000000E+00  0.45593999997E+02  0.45594000000E+02  0.51100000000E-03 0.  1.
         11   -1    0    0    0    0 -0.00000000000E+00 -0.00000000000E+00 -0.45593999997E+02  0.45594000000E+02  0.51100000000E-03 0. -1.
    9900012    2    1    2    0    0 -0.57931855720E+01 -0.14120749424E+01 -0.40219536104E+02  0.50528855406E+02  0.29999986492E+02 0.  0.
        -12    1    1    2    0    0  0.57931855720E+01  0.14120749424E+01  0.40219536104E+02  0.40659144594E+02  0.00000000000E+00 0.  1.
         11    1    3    3    0    0  0.24615213193E+01 -0.96021599521E+01 -0.63854815802E+01  0.11791307740E+02  0.51100000000E-03 0.  1.
        -11    1    3    3    0    0 -0.12541413186E+02  0.63652680876E+01 -0.23240452627E+02  0.27164725676E+02  0.51100000000E-03 0. -1.
        -12    1    3    3    0    0  0.42867062942E+01  0.18248169221E+01 -0.10593601897E+02  0.11572821989E+02  0.00000000000E+00 0.  1.
</event>
<event>
 7    1  0.9406864E-013  0.5052888E+02  0.7816164E-02  0.1300439E+00
        -11   -1    0    0    0    0  0.00000000000E+00  0.00000000000E+00  0.45593999997E+02  0.45594000000E+02  0.51100000000E-03 0.  1.
         11   -1    0    0    0    0 -0.00000000000E+00 -0.00000000000E+00 -0.45593999997E+02  0.45594000000E+02  0.51100000000E-03 0. -1.
    9900012    2    1    2    0    0 -0.86475512486E+01  0.45622287147E+01 -0.39466057096E+02  0.50528883726E+02  0.30000072575E+02 0.  0.
        -12    1    1    2    0    0  0.86475512486E+01 -0.45622287147E+01  0.39466057096E+02  0.40659116274E+02  0.00000000000E+00 0.  1.
         11    1    3    3    0    0 -0.33388648197E+01  0.11131179860E+02 -0.32583729381E+02  0.34594083367E+02  0.51100000000E-03 0. -1.
        -11    1    3    3    0    0  0.27652605042E+00 -0.81320521946E+01 -0.20635483889E+01  0.83943416518E+01  0.51100000000E-03 0.  1.
        -12    1    3    3    0    0 -0.55852124793E+01  0.15631010493E+01 -0.48187793266E+01  0.75404587080E+01  0.00000000000E+00 0.  1.
</event>
<event>
 7    1  0.9406864E-013  0.5052885E+02  0.7816164E-02  0.1300439E+00
        -11   -1    0    0    0    0  0.00000000000E+00  0.00000000000E+00  0.45593999997E+02  0.45594000000E+02  0.51100000000E-03 0.  1.
         11   -1    0    0    0    0 -0.00000000000E+00 -0.00000000000E+00 -0.45593999997E+02  0.45594000000E+02  0.51100000000E-03 0. -1.
    9900012    2    1    2    0    0 -0.15526373330E+02  0.25064990933E+02 -0.27997225535E+02  0.50528847563E+02  0.29999962652E+02 0.  0.
        -12    1    1    2    0    0  0.15526373330E+02 -0.25064990933E+02  0.27997225535E+02  0.40659152437E+02  0.00000000000E+00 0.  1.
         11    1    3    3    0    0 -0.13055564637E+01  0.25323799476E+01 -0.16653871511E+02  0.16895823817E+02  0.51100000000E-03 0. -1.
        -11    1    3    3    0    0 -0.59776224706E+01  0.16905346531E+02  0.75761046982E+00  0.17947052282E+02  0.51100000000E-03 0.  1.
        -12    1    3    3    0    0 -0.82431943955E+01  0.56272644541E+01 -0.12100964494E+02  0.15685971464E+02  0.00000000000E+00 0.  1.
</event>
<event>
 7    1  0.9406864E-013  0.5052887E+02  0.7816164E-02  0.1300439E+00
        -11   -1    0    0    0    0  0.00000000000E+00  0.00000000000E+00  0.45593999997E+02  0.45594000000E+02  0.51100000000E-03 0. -1.
         11   -1    0    0    0    0 -0.00000000000E+00 -0.00000000000E+00 -0.45593999997E+02  0.45594000000E+02  0.51100000000E-03 0.  1.
    9900012    2    1    2    0    0  0.88522414573E+01 -0.32494091482E+00  0.39682453505E+02  0.50528869640E+02  0.30000029758E+02 0.  0.
        -12    1    1    2    0    0 -0.88522414573E+01  0.32494091482E+00 -0.39682453505E+02  0.40659130360E+02  0.00000000000E+00 0.  1.
         11    1    3    3    0    0  0.60982579413E+01 -0.20365406391E+01  0.99157553061E+01  0.11817717683E+02  0.51100000000E-03 0. -1.
        -11    1    3    3    0    0 -0.29002049011E+01  0.12287462226E+02  0.17251077288E+02  0.21377384880E+02  0.51100000000E-03 0.  1.
        -12    1    3    3    0    0  0.56541884171E+01 -0.10575862501E+02  0.12515620911E+02  0.17333767077E+02  0.00000000000E+00 0.  1.
</event>
<event>
 7    1  0.9406864E-013  0.5052888E+02  0.7816164E-02  0.1300439E+00
        -11   -1    0    0    0    0  0.00000000000E+00  0.00000000000E+00  0.45593999997E+02  0.45594000000E+02  0.51100000000E-03 0. -1.
         11   -1    0    0    0    0 -0.00000000000E+00 -0.00000000000E+00 -0.45593999997E+02  0.45594000000E+02  0.51100000000E-03 0.  1.
    9900012    2    1    2    0    0  0.21127637288E+02 -0.34392861157E+02  0.48906431804E+01  0.50528876219E+02  0.30000049754E+02 0.  0.
        -12    1    1    2    0    0 -0.21127637288E+02  0.34392861157E+02 -0.48906431804E+01  0.40659123781E+02  0.00000000000E+00 0.  1.
         11    1    3    3    0    0  0.15820111279E+01 -0.12934525405E+02  0.22395893451E+01  0.13221969118E+02  0.51100000000E-03 0. -1.
        -11    1    3    3    0    0  0.61937115355E+00  0.29388718589E+01  0.55324724360E+01  0.62951441560E+01  0.51100000000E-03 0.  1.
        -12    1    3    3    0    0  0.18926255006E+02 -0.24397207612E+02 -0.28814186007E+01  0.31011762945E+02  0.00000000000E+00 0.  1.
</event>
<event>
 7    1  0.9406864E-013  0.5052885E+02  0.7816164E-02  0.1300439E+00
        -11   -1    0    0    0    0  0.00000000000E+00  0.00000000000E+00  0.45593999997E+02  0.45594000000E+02  0.51100000000E-03 0.  1.
         11   -1    0    0    0    0 -0.00000000000E+00 -0.00000000000E+00 -0.45593999997E+02  0.45594000000E+02  0.51100000000E-03 0. -1.
    9900012    2    1    2    0    0 -0.20608834704E+02 -0.24124177631E+01 -0.34966017740E+02  0.50528853134E+02  0.29999979586E+02 0.  0.
        -12    1    1    2    0    0  0.20608834704E+02  0.24124177631E+01  0.34966017740E+02  0.40659146866E+02  0.00000000000E+00 0.  1.
         11    1    3    3    0    0 -0.15436387482E+02 -0.15035533532E+02 -0.17527950252E+02  0.27777299498E+02  0.51100000000E-03 0.  1.
        -11    1    3    3    0    0 -0.33304988374E+00  0.63944074519E+01 -0.54885976190E+01  0.84335089358E+01  0.51100000000E-03 0. -1.
        -12    1    3    3    0    0 -0.48393973378E+01  0.62287083174E+01 -0.11949469869E+02  0.14318044700E+02  0.00000000000E+00 0.  1.
</event>
<event>
 7    1  0.9406864E-013  0.5052885E+02  0.7816164E-02  0.1300439E+00
        -11   -1    0    0    0    0  0.00000000000E+00  0.00000000000E+00  0.45593999997E+02  0.45594000000E+02  0.51100000000E-03 0. -1.
         11   -1    0    0    0    0 -0.00000000000E+00 -0.00000000000E+00 -0.45593999997E+02  0.45594000000E+02  0.51100000000E-03 0.  1.
    9900012    2    1    2    0    0 -0.32313430898E+02 -0.24672281563E+02  0.53553798800E+00  0.50528854721E+02  0.29999984410E+02 0.  0.
        -12    1    1    2    0    0  0.32313430898E+02  0.24672281563E+02 -0.53553798800E+00  0.40659145279E+02  0.00000000000E+00 0.  1.
         11    1    3    3    0    0 -0.11335391288E+02  0.36362174561E+01  0.50354758177E+01  0.12925524748E+02  0.51100000000E-03 0. -1.
        -11    1    3    3    0    0 -0.15032469375E+02 -0.15098904718E+02 -0.79001582469E+01  0.22723656391E+02  0.51100000000E-03 0.  1.
         12    1    3    3    0    0 -0.59455702339E+01 -0.13209594301E+02  0.34002204172E+01  0.14879673581E+02  0.00000000000E+00 0. -1.
</event>
<event>
 7    1  0.9406864E-013  0.5052877E+02  0.7816164E-02  0.1300439E+00
        -11   -1    0    0    0    0  0.00000000000E+00  0.00000000000E+00  0.45593999997E+02  0.45594000000E+02  0.51100000000E-03 0.  1.
         11   -1    0    0    0    0 -0.00000000000E+00 -0.00000000000E+00 -0.45593999997E+02  0.45594000000E+02  0.51100000000E-03 0. -1.
    9900012    2    1    2    0    0 -0.28618904774E+02 -0.25781594120E+02 -0.13016922590E+02  0.50528774976E+02  0.29999742016E+02 0.  0.
        -12    1    1    2    0    0  0.28618904774E+02  0.25781594120E+02  0.13016922590E+02  0.40659225024E+02  0.00000000000E+00 0.  1.
         11    1    3    3    0    0 -0.60497280898E+01 -0.20099430579E+01 -0.28925828180E+01  0.70004368919E+01  0.51100000000E-03 0. -1.
        -11    1    3    3    0    0 -0.20685881911E+02 -0.24376780684E+02  0.12383079124E+01  0.31994789477E+02  0.51100000000E-03 0.  1.
        -12    1    3    3    0    0 -0.18832947739E+01  0.60512962179E+00 -0.11362647685E+02  0.11533548607E+02  0.00000000000E+00 0.  1.
</event>
<event>
 7    1  0.9406864E-013  0.5052886E+02  0.7816164E-02  0.1300439E+00
        -11   -1    0    0    0    0  0.00000000000E+00  0.00000000000E+00  0.45593999997E+02  0.45594000000E+02  0.51100000000E-03 0.  1.
         11   -1    0    0    0    0 -0.00000000000E+00 -0.00000000000E+00 -0.45593999997E+02  0.45594000000E+02  0.51100000000E-03 0. -1.
    9900012    2    1    2    0    0 -0.11028785285E+02 -0.27912091984E+02 -0.27430762238E+02  0.50528859568E+02  0.29999999142E+02 0.  0.
        -12    1    1    2    0    0  0.11028785285E+02  0.27912091984E+02  0.27430762238E+02  0.40659140432E+02  0.00000000000E+00 0.  1.
         11    1    3    3    0    0 -0.73338331471E+01 -0.28762395352E+02 -0.24450571962E+02  0.38456351420E+02  0.51100000000E-03 0. -1.
        -11    1    3    3    0    0 -0.27127556119E+01  0.17223376305E+01  0.39084378803E+01  0.50597803162E+01  0.51100000000E-03 0.  1.
         12    1    3    3    0    0 -0.98219652569E+00 -0.87203426253E+00 -0.68886281557E+01  0.70127278315E+01  0.00000000000E+00 0. -1.
</event>
<event>
 7    1  0.9406864E-013  0.5052886E+02  0.7816164E-02  0.1300439E+00
        -11   -1    0    0    0    0  0.00000000000E+00  0.00000000000E+00  0.45593999997E+02  0.45594000000E+02  0.51100000000E-03 0. -1.
         11   -1    0    0    0    0 -0.00000000000E+00 -0.00000000000E+00 -0.45593999997E+02  0.45594000000E+02  0.51100000000E-03 0.  1.
    9900012    2    1    2    0    0 -0.59097978755E+00  0.36562345622E+01  0.40490103230E+02  0.50528858741E+02  0.29999996630E+02 0.  0.
        -12    1    1    2    0    0  0.59097978755E+00 -0.36562345622E+01 -0.40490103230E+02  0.40659141259E+02  0.00000000000E+00 0.  1.
         11    1    3    3    0    0 -0.58283644791E+01  0.71402221284E+01  0.32597488518E+02  0.33875490586E+02  0.51100000000E-03 0. -1.
        -11    1    3    3    0    0  0.51754797844E+01 -0.85134697463E+00 -0.25867351780E+01  0.58482118474E+01  0.51100000000E-03 0.  1.
         12    1    3    3    0    0  0.61904907115E-01 -0.26326405915E+01  0.10479349891E+02  0.10805156308E+02  0.00000000000E+00 0. -1.
</event>
<event>
 7    1  0.9406864E-013  0.5052886E+02  0.7816164E-02  0.1300439E+00
        -11   -1    0    0    0    0  0.00000000000E+00  0.00000000000E+00  0.45593999997E+02  0.45594000000E+02  0.51100000000E-03 0. -1.
         11   -1    0    0    0    0 -0.00000000000E+00 -0.00000000000E+00 -0.45593999997E+02  0.45594000000E+02  0.51100000000E-03 0.  1.
    9900012    2    1    2    0    0  0.29492425079E+02 -0.27934256871E+02 -0.17435375465E+01  0.50528858750E+02  0.29999996658E+02 0.  0.
        -12    1    1    2    0    0 -0.29492425079E+02  0.27934256871E+02  0.17435375465E+01  0.40659141250E+02  0.00000000000E+00 0.  1.
         11    1    3    3    0    0  0.90728485184E+01 -0.19852475614E+01  0.60867112799E+01  0.11104316394E+02  0.51100000000E-03 0.  1.
        -11    1    3    3    0    0  0.41235923941E+01 -0.12364893933E+02 -0.12098780639E+02  0.17784125208E+02  0.51100000000E-03 0. -1.
        -12    1    3    3    0    0  0.16295984166E+02 -0.13584115376E+02  0.42685318122E+01  0.21640417148E+02  0.00000000000E+00 0.  1.
</event>
<event>
 7    1  0.9406864E-013  0.5052881E+02  0.7816164E-02  0.1300439E+00
        -11   -1    0    0    0    0  0.00000000000E+00  0.00000000000E+00  0.45593999997E+02  0.45594000000E+02  0.51100000000E-03 0.  1.
         11   -1    0    0    0    0 -0.00000000000E+00 -0.00000000000E+00 -0.45593999997E+02  0.45594000000E+02  0.51100000000E-03 0. -1.
    9900012    2    1    2    0    0  0.31628662594E+02  0.21780805992E+02  0.13356427361E+02  0.50528807202E+02  0.29999839971E+02 0.  0.
        -12    1    1    2    0    0 -0.31628662594E+02 -0.21780805992E+02 -0.13356427361E+02  0.40659192798E+02  0.00000000000E+00 0.  1.
         11    1    3    3    0    0  0.22401680632E+02  0.15601490094E+02  0.79062301383E+01  0.28420947619E+02  0.51100000000E-03 0. -1.
        -11    1    3    3    0    0 -0.28004552036E+01 -0.31970364530E+01  0.53813372613E+01  0.68572868111E+01  0.51100000000E-03 0.  1.
        -12    1    3    3    0    0  0.12027437165E+02  0.93763523513E+01  0.68859961441E-01  0.15250572772E+02  0.00000000000E+00 0.  1.
</event>
<event>
 7    1  0.9406864E-013  0.5052893E+02  0.7816164E-02  0.1300439E+00
        -11   -1    0    0    0    0  0.00000000000E+00  0.00000000000E+00  0.45593999997E+02  0.45594000000E+02  0.51100000000E-03 0.  1.
         11   -1    0    0    0    0 -0.00000000000E+00 -0.00000000000E+00 -0.45593999997E+02  0.45594000000E+02  0.51100000000E-03 0. -1.
    9900012    2    1    2    0    0  0.18725317723E+02  0.22510600071E+02 -0.28209850955E+02  0.50528925610E+02  0.30000199883E+02 0.  0.
        -12    1    1    2    0    0 -0.18725317723E+02 -0.22510600071E+02  0.28209850955E+02  0.40659074390E+02  0.00000000000E+00 0.  1.
         11    1    3    3    0    0  0.14734796564E+02  0.12574618390E+02 -0.13702703572E+02  0.23727607188E+02  0.51100000000E-03 0. -1.
        -11    1    3    3    0    0 -0.77062218332E+01  0.23416839219E+01 -0.25990831443E+01  0.84631301529E+01  0.51100000000E-03 0.  1.
        -12    1    3    3    0    0  0.11696742992E+02  0.75942977588E+01 -0.11908064239E+02  0.18338188269E+02  0.00000000000E+00 0.  1.
</event>
<event>
 7    1  0.9406864E-013  0.5052886E+02  0.7816164E-02  0.1300439E+00
        -11   -1    0    0    0    0  0.00000000000E+00  0.00000000000E+00  0.45593999997E+02  0.45594000000E+02  0.51100000000E-03 0.  1.
         11   -1    0    0    0    0 -0.00000000000E+00 -0.00000000000E+00 -0.45593999997E+02  0.45594000000E+02  0.51100000000E-03 0. -1.
    9900012    2    1    2    0    0  0.14371462548E+00  0.37659964198E+02 -0.15325547867E+02  0.50528856198E+02  0.29999988899E+02 0.  0.
        -12    1    1    2    0    0 -0.14371462548E+00 -0.37659964198E+02  0.15325547867E+02  0.40659143802E+02  0.00000000000E+00 0.  1.
         11    1    3    3    0    0 -0.10353245689E+02  0.57757334403E+01 -0.63810666411E+01  0.13463536118E+02  0.51100000000E-03 0. -1.
        -11    1    3    3    0    0  0.12804160839E+02  0.25020349872E+02 -0.98175393577E+01  0.29771605966E+02  0.51100000000E-03 0.  1.
        -12    1    3    3    0    0 -0.23072005238E+01  0.68638808858E+01  0.87305813134E+00  0.72937141137E+01  0.00000000000E+00 0.  1.
</event>
<event>
 7    1  0.9406864E-013  0.5052888E+02  0.7816164E-02  0.1300439E+00
        -11   -1    0    0    0    0  0.00000000000E+00  0.00000000000E+00  0.45593999997E+02  0.45594000000E+02  0.51100000000E-03 0.  1.
         11   -1    0    0    0    0 -0.00000000000E+00 -0.00000000000E+00 -0.45593999997E+02  0.45594000000E+02  0.51100000000E-03 0. -1.
    9900012    2    1    2    0    0  0.25162293504E+02 -0.38893673354E+01 -0.31700093478E+02  0.50528879016E+02  0.30000058257E+02 0.  0.
        -12    1    1    2    0    0 -0.25162293504E+02  0.38893673354E+01  0.31700093478E+02  0.40659120984E+02  0.00000000000E+00 0.  1.
         11    1    3    3    0    0  0.15299896622E+02  0.63129630269E+00 -0.13291745895E+02  0.20276979086E+02  0.51100000000E-03 0. -1.
        -11    1    3    3    0    0 -0.43173811976E+01 -0.64933506136E+01 -0.12365961405E+01  0.78950967614E+01  0.51100000000E-03 0.  1.
        -12    1    3    3    0    0  0.14179778080E+02  0.19726869755E+01 -0.17171751443E+02  0.22356803168E+02  0.00000000000E+00 0.  1.
</event>
<event>
 7    1  0.9406864E-013  0.5052886E+02  0.7816164E-02  0.1300439E+00
        -11   -1    0    0    0    0  0.00000000000E+00  0.00000000000E+00  0.45593999997E+02  0.45594000000E+02  0.51100000000E-03 0.  1.
         11   -1    0    0    0    0 -0.00000000000E+00 -0.00000000000E+00 -0.45593999997E+02  0.45594000000E+02  0.51100000000E-03 0. -1.
    9900012    2    1    2    0    0  0.18027135700E+02  0.28425807773E+02 -0.22807053159E+02  0.50528857819E+02  0.29999993826E+02 0.  0.
        -12    1    1    2    0    0 -0.18027135700E+02 -0.28425807773E+02  0.22807053159E+02  0.40659142181E+02  0.00000000000E+00 0.  1.
         11    1    3    3    0    0  0.20474135224E+02  0.16821270464E+02 -0.21112662931E+02  0.33880523749E+02  0.51100000000E-03 0. -1.
        -11    1    3    3    0    0  0.16788491116E+01  0.72655604279E+01  0.39337355514E+01  0.84309654441E+01  0.51100000000E-03 0.  1.
         12    1    3    3    0    0 -0.41258486353E+01  0.43389768813E+01 -0.56281257800E+01  0.82173686258E+01  0.00000000000E+00 0. -1.
</event>
<event>
 7    1  0.9406864E-013  0.5052886E+02  0.7816164E-02  0.1300439E+00
        -11   -1    0    0    0    0  0.00000000000E+00  0.00000000000E+00  0.45593999997E+02  0.45594000000E+02  0.51100000000E-03 0. -1.
         11   -1    0    0    0    0 -0.00000000000E+00 -0.00000000000E+00 -0.45593999997E+02  0.45594000000E+02  0.51100000000E-03 0.  1.
    9900012    2    1    2    0    0 -0.35063375349E+02  0.49705767610E+01  0.19975459136E+02  0.50528857216E+02  0.29999991994E+02 0.  0.
        -12    1    1    2    0    0  0.35063375349E+02 -0.49705767610E+01 -0.19975459136E+02  0.40659142784E+02  0.00000000000E+00 0.  1.
         11    1    3    3    0    0 -0.35709309868E+02  0.82930233084E+01  0.19495975429E+02  0.41521345174E+02  0.51100000000E-03 0. -1.
        -11    1    3    3    0    0 -0.11296939498E+01 -0.88362630361E+00 -0.36337730393E+01  0.39065727469E+01  0.51100000000E-03 0.  1.
         12    1    3    3    0    0  0.17756284681E+01 -0.24388202438E+01  0.41132567460E+01  0.51009392955E+01  0.00000000000E+00 0. -1.
</event>
<event>
 7    1  0.9406864E-013  0.5052885E+02  0.7816164E-02  0.1300439E+00
        -11   -1    0    0    0    0  0.00000000000E+00  0.00000000000E+00  0.45593999997E+02  0.45594000000E+02  0.51100000000E-03 0.  1.
         11   -1    0    0    0    0 -0.00000000000E+00 -0.00000000000E+00 -0.45593999997E+02  0.45594000000E+02  0.51100000000E-03 0. -1.
    9900012    2    1    2    0    0  0.31004971950E+02  0.36656225233E+01 -0.26046521915E+02  0.50528851239E+02  0.29999973825E+02 0.  0.
        -12    1    1    2    0    0 -0.31004971950E+02 -0.36656225233E+01  0.26046521915E+02  0.40659148761E+02  0.00000000000E+00 0.  1.
         11    1    3    3    0    0  0.97154163865E+01  0.91535588664E+01 -0.16230888156E+02  0.21014725458E+02  0.51100000000E-03 0.  1.
        -11    1    3    3    0    0  0.21485930720E+02 -0.70399566622E+01 -0.12917754686E+02  0.26039865497E+02  0.51100000000E-03 0. -1.
        -12    1    3    3    0    0 -0.19637515570E+00  0.15520203192E+01  0.31021209270E+01  0.34742602837E+01  0.00000000000E+00 0.  1.
</event>
<event>
 7    1  0.9406864E-013  0.5052887E+02  0.7816164E-02  0.1300439E+00
        -11   -1    0    0    0    0  0.00000000000E+00  0.00000000000E+00  0.45593999997E+02  0.45594000000E+02  0.51100000000E-03 0.  1.
         11   -1    0    0    0    0 -0.00000000000E+00 -0.00000000000E+00 -0.45593999997E+02  0.45594000000E+02  0.51100000000E-03 0. -1.
    9900012    2    1    2    0    0  0.20289764850E+01  0.31444728735E+02 -0.25695863599E+02  0.50528866747E+02  0.30000020964E+02 0.  0.
        -12    1    1    2    0    0 -0.20289764850E+01 -0.31444728735E+02  0.25695863599E+02  0.40659133253E+02  0.00000000000E+00 0.  1.
         11    1    3    3    0    0  0.49329138333E+01  0.15121029150E+02 -0.28615106115E+02  0.32738409547E+02  0.51100000000E-03 0. -1.
        -11    1    3    3    0    0  0.68356974687E-01  0.11878904909E+02  0.35700568585E+01  0.12403965525E+02  0.51100000000E-03 0.  1.
         12    1    3    3    0    0 -0.29722943230E+01  0.44447946757E+01 -0.65081434190E+00  0.53864916745E+01  0.00000000000E+00 0. -1.
</event>
<event>
 7    1  0.9406864E-013  0.5052886E+02  0.7816164E-02  0.1300439E+00
        -11   -1    0    0    0    0  0.00000000000E+00  0.00000000000E+00  0.45593999997E+02  0.45594000000E+02  0.51100000000E-03 0.  1.
         11   -1    0    0    0    0 -0.00000000000E+00 -0.00000000000E+00 -0.45593999997E+02  0.45594000000E+02  0.51100000000E-03 0. -1.
    9900012    2    1    2    0    0  0.12820930045E+02  0.12435573766E+02 -0.36525962012E+02  0.50528860277E+02  0.30000001299E+02 0.  0.
        -12    1    1    2    0    0 -0.12820930045E+02 -0.12435573766E+02  0.36525962012E+02  0.40659139723E+02  0.00000000000E+00 0.  1.
         11    1    3    3    0    0  0.12533602909E+02 -0.11235208343E+01 -0.28731910124E+02  0.31366800293E+02  0.51100000000E-03 0. -1.
        -11    1    3    3    0    0 -0.12972702407E+01  0.14169509916E+02 -0.92114161952E+01  0.16950165484E+02  0.51100000000E-03 0.  1.
        -12    1    3    3    0    0  0.15845973761E+01 -0.61041531560E+00  0.14173643080E+01  0.22118945010E+01  0.00000000000E+00 0.  1.
</event>
<event>
 7    1  0.9406864E-013  0.5052886E+02  0.7816164E-02  0.1300439E+00
        -11   -1    0    0    0    0  0.00000000000E+00  0.00000000000E+00  0.45593999997E+02  0.45594000000E+02  0.51100000000E-03 0.  1.
         11   -1    0    0    0    0 -0.00000000000E+00 -0.00000000000E+00 -0.45593999997E+02  0.45594000000E+02  0.51100000000E-03 0. -1.
    9900012    2    1    2    0    0 -0.21002002174E+02 -0.13875196914E+02 -0.31930555159E+02  0.50528861575E+02  0.30000005242E+02 0.  0.
        -12    1    1    2    0    0  0.21002002174E+02  0.13875196914E+02  0.31930555159E+02  0.40659138425E+02  0.00000000000E+00 0.  1.
         11    1    3    3    0    0 -0.15861004675E+02 -0.16744691668E+02 -0.34401613966E+02  0.41417716162E+02  0.51100000000E-03 0. -1.
        -11    1    3    3    0    0 -0.46056998763E+01  0.35615029448E+01  0.41963031842E+01  0.71767496299E+01  0.51100000000E-03 0.  1.
        -12    1    3    3    0    0 -0.53529762297E+00 -0.69200819049E+00 -0.17252443780E+01  0.19343957829E+01  0.00000000000E+00 0.  1.
</event>
<event>
 7    1  0.9406864E-013  0.5052888E+02  0.7816164E-02  0.1300439E+00
        -11   -1    0    0    0    0  0.00000000000E+00  0.00000000000E+00  0.45593999997E+02  0.45594000000E+02  0.51100000000E-03 0.  1.
         11   -1    0    0    0    0 -0.00000000000E+00 -0.00000000000E+00 -0.45593999997E+02  0.45594000000E+02  0.51100000000E-03 0. -1.
    9900012    2    1    2    0    0  0.85415484010E+01 -0.16405854695E+02 -0.36208474369E+02  0.50528883759E+02  0.30000072673E+02 0.  0.
        -12    1    1    2    0    0 -0.85415484010E+01  0.16405854695E+02  0.36208474369E+02  0.40659116241E+02  0.00000000000E+00 0.  1.
         11    1    3    3    0    0  0.38975810751E+01  0.56953382982E+01 -0.11395266967E+02  0.13322166719E+02  0.51100000000E-03 0. -1.
        -11    1    3    3    0    0  0.49804064607E+01 -0.15154033968E+02 -0.58199783441E+01  0.16980027745E+02  0.51100000000E-03 0.  1.
         12    1    3    3    0    0 -0.33643913486E+00 -0.69471590252E+01 -0.18993229058E+02  0.20226689295E+02  0.00000000000E+00 0. -1.
</event>
<event>
 7    1  0.9406864E-013  0.5052886E+02  0.7816164E-02  0.1300439E+00
        -11   -1    0    0    0    0  0.00000000000E+00  0.00000000000E+00  0.45593999997E+02  0.45594000000E+02  0.51100000000E-03 0.  1.
         11   -1    0    0    0    0 -0.00000000000E+00 -0.00000000000E+00 -0.45593999997E+02  0.45594000000E+02  0.51100000000E-03 0. -1.
    9900012    2    1    2    0    0 -0.36999932045E+02  0.12285085372E+02  0.11543271591E+02  0.50528863106E+02  0.30000009897E+02 0.  0.
        -12    1    1    2    0    0  0.36999932045E+02 -0.12285085372E+02 -0.11543271591E+02  0.40659136894E+02  0.00000000000E+00 0.  1.
         11    1    3    3    0    0 -0.15263079369E+02  0.15388406527E+02  0.13991550067E+02  0.25797831708E+02  0.51100000000E-03 0.  1.
        -11    1    3    3    0    0 -0.14172383852E+02  0.17537001614E+01 -0.54029193841E+01  0.15268381265E+02  0.51100000000E-03 0. -1.
        -12    1    3    3    0    0 -0.75644688239E+01 -0.48570213164E+01  0.29546409080E+01  0.94626501336E+01  0.00000000000E+00 0.  1.
</event>
<event>
 7    1  0.9406864E-013  0.5052886E+02  0.7816164E-02  0.1300439E+00
        -11   -1    0    0    0    0  0.00000000000E+00  0.00000000000E+00  0.45593999997E+02  0.45594000000E+02  0.51100000000E-03 0.  1.
         11   -1    0    0    0    0 -0.00000000000E+00 -0.00000000000E+00 -0.45593999997E+02  0.45594000000E+02  0.51100000000E-03 0. -1.
    9900012    2    1    2    0    0  0.10796393067E+02 -0.32147292997E+02 -0.22431113952E+02  0.50528862977E+02  0.30000009506E+02 0.  0.
        -12    1    1    2    0    0 -0.10796393067E+02  0.32147292997E+02  0.22431113952E+02  0.40659137023E+02  0.00000000000E+00 0.  1.
         11    1    3    3    0    0 -0.31232340577E+01 -0.26831827862E+02 -0.20144397049E+02  0.33697155816E+02  0.51100000000E-03 0. -1.
        -11    1    3    3    0    0  0.65560351106E+01 -0.46027263325E+00 -0.42090867350E+01  0.78044768353E+01  0.51100000000E-03 0.  1.
         12    1    3    3    0    0  0.73635920145E+01 -0.48551925020E+01  0.19223698318E+01  0.90272303260E+01  0.00000000000E+00 0. -1.
</event>
<event>
 7    1  0.9406864E-013  0.5052886E+02  0.7816164E-02  0.1300439E+00
        -11   -1    0    0    0    0  0.00000000000E+00  0.00000000000E+00  0.45593999997E+02  0.45594000000E+02  0.51100000000E-03 0. -1.
         11   -1    0    0    0    0 -0.00000000000E+00 -0.00000000000E+00 -0.45593999997E+02  0.45594000000E+02  0.51100000000E-03 0.  1.
    9900012    2    1    2    0    0 -0.10741562285E+02  0.28445655645E+02  0.26993137410E+02  0.50528856470E+02  0.29999989725E+02 0.  0.
        -12    1    1    2    0    0  0.10741562285E+02 -0.28445655645E+02 -0.26993137410E+02  0.40659143530E+02  0.00000000000E+00 0.  1.
         11    1    3    3    0    0 -0.10463178821E+02  0.26760334262E+00  0.80945462841E+01  0.13231455037E+02  0.51100000000E-03 0. -1.
        -11    1    3    3    0    0  0.41869656885E+01  0.83917588357E+01 -0.27971068586E+00  0.93824589720E+01  0.51100000000E-03 0.  1.
        -12    1    3    3    0    0 -0.44653491520E+01  0.19786293466E+02  0.19178301812E+02  0.27914942461E+02  0.00000000000E+00 0.  1.
</event>
<event>
 7    1  0.9406864E-013  0.5052887E+02  0.7816164E-02  0.1300439E+00
        -11   -1    0    0    0    0  0.00000000000E+00  0.00000000000E+00  0.45593999997E+02  0.45594000000E+02  0.51100000000E-03 0. -1.
         11   -1    0    0    0    0 -0.00000000000E+00 -0.00000000000E+00 -0.45593999997E+02  0.45594000000E+02  0.51100000000E-03 0.  1.
    9900012    2    1    2    0    0  0.34945601665E+02  0.20460409707E+02 -0.36526387890E+01  0.50528865586E+02  0.30000017436E+02 0.  0.
        -12    1    1    2    0    0 -0.34945601665E+02 -0.20460409707E+02  0.36526387890E+01  0.40659134414E+02  0.00000000000E+00 0.  1.
         11    1    3    3    0    0  0.33268395612E+01 -0.42031446569E+01 -0.21375508137E+01  0.57709106920E+01  0.51100000000E-03 0. -1.
        -11    1    3    3    0    0  0.14524611326E+02  0.17633855855E+02  0.76957693196E+01  0.24106888479E+02  0.51100000000E-03 0.  1.
        -12    1    3    3    0    0  0.17094150779E+02  0.70296985094E+01 -0.92108572948E+01  0.20651066415E+02  0.00000000000E+00 0.  1.
</event>
<event>
 7    1  0.9406864E-013  0.5052886E+02  0.7816164E-02  0.1300439E+00
        -11   -1    0    0    0    0  0.00000000000E+00  0.00000000000E+00  0.45593999997E+02  0.45594000000E+02  0.51100000000E-03 0. -1.
         11   -1    0    0    0    0 -0.00000000000E+00 -0.00000000000E+00 -0.45593999997E+02  0.45594000000E+02  0.51100000000E-03 0.  1.
    9900012    2    1    2    0    0  0.25707262594E+02  0.15767498474E+01  0.31461343180E+02  0.50528860747E+02  0.30000002726E+02 0.  0.
        -12    1    1    2    0    0 -0.25707262594E+02 -0.15767498474E+01 -0.31461343180E+02  0.40659139253E+02  0.00000000000E+00 0.  1.
         11    1    3    3    0    0  0.19692928873E+02  0.25375242092E+01  0.45421042157E+01  0.20368632445E+02  0.51100000000E-03 0. -1.
        -11    1    3    3    0    0 -0.99344986781E-02 -0.40891978277E+01  0.24502473157E+01  0.47671112571E+01  0.51100000000E-03 0.  1.
         12    1    3    3    0    0  0.60242682196E+01  0.31284234658E+01  0.24468991648E+02  0.25393117045E+02  0.00000000000E+00 0. -1.
</event>
<event>
 7    1  0.9406864E-013  0.5052879E+02  0.7816164E-02  0.1300439E+00
        -11   -1    0    0    0    0  0.00000000000E+00  0.00000000000E+00  0.45593999997E+02  0.45594000000E+02  0.51100000000E-03 0.  1.
         11   -1    0    0    0    0 -0.00000000000E+00 -0.00000000000E+00 -0.45593999997E+02  0.45594000000E+02  0.51100000000E-03 0. -1.
    9900012    2    1    2    0    0 -0.13917145036E+02 -0.35838540006E+02 -0.13231903614E+02  0.50528792568E+02  0.29999795490E+02 0.  0.
        -12    1    1    2    0    0  0.13917145036E+02  0.35838540006E+02  0.13231903614E+02  0.40659207432E+02  0.00000000000E+00 0.  1.
         11    1    3    3    0    0 -0.20506326521E+01 -0.19225706368E+02 -0.18922176539E+02  0.27053311162E+02  0.51100000000E-03 0. -1.
        -11    1    3    3    0    0  0.89690515294E+00 -0.14764516304E+01  0.30440198821E+01  0.35000579386E+01  0.51100000000E-03 0.  1.
         12    1    3    3    0    0 -0.12763417537E+02 -0.15136382008E+02  0.26462530432E+01  0.19975423467E+02  0.00000000000E+00 0. -1.
</event>
<event>
 7    1  0.9406864E-013  0.5052886E+02  0.7816164E-02  0.1300439E+00
        -11   -1    0    0    0    0  0.00000000000E+00  0.00000000000E+00  0.45593999997E+02  0.45594000000E+02  0.51100000000E-03 0.  1.
         11   -1    0    0    0    0 -0.00000000000E+00 -0.00000000000E+00 -0.45593999997E+02  0.45594000000E+02  0.51100000000E-03 0. -1.
    9900012    2    1    2    0    0  0.29951567668E+02 -0.96601938217E+01 -0.25743932353E+02  0.50528858304E+02  0.29999995302E+02 0.  0.
        -12    1    1    2    0    0 -0.29951567668E+02  0.96601938217E+01  0.25743932353E+02  0.40659141696E+02  0.00000000000E+00 0.  1.
         11    1    3    3    0    0  0.17605721502E+01 -0.32392224531E+01 -0.26936693627E+00  0.36965842617E+01  0.51100000000E-03 0. -1.
        -11    1    3    3    0    0  0.26911050696E+02  0.32923070997E+01 -0.25225274274E+02  0.37031856530E+02  0.51100000000E-03 0.  1.
        -12    1    3    3    0    0  0.12799448216E+01 -0.97132784684E+01 -0.24929114324E+00  0.98004175128E+01  0.00000000000E+00 0.  1.
</event>
<event>
 7    1  0.9406864E-013  0.5052885E+02  0.7816164E-02  0.1300439E+00
        -11   -1    0    0    0    0  0.00000000000E+00  0.00000000000E+00  0.45593999997E+02  0.45594000000E+02  0.51100000000E-03 0.  1.
         11   -1    0    0    0    0 -0.00000000000E+00 -0.00000000000E+00 -0.45593999997E+02  0.45594000000E+02  0.51100000000E-03 0. -1.
    9900012    2    1    2    0    0  0.50831377395E+01  0.22326894265E+02 -0.33598188202E+02  0.50528846697E+02  0.29999960021E+02 0.  0.
        -12    1    1    2    0    0 -0.50831377395E+01 -0.22326894265E+02  0.33598188202E+02  0.40659153303E+02  0.00000000000E+00 0.  1.
         11    1    3    3    0    0  0.81114719013E+01  0.83337097132E+01 -0.20702057225E+02  0.23744933514E+02  0.51100000000E-03 0. -1.
        -11    1    3    3    0    0 -0.10747490172E+02  0.82556846528E+01 -0.53947431326E+01  0.14586573546E+02  0.51100000000E-03 0.  1.
        -12    1    3    3    0    0  0.77191560106E+01  0.57374998993E+01 -0.75013878448E+01  0.12197339636E+02  0.00000000000E+00 0.  1.
</event>
<event>
 7    1  0.9406864E-013  0.5052889E+02  0.7816164E-02  0.1300439E+00
        -11   -1    0    0    0    0  0.00000000000E+00  0.00000000000E+00  0.45593999997E+02  0.45594000000E+02  0.51100000000E-03 0.  1.
         11   -1    0    0    0    0 -0.00000000000E+00 -0.00000000000E+00 -0.45593999997E+02  0.45594000000E+02  0.51100000000E-03 0. -1.
    9900012    2    1    2    0    0  0.28354027051E+02  0.51385927355E+01 -0.28684623750E+02  0.50528885094E+02  0.30000076731E+02 0.  0.
        -12    1    1    2    0    0 -0.28354027051E+02 -0.51385927355E+01  0.28684623750E+02  0.40659114906E+02  0.00000000000E+00 0.  1.
         11    1    3    3    0    0  0.16065100095E+02  0.13830989463E+02 -0.26297238839E+02  0.33777632857E+02  0.51100000000E-03 0. -1.
        -11    1    3    3    0    0  0.82722052510E+00  0.92544411701E-01  0.15706161550E+01  0.17775527089E+01  0.51100000000E-03 0.  1.
         12    1    3    3    0    0  0.11461706430E+02 -0.87849411392E+01 -0.39580010656E+01  0.14973699528E+02  0.00000000000E+00 0. -1.
</event>
<event>
 7    1  0.9406864E-013  0.5052886E+02  0.7816164E-02  0.1300439E+00
        -11   -1    0    0    0    0  0.00000000000E+00  0.00000000000E+00  0.45593999997E+02  0.45594000000E+02  0.51100000000E-03 0. -1.
         11   -1    0    0    0    0 -0.00000000000E+00 -0.00000000000E+00 -0.45593999997E+02  0.45594000000E+02  0.51100000000E-03 0.  1.
    9900012    2    1    2    0    0 -0.28157572189E+01 -0.12166135190E+02  0.38693954708E+02  0.50528862465E+02  0.30000007949E+02 0.  0.
        -12    1    1    2    0    0  0.28157572189E+01  0.12166135190E+02 -0.38693954708E+02  0.40659137535E+02  0.00000000000E+00 0.  1.
         11    1    3    3    0    0  0.43046371257E+01 -0.18556109819E+02  0.24391862984E+02  0.30948700983E+02  0.51100000000E-03 0. -1.
        -11    1    3    3    0    0  0.94534082104E+00  0.51213830832E+01  0.55432329874E+01  0.76058968023E+01  0.51100000000E-03 0.  1.
         12    1    3    3    0    0 -0.80657351657E+01  0.12685915458E+01  0.87588587360E+01  0.11974264680E+02  0.00000000000E+00 0. -1.
</event>
<event>
 7    1  0.9406864E-013  0.5052886E+02  0.7816164E-02  0.1300439E+00
        -11   -1    0    0    0    0  0.00000000000E+00  0.00000000000E+00  0.45593999997E+02  0.45594000000E+02  0.51100000000E-03 0.  1.
         11   -1    0    0    0    0 -0.00000000000E+00 -0.00000000000E+00 -0.45593999997E+02  0.45594000000E+02  0.51100000000E-03 0. -1.
    9900012    2    1    2    0    0 -0.26649312899E+02  0.24511725609E+02 -0.18497434844E+02  0.50528859992E+02  0.30000000433E+02 0.  0.
        -12    1    1    2    0    0  0.26649312899E+02 -0.24511725609E+02  0.18497434844E+02  0.40659140008E+02  0.00000000000E+00 0.  1.
         11    1    3    3    0    0 -0.10038939581E+01  0.52553192134E+01 -0.16277520816E+02  0.17134289227E+02  0.51100000000E-03 0. -1.
        -11    1    3    3    0    0 -0.12457923205E+02  0.86690953685E+01  0.34375182515E+01  0.15561799288E+02  0.51100000000E-03 0.  1.
         12    1    3    3    0    0 -0.13187495737E+02  0.10587311027E+02 -0.56574322792E+01  0.17832771478E+02  0.00000000000E+00 0. -1.
</event>
<event>
 7    1  0.9406864E-013  0.5052885E+02  0.7816164E-02  0.1300439E+00
        -11   -1    0    0    0    0  0.00000000000E+00  0.00000000000E+00  0.45593999997E+02  0.45594000000E+02  0.51100000000E-03 0. -1.
         11   -1    0    0    0    0 -0.00000000000E+00 -0.00000000000E+00 -0.45593999997E+02  0.45594000000E+02  0.51100000000E-03 0.  1.
    9900012    2    1    2    0    0  0.81363970852E+01 -0.30243522767E+02  0.25928650281E+02  0.50528849341E+02  0.29999968058E+02 0.  0.
        -12    1    1    2    0    0 -0.81363970852E+01  0.30243522767E+02 -0.25928650281E+02  0.40659150659E+02  0.00000000000E+00 0.  1.
         11    1    3    3    0    0 -0.18362223742E+01 -0.25758259328E+02  0.23746345997E+02  0.35082026519E+02  0.51100000000E-03 0. -1.
        -11    1    3    3    0    0  0.11804113415E+02 -0.39107357086E+01 -0.13752911371E+00  0.12435829760E+02  0.51100000000E-03 0.  1.
         12    1    3    3    0    0 -0.18314939560E+01 -0.57452772990E+00  0.23198333980E+01  0.30109930618E+01  0.00000000000E+00 0. -1.
</event>
<event>
 7    1  0.9406864E-013  0.5052886E+02  0.7816164E-02  0.1300439E+00
        -11   -1    0    0    0    0  0.00000000000E+00  0.00000000000E+00  0.45593999997E+02  0.45594000000E+02  0.51100000000E-03 0.  1.
         11   -1    0    0    0    0 -0.00000000000E+00 -0.00000000000E+00 -0.45593999997E+02  0.45594000000E+02  0.51100000000E-03 0. -1.
    9900012    2    1    2    0    0 -0.11978624846E+02 -0.34269531587E+02 -0.18310587638E+02  0.50528857510E+02  0.29999992886E+02 0.  0.
        -12    1    1    2    0    0  0.11978624846E+02  0.34269531587E+02  0.18310587638E+02  0.40659142490E+02  0.00000000000E+00 0.  1.
         11    1    3    3    0    0  0.61419342231E+01 -0.13981359576E+02 -0.19477800343E+01  0.15394662026E+02  0.51100000000E-03 0. -1.
        -11    1    3    3    0    0 -0.10187845117E+02 -0.19494309664E+02 -0.15914182758E+02  0.27149245119E+02  0.51100000000E-03 0.  1.
         12    1    3    3    0    0 -0.79327139519E+01 -0.79386234756E+00 -0.44862484581E+00  0.79849503644E+01  0.00000000000E+00 0. -1.
</event>
<event>
 7    1  0.9406864E-013  0.5052887E+02  0.7816164E-02  0.1300439E+00
        -11   -1    0    0    0    0  0.00000000000E+00  0.00000000000E+00  0.45593999997E+02  0.45594000000E+02  0.51100000000E-03 0. -1.
         11   -1    0    0    0    0 -0.00000000000E+00 -0.00000000000E+00 -0.45593999997E+02  0.45594000000E+02  0.51100000000E-03 0.  1.
    9900012    2    1    2    0    0  0.12144578656E+01 -0.29498989801E+01  0.40533792927E+02  0.50528865959E+02  0.30000018569E+02 0.  0.
        -12    1    1    2    0    0 -0.12144578656E+01  0.29498989801E+01 -0.40533792927E+02  0.40659134041E+02  0.00000000000E+00 0.  1.
         11    1    3    3    0    0  0.58176212486E+01 -0.19835134432E+01  0.19426817949E+02  0.20375973558E+02  0.51100000000E-03 0. -1.
        -11    1    3    3    0    0 -0.89304828184E+01 -0.56476107905E+01  0.30412281553E+01  0.10995367205E+02  0.51100000000E-03 0.  1.
        -12    1    3    3    0    0  0.43273194353E+01  0.46812252536E+01  0.18065746823E+02  0.19157525196E+02  0.00000000000E+00 0.  1.
</event>
<event>
 7    1  0.9406864E-013  0.5052885E+02  0.7816164E-02  0.1300439E+00
        -11   -1    0    0    0    0  0.00000000000E+00  0.00000000000E+00  0.45593999997E+02  0.45594000000E+02  0.51100000000E-03 0.  1.
         11   -1    0    0    0    0 -0.00000000000E+00 -0.00000000000E+00 -0.45593999997E+02  0.45594000000E+02  0.51100000000E-03 0. -1.
    9900012    2    1    2    0    0 -0.24559819754E+02  0.13387279547E+02 -0.29508681502E+02  0.50528852394E+02  0.29999977338E+02 0.  0.
        -12    1    1    2    0    0  0.24559819754E+02 -0.13387279547E+02  0.29508681502E+02  0.40659147606E+02  0.00000000000E+00 0.  1.
         11    1    3    3    0    0 -0.29942756162E+02  0.95222317447E+01 -0.26606382430E+02  0.41172091643E+02  0.51100000000E-03 0. -1.
        -11    1    3    3    0    0  0.53125770515E+00  0.29224654483E+01  0.91913101947E+00  0.31093152201E+01  0.51100000000E-03 0.  1.
         12    1    3    3    0    0  0.48516787024E+01  0.94258235422E+00 -0.38214300910E+01  0.62474455312E+01  0.00000000000E+00 0. -1.
</event>
<event>
 7    1  0.9406864E-013  0.5052886E+02  0.7816164E-02  0.1300439E+00
        -11   -1    0    0    0    0  0.00000000000E+00  0.00000000000E+00  0.45593999997E+02  0.45594000000E+02  0.51100000000E-03 0. -1.
         11   -1    0    0    0    0 -0.00000000000E+00 -0.00000000000E+00 -0.45593999997E+02  0.45594000000E+02  0.51100000000E-03 0.  1.
    9900012    2    1    2    0    0 -0.30524362653E+02  0.22586087776E+02  0.14536082970E+02  0.50528858537E+02  0.29999996010E+02 0.  0.
        -12    1    1    2    0    0  0.30524362653E+02 -0.22586087776E+02 -0.14536082970E+02  0.40659141463E+02  0.00000000000E+00 0.  1.
         11    1    3    3    0    0 -0.82226233409E+01  0.58102712655E+01  0.13241137745E+02  0.16634257297E+02  0.51100000000E-03 0. -1.
        -11    1    3    3    0    0 -0.25740242235E+02  0.15802117676E+02  0.19281051720E+01  0.30265237207E+02  0.51100000000E-03 0.  1.
        -12    1    3    3    0    0  0.34385029230E+01  0.97369883397E+00 -0.63315994672E+00  0.36293640337E+01  0.00000000000E+00 0.  1.
</event>
<event>
 7    1  0.9406864E-013  0.5052885E+02  0.7816164E-02  0.1300439E+00
        -11   -1    0    0    0    0  0.00000000000E+00  0.00000000000E+00  0.45593999997E+02  0.45594000000E+02  0.51100000000E-03 0. -1.
         11   -1    0    0    0    0 -0.00000000000E+00 -0.00000000000E+00 -0.45593999997E+02  0.45594000000E+02  0.51100000000E-03 0.  1.
    9900012    2    1    2    0    0  0.35023850984E+02 -0.19892522363E+02  0.55482947686E+01  0.50528853937E+02  0.29999982028E+02 0.  0.
        -12    1    1    2    0    0 -0.35023850984E+02  0.19892522363E+02 -0.55482947686E+01  0.40659146063E+02  0.00000000000E+00 0.  1.
         11    1    3    3    0    0  0.16225042863E+02  0.60481300749E+00  0.56369832111E+01  0.17187012384E+02  0.51100000000E-03 0. -1.
        -11    1    3    3    0    0  0.15021671460E+02 -0.20696638799E+02  0.59125923311E+01  0.26248051726E+02  0.51100000000E-03 0.  1.
        -12    1    3    3    0    0  0.37771366600E+01  0.19930342866E+00 -0.60012807736E+01  0.70937898283E+01  0.00000000000E+00 0.  1.
</event>
<event>
 7    1  0.9406864E-013  0.5052885E+02  0.7816164E-02  0.1300439E+00
        -11   -1    0    0    0    0  0.00000000000E+00  0.00000000000E+00  0.45593999997E+02  0.45594000000E+02  0.51100000000E-03 0.  1.
         11   -1    0    0    0    0 -0.00000000000E+00 -0.00000000000E+00 -0.45593999997E+02  0.45594000000E+02  0.51100000000E-03 0. -1.
    9900012    2    1    2    0    0  0.19277010146E+02 -0.15870426826E+02 -0.32088827213E+02  0.50528850972E+02  0.29999973013E+02 0.  0.
        -12    1    1    2    0    0 -0.19277010146E+02  0.15870426826E+02  0.32088827213E+02  0.40659149028E+02  0.00000000000E+00 0.  1.
         11    1    3    3    0    0  0.17668413488E+02 -0.94387363480E+01 -0.39957926830E+01  0.20426182670E+02  0.51100000000E-03 0. -1.
        -11    1    3    3    0    0 -0.30037062973E+01 -0.12621374921E+01 -0.14312282312E+02  0.14678442281E+02  0.51100000000E-03 0.  1.
         12    1    3    3    0    0  0.46123029549E+01 -0.51695529859E+01 -0.13780752218E+02  0.15424226020E+02  0.00000000000E+00 0. -1.
</event>
<event>
 7    1  0.9406864E-013  0.5052886E+02  0.7816164E-02  0.1300439E+00
        -11   -1    0    0    0    0  0.00000000000E+00  0.00000000000E+00  0.45593999997E+02  0.45594000000E+02  0.51100000000E-03 0. -1.
         11   -1    0    0    0    0 -0.00000000000E+00 -0.00000000000E+00 -0.45593999997E+02  0.45594000000E+02  0.51100000000E-03 0.  1.
    9900012    2    1    2    0    0 -0.20400714707E+02 -0.46325226527E+01  0.34864257295E+02  0.50528857567E+02  0.29999993060E+02 0.  0.
        -12    1    1    2    0    0  0.20400714707E+02  0.46325226527E+01 -0.34864257295E+02  0.40659142433E+02  0.00000000000E+00 0.  1.
         11    1    3    3    0    0 -0.21383037372E+02  0.50288428867E+01  0.29933414785E+02  0.37128599071E+02  0.51100000000E-03 0. -1.
        -11    1    3    3    0    0  0.12505671185E+01 -0.69585941100E+01  0.70279228609E+01  0.99688339391E+01  0.51100000000E-03 0.  1.
         12    1    3    3    0    0 -0.26824445277E+00 -0.27027714294E+01 -0.20970803509E+01  0.34314245561E+01  0.00000000000E+00 0. -1.
</event>
<event>
 7    1  0.9406864E-013  0.5052886E+02  0.7816164E-02  0.1300439E+00
        -11   -1    0    0    0    0  0.00000000000E+00  0.00000000000E+00  0.45593999997E+02  0.45594000000E+02  0.51100000000E-03 0. -1.
         11   -1    0    0    0    0 -0.00000000000E+00 -0.00000000000E+00 -0.45593999997E+02  0.45594000000E+02  0.51100000000E-03 0.  1.
    9900012    2    1    2    0    0  0.84982685374E+01 -0.38572807743E+02  0.96479964757E+01  0.50528857101E+02  0.29999991643E+02 0.  0.
        -12    1    1    2    0    0 -0.84982685374E+01  0.38572807743E+02 -0.96479964757E+01  0.40659142899E+02  0.00000000000E+00 0.  1.
         11    1    3    3    0    0  0.29054859377E+01 -0.20793200087E+02  0.20745558969E+01  0.21097459582E+02  0.51100000000E-03 0. -1.
        -11    1    3    3    0    0 -0.75442424707E+01 -0.98320969878E+01  0.66140877993E+01  0.14047486726E+02  0.51100000000E-03 0.  1.
        -12    1    3    3    0    0  0.13137025070E+02 -0.79475106687E+01  0.95935277948E+00  0.15383910793E+02  0.00000000000E+00 0.  1.
</event>
<event>
 7    1  0.9406864E-013  0.5052887E+02  0.7816164E-02  0.1300439E+00
        -11   -1    0    0    0    0  0.00000000000E+00  0.00000000000E+00  0.45593999997E+02  0.45594000000E+02  0.51100000000E-03 0.  1.
         11   -1    0    0    0    0 -0.00000000000E+00 -0.00000000000E+00 -0.45593999997E+02  0.45594000000E+02  0.51100000000E-03 0. -1.
    9900012    2    1    2    0    0  0.10761130014E+02  0.17838280841E+02 -0.34916447594E+02  0.50528874393E+02  0.30000044205E+02 0.  0.
        -12    1    1    2    0    0 -0.10761130014E+02 -0.17838280841E+02  0.34916447594E+02  0.40659125607E+02  0.00000000000E+00 0.  1.
         11    1    3    3    0    0  0.15902168717E+02  0.40640303332E+01 -0.23245743141E+02  0.28456280271E+02  0.51100000000E-03 0. -1.
        -11    1    3    3    0    0 -0.73451680326E+01  0.35588932029E+01 -0.38768590146E+01  0.90358868041E+01  0.51100000000E-03 0.  1.
         12    1    3    3    0    0  0.22041293297E+01  0.10215357305E+02 -0.77938454383E+01  0.13036707318E+02  0.00000000000E+00 0. -1.
</event>
<event>
 7    1  0.9406864E-013  0.5052886E+02  0.7816164E-02  0.1300439E+00
        -11   -1    0    0    0    0  0.00000000000E+00  0.00000000000E+00  0.45593999997E+02  0.45594000000E+02  0.51100000000E-03 0.  1.
         11   -1    0    0    0    0 -0.00000000000E+00 -0.00000000000E+00 -0.45593999997E+02  0.45594000000E+02  0.51100000000E-03 0. -1.
    9900012    2    1    2    0    0  0.23143576557E+01  0.10619544483E+02 -0.39179522965E+02  0.50528855934E+02  0.29999988097E+02 0.  0.
        -12    1    1    2    0    0 -0.23143576557E+01 -0.10619544483E+02  0.39179522965E+02  0.40659144066E+02  0.00000000000E+00 0.  1.
         11    1    3    3    0    0 -0.42992968107E+01  0.12184948268E+02 -0.24081266335E+02  0.27328818232E+02  0.51100000000E-03 0. -1.
        -11    1    3    3    0    0  0.91334704229E+01 -0.69852685205E+01 -0.11280050412E+02  0.16107569519E+02  0.51100000000E-03 0.  1.
        -12    1    3    3    0    0 -0.25198159565E+01  0.54198647350E+01 -0.38182062180E+01  0.70924681828E+01  0.00000000000E+00 0.  1.
</event>
<event>
 7    1  0.9406864E-013  0.5052884E+02  0.7816164E-02  0.1300439E+00
        -11   -1    0    0    0    0  0.00000000000E+00  0.00000000000E+00  0.45593999997E+02  0.45594000000E+02  0.51100000000E-03 0.  1.
         11   -1    0    0    0    0 -0.00000000000E+00 -0.00000000000E+00 -0.45593999997E+02  0.45594000000E+02  0.51100000000E-03 0. -1.
    9900012    2    1    2    0    0  0.25751701777E+02 -0.37513404922E+01 -0.31240110792E+02  0.50528840857E+02  0.29999942269E+02 0.  0.
        -12    1    1    2    0    0 -0.25751701777E+02  0.37513404922E+01  0.31240110792E+02  0.40659159143E+02  0.00000000000E+00 0.  1.
         11    1    3    3    0    0  0.30192347345E+01  0.55169711362E+01 -0.22336201027E+02  0.23204711278E+02  0.51100000000E-03 0. -1.
        -11    1    3    3    0    0  0.12174607385E+02 -0.32483032159E+01 -0.84318325569E+01  0.15161409542E+02  0.51100000000E-03 0.  1.
         12    1    3    3    0    0  0.10557859657E+02 -0.60200084125E+01 -0.47207720859E+00  0.12162720038E+02  0.00000000000E+00 0. -1.
</event>
<event>
 7    1  0.9406864E-013  0.5052886E+02  0.7816164E-02  0.1300439E+00
        -11   -1    0    0    0    0  0.00000000000E+00  0.00000000000E+00  0.45593999997E+02  0.45594000000E+02  0.51100000000E-03 0.  1.
         11   -1    0    0    0    0 -0.00000000000E+00 -0.00000000000E+00 -0.45593999997E+02  0.45594000000E+02  0.51100000000E-03 0. -1.
    9900012    2    1    2    0    0  0.73720133967E+01 -0.39903465647E+02  0.25558372434E+01  0.50528862574E+02  0.30000008281E+02 0.  0.
        -12    1    1    2    0    0 -0.73720133967E+01  0.39903465647E+02 -0.25558372434E+01  0.40659137426E+02  0.00000000000E+00 0.  1.
         11    1    3    3    0    0 -0.91485197534E+01 -0.23704943425E+02  0.17077285776E+01  0.25466371819E+02  0.51100000000E-03 0. -1.
        -11    1    3    3    0    0  0.11285015464E+02 -0.43529984874E+01  0.55664074785E+00  0.12108262429E+02  0.51100000000E-03 0.  1.
         12    1    3    3    0    0  0.52355176858E+01 -0.11845523735E+02  0.29146791791E+00  0.12954228326E+02  0.00000000000E+00 0. -1.
</event>
<event>
 7    1  0.9406864E-013  0.5052886E+02  0.7816164E-02  0.1300439E+00
        -11   -1    0    0    0    0  0.00000000000E+00  0.00000000000E+00  0.45593999997E+02  0.45594000000E+02  0.51100000000E-03 0. -1.
         11   -1    0    0    0    0 -0.00000000000E+00 -0.00000000000E+00 -0.45593999997E+02  0.45594000000E+02  0.51100000000E-03 0.  1.
    9900012    2    1    2    0    0 -0.36778610078E+02 -0.61567259193E+01  0.16204768969E+02  0.50528856248E+02  0.29999989052E+02 0.  0.
        -12    1    1    2    0    0  0.36778610078E+02  0.61567259193E+01 -0.16204768969E+02  0.40659143752E+02  0.00000000000E+00 0.  1.
         11    1    3    3    0    0 -0.91327062865E+01 -0.38149296383E+01  0.18828282247E+02  0.21271206475E+02  0.51100000000E-03 0. -1.
        -11    1    3    3    0    0 -0.86109995449E+01 -0.14558090219E+01 -0.49859356976E+01  0.10056254179E+02  0.51100000000E-03 0.  1.
         12    1    3    3    0    0 -0.19034904246E+02 -0.88598725914E+00  0.23624224194E+01  0.19201395595E+02  0.00000000000E+00 0. -1.
</event>
<event>
 7    1  0.9406864E-013  0.5052886E+02  0.7816164E-02  0.1300439E+00
        -11   -1    0    0    0    0  0.00000000000E+00  0.00000000000E+00  0.45593999997E+02  0.45594000000E+02  0.51100000000E-03 0.  1.
         11   -1    0    0    0    0 -0.00000000000E+00 -0.00000000000E+00 -0.45593999997E+02  0.45594000000E+02  0.51100000000E-03 0. -1.
    9900012    2    1    2    0    0  0.14699884634E+02  0.37732043537E+02 -0.36567568338E+01  0.50528860950E+02  0.30000003344E+02 0.  0.
        -12    1    1    2    0    0 -0.14699884634E+02 -0.37732043537E+02  0.36567568338E+01  0.40659139050E+02  0.00000000000E+00 0.  1.
         11    1    3    3    0    0  0.10344253230E+01  0.13566553318E+01  0.72860093885E+01  0.74830797476E+01  0.51100000000E-03 0.  1.
        -11    1    3    3    0    0  0.13483349626E+02  0.35796645838E+02 -0.67910337456E+01  0.38849951223E+02  0.51100000000E-03 0. -1.
        -12    1    3    3    0    0  0.18210968495E+00  0.57874236690E+00 -0.41517324767E+01  0.41958299802E+01  0.00000000000E+00 0.  1.
</event>
<event>
 7    1  0.9406864E-013  0.5052886E+02  0.7816164E-02  0.1300439E+00
        -11   -1    0    0    0    0  0.00000000000E+00  0.00000000000E+00  0.45593999997E+02  0.45594000000E+02  0.51100000000E-03 0.  1.
         11   -1    0    0    0    0 -0.00000000000E+00 -0.00000000000E+00 -0.45593999997E+02  0.45594000000E+02  0.51100000000E-03 0. -1.
    9900012    2    1    2    0    0 -0.14812341341E+02  0.13867860848E+02 -0.35234111394E+02  0.50528860483E+02  0.30000001925E+02 0.  0.
        -12    1    1    2    0    0  0.14812341341E+02 -0.13867860848E+02  0.35234111394E+02  0.40659139517E+02  0.00000000000E+00 0.  1.
         11    1    3    3    0    0 -0.21109155984E+01  0.82660318077E+01 -0.34200772104E+02  0.35248773869E+02  0.51100000000E-03 0. -1.
        -11    1    3    3    0    0 -0.86050487207E+01  0.66584558582E+01  0.17049340522E+00  0.10881680301E+02  0.51100000000E-03 0.  1.
         12    1    3    3    0    0 -0.40963770221E+01 -0.10566268178E+01 -0.12038326953E+01  0.43984063134E+01  0.00000000000E+00 0. -1.
</event>
<event>
 7    1  0.9406864E-013  0.5052887E+02  0.7816164E-02  0.1300439E+00
        -11   -1    0    0    0    0  0.00000000000E+00  0.00000000000E+00  0.45593999997E+02  0.45594000000E+02  0.51100000000E-03 0.  1.
         11   -1    0    0    0    0 -0.00000000000E+00 -0.00000000000E+00 -0.45593999997E+02  0.45594000000E+02  0.51100000000E-03 0. -1.
    9900012    2    1    2    0    0 -0.12771460478E+02 -0.29491241776E+02 -0.24906245298E+02  0.50528873114E+02  0.30000040319E+02 0.  0.
        -12    1    1    2    0    0  0.12771460478E+02  0.29491241776E+02  0.24906245298E+02  0.40659126886E+02  0.00000000000E+00 0.  1.
         11    1    3    3    0    0  0.13714796787E+01 -0.16458543824E+02 -0.20293177715E+01  0.16639794236E+02  0.51100000000E-03 0. -1.
        -11    1    3    3    0    0 -0.16702772354E+02 -0.78102228392E+01 -0.13490473310E+02  0.22846773415E+02  0.51100000000E-03 0.  1.
         12    1    3    3    0    0  0.25598321976E+01 -0.52224751129E+01 -0.93864542170E+01  0.11042305464E+02  0.00000000000E+00 0. -1.
</event>
<event>
 7    1  0.9406864E-013  0.5052883E+02  0.7816164E-02  0.1300439E+00
        -11   -1    0    0    0    0  0.00000000000E+00  0.00000000000E+00  0.45593999997E+02  0.45594000000E+02  0.51100000000E-03 0. -1.
         11   -1    0    0    0    0 -0.00000000000E+00 -0.00000000000E+00 -0.45593999997E+02  0.45594000000E+02  0.51100000000E-03 0.  1.
    9900012    2    1    2    0    0 -0.20513551651E+02  0.22006673414E+02  0.27350848313E+02  0.50528826625E+02  0.29999899010E+02 0.  0.
        -12    1    1    2    0    0  0.20513551651E+02 -0.22006673414E+02 -0.27350848313E+02  0.40659173375E+02  0.00000000000E+00 0.  1.
         11    1    3    3    0    0  0.99827286830E-01  0.13541568115E+01  0.11700898336E+02  0.11779419693E+02  0.51100000000E-03 0. -1.
        -11    1    3    3    0    0 -0.11520348766E+02  0.15594948700E+01 -0.12308949139E+01  0.11690404719E+02  0.51100000000E-03 0.  1.
        -12    1    3    3    0    0 -0.90930301711E+01  0.19093021733E+02  0.16880844891E+02  0.27059002214E+02  0.00000000000E+00 0.  1.
</event>
<event>
 7    1  0.9406864E-013  0.5052886E+02  0.7816164E-02  0.1300439E+00
        -11   -1    0    0    0    0  0.00000000000E+00  0.00000000000E+00  0.45593999997E+02  0.45594000000E+02  0.51100000000E-03 0.  1.
         11   -1    0    0    0    0 -0.00000000000E+00 -0.00000000000E+00 -0.45593999997E+02  0.45594000000E+02  0.51100000000E-03 0. -1.
    9900012    2    1    2    0    0 -0.72213310116E+01 -0.52966547827E+01 -0.39660603000E+02  0.50528860759E+02  0.30000002763E+02 0.  0.
        -12    1    1    2    0    0  0.72213310116E+01  0.52966547827E+01  0.39660603000E+02  0.40659139241E+02  0.00000000000E+00 0.  1.
         11    1    3    3    0    0  0.34671024450E+01 -0.47189260916E+01 -0.20842050146E+02  0.21649021164E+02  0.51100000000E-03 0. -1.
        -11    1    3    3    0    0 -0.25777086826E+01  0.77575960558E+01 -0.19727622677E+01  0.84093204150E+01  0.51100000000E-03 0.  1.
         12    1    3    3    0    0 -0.81107247741E+01 -0.83353247469E+01 -0.16845790587E+02  0.20470519180E+02  0.00000000000E+00 0. -1.
</event>
<event>
 7    1  0.9406864E-013  0.5052886E+02  0.7816164E-02  0.1300439E+00
        -11   -1    0    0    0    0  0.00000000000E+00  0.00000000000E+00  0.45593999997E+02  0.45594000000E+02  0.51100000000E-03 0.  1.
         11   -1    0    0    0    0 -0.00000000000E+00 -0.00000000000E+00 -0.45593999997E+02  0.45594000000E+02  0.51100000000E-03 0. -1.
    9900012    2    1    2    0    0 -0.14577156342E+02 -0.83793769032E+01 -0.37019700438E+02  0.50528860009E+02  0.30000000483E+02 0.  0.
        -12    1    1    2    0    0  0.14577156342E+02  0.83793769032E+01  0.37019700438E+02  0.40659139991E+02  0.00000000000E+00 0.  1.
         11    1    3    3    0    0 -0.23967620403E+01 -0.88423484240E+01 -0.71110467145E+01  0.11597352265E+02  0.51100000000E-03 0. -1.
        -11    1    3    3    0    0 -0.14164695927E+01  0.86283753687E+01 -0.37992478563E+01  0.95336001670E+01  0.51100000000E-03 0.  1.
        -12    1    3    3    0    0 -0.10763924709E+02 -0.81654038480E+01 -0.26109405867E+02  0.29397907577E+02  0.00000000000E+00 0.  1.
</event>
<event>
 7    1  0.9406864E-013  0.5052885E+02  0.7816164E-02  0.1300439E+00
        -11   -1    0    0    0    0  0.00000000000E+00  0.00000000000E+00  0.45593999997E+02  0.45594000000E+02  0.51100000000E-03 0.  1.
         11   -1    0    0    0    0 -0.00000000000E+00 -0.00000000000E+00 -0.45593999997E+02  0.45594000000E+02  0.51100000000E-03 0. -1.
    9900012    2    1    2    0    0 -0.95231625151E+01 -0.27579369397E+00 -0.39527203818E+02  0.50528849392E+02  0.29999968212E+02 0.  0.
        -12    1    1    2    0    0  0.95231625151E+01  0.27579369397E+00  0.39527203818E+02  0.40659150608E+02  0.00000000000E+00 0.  1.
         11    1    3    3    0    0 -0.59173192506E+01 -0.11047406602E+02 -0.91896821607E+01  0.15540595813E+02  0.51100000000E-03 0. -1.
        -11    1    3    3    0    0  0.44345064710E+01  0.73114677666E+01 -0.17091889512E+02  0.19111648173E+02  0.51100000000E-03 0.  1.
         12    1    3    3    0    0 -0.80403497354E+01  0.34601451418E+01 -0.13245632146E+02  0.15876605406E+02  0.00000000000E+00 0. -1.
</event>
<event>
 7    1  0.9406864E-013  0.5052887E+02  0.7816164E-02  0.1300439E+00
        -11   -1    0    0    0    0  0.00000000000E+00  0.00000000000E+00  0.45593999997E+02  0.45594000000E+02  0.51100000000E-03 0.  1.
         11   -1    0    0    0    0 -0.00000000000E+00 -0.00000000000E+00 -0.45593999997E+02  0.45594000000E+02  0.51100000000E-03 0. -1.
    9900012    2    1    2    0    0 -0.37495561366E+02 -0.92867963056E+01 -0.12688705773E+02  0.50528868652E+02  0.30000026755E+02 0.  0.
        -12    1    1    2    0    0  0.37495561366E+02  0.92867963056E+01  0.12688705773E+02  0.40659131348E+02  0.00000000000E+00 0.  1.
         11    1    3    3    0    0 -0.19111020630E+02 -0.91876294193E+01 -0.12897034416E+02  0.24818886777E+02  0.51100000000E-03 0. -1.
        -11    1    3    3    0    0 -0.12814042350E+02  0.27902612079E+01  0.82622064424E+01  0.15499977242E+02  0.51100000000E-03 0.  1.
        -12    1    3    3    0    0 -0.55704983857E+01 -0.28894280942E+01 -0.80538777998E+01  0.10210004632E+02  0.00000000000E+00 0.  1.
</event>
<event>
 7    1  0.9406864E-013  0.5052886E+02  0.7816164E-02  0.1300439E+00
        -11   -1    0    0    0    0  0.00000000000E+00  0.00000000000E+00  0.45593999997E+02  0.45594000000E+02  0.51100000000E-03 0.  1.
         11   -1    0    0    0    0 -0.00000000000E+00 -0.00000000000E+00 -0.45593999997E+02  0.45594000000E+02  0.51100000000E-03 0. -1.
    9900012    2    1    2    0    0 -0.22819012212E+00 -0.11633665309E+02 -0.38958590639E+02  0.50528855594E+02  0.29999987064E+02 0.  0.
        -12    1    1    2    0    0  0.22819012212E+00  0.11633665309E+02  0.38958590639E+02  0.40659144406E+02  0.00000000000E+00 0.  1.
         11    1    3    3    0    0 -0.14505860547E+01  0.79510081215E+01 -0.90280795990E+01  0.12117299681E+02  0.51100000000E-03 0. -1.
        -11    1    3    3    0    0  0.62711739723E+01 -0.82480531741E+01 -0.75489629301E+01  0.12819705369E+02  0.51100000000E-03 0.  1.
         12    1    3    3    0    0 -0.50487780397E+01 -0.11336620256E+02 -0.22381548110E+02  0.25591850545E+02  0.00000000000E+00 0. -1.
</event>
<event>
 7    1  0.9406864E-013  0.5052885E+02  0.7816164E-02  0.1300439E+00
        -11   -1    0    0    0    0  0.00000000000E+00  0.00000000000E+00  0.45593999997E+02  0.45594000000E+02  0.51100000000E-03 0.  1.
         11   -1    0    0    0    0 -0.00000000000E+00 -0.00000000000E+00 -0.45593999997E+02  0.45594000000E+02  0.51100000000E-03 0. -1.
    9900012    2    1    2    0    0  0.37938674757E-01 -0.40347846055E+01 -0.40458445342E+02  0.50528846963E+02  0.29999960829E+02 0.  0.
        -12    1    1    2    0    0 -0.37938674757E-01  0.40347846055E+01  0.40458445342E+02  0.40659153037E+02  0.00000000000E+00 0.  1.
         11    1    3    3    0    0 -0.10953441679E+02 -0.11075866303E+02 -0.15909879751E+02  0.22266049783E+02  0.51100000000E-03 0. -1.
        -11    1    3    3    0    0  0.10723682276E+02  0.48010548492E+01 -0.20643552153E+02  0.23752973182E+02  0.51100000000E-03 0.  1.
         12    1    3    3    0    0  0.26769807748E+00  0.22400268481E+01 -0.39050134392E+01  0.45098239990E+01  0.00000000000E+00 0. -1.
</event>
<event>
 7    1  0.9406864E-013  0.5052881E+02  0.7816164E-02  0.1300439E+00
        -11   -1    0    0    0    0  0.00000000000E+00  0.00000000000E+00  0.45593999997E+02  0.45594000000E+02  0.51100000000E-03 0. -1.
         11   -1    0    0    0    0 -0.00000000000E+00 -0.00000000000E+00 -0.45593999997E+02  0.45594000000E+02  0.51100000000E-03 0.  1.
    9900012    2    1    2    0    0 -0.38191722368E+02  0.25904473322E+01  0.13705909680E+02  0.50528806268E+02  0.29999837131E+02 0.  0.
        -12    1    1    2    0    0  0.38191722368E+02 -0.25904473322E+01 -0.13705909680E+02  0.40659193732E+02  0.00000000000E+00 0.  1.
         11    1    3    3    0    0 -0.25904774704E+02  0.13593790060E+02  0.12662723404E+02  0.31877782936E+02  0.51100000000E-03 0. -1.
        -11    1    3    3    0    0  0.18405932664E+00 -0.41088355380E+01 -0.10584267226E+01  0.42469606429E+01  0.51100000000E-03 0.  1.
         12    1    3    3    0    0 -0.12471006990E+02 -0.68945071899E+01  0.21016129988E+01  0.14404062689E+02  0.00000000000E+00 0. -1.
</event>
<event>
 7    1  0.9406864E-013  0.5052883E+02  0.7816164E-02  0.1300439E+00
        -11   -1    0    0    0    0  0.00000000000E+00  0.00000000000E+00  0.45593999997E+02  0.45594000000E+02  0.51100000000E-03 0.  1.
         11   -1    0    0    0    0 -0.00000000000E+00 -0.00000000000E+00 -0.45593999997E+02  0.45594000000E+02  0.51100000000E-03 0. -1.
    9900012    2    1    2    0    0  0.24771791945E+02  0.14789438712E+02 -0.28649584780E+02  0.50528832748E+02  0.29999917620E+02 0.  0.
        -12    1    1    2    0    0 -0.24771791945E+02 -0.14789438712E+02  0.28649584780E+02  0.40659167252E+02  0.00000000000E+00 0.  1.
         11    1    3    3    0    0  0.14955938280E+02  0.10490390526E+02 -0.48487245881E+01  0.18900754314E+02  0.51100000000E-03 0. -1.
        -11    1    3    3    0    0  0.28426611556E+00 -0.12585745317E+01 -0.19875157137E+02  0.19916994968E+02  0.51100000000E-03 0.  1.
        -12    1    3    3    0    0  0.95315875489E+01  0.55576227171E+01 -0.39257030553E+01  0.11711083466E+02  0.00000000000E+00 0.  1.
</event>
<event>
 7    1  0.9406864E-013  0.5052885E+02  0.7816164E-02  0.1300439E+00
        -11   -1    0    0    0    0  0.00000000000E+00  0.00000000000E+00  0.45593999997E+02  0.45594000000E+02  0.51100000000E-03 0.  1.
         11   -1    0    0    0    0 -0.00000000000E+00 -0.00000000000E+00 -0.45593999997E+02  0.45594000000E+02  0.51100000000E-03 0. -1.
    9900012    2    1    2    0    0 -0.50771329391E+01  0.14263353350E+02 -0.37735203958E+02  0.50528854099E+02  0.29999982519E+02 0.  0.
        -12    1    1    2    0    0  0.50771329391E+01 -0.14263353350E+02  0.37735203958E+02  0.40659145901E+02  0.00000000000E+00 0.  1.
         11    1    3    3    0    0 -0.99491246721E+01  0.19339714639E+02 -0.14998338399E+02  0.26418928802E+02  0.51100000000E-03 0. -1.
        -11    1    3    3    0    0  0.29356768155E+01 -0.18367845701E+01 -0.57787796228E+01  0.67369332869E+01  0.51100000000E-03 0.  1.
         12    1    3    3    0    0  0.19363149175E+01 -0.32395767181E+01 -0.16958085936E+02  0.17372992010E+02  0.00000000000E+00 0. -1.
</event>
<event>
 7    1  0.9406864E-013  0.5052885E+02  0.7816164E-02  0.1300439E+00
        -11   -1    0    0    0    0  0.00000000000E+00  0.00000000000E+00  0.45593999997E+02  0.45594000000E+02  0.51100000000E-03 0. -1.
         11   -1    0    0    0    0 -0.00000000000E+00 -0.00000000000E+00 -0.45593999997E+02  0.45594000000E+02  0.51100000000E-03 0.  1.
    9900012    2    1    2    0    0  0.24460968672E+02  0.21659860517E+02  0.24200785219E+02  0.50528849109E+02  0.29999967351E+02 0.  0.
        -12    1    1    2    0    0 -0.24460968672E+02 -0.21659860517E+02 -0.24200785219E+02  0.40659150891E+02  0.00000000000E+00 0.  1.
         11    1    3    3    0    0  0.17720277038E+02  0.26132775082E+02  0.16767375436E+02  0.35750175259E+02  0.51100000000E-03 0. -1.
        -11    1    3    3    0    0 -0.34824341709E+00 -0.51781183232E+01  0.51154904760E+01  0.72871411348E+01  0.51100000000E-03 0.  1.
        -12    1    3    3    0    0  0.70889350513E+01  0.70520375830E+00  0.23179193062E+01  0.74915327145E+01  0.00000000000E+00 0.  1.
</event>
<event>
 7    1  0.9406864E-013  0.5052886E+02  0.7816164E-02  0.1300439E+00
        -11   -1    0    0    0    0  0.00000000000E+00  0.00000000000E+00  0.45593999997E+02  0.45594000000E+02  0.51100000000E-03 0.  1.
         11   -1    0    0    0    0 -0.00000000000E+00 -0.00000000000E+00 -0.45593999997E+02  0.45594000000E+02  0.51100000000E-03 0. -1.
    9900012    2    1    2    0    0 -0.39488919187E+02 -0.51791260957E+01 -0.81833711499E+01  0.50528860203E+02  0.30000001073E+02 0.  0.
        -12    1    1    2    0    0  0.39488919187E+02  0.51791260957E+01  0.81833711499E+01  0.40659139797E+02  0.00000000000E+00 0.  1.
         11    1    3    3    0    0 -0.29250034504E+02 -0.10984126754E+02 -0.98782130703E+01  0.32768806093E+02  0.51100000000E-03 0. -1.
        -11    1    3    3    0    0 -0.67700311027E+01  0.98495974529E+01  0.28964529798E+01  0.12297858807E+02  0.51100000000E-03 0.  1.
        -12    1    3    3    0    0 -0.34688535801E+01 -0.40445967949E+01 -0.12016110594E+01  0.54621953033E+01  0.00000000000E+00 0.  1.
</event>
<event>
 7    1  0.9406864E-013  0.5052886E+02  0.7816164E-02  0.1300439E+00
        -11   -1    0    0    0    0  0.00000000000E+00  0.00000000000E+00  0.45593999997E+02  0.45594000000E+02  0.51100000000E-03 0.  1.
         11   -1    0    0    0    0 -0.00000000000E+00 -0.00000000000E+00 -0.45593999997E+02  0.45594000000E+02  0.51100000000E-03 0. -1.
    9900012    2    1    2    0    0  0.26739933481E+02  0.22238371802E+02 -0.21061734621E+02  0.50528857261E+02  0.29999992132E+02 0.  0.
        -12    1    1    2    0    0 -0.26739933481E+02 -0.22238371802E+02  0.21061734621E+02  0.40659142739E+02  0.00000000000E+00 0.  1.
         11    1    3    3    0    0  0.26534079981E+02  0.12348223705E+02 -0.98886110159E+01  0.30892080817E+02  0.51100000000E-03 0. -1.
        -11    1    3    3    0    0 -0.36705788545E+01  0.11074472037E+02 -0.61705414065E+01  0.13198206754E+02  0.51100000000E-03 0.  1.
        -12    1    3    3    0    0  0.38764323544E+01 -0.11843239404E+01 -0.50025821988E+01  0.64385696898E+01  0.00000000000E+00 0.  1.
</event>
<event>
 7    1  0.1153798E-012  0.5052887E+02  0.7816164E-02  0.1300439E+00
        -11   -1    0    0    0    0  0.00000000000E+00  0.00000000000E+00  0.45593999997E+02  0.45594000000E+02  0.51100000000E-03 0. -1.
         11   -1    0    0    0    0 -0.00000000000E+00 -0.00000000000E+00 -0.45593999997E+02  0.45594000000E+02  0.51100000000E-03 0.  1.
    9900012    2    1    2    0    0  0.24230569816E+02  0.18467978331E+02  0.26925424985E+02  0.50528865136E+02  0.30000016068E+02 0.  0.
        -12    1    1    2    0    0 -0.24230569816E+02 -0.18467978331E+02 -0.26925424985E+02  0.40659134864E+02  0.00000000000E+00 0.  1.
         11    1    3    3    0    0  0.19904715159E+02  0.14488139211E+02  0.22323631746E+02  0.33233242363E+02  0.51100000000E-03 0. -1.
        -11    1    3    3    0    0  0.99418404674E+00  0.86828192149E+01 -0.15387343293E+01  0.88739762810E+01  0.51100000000E-03 0.  1.
         12    1    3    3    0    0  0.33316706105E+01 -0.47029800945E+01  0.61405275678E+01  0.84216464921E+01  0.00000000000E+00 0. -1.
</event>
<event>
 7    1  0.9406864E-013  0.5052889E+02  0.7816164E-02  0.1300439E+00
        -11   -1    0    0    0    0  0.00000000000E+00  0.00000000000E+00  0.45593999997E+02  0.45594000000E+02  0.51100000000E-03 0. -1.
         11   -1    0    0    0    0 -0.00000000000E+00 -0.00000000000E+00 -0.45593999997E+02  0.45594000000E+02  0.51100000000E-03 0.  1.
    9900012    2    1    2    0    0  0.12111766607E+02  0.27974949021E+02  0.26904835968E+02  0.50528894482E+02  0.30000105267E+02 0.  0.
        -12    1    1    2    0    0 -0.12111766607E+02 -0.27974949021E+02 -0.26904835968E+02  0.40659105518E+02  0.00000000000E+00 0.  1.
         11    1    3    3    0    0  0.12931063016E+02  0.22187339888E+02  0.27525300943E+02  0.37644822144E+02  0.51100000000E-03 0. -1.
        -11    1    3    3    0    0  0.48338091318E+01  0.20354767787E+01 -0.25473600519E+01  0.58307735280E+01  0.51100000000E-03 0.  1.
         12    1    3    3    0    0 -0.56531055409E+01  0.37521323543E+01  0.19268950775E+01  0.70532988099E+01  0.00000000000E+00 0. -1.
</event>
<event>
 7    1  0.9406864E-013  0.5052886E+02  0.7816164E-02  0.1300439E+00
        -11   -1    0    0    0    0  0.00000000000E+00  0.00000000000E+00  0.45593999997E+02  0.45594000000E+02  0.51100000000E-03 0.  1.
         11   -1    0    0    0    0 -0.00000000000E+00 -0.00000000000E+00 -0.45593999997E+02  0.45594000000E+02  0.51100000000E-03 0. -1.
    9900012    2    1    2    0    0 -0.29156981680E+02 -0.61212461110E+01 -0.27668869358E+02  0.50528861222E+02  0.30000004169E+02 0.  0.
        -12    1    1    2    0    0  0.29156981680E+02  0.61212461110E+01  0.27668869358E+02  0.40659138778E+02  0.00000000000E+00 0.  1.
         11    1    3    3    0    0 -0.33345498200E+02  0.22444808974E+00 -0.22157024283E+02  0.40036312924E+02  0.51100000000E-03 0.  1.
        -11    1    3    3    0    0  0.20780831634E+01 -0.64367089725E+01 -0.46658505554E+01  0.82170440973E+01  0.51100000000E-03 0. -1.
        -12    1    3    3    0    0  0.21104333564E+01  0.91014771781E-01 -0.84599451933E+00  0.22755042007E+01  0.00000000000E+00 0.  1.
</event>
<event>
 7    1  0.9406864E-013  0.5052886E+02  0.7816164E-02  0.1300439E+00
        -11   -1    0    0    0    0  0.00000000000E+00  0.00000000000E+00  0.45593999997E+02  0.45594000000E+02  0.51100000000E-03 0. -1.
         11   -1    0    0    0    0 -0.00000000000E+00 -0.00000000000E+00 -0.45593999997E+02  0.45594000000E+02  0.51100000000E-03 0.  1.
    9900012    2    1    2    0    0 -0.13601597251E+02  0.36418202663E+02  0.11911198121E+02  0.50528861130E+02  0.30000003891E+02 0.  0.
        -12    1    1    2    0    0  0.13601597251E+02 -0.36418202663E+02 -0.11911198121E+02  0.40659138870E+02  0.00000000000E+00 0.  1.
         11    1    3    3    0    0 -0.10231893973E+02  0.15665131810E+02  0.17355616793E+02  0.25520686578E+02  0.51100000000E-03 0. -1.
        -11    1    3    3    0    0  0.45601463379E+01  0.93942173266E+01 -0.11546236605E+01  0.10506160567E+02  0.51100000000E-03 0.  1.
         12    1    3    3    0    0 -0.79298496157E+01  0.11358853527E+02 -0.42897950118E+01  0.14502013985E+02  0.00000000000E+00 0. -1.
</event>
<event>
 7    1  0.9406864E-013  0.5052886E+02  0.7816164E-02  0.1300439E+00
        -11   -1    0    0    0    0  0.00000000000E+00  0.00000000000E+00  0.45593999997E+02  0.45594000000E+02  0.51100000000E-03 0. -1.
         11   -1    0    0    0    0 -0.00000000000E+00 -0.00000000000E+00 -0.45593999997E+02  0.45594000000E+02  0.51100000000E-03 0.  1.
    9900012    2    1    2    0    0 -0.28543689830E+02 -0.85389581207E+01  0.27667843022E+02  0.50528861146E+02  0.30000003938E+02 0.  0.
        -12    1    1    2    0    0  0.28543689830E+02  0.85389581207E+01 -0.27667843022E+02  0.40659138854E+02  0.00000000000E+00 0.  1.
         11    1    3    3    0    0 -0.11892337180E+02  0.63233274334E+01  0.19905342455E+02  0.24034034450E+02  0.51100000000E-03 0. -1.
        -11    1    3    3    0    0 -0.18339394700E+02 -0.14724057457E+02  0.78624897887E+01  0.24798185657E+02  0.51100000000E-03 0.  1.
         12    1    3    3    0    0  0.16880420501E+01 -0.13822809742E+00 -0.99989221620E-01  0.16966410387E+01  0.00000000000E+00 0. -1.
</event>
<event>
 7    1  0.9406864E-013  0.5052886E+02  0.7816164E-02  0.1300439E+00
        -11   -1    0    0    0    0  0.00000000000E+00  0.00000000000E+00  0.45593999997E+02  0.45594000000E+02  0.51100000000E-03 0. -1.
         11   -1    0    0    0    0 -0.00000000000E+00 -0.00000000000E+00 -0.45593999997E+02  0.45594000000E+02  0.51100000000E-03 0.  1.
    9900012    2    1    2    0    0 -0.47881574041E+01 -0.15027572377E+02  0.37475473423E+02  0.50528862145E+02  0.30000006975E+02 0.  0.
        -12    1    1    2    0    0  0.47881574041E+01  0.15027572377E+02 -0.37475473423E+02  0.40659137855E+02  0.00000000000E+00 0.  1.
         11    1    3    3    0    0 -0.94400342863E+01 -0.39698421319E+01  0.24231803139E+02  0.26306922616E+02  0.51100000000E-03 0. -1.
        -11    1    3    3    0    0  0.37078752938E+01 -0.86111474383E+01 -0.12808361500E+01  0.94625969429E+01  0.51100000000E-03 0.  1.
        -12    1    3    3    0    0  0.94400158840E+00 -0.24465828072E+01  0.14524506434E+02  0.14759342586E+02  0.00000000000E+00 0.  1.
</event>
<event>
 7    1  0.9406864E-013  0.5052885E+02  0.7816164E-02  0.1300439E+00
        -11   -1    0    0    0    0  0.00000000000E+00  0.00000000000E+00  0.45593999997E+02  0.45594000000E+02  0.51100000000E-03 0. -1.
         11   -1    0    0    0    0 -0.00000000000E+00 -0.00000000000E+00 -0.45593999997E+02  0.45594000000E+02  0.51100000000E-03 0.  1.
    9900012    2    1    2    0    0 -0.38356736178E+02  0.11042886116E+02 -0.77447898761E+01  0.50528852023E+02  0.29999976208E+02 0.  0.
        -12    1    1    2    0    0  0.38356736178E+02 -0.11042886116E+02  0.77447898761E+01  0.40659147977E+02  0.00000000000E+00 0.  1.
         11    1    3    3    0    0 -0.10448704362E+02 -0.65058167884E+01 -0.83284178598E+01  0.14861481058E+02  0.51100000000E-03 0. -1.
        -11    1    3    3    0    0 -0.28305847429E+02  0.14412094148E+02  0.26757067650E+01  0.31876148816E+02  0.51100000000E-03 0.  1.
        -12    1    3    3    0    0  0.39781561228E+00  0.31366087565E+01 -0.20920787813E+01  0.37912221486E+01  0.00000000000E+00 0.  1.
</event>
<event>
 7    1  0.9406864E-013  0.5052886E+02  0.7816164E-02  0.1300439E+00
        -11   -1    0    0    0    0  0.00000000000E+00  0.00000000000E+00  0.45593999997E+02  0.45594000000E+02  0.51100000000E-03 0. -1.
         11   -1    0    0    0    0 -0.00000000000E+00 -0.00000000000E+00 -0.45593999997E+02  0.45594000000E+02  0.51100000000E-03 0.  1.
    9900012    2    1    2    0    0  0.25209109357E+02  0.29097379749E+02  0.13077050868E+02  0.50528856352E+02  0.29999989366E+02 0.  0.
        -12    1    1    2    0    0 -0.25209109357E+02 -0.29097379749E+02 -0.13077050868E+02  0.40659143648E+02  0.00000000000E+00 0.  1.
         11    1    3    3    0    0  0.25060475709E+02  0.25415784164E+02  0.18300190784E+00  0.35693459028E+02  0.51100000000E-03 0. -1.
        -11    1    3    3    0    0 -0.26090044076E+01  0.27388908545E+01  0.41346219203E+01  0.56038848843E+01  0.51100000000E-03 0.  1.
         12    1    3    3    0    0  0.27576380559E+01  0.94270473041E+00  0.87594270395E+01  0.92315124392E+01  0.00000000000E+00 0. -1.
</event>
<event>
 7    1  0.9406864E-013  0.5052886E+02  0.7816164E-02  0.1300439E+00
        -11   -1    0    0    0    0  0.00000000000E+00  0.00000000000E+00  0.45593999997E+02  0.45594000000E+02  0.51100000000E-03 0.  1.
         11   -1    0    0    0    0 -0.00000000000E+00 -0.00000000000E+00 -0.45593999997E+02  0.45594000000E+02  0.51100000000E-03 0. -1.
    9900012    2    1    2    0    0 -0.24332179560E+02 -0.16994491077E+02 -0.27790252883E+02  0.50528857801E+02  0.29999993772E+02 0.  0.
        -12    1    1    2    0    0  0.24332179560E+02  0.16994491077E+02  0.27790252883E+02  0.40659142199E+02  0.00000000000E+00 0.  1.
         11    1    3    3    0    0 -0.14018296742E+02 -0.10279803274E+02 -0.17581241860E+02  0.24724220200E+02  0.51100000000E-03 0. -1.
        -11    1    3    3    0    0 -0.27176829401E+01  0.62991634167E+01 -0.80587162428E+01  0.10583391142E+02  0.51100000000E-03 0.  1.
        -12    1    3    3    0    0 -0.75961998777E+01 -0.13013851220E+02 -0.21502947801E+01  0.15221246460E+02  0.00000000000E+00 0.  1.
</event>
<event>
 7    1  0.9406864E-013  0.5052886E+02  0.7816164E-02  0.1300439E+00
        -11   -1    0    0    0    0  0.00000000000E+00  0.00000000000E+00  0.45593999997E+02  0.45594000000E+02  0.51100000000E-03 0.  1.
         11   -1    0    0    0    0 -0.00000000000E+00 -0.00000000000E+00 -0.45593999997E+02  0.45594000000E+02  0.51100000000E-03 0. -1.
    9900012    2    1    2    0    0 -0.19929848090E+02 -0.86566516560E+01 -0.34366107255E+02  0.50528858462E+02  0.29999995780E+02 0.  0.
        -12    1    1    2    0    0  0.19929848090E+02  0.86566516560E+01  0.34366107255E+02  0.40659141538E+02  0.00000000000E+00 0.  1.
         11    1    3    3    0    0 -0.48631493532E+01  0.10870852716E+02 -0.11968272092E+02  0.16883873890E+02  0.51100000000E-03 0. -1.
        -11    1    3    3    0    0 -0.12244661983E+02 -0.17645330868E+02 -0.17592618320E+02  0.27763099037E+02  0.51100000000E-03 0.  1.
         12    1    3    3    0    0 -0.28220367542E+01 -0.18821735045E+01 -0.48052168422E+01  0.58818855347E+01  0.00000000000E+00 0. -1.
</event>
<event>
 7    1  0.9406864E-013  0.5052886E+02  0.7816164E-02  0.1300439E+00
        -11   -1    0    0    0    0  0.00000000000E+00  0.00000000000E+00  0.45593999997E+02  0.45594000000E+02  0.51100000000E-03 0.  1.
         11   -1    0    0    0    0 -0.00000000000E+00 -0.00000000000E+00 -0.45593999997E+02  0.45594000000E+02  0.51100000000E-03 0. -1.
    9900012    2    1    2    0    0  0.28196134109E+01 -0.31205826518E+02 -0.25911616024E+02  0.50528859903E+02  0.30000000161E+02 0.  0.
        -12    1    1    2    0    0 -0.28196134109E+01  0.31205826518E+02  0.25911616024E+02  0.40659140097E+02  0.00000000000E+00 0.  1.
         11    1    3    3    0    0 -0.59492829505E+01 -0.17087347310E+02 -0.15286470607E+02  0.23686443161E+02  0.51100000000E-03 0. -1.
        -11    1    3    3    0    0  0.68682961664E+01  0.13897611176E+01 -0.85906930447E+01  0.11086249837E+02  0.51100000000E-03 0.  1.
        -12    1    3    3    0    0  0.19006001950E+01 -0.15508240326E+02 -0.20344523722E+01  0.15756166906E+02  0.00000000000E+00 0.  1.
</event>
<event>
 7    1  0.9406864E-013  0.5052885E+02  0.7816164E-02  0.1300439E+00
        -11   -1    0    0    0    0  0.00000000000E+00  0.00000000000E+00  0.45593999997E+02  0.45594000000E+02  0.51100000000E-03 0. -1.
         11   -1    0    0    0    0 -0.00000000000E+00 -0.00000000000E+00 -0.45593999997E+02  0.45594000000E+02  0.51100000000E-03 0.  1.
    9900012    2    1    2    0    0 -0.34882966530E+02 -0.74509244460E+00 -0.20875577645E+02  0.50528852706E+02  0.29999978285E+02 0.  0.
        -12    1    1    2    0    0  0.34882966530E+02  0.74509244460E+00  0.20875577645E+02  0.40659147294E+02  0.00000000000E+00 0.  1.
         11    1    3    3    0    0 -0.13352225720E+02 -0.20643551288E+01 -0.11471879530E+01  0.13559481341E+02  0.51100000000E-03 0. -1.
        -11    1    3    3    0    0 -0.16787023776E+02 -0.42370701701E+01 -0.23144970755E+02  0.28904093177E+02  0.51100000000E-03 0.  1.
        -12    1    3    3    0    0 -0.47437170343E+01  0.55563328543E+01  0.34165810631E+01  0.80652781880E+01  0.00000000000E+00 0.  1.
</event>
<event>
 7    1  0.9406864E-013  0.5052884E+02  0.7816164E-02  0.1300439E+00
        -11   -1    0    0    0    0  0.00000000000E+00  0.00000000000E+00  0.45593999997E+02  0.45594000000E+02  0.51100000000E-03 0.  1.
         11   -1    0    0    0    0 -0.00000000000E+00 -0.00000000000E+00 -0.45593999997E+02  0.45594000000E+02  0.51100000000E-03 0. -1.
    9900012    2    1    2    0    0 -0.28237651622E+02 -0.11407114137E+02 -0.26938455343E+02  0.50528836232E+02  0.29999928209E+02 0.  0.
        -12    1    1    2    0    0  0.28237651622E+02  0.11407114137E+02  0.26938455343E+02  0.40659163768E+02  0.00000000000E+00 0.  1.
         11    1    3    3    0    0 -0.23176325162E+02 -0.53624944403E+01 -0.26812589347E+02  0.35844293024E+02  0.51100000000E-03 0. -1.
        -11    1    3    3    0    0 -0.62740534247E+01 -0.99826473163E+00  0.44572053591E+01  0.77606029872E+01  0.51100000000E-03 0.  1.
         12    1    3    3    0    0  0.12127269650E+01 -0.50463549649E+01 -0.45830713558E+01  0.69239402204E+01  0.00000000000E+00 0. -1.
</event>
<event>
 7    1  0.9406864E-013  0.5052884E+02  0.7816164E-02  0.1300439E+00
        -11   -1    0    0    0    0  0.00000000000E+00  0.00000000000E+00  0.45593999997E+02  0.45594000000E+02  0.51100000000E-03 0. -1.
         11   -1    0    0    0    0 -0.00000000000E+00 -0.00000000000E+00 -0.45593999997E+02  0.45594000000E+02  0.51100000000E-03 0.  1.
    9900012    2    1    2    0    0 -0.10375978223E+02 -0.38617824873E+02 -0.73600161721E+01  0.50528841621E+02  0.29999944592E+02 0.  0.
        -12    1    1    2    0    0  0.10375978223E+02  0.38617824873E+02  0.73600161721E+01  0.40659158379E+02  0.00000000000E+00 0.  1.
         11    1    3    3    0    0 -0.98727904569E+01  0.56712628818E+00 -0.17445968555E+01  0.10041774847E+02  0.51100000000E-03 0. -1.
        -11    1    3    3    0    0  0.26837957850E+01 -0.17102430173E+02 -0.55368942394E+01  0.18175617616E+02  0.51100000000E-03 0.  1.
         12    1    3    3    0    0 -0.31869835509E+01 -0.22082520989E+02 -0.78525077226E-01  0.22311449159E+02  0.00000000000E+00 0. -1.
</event>
<event>
 7    1  0.9406864E-013  0.5052886E+02  0.7816164E-02  0.1300439E+00
        -11   -1    0    0    0    0  0.00000000000E+00  0.00000000000E+00  0.45593999997E+02  0.45594000000E+02  0.51100000000E-03 0. -1.
         11   -1    0    0    0    0 -0.00000000000E+00 -0.00000000000E+00 -0.45593999997E+02  0.45594000000E+02  0.51100000000E-03 0.  1.
    9900012    2    1    2    0    0  0.26267490058E+02  0.69940242052E+01  0.30236871348E+02  0.50528858378E+02  0.29999995525E+02 0.  0.
        -12    1    1    2    0    0 -0.26267490058E+02 -0.69940242052E+01 -0.30236871348E+02  0.40659141622E+02  0.00000000000E+00 0.  1.
         11    1    3    3    0    0  0.15081469721E+02  0.35404058772E+01  0.89681035174E+01  0.17900058203E+02  0.51100000000E-03 0. -1.
        -11    1    3    3    0    0 -0.31036698977E+01  0.31569598886E+01 -0.23575142551E+01  0.50156790463E+01  0.51100000000E-03 0.  1.
        -12    1    3    3    0    0  0.14289690235E+02  0.29665843949E+00  0.23626282086E+02  0.27613121128E+02  0.00000000000E+00 0.  1.
</event>
<event>
 7    1  0.9406864E-013  0.5052885E+02  0.7816164E-02  0.1300439E+00
        -11   -1    0    0    0    0  0.00000000000E+00  0.00000000000E+00  0.45593999997E+02  0.45594000000E+02  0.51100000000E-03 0. -1.
         11   -1    0    0    0    0 -0.00000000000E+00 -0.00000000000E+00 -0.45593999997E+02  0.45594000000E+02  0.51100000000E-03 0.  1.
    9900012    2    1    2    0    0  0.27225250293E+02  0.50347784304E+00  0.30194352631E+02  0.50528847595E+02  0.29999962751E+02 0.  0.
        -12    1    1    2    0    0 -0.27225250293E+02 -0.50347784304E+00 -0.30194352631E+02  0.40659152405E+02  0.00000000000E+00 0.  1.
         11    1    3    3    0    0  0.48823053538E+01  0.25150520763E+01 -0.33839879963E+01  0.64508733932E+01  0.51100000000E-03 0.  1.
        -11    1    3    3    0    0  0.40786125008E+01 -0.82783976878E+01  0.10166327789E+02  0.13730301132E+02  0.51100000000E-03 0. -1.
         12    1    3    3    0    0  0.18264332438E+02  0.62668234546E+01  0.23412012838E+02  0.30347673070E+02  0.00000000000E+00 0. -1.
</event>
<event>
 7    1  0.9406864E-013  0.5052886E+02  0.7816164E-02  0.1300439E+00
        -11   -1    0    0    0    0  0.00000000000E+00  0.00000000000E+00  0.45593999997E+02  0.45594000000E+02  0.51100000000E-03 0.  1.
         11   -1    0    0    0    0 -0.00000000000E+00 -0.00000000000E+00 -0.45593999997E+02  0.45594000000E+02  0.51100000000E-03 0. -1.
    9900012    2    1    2    0    0  0.33045184526E+02  0.19213436326E+02 -0.13857321305E+02  0.50528859459E+02  0.29999998811E+02 0.  0.
        -12    1    1    2    0    0 -0.33045184526E+02 -0.19213436326E+02  0.13857321305E+02  0.40659140541E+02  0.00000000000E+00 0.  1.
         11    1    3    3    0    0  0.26968903055E+02  0.12592469606E+01 -0.85199489488E+00  0.27011725796E+02  0.51100000000E-03 0. -1.
        -11    1    3    3    0    0  0.22396513757E+01  0.13131668993E+02 -0.10023384462E+02  0.16671082903E+02  0.51100000000E-03 0.  1.
         12    1    3    3    0    0  0.38366300947E+01  0.48225203725E+01 -0.29819419486E+01  0.68460507602E+01  0.00000000000E+00 0. -1.
</event>
<event>
 7    1  0.9406864E-013  0.5052888E+02  0.7816164E-02  0.1300439E+00
        -11   -1    0    0    0    0  0.00000000000E+00  0.00000000000E+00  0.45593999997E+02  0.45594000000E+02  0.51100000000E-03 0. -1.
         11   -1    0    0    0    0 -0.00000000000E+00 -0.00000000000E+00 -0.45593999997E+02  0.45594000000E+02  0.51100000000E-03 0.  1.
    9900012    2    1    2    0    0  0.22753162519E+02  0.30667618485E+02  0.13962613628E+02  0.50528882849E+02  0.30000069908E+02 0.  0.
        -12    1    1    2    0    0 -0.22753162519E+02 -0.30667618485E+02 -0.13962613628E+02  0.40659117151E+02  0.00000000000E+00 0.  1.
         11    1    3    3    0    0  0.24108797577E+01  0.38794641322E+01  0.11599275559E+01  0.47125381012E+01  0.51100000000E-03 0.  1.
        -11    1    3    3    0    0  0.23473902060E+02  0.28210041343E+02  0.16953427108E+02  0.40425848185E+02  0.51100000000E-03 0. -1.
        -12    1    3    3    0    0 -0.31316192988E+01 -0.14218869903E+01 -0.41507410359E+01  0.53904965627E+01  0.00000000000E+00 0.  1.
</event>
<event>
 7    1  0.9406864E-013  0.5052886E+02  0.7816164E-02  0.1300439E+00
        -11   -1    0    0    0    0  0.00000000000E+00  0.00000000000E+00  0.45593999997E+02  0.45594000000E+02  0.51100000000E-03 0. -1.
         11   -1    0    0    0    0 -0.00000000000E+00 -0.00000000000E+00 -0.45593999997E+02  0.45594000000E+02  0.51100000000E-03 0.  1.
    9900012    2    1    2    0    0 -0.10840990399E+02 -0.39177734680E+02 -0.86224755095E+00  0.50528862794E+02  0.30000008949E+02 0.  0.
        -12    1    1    2    0    0  0.10840990399E+02  0.39177734680E+02  0.86224755095E+00  0.40659137206E+02  0.00000000000E+00 0.  1.
         11    1    3    3    0    0  0.13322347229E+01 -0.74823055712E+01  0.74640067406E+01  0.10652283460E+02  0.51100000000E-03 0. -1.
        -11    1    3    3    0    0 -0.13713126399E+02 -0.32226964054E+02 -0.11030819160E+02  0.36719286749E+02  0.51100000000E-03 0.  1.
        -12    1    3    3    0    0  0.15399012765E+01  0.53153494560E+00  0.27045648688E+01  0.31572925853E+01  0.00000000000E+00 0.  1.
</event>
<event>
 7    1  0.9406864E-013  0.5052884E+02  0.7816164E-02  0.1300439E+00
        -11   -1    0    0    0    0  0.00000000000E+00  0.00000000000E+00  0.45593999997E+02  0.45594000000E+02  0.51100000000E-03 0.  1.
         11   -1    0    0    0    0 -0.00000000000E+00 -0.00000000000E+00 -0.45593999997E+02  0.45594000000E+02  0.51100000000E-03 0. -1.
    9900012    2    1    2    0    0  0.76238240122E+01  0.65459999859E+00 -0.39932647662E+02  0.50528836912E+02  0.29999930278E+02 0.  0.
        -12    1    1    2    0    0 -0.76238240122E+01 -0.65459999859E+00  0.39932647662E+02  0.40659163088E+02  0.00000000000E+00 0.  1.
         11    1    3    3    0    0  0.10173127284E+02  0.91823503094E+01 -0.21353641322E+02  0.25372939797E+02  0.51100000000E-03 0. -1.
        -11    1    3    3    0    0 -0.76480553340E+01 -0.41794922345E+01 -0.50872499892E+01  0.10091631109E+02  0.51100000000E-03 0.  1.
        -12    1    3    3    0    0  0.50987520623E+01 -0.43482580763E+01 -0.13491756350E+02  0.15064266006E+02  0.00000000000E+00 0.  1.
</event>
<event>
 7    1  0.9406864E-013  0.5052886E+02  0.7816164E-02  0.1300439E+00
        -11   -1    0    0    0    0  0.00000000000E+00  0.00000000000E+00  0.45593999997E+02  0.45594000000E+02  0.51100000000E-03 0. -1.
         11   -1    0    0    0    0 -0.00000000000E+00 -0.00000000000E+00 -0.45593999997E+02  0.45594000000E+02  0.51100000000E-03 0.  1.
    9900012    2    1    2    0    0  0.11000065260E+02  0.34971296177E+02  0.17583297760E+02  0.50528863854E+02  0.30000012170E+02 0.  0.
        -12    1    1    2    0    0 -0.11000065260E+02 -0.34971296177E+02 -0.17583297760E+02  0.40659136146E+02  0.00000000000E+00 0.  1.
         11    1    3    3    0    0 -0.54578663655E+01 -0.93038842910E+00  0.77027284853E+01  0.94860926768E+01  0.51100000000E-03 0. -1.
        -11    1    3    3    0    0  0.11150362754E+02  0.18135471850E+02  0.55894953968E+01  0.22010642603E+02  0.51100000000E-03 0.  1.
         12    1    3    3    0    0  0.53075688718E+01  0.17766212756E+02  0.42910738782E+01  0.19032128574E+02  0.00000000000E+00 0. -1.
</event>
<event>
 7    1  0.9406864E-013  0.5052886E+02  0.7816164E-02  0.1300439E+00
        -11   -1    0    0    0    0  0.00000000000E+00  0.00000000000E+00  0.45593999997E+02  0.45594000000E+02  0.51100000000E-03 0. -1.
         11   -1    0    0    0    0 -0.00000000000E+00 -0.00000000000E+00 -0.45593999997E+02  0.45594000000E+02  0.51100000000E-03 0.  1.
    9900012    2    1    2    0    0  0.17688852292E+02 -0.36398691284E+02 -0.39249848872E+01  0.50528859220E+02  0.29999998086E+02 0.  0.
        -12    1    1    2    0    0 -0.17688852292E+02  0.36398691284E+02  0.39249848872E+01  0.40659140780E+02  0.00000000000E+00 0.  1.
         11    1    3    3    0    0  0.19549890301E+02 -0.13063653127E+02 -0.93821038718E+01  0.25315629898E+02  0.51100000000E-03 0. -1.
        -11    1    3    3    0    0 -0.16453112083E+01 -0.14212705733E+01 -0.96218282284E+00  0.23775733554E+01  0.51100000000E-03 0.  1.
         12    1    3    3    0    0 -0.21572680012E+00 -0.21913767583E+02  0.64193018075E+01  0.22835655967E+02  0.00000000000E+00 0. -1.
</event>
<event>
 7    1  0.9406864E-013  0.5052886E+02  0.7816164E-02  0.1300439E+00
        -11   -1    0    0    0    0  0.00000000000E+00  0.00000000000E+00  0.45593999997E+02  0.45594000000E+02  0.51100000000E-03 0.  1.
         11   -1    0    0    0    0 -0.00000000000E+00 -0.00000000000E+00 -0.45593999997E+02  0.45594000000E+02  0.51100000000E-03 0. -1.
    9900012    2    1    2    0    0 -0.24739620731E+02 -0.64923053636E+01 -0.31606433870E+02  0.50528861730E+02  0.30000005714E+02 0.  0.
        -12    1    1    2    0    0  0.24739620731E+02  0.64923053636E+01  0.31606433870E+02  0.40659138270E+02  0.00000000000E+00 0.  1.
         11    1    3    3    0    0 -0.14201745147E+02  0.78891838878E+01 -0.27681956254E+02  0.32097032416E+02  0.51100000000E-03 0. -1.
        -11    1    3    3    0    0 -0.86453875801E+01 -0.10339071515E+02 -0.22461821507E+01  0.13663252201E+02  0.51100000000E-03 0.  1.
         12    1    3    3    0    0 -0.18924880047E+01 -0.40424177365E+01 -0.16782954655E+01  0.47685771121E+01  0.00000000000E+00 0. -1.
</event>
<event>
 7    1  0.9406864E-013  0.5052885E+02  0.7816164E-02  0.1300439E+00
        -11   -1    0    0    0    0  0.00000000000E+00  0.00000000000E+00  0.45593999997E+02  0.45594000000E+02  0.51100000000E-03 0.  1.
         11   -1    0    0    0    0 -0.00000000000E+00 -0.00000000000E+00 -0.45593999997E+02  0.45594000000E+02  0.51100000000E-03 0. -1.
    9900012    2    1    2    0    0  0.13425922595E+02  0.12686543319E+02 -0.36221020586E+02  0.50528854520E+02  0.29999983798E+02 0.  0.
        -12    1    1    2    0    0 -0.13425922595E+02 -0.12686543319E+02  0.36221020586E+02  0.40659145480E+02  0.00000000000E+00 0.  1.
         11    1    3    3    0    0  0.36601819111E+01  0.14187970560E+02 -0.22284629803E+02  0.26670211209E+02  0.51100000000E-03 0. -1.
        -11    1    3    3    0    0  0.12176967057E+02  0.34463505185E+01 -0.13232170605E+02  0.18309729594E+02  0.51100000000E-03 0.  1.
         12    1    3    3    0    0 -0.24112263731E+01 -0.49477777593E+01 -0.70422017733E+00  0.55489137168E+01  0.00000000000E+00 0. -1.
</event>
<event>
 7    1  0.9406864E-013  0.5052886E+02  0.7816164E-02  0.1300439E+00
        -11   -1    0    0    0    0  0.00000000000E+00  0.00000000000E+00  0.45593999997E+02  0.45594000000E+02  0.51100000000E-03 0. -1.
         11   -1    0    0    0    0 -0.00000000000E+00 -0.00000000000E+00 -0.45593999997E+02  0.45594000000E+02  0.51100000000E-03 0.  1.
    9900012    2    1    2    0    0  0.72793483931E+01  0.13492084246E+02  0.37658204846E+02  0.50528860283E+02  0.30000001315E+02 0.  0.
        -12    1    1    2    0    0 -0.72793483931E+01 -0.13492084246E+02 -0.37658204846E+02  0.40659139717E+02  0.00000000000E+00 0.  1.
         11    1    3    3    0    0 -0.11894487966E+01  0.96331931403E+01  0.10603477756E+02  0.14375219626E+02  0.51100000000E-03 0. -1.
        -11    1    3    3    0    0  0.66528629093E+01 -0.69765558521E+01  0.22081093106E+02  0.24093725106E+02  0.51100000000E-03 0.  1.
        -12    1    3    3    0    0  0.18159342804E+01  0.10835446958E+02  0.49736339832E+01  0.12059915550E+02  0.00000000000E+00 0.  1.
</event>
<event>
 7    1  0.9406864E-013  0.5052885E+02  0.7816164E-02  0.1300439E+00
        -11   -1    0    0    0    0  0.00000000000E+00  0.00000000000E+00  0.45593999997E+02  0.45594000000E+02  0.51100000000E-03 0.  1.
         11   -1    0    0    0    0 -0.00000000000E+00 -0.00000000000E+00 -0.45593999997E+02  0.45594000000E+02  0.51100000000E-03 0. -1.
    9900012    2    1    2    0    0  0.17454874105E+02 -0.11227509548E+02 -0.34963367076E+02  0.50528848041E+02  0.29999964107E+02 0.  0.
        -12    1    1    2    0    0 -0.17454874105E+02  0.11227509548E+02  0.34963367076E+02  0.40659151959E+02  0.00000000000E+00 0.  1.
         11    1    3    3    0    0  0.21364489465E+02 -0.24855807073E+01 -0.15135625784E+02  0.26300317293E+02  0.51100000000E-03 0. -1.
        -11    1    3    3    0    0 -0.10935128758E+01 -0.54830620332E+01 -0.20796247706E+01  0.59652811432E+01  0.51100000000E-03 0.  1.
         12    1    3    3    0    0 -0.28161024845E+01 -0.32588668074E+01 -0.17748116522E+02  0.18263249606E+02  0.00000000000E+00 0. -1.
</event>
<event>
 7    1  0.9406864E-013  0.5052886E+02  0.7816164E-02  0.1300439E+00
        -11   -1    0    0    0    0  0.00000000000E+00  0.00000000000E+00  0.45593999997E+02  0.45594000000E+02  0.51100000000E-03 0.  1.
         11   -1    0    0    0    0 -0.00000000000E+00 -0.00000000000E+00 -0.45593999997E+02  0.45594000000E+02  0.51100000000E-03 0. -1.
    9900012    2    1    2    0    0  0.32795177665E+02 -0.15112670954E+02 -0.18688218424E+02  0.50528855773E+02  0.29999987607E+02 0.  0.
        -12    1    1    2    0    0 -0.32795177665E+02  0.15112670954E+02  0.18688218424E+02  0.40659144227E+02  0.00000000000E+00 0.  1.
         11    1    3    3    0    0  0.12639492928E+02 -0.95360795176E+01  0.32585577959E+01  0.16165141299E+02  0.51100000000E-03 0. -1.
        -11    1    3    3    0    0  0.84519851783E+01  0.55383979728E+01 -0.10524932459E+02  0.14590548622E+02  0.51100000000E-03 0.  1.
         12    1    3    3    0    0  0.11703699559E+02 -0.11114989409E+02 -0.11421843761E+02  0.19773165852E+02  0.00000000000E+00 0. -1.
</event>
<event>
 7    1  0.9406864E-013  0.5052886E+02  0.7816164E-02  0.1300439E+00
        -11   -1    0    0    0    0  0.00000000000E+00  0.00000000000E+00  0.45593999997E+02  0.45594000000E+02  0.51100000000E-03 0.  1.
         11   -1    0    0    0    0 -0.00000000000E+00 -0.00000000000E+00 -0.45593999997E+02  0.45594000000E+02  0.51100000000E-03 0. -1.
    9900012    2    1    2    0    0 -0.13504905296E+02 -0.15257506115E+02 -0.35185102584E+02  0.50528863219E+02  0.30000010241E+02 0.  0.
        -12    1    1    2    0    0  0.13504905296E+02  0.15257506115E+02  0.35185102584E+02  0.40659136781E+02  0.00000000000E+00 0.  1.
         11    1    3    3    0    0 -0.69344832888E+01  0.31162406013E+01 -0.52885167527E+01  0.92610163412E+01  0.51100000000E-03 0. -1.
        -11    1    3    3    0    0  0.55874454888E+01 -0.27320653418E+01 -0.11021595474E+01  0.63165246814E+01  0.51100000000E-03 0.  1.
        -12    1    3    3    0    0 -0.12157867496E+02 -0.15641681374E+02 -0.28794426284E+02  0.34951322197E+02  0.00000000000E+00 0.  1.
</event>
<event>
 7    1  0.9406864E-013  0.5052886E+02  0.7816164E-02  0.1300439E+00
        -11   -1    0    0    0    0  0.00000000000E+00  0.00000000000E+00  0.45593999997E+02  0.45594000000E+02  0.51100000000E-03 0.  1.
         11   -1    0    0    0    0 -0.00000000000E+00 -0.00000000000E+00 -0.45593999997E+02  0.45594000000E+02  0.51100000000E-03 0. -1.
    9900012    2    1    2    0    0 -0.21419381267E+02  0.34425672632E+02  0.30411533426E+01  0.50528862729E+02  0.30000008750E+02 0.  0.
        -12    1    1    2    0    0  0.21419381267E+02 -0.34425672632E+02 -0.30411533426E+01  0.40659137271E+02  0.00000000000E+00 0.  1.
         11    1    3    3    0    0 -0.11561742368E+02 -0.11446560447E+01  0.14523525595E+01  0.11708691313E+02  0.51100000000E-03 0. -1.
        -11    1    3    3    0    0 -0.11258310384E+01  0.18684738927E+02 -0.37166281925E+01  0.19084032322E+02  0.51100000000E-03 0.  1.
        -12    1    3    3    0    0 -0.87318078608E+01  0.16885589749E+02  0.53054289756E+01  0.19736139093E+02  0.00000000000E+00 0.  1.
</event>
<event>
 7    1  0.9406864E-013  0.5052886E+02  0.7816164E-02  0.1300439E+00
        -11   -1    0    0    0    0  0.00000000000E+00  0.00000000000E+00  0.45593999997E+02  0.45594000000E+02  0.51100000000E-03 0.  1.
         11   -1    0    0    0    0 -0.00000000000E+00 -0.00000000000E+00 -0.45593999997E+02  0.45594000000E+02  0.51100000000E-03 0. -1.
    9900012    2    1    2    0    0  0.29805123879E+02 -0.20262205669E+02 -0.18821874244E+02  0.50528864027E+02  0.30000012695E+02 0.  0.
        -12    1    1    2    0    0 -0.29805123879E+02  0.20262205669E+02  0.18821874244E+02  0.40659135973E+02  0.00000000000E+00 0.  1.
         11    1    3    3    0    0  0.36228781537E+01  0.53788691449E+01 -0.66115666165E+01  0.92612252311E+01  0.51100000000E-03 0. -1.
        -11    1    3    3    0    0  0.24859045587E+02 -0.22454725454E+02 -0.58135732211E+01  0.33999771714E+02  0.51100000000E-03 0.  1.
        -12    1    3    3    0    0  0.13232001385E+01 -0.31863493600E+01 -0.63967344064E+01  0.72678670817E+01  0.00000000000E+00 0.  1.
</event>
<event>
 7    1  0.9406864E-013  0.5052885E+02  0.7816164E-02  0.1300439E+00
        -11   -1    0    0    0    0  0.00000000000E+00  0.00000000000E+00  0.45593999997E+02  0.45594000000E+02  0.51100000000E-03 0. -1.
         11   -1    0    0    0    0 -0.00000000000E+00 -0.00000000000E+00 -0.45593999997E+02  0.45594000000E+02  0.51100000000E-03 0.  1.
    9900012    2    1    2    0    0 -0.30776151588E+02 -0.22237098049E+02  0.14543247302E+02  0.50528854925E+02  0.29999985029E+02 0.  0.
        -12    1    1    2    0    0  0.30776151588E+02  0.22237098049E+02 -0.14543247302E+02  0.40659145075E+02  0.00000000000E+00 0.  1.
         11    1    3    3    0    0 -0.21559159327E+02 -0.24845149037E+02  0.20136826697E+02  0.38569036431E+02  0.51100000000E-03 0. -1.
        -11    1    3    3    0    0 -0.87404781144E+01  0.21544897328E+01 -0.33229697107E+01  0.95958278244E+01  0.51100000000E-03 0.  1.
         12    1    3    3    0    0 -0.47651414579E+00  0.45356125489E+00 -0.22706096846E+01  0.23639906689E+01  0.00000000000E+00 0. -1.
</event>
<event>
 7    1  0.9406864E-013  0.5052895E+02  0.7816164E-02  0.1300438E+00
        -11   -1    0    0    0    0  0.00000000000E+00  0.00000000000E+00  0.45593999997E+02  0.45594000000E+02  0.51100000000E-03 0.  1.
         11   -1    0    0    0    0 -0.00000000000E+00 -0.00000000000E+00 -0.45593999997E+02  0.45594000000E+02  0.51100000000E-03 0. -1.
    9900012    2    1    2    0    0  0.34182226438E+02  0.22104245890E+01 -0.21905425288E+02  0.50528951337E+02  0.30000278082E+02 0.  0.
        -12    1    1    2    0    0 -0.34182226438E+02 -0.22104245890E+01  0.21905425288E+02  0.40659048663E+02  0.00000000000E+00 0.  1.
         11    1    3    3    0    0  0.20579295897E+02  0.10762333978E+02 -0.21951386162E+02  0.31956198256E+02  0.51100000000E-03 0. -1.
        -11    1    3    3    0    0  0.14864182254E+02 -0.77304645570E+01  0.10111443388E+01  0.16784707608E+02  0.51100000000E-03 0.  1.
        -12    1    3    3    0    0 -0.12612517124E+01 -0.82144483221E+00 -0.96518346517E+00  0.17880454736E+01  0.00000000000E+00 0.  1.
</event>
<event>
 7    1  0.9406864E-013  0.5052884E+02  0.7816164E-02  0.1300439E+00
        -11   -1    0    0    0    0  0.00000000000E+00  0.00000000000E+00  0.45593999997E+02  0.45594000000E+02  0.51100000000E-03 0. -1.
         11   -1    0    0    0    0 -0.00000000000E+00 -0.00000000000E+00 -0.45593999997E+02  0.45594000000E+02  0.51100000000E-03 0.  1.
    9900012    2    1    2    0    0 -0.34659256184E+02 -0.13592170242E+01  0.21214518924E+02  0.50528839613E+02  0.29999938488E+02 0.  0.
        -12    1    1    2    0    0  0.34659256184E+02  0.13592170242E+01 -0.21214518924E+02  0.40659160387E+02  0.00000000000E+00 0.  1.
         11    1    3    3    0    0 -0.97347315891E+01 -0.59001323720E+01 -0.41803182470E+01  0.12126484323E+02  0.51100000000E-03 0. -1.
        -11    1    3    3    0    0 -0.15242529985E+02  0.58867139284E+01  0.23212276334E+02  0.28386579471E+02  0.51100000000E-03 0.  1.
         12    1    3    3    0    0 -0.96819946103E+01 -0.13457985807E+01  0.21825608375E+01  0.10015775819E+02  0.00000000000E+00 0. -1.
</event>
<event>
 7    1  0.9406864E-013  0.5052885E+02  0.7816164E-02  0.1300439E+00
        -11   -1    0    0    0    0  0.00000000000E+00  0.00000000000E+00  0.45593999997E+02  0.45594000000E+02  0.51100000000E-03 0. -1.
         11   -1    0    0    0    0 -0.00000000000E+00 -0.00000000000E+00 -0.45593999997E+02  0.45594000000E+02  0.51100000000E-03 0.  1.
    9900012    2    1    2    0    0  0.10839451096E+02 -0.38778647200E+02  0.56470478373E+01  0.50528851853E+02  0.29999975694E+02 0.  0.
        -12    1    1    2    0    0 -0.10839451096E+02  0.38778647200E+02 -0.56470478373E+01  0.40659148147E+02  0.00000000000E+00 0.  1.
         11    1    3    3    0    0  0.70348530719E+01 -0.32801411634E+02  0.48459460366E+01  0.33895500530E+02  0.51100000000E-03 0. -1.
        -11    1    3    3    0    0  0.64570861065E+01 -0.18047722886E+01 -0.54663014189E+01  0.86505268894E+01  0.51100000000E-03 0.  1.
        -12    1    3    3    0    0 -0.26524880822E+01 -0.41724632769E+01  0.62674032196E+01  0.79828244338E+01  0.00000000000E+00 0.  1.
</event>
<event>
 7    1  0.9406864E-013  0.5052886E+02  0.7816164E-02  0.1300439E+00
        -11   -1    0    0    0    0  0.00000000000E+00  0.00000000000E+00  0.45593999997E+02  0.45594000000E+02  0.51100000000E-03 0.  1.
         11   -1    0    0    0    0 -0.00000000000E+00 -0.00000000000E+00 -0.45593999997E+02  0.45594000000E+02  0.51100000000E-03 0. -1.
    9900012    2    1    2    0    0 -0.11735471894E+02  0.26400548651E+02 -0.28608653291E+02  0.50528864338E+02  0.30000013641E+02 0.  0.
        -12    1    1    2    0    0  0.11735471894E+02 -0.26400548651E+02  0.28608653291E+02  0.40659135662E+02  0.00000000000E+00 0.  1.
         11    1    3    3    0    0  0.70355868012E+01  0.42418599665E+01 -0.17023329052E+02  0.18902026079E+02  0.51100000000E-03 0. -1.
        -11    1    3    3    0    0 -0.13988928912E+02  0.13002974687E+02 -0.75814613818E+01  0.20548626226E+02  0.51100000000E-03 0.  1.
         12    1    3    3    0    0 -0.47821297827E+01  0.91557139976E+01 -0.40038628572E+01  0.11078212033E+02  0.00000000000E+00 0. -1.
</event>
<event>
 7    1  0.9406864E-013  0.5052886E+02  0.7816164E-02  0.1300439E+00
        -11   -1    0    0    0    0  0.00000000000E+00  0.00000000000E+00  0.45593999997E+02  0.45594000000E+02  0.51100000000E-03 0.  1.
         11   -1    0    0    0    0 -0.00000000000E+00 -0.00000000000E+00 -0.45593999997E+02  0.45594000000E+02  0.51100000000E-03 0. -1.
    9900012    2    1    2    0    0 -0.81403078895E+01 -0.13101542062E+02 -0.37619818782E+02  0.50528858566E+02  0.29999996097E+02 0.  0.
        -12    1    1    2    0    0  0.81403078895E+01  0.13101542062E+02  0.37619818782E+02  0.40659141434E+02  0.00000000000E+00 0.  1.
         11    1    3    3    0    0 -0.95678753201E+01 -0.21633080711E+02 -0.25265736849E+02  0.34610574655E+02  0.51100000000E-03 0. -1.
        -11    1    3    3    0    0  0.22951500893E+01  0.34631771142E+01 -0.86021163684E+01  0.95528904491E+01  0.51100000000E-03 0.  1.
         12    1    3    3    0    0 -0.86758265881E+00  0.50683615348E+01 -0.37519655650E+01  0.63653934614E+01  0.00000000000E+00 0. -1.
</event>
<event>
 7    1  0.9406864E-013  0.5052887E+02  0.7816164E-02  0.1300439E+00
        -11   -1    0    0    0    0  0.00000000000E+00  0.00000000000E+00  0.45593999997E+02  0.45594000000E+02  0.51100000000E-03 0.  1.
         11   -1    0    0    0    0 -0.00000000000E+00 -0.00000000000E+00 -0.45593999997E+02  0.45594000000E+02  0.51100000000E-03 0. -1.
    9900012    2    1    2    0    0 -0.11882513112E+02  0.37674556845E+02 -0.96228233750E+01  0.50528867188E+02  0.30000022304E+02 0.  0.
        -12    1    1    2    0    0  0.11882513112E+02 -0.37674556845E+02  0.96228233750E+01  0.40659132812E+02  0.00000000000E+00 0.  1.
         11    1    3    3    0    0  0.18485033937E+01  0.21257897712E+02 -0.50757651536E+01  0.21933503416E+02  0.51100000000E-03 0. -1.
        -11    1    3    3    0    0 -0.13187170667E+02  0.65929322839E+01 -0.95414527863E+01  0.17561536033E+02  0.51100000000E-03 0.  1.
        -12    1    3    3    0    0 -0.54384583838E+00  0.98237268491E+01  0.49943945648E+01  0.11033827739E+02  0.00000000000E+00 0.  1.
</event>
<event>
 7    1  0.9406864E-013  0.5052891E+02  0.7816164E-02  0.1300439E+00
        -11   -1    0    0    0    0  0.00000000000E+00  0.00000000000E+00  0.45593999997E+02  0.45594000000E+02  0.51100000000E-03 0.  1.
         11   -1    0    0    0    0 -0.00000000000E+00 -0.00000000000E+00 -0.45593999997E+02  0.45594000000E+02  0.51100000000E-03 0. -1.
    9900012    2    1    2    0    0 -0.91608858140E+01  0.18693683758E+00 -0.39613192292E+02  0.50528907808E+02  0.30000145773E+02 0.  0.
        -12    1    1    2    0    0  0.91608858140E+01 -0.18693683758E+00  0.39613192292E+02  0.40659092192E+02  0.00000000000E+00 0.  1.
         11    1    3    3    0    0  0.36494589022E+01  0.58822048737E+01 -0.18677669450E+02  0.19919192273E+02  0.51100000000E-03 0. -1.
        -11    1    3    3    0    0 -0.14261587442E+02 -0.98491280279E+01 -0.19236837699E+02  0.25893128899E+02  0.51100000000E-03 0.  1.
        -12    1    3    3    0    0  0.14512427259E+01  0.41538599918E+01 -0.16986851435E+01  0.47165866363E+01  0.00000000000E+00 0.  1.
</event>
<event>
 7    1  0.9406864E-013  0.5052887E+02  0.7816164E-02  0.1300439E+00
        -11   -1    0    0    0    0  0.00000000000E+00  0.00000000000E+00  0.45593999997E+02  0.45594000000E+02  0.51100000000E-03 0.  1.
         11   -1    0    0    0    0 -0.00000000000E+00 -0.00000000000E+00 -0.45593999997E+02  0.45594000000E+02  0.51100000000E-03 0. -1.
    9900012    2    1    2    0    0  0.18299349319E+02  0.20167537831E+02 -0.30192202145E+02  0.50528870176E+02  0.30000031388E+02 0.  0.
        -12    1    1    2    0    0 -0.18299349319E+02 -0.20167537831E+02  0.30192202145E+02  0.40659129824E+02  0.00000000000E+00 0.  1.
         11    1    3    3    0    0  0.19498346948E+02  0.61569105519E+01 -0.52053005873E+01  0.21099484252E+02  0.51100000000E-03 0. -1.
        -11    1    3    3    0    0 -0.19562476175E+01  0.28709741439E+01 -0.23667608071E+01  0.42036834152E+01  0.51100000000E-03 0.  1.
         12    1    3    3    0    0  0.75724998856E+00  0.11139653135E+02 -0.22620140751E+02  0.25225702509E+02  0.00000000000E+00 0. -1.
</event>
<event>
 7    1  0.9406864E-013  0.5052888E+02  0.7816164E-02  0.1300439E+00
        -11   -1    0    0    0    0  0.00000000000E+00  0.00000000000E+00  0.45593999997E+02  0.45594000000E+02  0.51100000000E-03 0.  1.
         11   -1    0    0    0    0 -0.00000000000E+00 -0.00000000000E+00 -0.45593999997E+02  0.45594000000E+02  0.51100000000E-03 0. -1.
    9900012    2    1    2    0    0 -0.62609238528E+01  0.22401981327E+02 -0.33348405783E+02  0.50528879213E+02  0.30000058855E+02 0.  0.
        -12    1    1    2    0    0  0.62609238528E+01 -0.22401981327E+02  0.33348405783E+02  0.40659120787E+02  0.00000000000E+00 0.  1.
         11    1    3    3    0    0  0.19463812550E+01  0.96379208727E+01 -0.10200420183E+02  0.14167797673E+02  0.51100000000E-03 0. -1.
        -11    1    3    3    0    0 -0.37567650342E+01 -0.52958275546E+01 -0.14421060947E+02  0.15815374549E+02  0.51100000000E-03 0.  1.
        -12    1    3    3    0    0 -0.44505400736E+01  0.18059888009E+02 -0.87269246534E+01  0.20545706991E+02  0.00000000000E+00 0.  1.
</event>
<event>
 7    1  0.9406864E-013  0.5052887E+02  0.7816164E-02  0.1300439E+00
        -11   -1    0    0    0    0  0.00000000000E+00  0.00000000000E+00  0.45593999997E+02  0.45594000000E+02  0.51100000000E-03 0.  1.
         11   -1    0    0    0    0 -0.00000000000E+00 -0.00000000000E+00 -0.45593999997E+02  0.45594000000E+02  0.51100000000E-03 0. -1.
    9900012    2    1    2    0    0 -0.29249840394E+00  0.21739310102E+02 -0.34358143847E+02  0.50528865631E+02  0.30000017572E+02 0.  0.
        -12    1    1    2    0    0  0.29249840394E+00 -0.21739310102E+02  0.34358143847E+02  0.40659134369E+02  0.00000000000E+00 0.  1.
         11    1    3    3    0    0 -0.71569230042E+01 -0.32953022022E+00  0.15857975928E+01  0.73379078299E+01  0.51100000000E-03 0. -1.
        -11    1    3    3    0    0  0.50938645910E+01  0.64072097921E+01 -0.12469713266E+02  0.14916217449E+02  0.51100000000E-03 0.  1.
         12    1    3    3    0    0  0.17705600092E+01  0.15661630531E+02 -0.23474228173E+02  0.28274740352E+02  0.00000000000E+00 0. -1.
</event>
<event>
 7    1  0.9406864E-013  0.5052886E+02  0.7816164E-02  0.1300439E+00
        -11   -1    0    0    0    0  0.00000000000E+00  0.00000000000E+00  0.45593999997E+02  0.45594000000E+02  0.51100000000E-03 0. -1.
         11   -1    0    0    0    0 -0.00000000000E+00 -0.00000000000E+00 -0.45593999997E+02  0.45594000000E+02  0.51100000000E-03 0.  1.
    9900012    2    1    2    0    0  0.77282380190E+00  0.33625643160E+02  0.22844787985E+02  0.50528862373E+02  0.30000007667E+02 0.  0.
        -12    1    1    2    0    0 -0.77282380190E+00 -0.33625643160E+02 -0.22844787985E+02  0.40659137627E+02  0.00000000000E+00 0.  1.
         11    1    3    3    0    0  0.10703404132E+02  0.21388751875E+02  0.85328514127E+01  0.25393918963E+02  0.51100000000E-03 0. -1.
        -11    1    3    3    0    0 -0.12331753983E+02  0.10588187451E+02  0.78566323558E+01  0.18052937213E+02  0.51100000000E-03 0.  1.
        -12    1    3    3    0    0  0.24011736528E+01  0.16487038341E+01  0.64553042162E+01  0.70820061965E+01  0.00000000000E+00 0.  1.
</event>
<event>
 7    1  0.9406864E-013  0.5052890E+02  0.7816164E-02  0.1300439E+00
        -11   -1    0    0    0    0  0.00000000000E+00  0.00000000000E+00  0.45593999997E+02  0.45594000000E+02  0.51100000000E-03 0. -1.
         11   -1    0    0    0    0 -0.00000000000E+00 -0.00000000000E+00 -0.45593999997E+02  0.45594000000E+02  0.51100000000E-03 0.  1.
    9900012    2    1    2    0    0  0.27104283090E+02 -0.19145779271E+02  0.23493824243E+02  0.50528895199E+02  0.30000107445E+02 0.  0.
        -12    1    1    2    0    0 -0.27104283090E+02  0.19145779271E+02 -0.23493824243E+02  0.40659104801E+02  0.00000000000E+00 0.  1.
         11    1    3    3    0    0 -0.42400498606E+01 -0.78710182218E+01  0.11794081494E+02  0.14799706390E+02  0.51100000000E-03 0. -1.
        -11    1    3    3    0    0  0.18429704212E+02 -0.87493688719E+01  0.89889791975E+01  0.22293658297E+02  0.51100000000E-03 0.  1.
         12    1    3    3    0    0  0.12914628739E+02 -0.25253921769E+01  0.27107635514E+01  0.13435530512E+02  0.00000000000E+00 0. -1.
</event>
<event>
 7    1  0.9406864E-013  0.5052885E+02  0.7816164E-02  0.1300439E+00
        -11   -1    0    0    0    0  0.00000000000E+00  0.00000000000E+00  0.45593999997E+02  0.45594000000E+02  0.51100000000E-03 0.  1.
         11   -1    0    0    0    0 -0.00000000000E+00 -0.00000000000E+00 -0.45593999997E+02  0.45594000000E+02  0.51100000000E-03 0. -1.
    9900012    2    1    2    0    0 -0.32270715608E+02  0.16099371389E+02 -0.18777054692E+02  0.50528848165E+02  0.29999964484E+02 0.  0.
        -12    1    1    2    0    0  0.32270715608E+02 -0.16099371389E+02  0.18777054692E+02  0.40659151835E+02  0.00000000000E+00 0.  1.
         11    1    3    3    0    0 -0.23330688467E+02  0.19343210513E+02 -0.98021952710E+01  0.31852218913E+02  0.51100000000E-03 0. -1.
        -11    1    3    3    0    0 -0.39789100826E+01 -0.57271743510E+01 -0.10782938209E+02  0.12841495559E+02  0.51100000000E-03 0.  1.
        -12    1    3    3    0    0 -0.49611170590E+01  0.24833352265E+01  0.18080787881E+01  0.58351336938E+01  0.00000000000E+00 0.  1.
</event>
<event>
 7    1  0.9406864E-013  0.5052886E+02  0.7816164E-02  0.1300439E+00
        -11   -1    0    0    0    0  0.00000000000E+00  0.00000000000E+00  0.45593999997E+02  0.45594000000E+02  0.51100000000E-03 0.  1.
         11   -1    0    0    0    0 -0.00000000000E+00 -0.00000000000E+00 -0.45593999997E+02  0.45594000000E+02  0.51100000000E-03 0. -1.
    9900012    2    1    2    0    0  0.30011664030E+02  0.23296470124E+02 -0.14482398340E+02  0.50528863760E+02  0.30000011886E+02 0.  0.
        -12    1    1    2    0    0 -0.30011664030E+02 -0.23296470124E+02  0.14482398340E+02  0.40659136240E+02  0.00000000000E+00 0.  1.
         11    1    3    3    0    0  0.60590881443E+01  0.15985778121E+02 -0.11983243470E+02  0.20877159184E+02  0.51100000000E-03 0. -1.
        -11    1    3    3    0    0  0.18621397985E+01  0.31596377558E+01  0.47804178208E+01  0.60252195130E+01  0.51100000000E-03 0.  1.
         12    1    3    3    0    0  0.22090436087E+02  0.41510542467E+01 -0.72795726910E+01  0.23626485063E+02  0.00000000000E+00 0. -1.
</event>
<event>
 7    1  0.9406864E-013  0.5052886E+02  0.7816164E-02  0.1300439E+00
        -11   -1    0    0    0    0  0.00000000000E+00  0.00000000000E+00  0.45593999997E+02  0.45594000000E+02  0.51100000000E-03 0. -1.
         11   -1    0    0    0    0 -0.00000000000E+00 -0.00000000000E+00 -0.45593999997E+02  0.45594000000E+02  0.51100000000E-03 0.  1.
    9900012    2    1    2    0    0  0.28117100609E+02  0.22798060659E+02  0.18516011740E+02  0.50528860717E+02  0.30000002635E+02 0.  0.
        -12    1    1    2    0    0 -0.28117100609E+02 -0.22798060659E+02 -0.18516011740E+02  0.40659139283E+02  0.00000000000E+00 0.  1.
         11    1    3    3    0    0  0.10022279636E+02  0.24334126388E+02  0.95294558332E+01  0.27989396651E+02  0.51100000000E-03 0. -1.
        -11    1    3    3    0    0  0.12081876701E+02 -0.48103894867E+01  0.27794840359E+01  0.13298012009E+02  0.51100000000E-03 0.  1.
        -12    1    3    3    0    0  0.60129442728E+01  0.32743237576E+01  0.62070718709E+01  0.92414520562E+01  0.00000000000E+00 0.  1.
</event>
<event>
 7    1  0.9406864E-013  0.5052884E+02  0.7816164E-02  0.1300439E+00
        -11   -1    0    0    0    0  0.00000000000E+00  0.00000000000E+00  0.45593999997E+02  0.45594000000E+02  0.51100000000E-03 0.  1.
         11   -1    0    0    0    0 -0.00000000000E+00 -0.00000000000E+00 -0.45593999997E+02  0.45594000000E+02  0.51100000000E-03 0. -1.
    9900012    2    1    2    0    0 -0.72333918290E+01 -0.74063892346E+00 -0.40003706150E+02  0.50528843477E+02  0.29999950233E+02 0.  0.
        -12    1    1    2    0    0  0.72333918290E+01  0.74063892346E+00  0.40003706150E+02  0.40659156523E+02  0.00000000000E+00 0.  1.
         11    1    3    3    0    0 -0.92125282162E+01  0.69302368186E+01 -0.68217063751E+01  0.13395317713E+02  0.51100000000E-03 0. -1.
        -11    1    3    3    0    0  0.24442743390E+01 -0.11223439295E+02 -0.16715342180E+02  0.20281586011E+02  0.51100000000E-03 0.  1.
        -12    1    3    3    0    0 -0.46513795179E+00  0.35525635527E+01 -0.16466657595E+02  0.16851939754E+02  0.00000000000E+00 0.  1.
</event>
<event>
 7    1  0.9406864E-013  0.5052889E+02  0.7816164E-02  0.1300439E+00
        -11   -1    0    0    0    0  0.00000000000E+00  0.00000000000E+00  0.45593999997E+02  0.45594000000E+02  0.51100000000E-03 0. -1.
         11   -1    0    0    0    0 -0.00000000000E+00 -0.00000000000E+00 -0.45593999997E+02  0.45594000000E+02  0.51100000000E-03 0.  1.
    9900012    2    1    2    0    0  0.20997585784E+02 -0.33570770752E+02  0.92340779009E+01  0.50528887216E+02  0.30000083182E+02 0.  0.
        -12    1    1    2    0    0 -0.20997585784E+02  0.33570770752E+02 -0.92340779009E+01  0.40659112784E+02  0.00000000000E+00 0.  1.
         11    1    3    3    0    0  0.21375493536E+02 -0.22690719481E+02  0.55511998349E+01  0.31663801009E+02  0.51100000000E-03 0. -1.
        -11    1    3    3    0    0 -0.13279068054E+01 -0.12071002602E+01 -0.53213272782E+01  0.56157770420E+01  0.51100000000E-03 0.  1.
        -12    1    3    3    0    0  0.94999905332E+00 -0.96729510112E+01  0.90042053443E+01  0.13249309165E+02  0.00000000000E+00 0.  1.
</event>
<event>
 7    1  0.9406864E-013  0.5052885E+02  0.7816164E-02  0.1300439E+00
        -11   -1    0    0    0    0  0.00000000000E+00  0.00000000000E+00  0.45593999997E+02  0.45594000000E+02  0.51100000000E-03 0.  1.
         11   -1    0    0    0    0 -0.00000000000E+00 -0.00000000000E+00 -0.45593999997E+02  0.45594000000E+02  0.51100000000E-03 0. -1.
    9900012    2    1    2    0    0 -0.33374026010E+01 -0.79139524961E+01 -0.39741630992E+02  0.50528854237E+02  0.29999982939E+02 0.  0.
        -12    1    1    2    0    0  0.33374026010E+01  0.79139524961E+01  0.39741630992E+02  0.40659145763E+02  0.00000000000E+00 0.  1.
         11    1    3    3    0    0 -0.24229325673E+00  0.60403395970E+01 -0.32535995132E+02  0.33092829857E+02  0.51100000000E-03 0. -1.
        -11    1    3    3    0    0 -0.26501410832E+01 -0.11901194948E+01 -0.31030884573E+00  0.29216303691E+01  0.51100000000E-03 0.  1.
         12    1    3    3    0    0 -0.44496826106E+00 -0.12764172598E+02 -0.68953270150E+01  0.14514394011E+02  0.00000000000E+00 0. -1.
</event>
<event>
 7    1  0.9406864E-013  0.5052886E+02  0.7816164E-02  0.1300439E+00
        -11   -1    0    0    0    0  0.00000000000E+00  0.00000000000E+00  0.45593999997E+02  0.45594000000E+02  0.51100000000E-03 0.  1.
         11   -1    0    0    0    0 -0.00000000000E+00 -0.00000000000E+00 -0.45593999997E+02  0.45594000000E+02  0.51100000000E-03 0. -1.
    9900012    2    1    2    0    0 -0.42976150813E+01 -0.22552235320E+02 -0.33557311578E+02  0.50528856211E+02  0.29999988939E+02 0.  0.
        -12    1    1    2    0    0  0.42976150813E+01  0.22552235320E+02  0.33557311578E+02  0.40659143789E+02  0.00000000000E+00 0.  1.
         11    1    3    3    0    0 -0.14795292048E+02 -0.10249922757E+02 -0.21714887669E+02  0.28204572857E+02  0.51100000000E-03 0. -1.
        -11    1    3    3    0    0  0.65171702670E+01 -0.15477947743E+01 -0.75160798681E+01  0.10067801835E+02  0.51100000000E-03 0.  1.
         12    1    3    3    0    0  0.39805066996E+01 -0.10754517789E+02 -0.43263440410E+01  0.12256481519E+02  0.00000000000E+00 0. -1.
</event>
<event>
 7    1  0.9406864E-013  0.5052885E+02  0.7816164E-02  0.1300439E+00
        -11   -1    0    0    0    0  0.00000000000E+00  0.00000000000E+00  0.45593999997E+02  0.45594000000E+02  0.51100000000E-03 0. -1.
         11   -1    0    0    0    0 -0.00000000000E+00 -0.00000000000E+00 -0.45593999997E+02  0.45594000000E+02  0.51100000000E-03 0.  1.
    9900012    2    1    2    0    0  0.80669193836E+01  0.10597740716E+02  0.38415873131E+02  0.50528848447E+02  0.29999965339E+02 0.  0.
        -12    1    1    2    0    0 -0.80669193836E+01 -0.10597740716E+02 -0.38415873131E+02  0.40659151553E+02  0.00000000000E+00 0.  1.
         11    1    3    3    0    0 -0.22139975181E+01 -0.28943639053E+01 -0.23448033849E+01  0.43332701972E+01  0.51100000000E-03 0. -1.
        -11    1    3    3    0    0  0.11077799612E+02  0.12171700078E+02  0.22536719865E+02  0.27906480781E+02  0.51100000000E-03 0.  1.
         12    1    3    3    0    0 -0.79688271042E+00  0.13204045433E+01  0.18223956651E+02  0.18289097469E+02  0.00000000000E+00 0. -1.
</event>
<event>
 7    1  0.9406864E-013  0.5052888E+02  0.7816164E-02  0.1300439E+00
        -11   -1    0    0    0    0  0.00000000000E+00  0.00000000000E+00  0.45593999997E+02  0.45594000000E+02  0.51100000000E-03 0. -1.
         11   -1    0    0    0    0 -0.00000000000E+00 -0.00000000000E+00 -0.45593999997E+02  0.45594000000E+02  0.51100000000E-03 0.  1.
    9900012    2    1    2    0    0  0.22634220923E+02  0.31770800136E+02 -0.11466151980E+02  0.50528876309E+02  0.30000050030E+02 0.  0.
        -12    1    1    2    0    0 -0.22634220923E+02 -0.31770800136E+02  0.11466151980E+02  0.40659123691E+02  0.00000000000E+00 0.  1.
         11    1    3    3    0    0  0.20899909925E+01  0.11869370525E+02  0.87376459116E+01  0.14886116866E+02  0.51100000000E-03 0. -1.
        -11    1    3    3    0    0  0.12266933005E+02  0.91827461436E+01 -0.13965013695E+02  0.20732150874E+02  0.51100000000E-03 0.  1.
         12    1    3    3    0    0  0.82772969253E+01  0.10718683468E+02 -0.62387841964E+01  0.14910608570E+02  0.00000000000E+00 0. -1.
</event>
<event>
 7    1  0.9406864E-013  0.5052885E+02  0.7816164E-02  0.1300439E+00
        -11   -1    0    0    0    0  0.00000000000E+00  0.00000000000E+00  0.45593999997E+02  0.45594000000E+02  0.51100000000E-03 0.  1.
         11   -1    0    0    0    0 -0.00000000000E+00 -0.00000000000E+00 -0.45593999997E+02  0.45594000000E+02  0.51100000000E-03 0. -1.
    9900012    2    1    2    0    0  0.40327325270E+02  0.64955641312E+00 -0.51430878589E+01  0.50528850480E+02  0.29999971520E+02 0.  0.
        -12    1    1    2    0    0 -0.40327325270E+02 -0.64955641312E+00  0.51430878589E+01  0.40659149520E+02  0.00000000000E+00 0.  1.
         11    1    3    3    0    0  0.39094794985E+02 -0.63258842211E+00 -0.12757943000E+02  0.41128679445E+02  0.51100000000E-03 0. -1.
        -11    1    3    3    0    0  0.12034423944E+01  0.32879871045E+01  0.46631364538E+01  0.58312927078E+01  0.51100000000E-03 0.  1.
         12    1    3    3    0    0  0.29087890228E-01 -0.20058422692E+01  0.29517186867E+01  0.35688783280E+01  0.00000000000E+00 0. -1.
</event>
<event>
 7    1  0.9406864E-013  0.5052888E+02  0.7816164E-02  0.1300439E+00
        -11   -1    0    0    0    0  0.00000000000E+00  0.00000000000E+00  0.45593999997E+02  0.45594000000E+02  0.51100000000E-03 0. -1.
         11   -1    0    0    0    0 -0.00000000000E+00 -0.00000000000E+00 -0.45593999997E+02  0.45594000000E+02  0.51100000000E-03 0.  1.
    9900012    2    1    2    0    0 -0.28492785773E+02  0.37366352988E+01  0.28763918040E+02  0.50528877217E+02  0.30000052789E+02 0.  0.
        -12    1    1    2    0    0  0.28492785773E+02 -0.37366352988E+01 -0.28763918040E+02  0.40659122783E+02  0.00000000000E+00 0.  1.
         11    1    3    3    0    0 -0.79048809745E+01  0.69356890259E+00  0.69966360414E+01  0.10579276781E+02  0.51100000000E-03 0. -1.
        -11    1    3    3    0    0  0.13938703186E+01 -0.29846853499E+01  0.16138990865E+02  0.16471740877E+02  0.51100000000E-03 0.  1.
        -12    1    3    3    0    0 -0.21981775117E+02  0.60277517461E+01  0.56282911336E+01  0.23477859559E+02  0.00000000000E+00 0.  1.
</event>
<event>
 7    1  0.9406864E-013  0.5052886E+02  0.7816164E-02  0.1300439E+00
        -11   -1    0    0    0    0  0.00000000000E+00  0.00000000000E+00  0.45593999997E+02  0.45594000000E+02  0.51100000000E-03 0. -1.
         11   -1    0    0    0    0 -0.00000000000E+00 -0.00000000000E+00 -0.45593999997E+02  0.45594000000E+02  0.51100000000E-03 0.  1.
    9900012    2    1    2    0    0  0.10312751373E+02  0.24657502173E+02  0.30640179702E+02  0.50528857529E+02  0.29999992946E+02 0.  0.
        -12    1    1    2    0    0 -0.10312751373E+02 -0.24657502173E+02 -0.30640179702E+02  0.40659142471E+02  0.00000000000E+00 0.  1.
         11    1    3    3    0    0  0.73016962151E+01 -0.26287886440E+01 -0.86229548168E+00  0.78082553181E+01  0.51100000000E-03 0.  1.
        -11    1    3    3    0    0  0.12129832682E+01  0.12572457980E+02  0.21169497844E+02  0.24651281251E+02  0.51100000000E-03 0. -1.
        -12    1    3    3    0    0  0.17980718899E+01  0.14713832837E+02  0.10332977339E+02  0.18069320960E+02  0.00000000000E+00 0.  1.
</event>
<event>
 7    1  0.9406864E-013  0.5052886E+02  0.7816164E-02  0.1300439E+00
        -11   -1    0    0    0    0  0.00000000000E+00  0.00000000000E+00  0.45593999997E+02  0.45594000000E+02  0.51100000000E-03 0.  1.
         11   -1    0    0    0    0 -0.00000000000E+00 -0.00000000000E+00 -0.45593999997E+02  0.45594000000E+02  0.51100000000E-03 0. -1.
    9900012    2    1    2    0    0  0.24527507976E+02 -0.22924063715E+02 -0.22935866810E+02  0.50528864113E+02  0.30000012957E+02 0.  0.
        -12    1    1    2    0    0 -0.24527507976E+02  0.22924063715E+02  0.22935866810E+02  0.40659135887E+02  0.00000000000E+00 0.  1.
         11    1    3    3    0    0  0.11561388275E+02 -0.22288340335E+02 -0.20892362260E+02  0.32663842622E+02  0.51100000000E-03 0. -1.
        -11    1    3    3    0    0  0.22124218441E+01  0.47621635866E+01  0.12343187115E+01  0.53941222997E+01  0.51100000000E-03 0.  1.
         12    1    3    3    0    0  0.10753697857E+02 -0.53978869672E+01 -0.32778232615E+01  0.12470899191E+02  0.00000000000E+00 0. -1.
</event>
<event>
 7    1  0.9406864E-013  0.5052886E+02  0.7816164E-02  0.1300439E+00
        -11   -1    0    0    0    0  0.00000000000E+00  0.00000000000E+00  0.45593999997E+02  0.45594000000E+02  0.51100000000E-03 0.  1.
         11   -1    0    0    0    0 -0.00000000000E+00 -0.00000000000E+00 -0.45593999997E+02  0.45594000000E+02  0.51100000000E-03 0. -1.
    9900012    2    1    2    0    0  0.50252218380E+01 -0.27291322540E+02 -0.29716938379E+02  0.50528861210E+02  0.30000004134E+02 0.  0.
        -12    1    1    2    0    0 -0.50252218380E+01  0.27291322540E+02  0.29716938379E+02  0.40659138790E+02  0.00000000000E+00 0.  1.
         11    1    3    3    0    0  0.30677661096E+01 -0.63933351417E+01 -0.11117395723E+02  0.13186448008E+02  0.51100000000E-03 0. -1.
        -11    1    3    3    0    0 -0.10718452272E+02 -0.13619830020E+02 -0.13099296278E+02  0.21725021337E+02  0.51100000000E-03 0.  1.
        -12    1    3    3    0    0  0.12675908000E+02 -0.72781573788E+01 -0.55002463783E+01  0.15617391865E+02  0.00000000000E+00 0.  1.
</event>
<event>
 7    1  0.9406864E-013  0.5052889E+02  0.7816164E-02  0.1300439E+00
        -11   -1    0    0    0    0  0.00000000000E+00  0.00000000000E+00  0.45593999997E+02  0.45594000000E+02  0.51100000000E-03 0.  1.
         11   -1    0    0    0    0 -0.00000000000E+00 -0.00000000000E+00 -0.45593999997E+02  0.45594000000E+02  0.51100000000E-03 0. -1.
    9900012    2    1    2    0    0 -0.21758582273E+02  0.22626203924E+02 -0.25841485967E+02  0.50528887817E+02  0.30000085007E+02 0.  0.
        -12    1    1    2    0    0  0.21758582273E+02 -0.22626203924E+02  0.25841485967E+02  0.40659112183E+02  0.00000000000E+00 0.  1.
         11    1    3    3    0    0 -0.14466673892E+02  0.14661649202E+02 -0.31289615780E+02  0.37460494748E+02  0.51100000000E-03 0. -1.
        -11    1    3    3    0    0 -0.72163076163E+01  0.62841951926E+01  0.28701473235E+01  0.99901927285E+01  0.51100000000E-03 0.  1.
        -12    1    3    3    0    0 -0.75600764166E-01  0.16803595296E+01  0.25779824888E+01  0.30782003406E+01  0.00000000000E+00 0.  1.
</event>
<event>
 7    1  0.9406864E-013  0.5052886E+02  0.7816164E-02  0.1300439E+00
        -11   -1    0    0    0    0  0.00000000000E+00  0.00000000000E+00  0.45593999997E+02  0.45594000000E+02  0.51100000000E-03 0.  1.
         11   -1    0    0    0    0 -0.00000000000E+00 -0.00000000000E+00 -0.45593999997E+02  0.45594000000E+02  0.51100000000E-03 0. -1.
    9900012    2    1    2    0    0  0.17967368722E+02  0.29757551587E+02 -0.21090936909E+02  0.50528857917E+02  0.29999994124E+02 0.  0.
        -12    1    1    2    0    0 -0.17967368722E+02 -0.29757551587E+02  0.21090936909E+02  0.40659142083E+02  0.00000000000E+00 0.  1.
         11    1    3    3    0    0  0.65849677403E+01  0.43305995646E+01  0.38838512636E+01  0.87863640733E+01  0.51100000000E-03 0.  1.
        -11    1    3    3    0    0  0.11662491150E+02  0.28269205295E+02 -0.23127226857E+02  0.38340974038E+02  0.51100000000E-03 0. -1.
         12    1    3    3    0    0 -0.28009016786E+00 -0.28422532731E+01 -0.18475613154E+01  0.34015198052E+01  0.00000000000E+00 0. -1.
</event>
<event>
 7    1  0.9406864E-013  0.5052885E+02  0.7816164E-02  0.1300439E+00
        -11   -1    0    0    0    0  0.00000000000E+00  0.00000000000E+00  0.45593999997E+02  0.45594000000E+02  0.51100000000E-03 0.  1.
         11   -1    0    0    0    0 -0.00000000000E+00 -0.00000000000E+00 -0.45593999997E+02  0.45594000000E+02  0.51100000000E-03 0. -1.
    9900012    2    1    2    0    0 -0.39869139712E+02 -0.34331648721E+01  0.71994055793E+01  0.50528851422E+02  0.29999974381E+02 0.  0.
        -12    1    1    2    0    0  0.39869139712E+02  0.34331648721E+01 -0.71994055793E+01  0.40659148578E+02  0.00000000000E+00 0.  1.
         11    1    3    3    0    0 -0.30923142391E+02 -0.14818346338E+02  0.28520577308E+01  0.34408695951E+02  0.51100000000E-03 0. -1.
        -11    1    3    3    0    0  0.47220585803E+00  0.25725359782E+01  0.52785513523E+00  0.26682486833E+01  0.51100000000E-03 0.  1.
         12    1    3    3    0    0 -0.94182031794E+01  0.88126454876E+01  0.38194927133E+01  0.13451906787E+02  0.00000000000E+00 0. -1.
</event>
<event>
 7    1  0.9406864E-013  0.5052886E+02  0.7816164E-02  0.1300439E+00
        -11   -1    0    0    0    0  0.00000000000E+00  0.00000000000E+00  0.45593999997E+02  0.45594000000E+02  0.51100000000E-03 0.  1.
         11   -1    0    0    0    0 -0.00000000000E+00 -0.00000000000E+00 -0.45593999997E+02  0.45594000000E+02  0.51100000000E-03 0. -1.
    9900012    2    1    2    0    0 -0.13375969394E+02  0.38249702722E+02  0.33480628204E+01  0.50528857852E+02  0.29999993926E+02 0.  0.
        -12    1    1    2    0    0  0.13375969394E+02 -0.38249702722E+02 -0.33480628204E+01  0.40659142148E+02  0.00000000000E+00 0.  1.
         11    1    3    3    0    0 -0.95071109831E+01  0.21647551153E+02 -0.71458880893E+01  0.24699500947E+02  0.51100000000E-03 0. -1.
        -11    1    3    3    0    0  0.43565490121E+01  0.13569243865E+02  0.92116220322E+01  0.16969321703E+02  0.51100000000E-03 0.  1.
        -12    1    3    3    0    0 -0.82254074234E+01  0.30329077045E+01  0.12823288776E+01  0.88600352017E+01  0.00000000000E+00 0.  1.
</event>
<event>
 7    1  0.9406864E-013  0.5052887E+02  0.7816164E-02  0.1300439E+00
        -11   -1    0    0    0    0  0.00000000000E+00  0.00000000000E+00  0.45593999997E+02  0.45594000000E+02  0.51100000000E-03 0.  1.
         11   -1    0    0    0    0 -0.00000000000E+00 -0.00000000000E+00 -0.45593999997E+02  0.45594000000E+02  0.51100000000E-03 0. -1.
    9900012    2    1    2    0    0  0.26505745835E+02 -0.28682633366E+02 -0.11310028672E+02  0.50528871042E+02  0.30000034018E+02 0.  0.
        -12    1    1    2    0    0 -0.26505745835E+02  0.28682633366E+02  0.11310028672E+02  0.40659128958E+02  0.00000000000E+00 0.  1.
         11    1    3    3    0    0 -0.57622350355E+00 -0.35290997020E+01 -0.66635976700E+01  0.75624144558E+01  0.51100000000E-03 0. -1.
        -11    1    3    3    0    0  0.27077798454E+02 -0.15220657669E+02  0.18174294387E+01  0.31115569078E+02  0.51100000000E-03 0.  1.
        -12    1    3    3    0    0  0.41708844175E-02 -0.99328759947E+01 -0.64638604411E+01  0.11850887508E+02  0.00000000000E+00 0.  1.
</event>
<event>
 7    1  0.9406864E-013  0.5052886E+02  0.7816164E-02  0.1300439E+00
        -11   -1    0    0    0    0  0.00000000000E+00  0.00000000000E+00  0.45593999997E+02  0.45594000000E+02  0.51100000000E-03 0.  1.
         11   -1    0    0    0    0 -0.00000000000E+00 -0.00000000000E+00 -0.45593999997E+02  0.45594000000E+02  0.51100000000E-03 0. -1.
    9900012    2    1    2    0    0  0.21811814772E+02 -0.10449981932E+02 -0.32683460165E+02  0.50528856448E+02  0.29999989660E+02 0.  0.
        -12    1    1    2    0    0 -0.21811814772E+02  0.10449981932E+02  0.32683460165E+02  0.40659143552E+02  0.00000000000E+00 0.  1.
         11    1    3    3    0    0 -0.25833669668E+00 -0.32284342650E+01 -0.94056163868E+01  0.99476200937E+01  0.51100000000E-03 0. -1.
        -11    1    3    3    0    0  0.21106821878E+02 -0.12155123056E+02 -0.99028027018E+01  0.26292783191E+02  0.51100000000E-03 0.  1.
        -12    1    3    3    0    0  0.96332959070E+00  0.49335753893E+01 -0.13375041076E+02  0.14288453164E+02  0.00000000000E+00 0.  1.
</event>
<event>
 7    1  0.9406864E-013  0.5052881E+02  0.7816164E-02  0.1300439E+00
        -11   -1    0    0    0    0  0.00000000000E+00  0.00000000000E+00  0.45593999997E+02  0.45594000000E+02  0.51100000000E-03 0. -1.
         11   -1    0    0    0    0 -0.00000000000E+00 -0.00000000000E+00 -0.45593999997E+02  0.45594000000E+02  0.51100000000E-03 0.  1.
    9900012    2    1    2    0    0  0.37814899309E+02 -0.14058316368E+02 -0.50563492218E+01  0.50528812399E+02  0.29999855769E+02 0.  0.
        -12    1    1    2    0    0 -0.37814899309E+02  0.14058316368E+02  0.50563492218E+01  0.40659187601E+02  0.00000000000E+00 0.  1.
         11    1    3    3    0    0  0.53980042482E+01  0.82746724230E+01 -0.18929036109E+01  0.10059410416E+02  0.51100000000E-03 0. -1.
        -11    1    3    3    0    0  0.26319891497E+02 -0.13788408860E+02 -0.37913330344E+01  0.29953816347E+02  0.51100000000E-03 0.  1.
         12    1    3    3    0    0  0.60970035638E+01 -0.85445799315E+01  0.62788742340E+00  0.10515585637E+02  0.00000000000E+00 0. -1.
</event>
<event>
 7    1  0.9406864E-013  0.5052885E+02  0.7816164E-02  0.1300439E+00
        -11   -1    0    0    0    0  0.00000000000E+00  0.00000000000E+00  0.45593999997E+02  0.45594000000E+02  0.51100000000E-03 0.  1.
         11   -1    0    0    0    0 -0.00000000000E+00 -0.00000000000E+00 -0.45593999997E+02  0.45594000000E+02  0.51100000000E-03 0. -1.
    9900012    2    1    2    0    0  0.21375588131E+02  0.92516008451E+01 -0.33326548129E+02  0.50528847324E+02  0.29999961926E+02 0.  0.
        -12    1    1    2    0    0 -0.21375588131E+02 -0.92516008451E+01  0.33326548129E+02  0.40659152676E+02  0.00000000000E+00 0.  1.
         11    1    3    3    0    0  0.47871328777E+01 -0.10548709208E+01 -0.18813260633E+02  0.19441403493E+02  0.51100000000E-03 0. -1.
        -11    1    3    3    0    0  0.81329241866E+01 -0.38375549003E+01  0.20140258835E+00  0.89951012613E+01  0.51100000000E-03 0.  1.
         12    1    3    3    0    0  0.84555310667E+01  0.14144026666E+02 -0.14714690084E+02  0.22092342570E+02  0.00000000000E+00 0. -1.
</event>
<event>
 7    1  0.9406864E-013  0.5052886E+02  0.7816164E-02  0.1300439E+00
        -11   -1    0    0    0    0  0.00000000000E+00  0.00000000000E+00  0.45593999997E+02  0.45594000000E+02  0.51100000000E-03 0.  1.
         11   -1    0    0    0    0 -0.00000000000E+00 -0.00000000000E+00 -0.45593999997E+02  0.45594000000E+02  0.51100000000E-03 0. -1.
    9900012    2    1    2    0    0 -0.20279332814E+02 -0.35189473748E+02 -0.19013726127E+01  0.50528860562E+02  0.30000002164E+02 0.  0.
        -12    1    1    2    0    0  0.20279332814E+02  0.35189473748E+02  0.19013726127E+01  0.40659139438E+02  0.00000000000E+00 0.  1.
         11    1    3    3    0    0 -0.17772066933E+02 -0.13746089353E+02 -0.77621328502E+01  0.23770823339E+02  0.51100000000E-03 0. -1.
        -11    1    3    3    0    0 -0.72446720799E+00 -0.19564713213E+02 -0.81746824546E+00  0.19595180796E+02  0.51100000000E-03 0.  1.
         12    1    3    3    0    0 -0.17827986737E+01 -0.18786711818E+01  0.66782284829E+01  0.71628564268E+01  0.00000000000E+00 0. -1.
</event>
<event>
 7    1  0.9406864E-013  0.5052886E+02  0.7816164E-02  0.1300439E+00
        -11   -1    0    0    0    0  0.00000000000E+00  0.00000000000E+00  0.45593999997E+02  0.45594000000E+02  0.51100000000E-03 0.  1.
         11   -1    0    0    0    0 -0.00000000000E+00 -0.00000000000E+00 -0.45593999997E+02  0.45594000000E+02  0.51100000000E-03 0. -1.
    9900012    2    1    2    0    0 -0.20729236680E+02 -0.17314333184E+00 -0.34977627523E+02  0.50528860080E+02  0.30000000699E+02 0.  0.
        -12    1    1    2    0    0  0.20729236680E+02  0.17314333184E+00  0.34977627523E+02  0.40659139920E+02  0.00000000000E+00 0.  1.
         11    1    3    3    0    0 -0.89491705701E+01  0.52857026347E+01 -0.20936118562E+02  0.23374074675E+02  0.51100000000E-03 0. -1.
        -11    1    3    3    0    0 -0.15282775297E+02 -0.65605569819E+01 -0.15926503061E+02  0.23027323525E+02  0.51100000000E-03 0.  1.
        -12    1    3    3    0    0  0.35027091878E+01  0.11017110153E+01  0.18849940997E+01  0.41274618801E+01  0.00000000000E+00 0.  1.
</event>
<event>
 7    1  0.9406864E-013  0.5052885E+02  0.7816164E-02  0.1300439E+00
        -11   -1    0    0    0    0  0.00000000000E+00  0.00000000000E+00  0.45593999997E+02  0.45594000000E+02  0.51100000000E-03 0. -1.
         11   -1    0    0    0    0 -0.00000000000E+00 -0.00000000000E+00 -0.45593999997E+02  0.45594000000E+02  0.51100000000E-03 0.  1.
    9900012    2    1    2    0    0 -0.25691267246E+01  0.43090906783E+01  0.40348451188E+02  0.50528853577E+02  0.29999980933E+02 0.  0.
        -12    1    1    2    0    0  0.25691267246E+01 -0.43090906783E+01 -0.40348451188E+02  0.40659146423E+02  0.00000000000E+00 0.  1.
         11    1    3    3    0    0 -0.26450704350E+01  0.53742498790E+01 -0.32737098555E+01  0.68261362312E+01  0.51100000000E-03 0.  1.
        -11    1    3    3    0    0 -0.57662578948E+00 -0.13660578386E+01  0.38698169283E+02  0.38726566042E+02  0.51100000000E-03 0. -1.
        -12    1    3    3    0    0  0.65256949985E+00  0.30089863787E+00  0.49239917605E+01  0.49761513040E+01  0.00000000000E+00 0.  1.
</event>
<event>
 7    1  0.9406864E-013  0.5052880E+02  0.7816164E-02  0.1300439E+00
        -11   -1    0    0    0    0  0.00000000000E+00  0.00000000000E+00  0.45593999997E+02  0.45594000000E+02  0.51100000000E-03 0.  1.
         11   -1    0    0    0    0 -0.00000000000E+00 -0.00000000000E+00 -0.45593999997E+02  0.45594000000E+02  0.51100000000E-03 0. -1.
    9900012    2    1    2    0    0  0.35153543675E+01  0.97975146567E+01 -0.39304214524E+02  0.50528803142E+02  0.29999827631E+02 0.  0.
        -12    1    1    2    0    0 -0.35153543675E+01 -0.97975146567E+01  0.39304214524E+02  0.40659196858E+02  0.00000000000E+00 0.  1.
         11    1    3    3    0    0  0.12089326892E+02  0.93679190368E+01 -0.12037816742E+02  0.19463267042E+02  0.51100000000E-03 0. -1.
        -11    1    3    3    0    0 -0.70284103038E+01  0.16346712685E+01 -0.51567672831E+01  0.88692136420E+01  0.51100000000E-03 0.  1.
        -12    1    3    3    0    0 -0.15455622202E+01 -0.12050756486E+01 -0.22109630499E+02  0.22196322459E+02  0.00000000000E+00 0.  1.
</event>
<event>
 7    1  0.9406864E-013  0.5052886E+02  0.7816164E-02  0.1300439E+00
        -11   -1    0    0    0    0  0.00000000000E+00  0.00000000000E+00  0.45593999997E+02  0.45594000000E+02  0.51100000000E-03 0.  1.
         11   -1    0    0    0    0 -0.00000000000E+00 -0.00000000000E+00 -0.45593999997E+02  0.45594000000E+02  0.51100000000E-03 0. -1.
    9900012    2    1    2    0    0  0.45555308353E+01 -0.40016153618E+02 -0.55785623662E+01  0.50528858719E+02  0.29999996563E+02 0.  0.
        -12    1    1    2    0    0 -0.45555308353E+01  0.40016153618E+02  0.55785623662E+01  0.40659141281E+02  0.00000000000E+00 0.  1.
         11    1    3    3    0    0  0.43927511744E+01 -0.50127260624E+01 -0.11515489241E+02  0.13305268812E+02  0.51100000000E-03 0. -1.
        -11    1    3    3    0    0  0.50628992644E+01 -0.95079027787E+01  0.21938647416E+01  0.10993007185E+02  0.51100000000E-03 0.  1.
         12    1    3    3    0    0 -0.49001196034E+01 -0.25495524777E+02  0.37430621328E+01  0.26230582722E+02  0.00000000000E+00 0. -1.
</event>
<event>
 7    1  0.9406864E-013  0.5052886E+02  0.7816164E-02  0.1300439E+00
        -11   -1    0    0    0    0  0.00000000000E+00  0.00000000000E+00  0.45593999997E+02  0.45594000000E+02  0.51100000000E-03 0.  1.
         11   -1    0    0    0    0 -0.00000000000E+00 -0.00000000000E+00 -0.45593999997E+02  0.45594000000E+02  0.51100000000E-03 0. -1.
    9900012    2    1    2    0    0 -0.17630471954E+02  0.36634674525E+02 -0.48226585967E+00  0.50528862045E+02  0.30000006673E+02 0.  0.
        -12    1    1    2    0    0  0.17630471954E+02 -0.36634674525E+02  0.48226585967E+00  0.40659137955E+02  0.00000000000E+00 0.  1.
         11    1    3    3    0    0 -0.10757071635E+02  0.21177368136E+02 -0.74843295373E+01  0.24904029798E+02  0.51100000000E-03 0. -1.
        -11    1    3    3    0    0  0.47225400232E+01  0.19835386739E+00  0.40684303836E+01  0.62364937725E+01  0.51100000000E-03 0.  1.
        -12    1    3    3    0    0 -0.11595940343E+02  0.15258952522E+02  0.29336332940E+01  0.19388338475E+02  0.00000000000E+00 0.  1.
</event>
<event>
 7    1  0.9406864E-013  0.5052887E+02  0.7816164E-02  0.1300439E+00
        -11   -1    0    0    0    0  0.00000000000E+00  0.00000000000E+00  0.45593999997E+02  0.45594000000E+02  0.51100000000E-03 0.  1.
         11   -1    0    0    0    0 -0.00000000000E+00 -0.00000000000E+00 -0.45593999997E+02  0.45594000000E+02  0.51100000000E-03 0. -1.
    9900012    2    1    2    0    0  0.83013959937E+01 -0.35855765039E+02  0.17280505857E+02  0.50528868865E+02  0.30000027402E+02 0.  0.
        -12    1    1    2    0    0 -0.83013959937E+01  0.35855765039E+02 -0.17280505857E+02  0.40659131135E+02  0.00000000000E+00 0.  1.
         11    1    3    3    0    0 -0.77864624399E+01 -0.88236105205E+01  0.15680913875E+01  0.11871984283E+02  0.51100000000E-03 0. -1.
        -11    1    3    3    0    0  0.66634303540E+01 -0.23578254102E+02  0.14688882189E+02  0.28567440047E+02  0.51100000000E-03 0.  1.
         12    1    3    3    0    0  0.94244280796E+01 -0.34539004164E+01  0.10235322806E+01  0.10089444536E+02  0.00000000000E+00 0. -1.
</event>
<event>
 7    1  0.9406864E-013  0.5052886E+02  0.7816164E-02  0.1300439E+00
        -11   -1    0    0    0    0  0.00000000000E+00  0.00000000000E+00  0.45593999997E+02  0.45594000000E+02  0.51100000000E-03 0.  1.
         11   -1    0    0    0    0 -0.00000000000E+00 -0.00000000000E+00 -0.45593999997E+02  0.45594000000E+02  0.51100000000E-03 0. -1.
    9900012    2    1    2    0    0 -0.23021880471E+02  0.21464059087E+02  0.25738153728E+02  0.50528863631E+02  0.30000011494E+02 0.  0.
        -12    1    1    2    0    0  0.23021880471E+02 -0.21464059087E+02 -0.25738153728E+02  0.40659136369E+02  0.00000000000E+00 0.  1.
         11    1    3    3    0    0 -0.50635273845E+01  0.61913222764E+01 -0.21461861242E+01  0.82811772258E+01  0.51100000000E-03 0. -1.
        -11    1    3    3    0    0  0.25670843783E+01  0.32331181414E+00  0.12045641586E+02  0.12320386935E+02  0.51100000000E-03 0.  1.
        -12    1    3    3    0    0 -0.20525437465E+02  0.14949424996E+02  0.15838698266E+02  0.29927299471E+02  0.00000000000E+00 0.  1.
</event>
<event>
 7    1  0.9406864E-013  0.5052886E+02  0.7816164E-02  0.1300439E+00
        -11   -1    0    0    0    0  0.00000000000E+00  0.00000000000E+00  0.45593999997E+02  0.45594000000E+02  0.51100000000E-03 0.  1.
         11   -1    0    0    0    0 -0.00000000000E+00 -0.00000000000E+00 -0.45593999997E+02  0.45594000000E+02  0.51100000000E-03 0. -1.
    9900012    2    1    2    0    0 -0.82758671965E+01  0.38873992494E+02 -0.85725480605E+01  0.50528857725E+02  0.29999993542E+02 0.  0.
        -12    1    1    2    0    0  0.82758671965E+01 -0.38873992494E+02  0.85725480605E+01  0.40659142275E+02  0.00000000000E+00 0.  1.
         11    1    3    3    0    0  0.10131632202E+02  0.14194876591E+02 -0.20892706872E+01  0.17564439780E+02  0.51100000000E-03 0. -1.
        -11    1    3    3    0    0 -0.74213568428E+01  0.29957684819E+01 -0.12579866929E+01  0.81014626436E+01  0.51100000000E-03 0.  1.
         12    1    3    3    0    0 -0.10986142556E+02  0.21683347421E+02 -0.52252906804E+01  0.24862955301E+02  0.00000000000E+00 0. -1.
</event>
<event>
 7    1  0.9406864E-013  0.5052887E+02  0.7816164E-02  0.1300439E+00
        -11   -1    0    0    0    0  0.00000000000E+00  0.00000000000E+00  0.45593999997E+02  0.45594000000E+02  0.51100000000E-03 0.  1.
         11   -1    0    0    0    0 -0.00000000000E+00 -0.00000000000E+00 -0.45593999997E+02  0.45594000000E+02  0.51100000000E-03 0. -1.
    9900012    2    1    2    0    0 -0.29646179805E+02 -0.85443401205E+01 -0.26481368512E+02  0.50528873061E+02  0.30000040158E+02 0.  0.
        -12    1    1    2    0    0  0.29646179805E+02  0.85443401205E+01  0.26481368512E+02  0.40659126939E+02  0.00000000000E+00 0.  1.
         11    1    3    3    0    0 -0.28378551486E+02 -0.76810184328E+01 -0.18364075167E+02  0.34663806565E+02  0.51100000000E-03 0. -1.
        -11    1    3    3    0    0 -0.36486147803E+01 -0.28281236585E+01  0.21870774144E+01  0.51082268079E+01  0.51100000000E-03 0.  1.
         12    1    3    3    0    0  0.23809864616E+01  0.19648019708E+01 -0.10304370760E+02  0.10756839688E+02  0.00000000000E+00 0. -1.
</event>
<event>
 7    1  0.9406864E-013  0.5052886E+02  0.7816164E-02  0.1300439E+00
        -11   -1    0    0    0    0  0.00000000000E+00  0.00000000000E+00  0.45593999997E+02  0.45594000000E+02  0.51100000000E-03 0.  1.
         11   -1    0    0    0    0 -0.00000000000E+00 -0.00000000000E+00 -0.45593999997E+02  0.45594000000E+02  0.51100000000E-03 0. -1.
    9900012    2    1    2    0    0  0.38833144034E+02 -0.10538316842E+02  0.58392408212E+01  0.50528856738E+02  0.29999990540E+02 0.  0.
        -12    1    1    2    0    0 -0.38833144034E+02  0.10538316842E+02 -0.58392408212E+01  0.40659143262E+02  0.00000000000E+00 0.  1.
         11    1    3    3    0    0  0.89042076263E+01  0.18202095611E+01  0.18265373484E+01  0.92700763344E+01  0.51100000000E-03 0. -1.
        -11    1    3    3    0    0  0.59139367317E+01 -0.11990332012E+02  0.97720700591E+01  0.16560074364E+02  0.51100000000E-03 0.  1.
        -12    1    3    3    0    0  0.24014999676E+02 -0.36819439035E+00 -0.57593665862E+01  0.24698706040E+02  0.00000000000E+00 0.  1.
</event>
<event>
 7    1  0.9406864E-013  0.5052886E+02  0.7816164E-02  0.1300439E+00
        -11   -1    0    0    0    0  0.00000000000E+00  0.00000000000E+00  0.45593999997E+02  0.45594000000E+02  0.51100000000E-03 0.  1.
         11   -1    0    0    0    0 -0.00000000000E+00 -0.00000000000E+00 -0.45593999997E+02  0.45594000000E+02  0.51100000000E-03 0. -1.
    9900012    2    1    2    0    0  0.37238851755E+02 -0.87788348860E+01  0.13761027986E+02  0.50528856954E+02  0.29999991198E+02 0.  0.
        -12    1    1    2    0    0 -0.37238851755E+02  0.87788348860E+01 -0.13761027986E+02  0.40659143046E+02  0.00000000000E+00 0.  1.
         11    1    3    3    0    0  0.13918071425E+02  0.51275843773E+01  0.14779361417E+02  0.20938824177E+02  0.51100000000E-03 0. -1.
        -11    1    3    3    0    0  0.67509117563E+00 -0.10790624258E+01 -0.32282098615E+01  0.34700811208E+01  0.51100000000E-03 0.  1.
         12    1    3    3    0    0  0.22645689154E+02 -0.12827356838E+02  0.22098764304E+01  0.26119951657E+02  0.00000000000E+00 0. -1.
</event>
<event>
 7    1  0.9406864E-013  0.5052886E+02  0.7816164E-02  0.1300439E+00
        -11   -1    0    0    0    0  0.00000000000E+00  0.00000000000E+00  0.45593999997E+02  0.45594000000E+02  0.51100000000E-03 0. -1.
         11   -1    0    0    0    0 -0.00000000000E+00 -0.00000000000E+00 -0.45593999997E+02  0.45594000000E+02  0.51100000000E-03 0.  1.
    9900012    2    1    2    0    0 -0.61912488729E+01 -0.31064369923E+02  0.25491943655E+02  0.50528857945E+02  0.29999994211E+02 0.  0.
        -12    1    1    2    0    0  0.61912488729E+01  0.31064369923E+02 -0.25491943655E+02  0.40659142055E+02  0.00000000000E+00 0.  1.
         11    1    3    3    0    0 -0.14203154832E+02 -0.11264435159E+02  0.17316019778E+02  0.25069137357E+02  0.51100000000E-03 0. -1.
        -11    1    3    3    0    0  0.64472676858E+01 -0.31124914074E+01  0.39412161656E+01  0.81723955177E+01  0.51100000000E-03 0.  1.
        -12    1    3    3    0    0  0.15646382731E+01 -0.16687443356E+02  0.42347077116E+01  0.17287325070E+02  0.00000000000E+00 0.  1.
</event>
<event>
 7    1  0.9406864E-013  0.5052885E+02  0.7816164E-02  0.1300439E+00
        -11   -1    0    0    0    0  0.00000000000E+00  0.00000000000E+00  0.45593999997E+02  0.45594000000E+02  0.51100000000E-03 0.  1.
         11   -1    0    0    0    0 -0.00000000000E+00 -0.00000000000E+00 -0.45593999997E+02  0.45594000000E+02  0.51100000000E-03 0. -1.
    9900012    2    1    2    0    0  0.18932480823E+02  0.20998197948E+02 -0.29219908073E+02  0.50528853736E+02  0.29999981414E+02 0.  0.
        -12    1    1    2    0    0 -0.18932480823E+02 -0.20998197948E+02  0.29219908073E+02  0.40659146264E+02  0.00000000000E+00 0.  1.
         11    1    3    3    0    0  0.95796350912E-01 -0.53013651912E+01 -0.87900920880E+01  0.10265445388E+02  0.51100000000E-03 0. -1.
        -11    1    3    3    0    0  0.19591236314E+02  0.20643987845E+02 -0.14167649733E+02  0.31791713916E+02  0.51100000000E-03 0.  1.
         12    1    3    3    0    0 -0.75455184210E+00  0.56555752938E+01 -0.62621662520E+01  0.84716944323E+01  0.00000000000E+00 0. -1.
</event>
<event>
 7    1  0.9406864E-013  0.5052887E+02  0.7816164E-02  0.1300439E+00
        -11   -1    0    0    0    0  0.00000000000E+00  0.00000000000E+00  0.45593999997E+02  0.45594000000E+02  0.51100000000E-03 0. -1.
         11   -1    0    0    0    0 -0.00000000000E+00 -0.00000000000E+00 -0.45593999997E+02  0.45594000000E+02  0.51100000000E-03 0.  1.
    9900012    2    1    2    0    0  0.12092375244E+02  0.23658540915E+02  0.30776817471E+02  0.50528873215E+02  0.30000040624E+02 0.  0.
        -12    1    1    2    0    0 -0.12092375244E+02 -0.23658540915E+02 -0.30776817471E+02  0.40659126785E+02  0.00000000000E+00 0.  1.
         11    1    3    3    0    0  0.18907428195E+02  0.18923061926E+02  0.19402847177E+02  0.33046082860E+02  0.51100000000E-03 0. -1.
        -11    1    3    3    0    0 -0.18117707011E+01 -0.82973034624E+00 -0.15661429043E+01  0.25345156103E+01  0.51100000000E-03 0.  1.
         12    1    3    3    0    0 -0.50032822497E+01  0.55652093356E+01  0.12940113199E+02  0.14948274744E+02  0.00000000000E+00 0. -1.
</event>
<event>
 7    1  0.9406864E-013  0.5052885E+02  0.7816164E-02  0.1300439E+00
        -11   -1    0    0    0    0  0.00000000000E+00  0.00000000000E+00  0.45593999997E+02  0.45594000000E+02  0.51100000000E-03 0. -1.
         11   -1    0    0    0    0 -0.00000000000E+00 -0.00000000000E+00 -0.45593999997E+02  0.45594000000E+02  0.51100000000E-03 0.  1.
    9900012    2    1    2    0    0  0.83614674256E+01 -0.35621555124E+02  0.17730113579E+02  0.50528852757E+02  0.29999978441E+02 0.  0.
        -12    1    1    2    0    0 -0.83614674256E+01  0.35621555124E+02 -0.17730113579E+02  0.40659147243E+02  0.00000000000E+00 0.  1.
         11    1    3    3    0    0  0.13339527094E+02 -0.30882565639E+01  0.46907446421E+01  0.14473541283E+02  0.51100000000E-03 0. -1.
        -11    1    3    3    0    0 -0.61679081854E+01 -0.18834339375E+02  0.67698514872E+01  0.20942930084E+02  0.51100000000E-03 0.  1.
         12    1    3    3    0    0  0.11898485168E+01 -0.13698959185E+02  0.62695174493E+01  0.15112381390E+02  0.00000000000E+00 0. -1.
</event>
<event>
 7    1  0.9406864E-013  0.5052884E+02  0.7816164E-02  0.1300439E+00
        -11   -1    0    0    0    0  0.00000000000E+00  0.00000000000E+00  0.45593999997E+02  0.45594000000E+02  0.51100000000E-03 0. -1.
         11   -1    0    0    0    0 -0.00000000000E+00 -0.00000000000E+00 -0.45593999997E+02  0.45594000000E+02  0.51100000000E-03 0.  1.
    9900012    2    1    2    0    0  0.27183658957E+02  0.99243819378E+01  0.28560854144E+02  0.50528842845E+02  0.29999948311E+02 0.  0.
        -12    1    1    2    0    0 -0.27183658957E+02 -0.99243819378E+01 -0.28560854144E+02  0.40659157155E+02  0.00000000000E+00 0.  1.
         11    1    3    3    0    0 -0.23796305834E+01 -0.59016842373E+01  0.10116765644E+01  0.64432917273E+01  0.51100000000E-03 0. -1.
        -11    1    3    3    0    0 -0.28778232318E+00 -0.30487932175E+00  0.70419192098E+00  0.81954657529E+00  0.51100000000E-03 0.  1.
         12    1    3    3    0    0  0.29851071864E+02  0.16130945497E+02  0.26844985659E+02  0.43266004542E+02  0.00000000000E+00 0. -1.
</event>
<event>
 7    1  0.9406864E-013  0.5052886E+02  0.7816164E-02  0.1300439E+00
        -11   -1    0    0    0    0  0.00000000000E+00  0.00000000000E+00  0.45593999997E+02  0.45594000000E+02  0.51100000000E-03 0.  1.
         11   -1    0    0    0    0 -0.00000000000E+00 -0.00000000000E+00 -0.45593999997E+02  0.45594000000E+02  0.51100000000E-03 0. -1.
    9900012    2    1    2    0    0 -0.25004650213E+02 -0.93690487075E+01 -0.30661932960E+02  0.50528859099E+02  0.29999997719E+02 0.  0.
        -12    1    1    2    0    0  0.25004650213E+02  0.93690487075E+01  0.30661932960E+02  0.40659140901E+02  0.00000000000E+00 0.  1.
         11    1    3    3    0    0 -0.13698486649E+02 -0.21281108444E+01  0.20420977669E+01  0.14012407209E+02  0.51100000000E-03 0. -1.
        -11    1    3    3    0    0 -0.18179888128E+01 -0.31328336167E+01 -0.20418925326E+01  0.41580109631E+01  0.51100000000E-03 0.  1.
         12    1    3    3    0    0 -0.94881747506E+01 -0.41081042463E+01 -0.30662138194E+02  0.32358440927E+02  0.00000000000E+00 0. -1.
</event>
<event>
 7    1  0.9406864E-013  0.5052887E+02  0.7816164E-02  0.1300439E+00
        -11   -1    0    0    0    0  0.00000000000E+00  0.00000000000E+00  0.45593999997E+02  0.45594000000E+02  0.51100000000E-03 0. -1.
         11   -1    0    0    0    0 -0.00000000000E+00 -0.00000000000E+00 -0.45593999997E+02  0.45594000000E+02  0.51100000000E-03 0.  1.
    9900012    2    1    2    0    0  0.44374344066E+01  0.34619476093E+02  0.20855827668E+02  0.50528874373E+02  0.30000044144E+02 0.  0.
        -12    1    1    2    0    0 -0.44374344066E+01 -0.34619476093E+02 -0.20855827668E+02  0.40659125627E+02  0.00000000000E+00 0.  1.
         11    1    3    3    0    0  0.40791678611E+00  0.35246683230E+02  0.99180951026E+01  0.36617805581E+02  0.51100000000E-03 0. -1.
        -11    1    3    3    0    0 -0.18658559432E+01 -0.14670078440E+01  0.48252976036E+01  0.53774554986E+01  0.51100000000E-03 0.  1.
         12    1    3    3    0    0  0.58953735636E+01  0.83980070664E+00  0.61124349613E+01  0.85336132931E+01  0.00000000000E+00 0. -1.
</event>
<event>
 7    1  0.9406864E-013  0.5052886E+02  0.7816164E-02  0.1300439E+00
        -11   -1    0    0    0    0  0.00000000000E+00  0.00000000000E+00  0.45593999997E+02  0.45594000000E+02  0.51100000000E-03 0. -1.
         11   -1    0    0    0    0 -0.00000000000E+00 -0.00000000000E+00 -0.45593999997E+02  0.45594000000E+02  0.51100000000E-03 0.  1.
    9900012    2    1    2    0    0 -0.19508124572E+02  0.96380630186E+01  0.34346858298E+02  0.50528857633E+02  0.29999993262E+02 0.  0.
        -12    1    1    2    0    0  0.19508124572E+02 -0.96380630186E+01 -0.34346858298E+02  0.40659142367E+02  0.00000000000E+00 0.  1.
         11    1    3    3    0    0  0.19014972289E+01  0.36886382800E+00  0.84188831159E+01  0.86388277801E+01  0.51100000000E-03 0. -1.
        -11    1    3    3    0    0 -0.16024259242E+02  0.14243399317E+01  0.20894544973E+01  0.16222559874E+02  0.51100000000E-03 0.  1.
        -12    1    3    3    0    0 -0.53853625580E+01  0.78448592589E+01  0.23838520685E+02  0.25667469979E+02  0.00000000000E+00 0.  1.
</event>
<event>
 7    1  0.9406864E-013  0.5052885E+02  0.7816164E-02  0.1300439E+00
        -11   -1    0    0    0    0  0.00000000000E+00  0.00000000000E+00  0.45593999997E+02  0.45594000000E+02  0.51100000000E-03 0.  1.
         11   -1    0    0    0    0 -0.00000000000E+00 -0.00000000000E+00 -0.45593999997E+02  0.45594000000E+02  0.51100000000E-03 0. -1.
    9900012    2    1    2    0    0 -0.99429644067E+01 -0.13406510809E+02 -0.37075181359E+02  0.50528854091E+02  0.29999982495E+02 0.  0.
        -12    1    1    2    0    0  0.99429644067E+01  0.13406510809E+02  0.37075181359E+02  0.40659145909E+02  0.00000000000E+00 0.  1.
         11    1    3    3    0    0 -0.11006536355E+02 -0.11025244181E+02 -0.20618794281E+02  0.25842494648E+02  0.51100000000E-03 0. -1.
        -11    1    3    3    0    0  0.20334077467E+01  0.75266946040E+01 -0.10524555379E+02  0.13097791605E+02  0.51100000000E-03 0.  1.
        -12    1    3    3    0    0 -0.96983579830E+00 -0.99079612314E+01 -0.59318316987E+01  0.11588567838E+02  0.00000000000E+00 0.  1.
</event>
<event>
 7    1  0.9406864E-013  0.5052886E+02  0.7816164E-02  0.1300439E+00
        -11   -1    0    0    0    0  0.00000000000E+00  0.00000000000E+00  0.45593999997E+02  0.45594000000E+02  0.51100000000E-03 0.  1.
         11   -1    0    0    0    0 -0.00000000000E+00 -0.00000000000E+00 -0.45593999997E+02  0.45594000000E+02  0.51100000000E-03 0. -1.
    9900012    2    1    2    0    0  0.21765909724E+02  0.66159837243E+01 -0.33699248598E+02  0.50528862985E+02  0.30000009528E+02 0.  0.
        -12    1    1    2    0    0 -0.21765909724E+02 -0.66159837243E+01  0.33699248598E+02  0.40659137015E+02  0.00000000000E+00 0.  1.
         11    1    3    3    0    0  0.49746621547E+01 -0.11356419722E+02 -0.80499012670E+01  0.14782301686E+02  0.51100000000E-03 0. -1.
        -11    1    3    3    0    0  0.15256103106E+00 -0.20502012266E+00 -0.25601121577E+00  0.36173211443E+00  0.51100000000E-03 0.  1.
         12    1    3    3    0    0  0.16638686538E+02  0.18177423569E+02 -0.25393336116E+02  0.35384829184E+02  0.00000000000E+00 0. -1.
</event>
<event>
 7    1  0.9406864E-013  0.5052888E+02  0.7816164E-02  0.1300439E+00
        -11   -1    0    0    0    0  0.00000000000E+00  0.00000000000E+00  0.45593999997E+02  0.45594000000E+02  0.51100000000E-03 0. -1.
         11   -1    0    0    0    0 -0.00000000000E+00 -0.00000000000E+00 -0.45593999997E+02  0.45594000000E+02  0.51100000000E-03 0.  1.
    9900012    2    1    2    0    0  0.29987342634E+01  0.40084187835E+02  0.61179807487E+01  0.50528877899E+02  0.30000054861E+02 0.  0.
        -12    1    1    2    0    0 -0.29987342634E+01 -0.40084187835E+02 -0.61179807487E+01  0.40659122101E+02  0.00000000000E+00 0.  1.
         11    1    3    3    0    0 -0.11300645744E+02  0.91047211415E+01 -0.97846014805E+00  0.14545030967E+02  0.51100000000E-03 0. -1.
        -11    1    3    3    0    0  0.62603532970E+01  0.16322340138E+02 -0.79087570852E+00  0.17499608442E+02  0.51100000000E-03 0.  1.
         12    1    3    3    0    0  0.80390267105E+01  0.14657126555E+02  0.78873166053E+01  0.18484238490E+02  0.00000000000E+00 0. -1.
</event>
<event>
 7    1  0.9406864E-013  0.5052878E+02  0.7816164E-02  0.1300439E+00
        -11   -1    0    0    0    0  0.00000000000E+00  0.00000000000E+00  0.45593999997E+02  0.45594000000E+02  0.51100000000E-03 0.  1.
         11   -1    0    0    0    0 -0.00000000000E+00 -0.00000000000E+00 -0.45593999997E+02  0.45594000000E+02  0.51100000000E-03 0. -1.
    9900012    2    1    2    0    0  0.12547765440E+02  0.33861468891E+02 -0.18684939507E+02  0.50528776478E+02  0.29999746581E+02 0.  0.
        -12    1    1    2    0    0 -0.12547765440E+02 -0.33861468891E+02  0.18684939507E+02  0.40659223522E+02  0.00000000000E+00 0.  1.
         11    1    3    3    0    0  0.50087861648E+01  0.19224121581E+02 -0.56876271467E+01  0.20664072498E+02  0.51100000000E-03 0. -1.
        -11    1    3    3    0    0 -0.26728129660E+01 -0.40474770460E+01 -0.53955182803E+01  0.72551786583E+01  0.51100000000E-03 0.  1.
        -12    1    3    3    0    0  0.10211792241E+02  0.18684824357E+02 -0.76017940803E+01  0.22609525321E+02  0.00000000000E+00 0.  1.
</event>
<event>
 7    1  0.9406864E-013  0.5052886E+02  0.7816164E-02  0.1300439E+00
        -11   -1    0    0    0    0  0.00000000000E+00  0.00000000000E+00  0.45593999997E+02  0.45594000000E+02  0.51100000000E-03 0.  1.
         11   -1    0    0    0    0 -0.00000000000E+00 -0.00000000000E+00 -0.45593999997E+02  0.45594000000E+02  0.51100000000E-03 0. -1.
    9900012    2    1    2    0    0  0.32264860529E+02  0.96561206272E+01 -0.22779461117E+02  0.50528859093E+02  0.29999997699E+02 0.  0.
        -12    1    1    2    0    0 -0.32264860529E+02 -0.96561206272E+01  0.22779461117E+02  0.40659140907E+02  0.00000000000E+00 0.  1.
         11    1    3    3    0    0  0.16363111014E+02 -0.68282090759E+01 -0.53536619636E+01  0.18521272578E+02  0.51100000000E-03 0.  1.
        -11    1    3    3    0    0  0.10936321946E+02  0.13484087406E+02 -0.46457387770E+01  0.17972385483E+02  0.51100000000E-03 0. -1.
         12    1    3    3    0    0  0.49654275687E+01  0.30002422969E+01 -0.12780060376E+02  0.14035201032E+02  0.00000000000E+00 0. -1.
</event>
<event>
 7    1  0.9406864E-013  0.5052887E+02  0.7816164E-02  0.1300439E+00
        -11   -1    0    0    0    0  0.00000000000E+00  0.00000000000E+00  0.45593999997E+02  0.45594000000E+02  0.51100000000E-03 0.  1.
         11   -1    0    0    0    0 -0.00000000000E+00 -0.00000000000E+00 -0.45593999997E+02  0.45594000000E+02  0.51100000000E-03 0. -1.
    9900012    2    1    2    0    0 -0.22648808986E+02  0.20449079740E+02 -0.26870645217E+02  0.50528868368E+02  0.30000025891E+02 0.  0.
        -12    1    1    2    0    0  0.22648808986E+02 -0.20449079740E+02  0.26870645217E+02  0.40659131632E+02  0.00000000000E+00 0.  1.
         11    1    3    3    0    0 -0.11145403777E+02  0.18692591394E+02 -0.27138693359E+02  0.34787090650E+02  0.51100000000E-03 0. -1.
        -11    1    3    3    0    0 -0.32607913790E+01 -0.34754013491E+01  0.29657029561E+01  0.56130712841E+01  0.51100000000E-03 0.  1.
        -12    1    3    3    0    0 -0.82426138301E+01  0.52318896955E+01 -0.26976548139E+01  0.10128706434E+02  0.00000000000E+00 0.  1.
</event>
<event>
 7    1  0.9406864E-013  0.5052886E+02  0.7816164E-02  0.1300439E+00
        -11   -1    0    0    0    0  0.00000000000E+00  0.00000000000E+00  0.45593999997E+02  0.45594000000E+02  0.51100000000E-03 0.  1.
         11   -1    0    0    0    0 -0.00000000000E+00 -0.00000000000E+00 -0.45593999997E+02  0.45594000000E+02  0.51100000000E-03 0. -1.
    9900012    2    1    2    0    0 -0.34528964427E+02 -0.21449243026E+02 -0.92009315644E+00  0.50528856106E+02  0.29999988620E+02 0.  0.
        -12    1    1    2    0    0  0.34528964427E+02  0.21449243026E+02  0.92009315644E+00  0.40659143894E+02  0.00000000000E+00 0.  1.
         11    1    3    3    0    0 -0.63270545317E+01 -0.37395396215E+01 -0.11411720385E+02  0.13573619195E+02  0.51100000000E-03 0. -1.
        -11    1    3    3    0    0 -0.15271058027E+02 -0.55397839355E+01  0.10227382216E+02  0.19196191460E+02  0.51100000000E-03 0.  1.
        -12    1    3    3    0    0 -0.12930851868E+02 -0.12169919469E+02  0.26424501284E+00  0.17759045452E+02  0.00000000000E+00 0.  1.
</event>
<event>
 7    1  0.9406864E-013  0.5052886E+02  0.7816164E-02  0.1300439E+00
        -11   -1    0    0    0    0  0.00000000000E+00  0.00000000000E+00  0.45593999997E+02  0.45594000000E+02  0.51100000000E-03 0.  1.
         11   -1    0    0    0    0 -0.00000000000E+00 -0.00000000000E+00 -0.45593999997E+02  0.45594000000E+02  0.51100000000E-03 0. -1.
    9900012    2    1    2    0    0  0.13411076050E+02  0.12650559057E+02 -0.36239095788E+02  0.50528859959E+02  0.30000000333E+02 0.  0.
        -12    1    1    2    0    0 -0.13411076050E+02 -0.12650559057E+02  0.36239095788E+02  0.40659140041E+02  0.00000000000E+00 0.  1.
         11    1    3    3    0    0  0.88366332357E+01 -0.13783076831E+01 -0.14111269609E+02  0.16706697736E+02  0.51100000000E-03 0. -1.
        -11    1    3    3    0    0 -0.74058840988E+01  0.10002232404E+01 -0.39581874408E+01  0.84566431811E+01  0.51100000000E-03 0.  1.
         12    1    3    3    0    0  0.11980326913E+02  0.13028643499E+02 -0.18169638739E+02  0.25365519042E+02  0.00000000000E+00 0. -1.
</event>
<event>
 7    1  0.9406864E-013  0.5052886E+02  0.7816164E-02  0.1300439E+00
        -11   -1    0    0    0    0  0.00000000000E+00  0.00000000000E+00  0.45593999997E+02  0.45594000000E+02  0.51100000000E-03 0.  1.
         11   -1    0    0    0    0 -0.00000000000E+00 -0.00000000000E+00 -0.45593999997E+02  0.45594000000E+02  0.51100000000E-03 0. -1.
    9900012    2    1    2    0    0 -0.34541784543E+02  0.15846462757E+01 -0.21389704858E+02  0.50528862562E+02  0.30000008245E+02 0.  0.
        -12    1    1    2    0    0  0.34541784543E+02 -0.15846462757E+01  0.21389704858E+02  0.40659137438E+02  0.00000000000E+00 0.  1.
         11    1    3    3    0    0  0.71580543755E+00 -0.57145466756E+01 -0.61598485962E+01  0.84328023884E+01  0.51100000000E-03 0. -1.
        -11    1    3    3    0    0 -0.24195910764E+02  0.11294684796E+02 -0.14320060804E+02  0.30299771353E+02  0.51100000000E-03 0.  1.
         12    1    3    3    0    0 -0.11061679217E+02 -0.39954918446E+01 -0.90979545779E+00  0.11796288821E+02  0.00000000000E+00 0. -1.
</event>
<event>
 7    1  0.9406864E-013  0.5052886E+02  0.7816164E-02  0.1300439E+00
        -11   -1    0    0    0    0  0.00000000000E+00  0.00000000000E+00  0.45593999997E+02  0.45594000000E+02  0.51100000000E-03 0.  1.
         11   -1    0    0    0    0 -0.00000000000E+00 -0.00000000000E+00 -0.45593999997E+02  0.45594000000E+02  0.51100000000E-03 0. -1.
    9900012    2    1    2    0    0  0.24582099607E+01 -0.19881710583E+02 -0.35381354619E+02  0.50528862446E+02  0.30000007892E+02 0.  0.
        -12    1    1    2    0    0 -0.24582099607E+01  0.19881710583E+02  0.35381354619E+02  0.40659137554E+02  0.00000000000E+00 0.  1.
         11    1    3    3    0    0 -0.14758907400E+01 -0.58998644508E+01 -0.12889101993E+02  0.14251863193E+02  0.51100000000E-03 0. -1.
        -11    1    3    3    0    0  0.36271437679E+01 -0.44748626564E+00  0.46687969629E+01  0.59290877218E+01  0.51100000000E-03 0.  1.
        -12    1    3    3    0    0  0.30695693278E+00 -0.13534359867E+02 -0.27161049589E+02  0.30347911532E+02  0.00000000000E+00 0.  1.
</event>
<event>
 7    1  0.1196660E-012  0.5052884E+02  0.7816164E-02  0.1300439E+00
        -11   -1    0    0    0    0  0.00000000000E+00  0.00000000000E+00  0.45593999997E+02  0.45594000000E+02  0.51100000000E-03 0.  1.
         11   -1    0    0    0    0 -0.00000000000E+00 -0.00000000000E+00 -0.45593999997E+02  0.45594000000E+02  0.51100000000E-03 0. -1.
    9900012    2    1    2    0    0 -0.35278437716E+02  0.19756989578E+02 -0.42732499948E+01  0.50528837805E+02  0.29999932991E+02 0.  0.
        -12    1    1    2    0    0  0.35278437716E+02 -0.19756989578E+02  0.42732499948E+01  0.40659162195E+02  0.00000000000E+00 0.  1.
         11    1    3    3    0    0 -0.31436378203E+02  0.94637492162E+01  0.45115726573E+01  0.33138538167E+02  0.51100000000E-03 0. -1.
        -11    1    3    3    0    0 -0.58407779214E+01  0.73296010014E+01 -0.99128206684E+01  0.13641911575E+02  0.51100000000E-03 0.  1.
        -12    1    3    3    0    0  0.19987184082E+01  0.29636393609E+01  0.11279980164E+01  0.37483880617E+01  0.00000000000E+00 0.  1.
</event>
<event>
 7    1  0.9406864E-013  0.5052880E+02  0.7816164E-02  0.1300439E+00
        -11   -1    0    0    0    0  0.00000000000E+00  0.00000000000E+00  0.45593999997E+02  0.45594000000E+02  0.51100000000E-03 0.  1.
         11   -1    0    0    0    0 -0.00000000000E+00 -0.00000000000E+00 -0.45593999997E+02  0.45594000000E+02  0.51100000000E-03 0. -1.
    9900012    2    1    2    0    0  0.10106511194E+02  0.26788151852E+02 -0.28869077812E+02  0.50528802985E+02  0.29999827153E+02 0.  0.
        -12    1    1    2    0    0 -0.10106511194E+02 -0.26788151852E+02  0.28869077812E+02  0.40659197015E+02  0.00000000000E+00 0.  1.
         11    1    3    3    0    0  0.44369156003E+01  0.11117781605E+02 -0.28238833145E+01  0.12299008297E+02  0.51100000000E-03 0. -1.
        -11    1    3    3    0    0  0.68535533441E+01 -0.39772282360E+01 -0.10465181171E+02  0.13126673420E+02  0.51100000000E-03 0.  1.
        -12    1    3    3    0    0 -0.11839577509E+01  0.19647598483E+02 -0.15580013327E+02  0.25103121268E+02  0.00000000000E+00 0.  1.
</event>
<event>
 7    1  0.9406864E-013  0.5052885E+02  0.7816164E-02  0.1300439E+00
        -11   -1    0    0    0    0  0.00000000000E+00  0.00000000000E+00  0.45593999997E+02  0.45594000000E+02  0.51100000000E-03 0. -1.
         11   -1    0    0    0    0 -0.00000000000E+00 -0.00000000000E+00 -0.45593999997E+02  0.45594000000E+02  0.51100000000E-03 0.  1.
    9900012    2    1    2    0    0  0.19421484621E+02 -0.35523491103E+02  0.37488237984E+01  0.50528853859E+02  0.29999981790E+02 0.  0.
        -12    1    1    2    0    0 -0.19421484621E+02  0.35523491103E+02 -0.37488237984E+01  0.40659146141E+02  0.00000000000E+00 0.  1.
         11    1    3    3    0    0  0.18490963624E+02 -0.11628912693E+02  0.11115305115E+02  0.24509127978E+02  0.51100000000E-03 0. -1.
        -11    1    3    3    0    0 -0.11559381340E+01 -0.15220250156E+02 -0.14901900327E+01  0.15336651342E+02  0.51100000000E-03 0.  1.
         12    1    3    3    0    0  0.20864591303E+01 -0.86743282544E+01 -0.58762912837E+01  0.10683074540E+02  0.00000000000E+00 0. -1.
</event>
<event>
 7    1  0.9406864E-013  0.5052886E+02  0.7816164E-02  0.1300439E+00
        -11   -1    0    0    0    0  0.00000000000E+00  0.00000000000E+00  0.45593999997E+02  0.45594000000E+02  0.51100000000E-03 0. -1.
         11   -1    0    0    0    0 -0.00000000000E+00 -0.00000000000E+00 -0.45593999997E+02  0.45594000000E+02  0.51100000000E-03 0.  1.
    9900012    2    1    2    0    0 -0.80898313810E+01 -0.28918405100E+02  0.27412517478E+02  0.50528860316E+02  0.30000001417E+02 0.  0.
        -12    1    1    2    0    0  0.80898313810E+01  0.28918405100E+02 -0.27412517478E+02  0.40659139684E+02  0.00000000000E+00 0.  1.
         11    1    3    3    0    0 -0.11917617883E+02 -0.28307624248E+02  0.23874980848E+02  0.38902004027E+02  0.51100000000E-03 0. -1.
        -11    1    3    3    0    0  0.48854204354E+00  0.46679055027E+00 -0.36056478769E+01  0.36684143195E+01  0.51100000000E-03 0.  1.
        -12    1    3    3    0    0  0.33392444585E+01 -0.10775714031E+01  0.71431845077E+01  0.79584419702E+01  0.00000000000E+00 0.  1.
</event>
<event>
 7    1  0.9406864E-013  0.5052886E+02  0.7816164E-02  0.1300439E+00
        -11   -1    0    0    0    0  0.00000000000E+00  0.00000000000E+00  0.45593999997E+02  0.45594000000E+02  0.51100000000E-03 0.  1.
         11   -1    0    0    0    0 -0.00000000000E+00 -0.00000000000E+00 -0.45593999997E+02  0.45594000000E+02  0.51100000000E-03 0. -1.
    9900012    2    1    2    0    0  0.12449069191E+02 -0.38555828828E+02  0.34109666704E+01  0.50528856453E+02  0.29999989676E+02 0.  0.
        -12    1    1    2    0    0 -0.12449069191E+02  0.38555828828E+02 -0.34109666704E+01  0.40659143547E+02  0.00000000000E+00 0.  1.
         11    1    3    3    0    0 -0.37195015295E+00 -0.29090291448E+01 -0.56236688082E+00  0.29861437091E+01  0.51100000000E-03 0. -1.
        -11    1    3    3    0    0  0.19715217222E+02 -0.12857581713E+02  0.28185710431E+01  0.23705517092E+02  0.51100000000E-03 0.  1.
        -12    1    3    3    0    0 -0.68941978789E+01 -0.22789217970E+02  0.11547625082E+01  0.23837195652E+02  0.00000000000E+00 0.  1.
</event>
<event>
 7    1  0.9406864E-013  0.5052886E+02  0.7816164E-02  0.1300439E+00
        -11   -1    0    0    0    0  0.00000000000E+00  0.00000000000E+00  0.45593999997E+02  0.45594000000E+02  0.51100000000E-03 0. -1.
         11   -1    0    0    0    0 -0.00000000000E+00 -0.00000000000E+00 -0.45593999997E+02  0.45594000000E+02  0.51100000000E-03 0.  1.
    9900012    2    1    2    0    0  0.40524687056E+02  0.32818729009E+01  0.38005259385E+00  0.50528863380E+02  0.30000010730E+02 0.  0.
        -12    1    1    2    0    0 -0.40524687056E+02 -0.32818729009E+01 -0.38005259385E+00  0.40659136620E+02  0.00000000000E+00 0.  1.
         11    1    3    3    0    0  0.11425790646E+02  0.66027843589E+01  0.11862293457E+02  0.17744279627E+02  0.51100000000E-03 0. -1.
        -11    1    3    3    0    0  0.20776378928E+02 -0.69264868797E+00 -0.12068618667E+02  0.24037246938E+02  0.51100000000E-03 0.  1.
        -12    1    3    3    0    0  0.83225174817E+01 -0.26282627701E+01  0.58637780449E+00  0.87473368148E+01  0.00000000000E+00 0.  1.
</event>
<event>
 7    1  0.9406864E-013  0.5052886E+02  0.7816164E-02  0.1300439E+00
        -11   -1    0    0    0    0  0.00000000000E+00  0.00000000000E+00  0.45593999997E+02  0.45594000000E+02  0.51100000000E-03 0. -1.
         11   -1    0    0    0    0 -0.00000000000E+00 -0.00000000000E+00 -0.45593999997E+02  0.45594000000E+02  0.51100000000E-03 0.  1.
    9900012    2    1    2    0    0 -0.16207030645E+02  0.20445975626E+02  0.31184293297E+02  0.50528856993E+02  0.29999991317E+02 0.  0.
        -12    1    1    2    0    0  0.16207030645E+02 -0.20445975626E+02 -0.31184293297E+02  0.40659143007E+02  0.00000000000E+00 0.  1.
         11    1    3    3    0    0  0.32071715298E+01  0.11788970027E+02  0.26192555254E+01  0.12495049551E+02  0.51100000000E-03 0. -1.
        -11    1    3    3    0    0 -0.12234966398E+02 -0.30123186371E+00  0.84467234029E+01  0.14870517136E+02  0.51100000000E-03 0.  1.
         12    1    3    3    0    0 -0.71792357762E+01  0.89582374627E+01  0.20118314369E+02  0.23163290306E+02  0.00000000000E+00 0. -1.
</event>
<event>
 7    1  0.9406864E-013  0.5052885E+02  0.7816164E-02  0.1300439E+00
        -11   -1    0    0    0    0  0.00000000000E+00  0.00000000000E+00  0.45593999997E+02  0.45594000000E+02  0.51100000000E-03 0.  1.
         11   -1    0    0    0    0 -0.00000000000E+00 -0.00000000000E+00 -0.45593999997E+02  0.45594000000E+02  0.51100000000E-03 0. -1.
    9900012    2    1    2    0    0 -0.41679666293E+01 -0.27957012050E+02 -0.29226694805E+02  0.50528853946E+02  0.29999982055E+02 0.  0.
        -12    1    1    2    0    0  0.41679666293E+01  0.27957012050E+02  0.29226694805E+02  0.40659146054E+02  0.00000000000E+00 0.  1.
         11    1    3    3    0    0 -0.16365044923E+00 -0.97778727922E+01 -0.13908232011E+02  0.17002132094E+02  0.51100000000E-03 0. -1.
        -11    1    3    3    0    0 -0.11496214248E+02 -0.18637622399E+02 -0.88522313006E+01  0.23619608591E+02  0.51100000000E-03 0.  1.
        -12    1    3    3    0    0  0.74918980677E+01  0.45848314135E+00 -0.64662314934E+01  0.99071132614E+01  0.00000000000E+00 0.  1.
</event>
<event>
 7    1  0.9406864E-013  0.5052886E+02  0.7816164E-02  0.1300439E+00
        -11   -1    0    0    0    0  0.00000000000E+00  0.00000000000E+00  0.45593999997E+02  0.45594000000E+02  0.51100000000E-03 0. -1.
         11   -1    0    0    0    0 -0.00000000000E+00 -0.00000000000E+00 -0.45593999997E+02  0.45594000000E+02  0.51100000000E-03 0.  1.
    9900012    2    1    2    0    0 -0.77583811191E+00  0.15799704015E+02  0.37455752086E+02  0.50528856674E+02  0.29999990346E+02 0.  0.
        -12    1    1    2    0    0  0.77583811191E+00 -0.15799704015E+02 -0.37455752086E+02  0.40659143326E+02  0.00000000000E+00 0.  1.
         11    1    3    3    0    0  0.21443229143E+01  0.17959974475E+01  0.34228735764E+01  0.44203836229E+01  0.51100000000E-03 0. -1.
        -11    1    3    3    0    0 -0.11440670598E+02  0.13080397366E+02  0.88384740809E+01  0.19496265368E+02  0.51100000000E-03 0.  1.
        -12    1    3    3    0    0  0.85205095717E+01  0.92330920147E+00  0.25194404428E+02  0.26612207683E+02  0.00000000000E+00 0.  1.
</event>
<event>
 7    1  0.9406864E-013  0.5052885E+02  0.7816164E-02  0.1300439E+00
        -11   -1    0    0    0    0  0.00000000000E+00  0.00000000000E+00  0.45593999997E+02  0.45594000000E+02  0.51100000000E-03 0. -1.
         11   -1    0    0    0    0 -0.00000000000E+00 -0.00000000000E+00 -0.45593999997E+02  0.45594000000E+02  0.51100000000E-03 0.  1.
    9900012    2    1    2    0    0 -0.23628616806E+02 -0.11362606922E+02  0.31076451275E+02  0.50528853525E+02  0.29999980775E+02 0.  0.
        -12    1    1    2    0    0  0.23628616806E+02  0.11362606922E+02 -0.31076451275E+02  0.40659146475E+02  0.00000000000E+00 0.  1.
         11    1    3    3    0    0 -0.10598367074E+02 -0.18518429929E+02  0.19864067623E+02  0.29151995034E+02  0.51100000000E-03 0. -1.
        -11    1    3    3    0    0 -0.47637295451E+01  0.53463605890E+01 -0.20700724885E+00  0.71637659781E+01  0.51100000000E-03 0.  1.
        -12    1    3    3    0    0 -0.82665201871E+01  0.18094624183E+01  0.11419390900E+02  0.14213092513E+02  0.00000000000E+00 0.  1.
</event>
<event>
 7    1  0.9406864E-013  0.5052887E+02  0.7816164E-02  0.1300439E+00
        -11   -1    0    0    0    0  0.00000000000E+00  0.00000000000E+00  0.45593999997E+02  0.45594000000E+02  0.51100000000E-03 0.  1.
         11   -1    0    0    0    0 -0.00000000000E+00 -0.00000000000E+00 -0.45593999997E+02  0.45594000000E+02  0.51100000000E-03 0. -1.
    9900012    2    1    2    0    0 -0.17292201824E+01  0.67416217467E+01 -0.40059023721E+02  0.50528867598E+02  0.30000023550E+02 0.  0.
        -12    1    1    2    0    0  0.17292201824E+01 -0.67416217467E+01  0.40059023721E+02  0.40659132402E+02  0.00000000000E+00 0.  1.
         11    1    3    3    0    0  0.24126425035E+01  0.13695906331E+01 -0.31863605909E+02  0.31984152390E+02  0.51100000000E-03 0. -1.
        -11    1    3    3    0    0 -0.74148202189E+01  0.65996156031E+01 -0.10427879104E+02  0.14397053443E+02  0.51100000000E-03 0.  1.
         12    1    3    3    0    0  0.32729575329E+01 -0.12275844895E+01  0.22324612913E+01  0.41476617640E+01  0.00000000000E+00 0. -1.
</event>
<event>
 7    1  0.9406864E-013  0.5052886E+02  0.7816164E-02  0.1300439E+00
        -11   -1    0    0    0    0  0.00000000000E+00  0.00000000000E+00  0.45593999997E+02  0.45594000000E+02  0.51100000000E-03 0. -1.
         11   -1    0    0    0    0 -0.00000000000E+00 -0.00000000000E+00 -0.45593999997E+02  0.45594000000E+02  0.51100000000E-03 0.  1.
    9900012    2    1    2    0    0  0.17530927107E+02  0.28609552569E+02  0.22963576284E+02  0.50528859094E+02  0.29999997703E+02 0.  0.
        -12    1    1    2    0    0 -0.17530927107E+02 -0.28609552569E+02 -0.22963576284E+02  0.40659140906E+02  0.00000000000E+00 0.  1.
         11    1    3    3    0    0  0.15473713849E+02  0.50413065734E+01  0.20803711948E+02  0.26412970740E+02  0.51100000000E-03 0. -1.
        -11    1    3    3    0    0 -0.10318678514E+01  0.84066994888E+01  0.16837352288E+01  0.86355261646E+01  0.51100000000E-03 0.  1.
         12    1    3    3    0    0  0.30890811090E+01  0.15161546507E+02  0.47612910743E+00  0.15480362189E+02  0.00000000000E+00 0. -1.
</event>
<event>
 7    1  0.9406864E-013  0.5052881E+02  0.7816164E-02  0.1300439E+00
        -11   -1    0    0    0    0  0.00000000000E+00  0.00000000000E+00  0.45593999997E+02  0.45594000000E+02  0.51100000000E-03 0. -1.
         11   -1    0    0    0    0 -0.00000000000E+00 -0.00000000000E+00 -0.45593999997E+02  0.45594000000E+02  0.51100000000E-03 0.  1.
    9900012    2    1    2    0    0  0.11406723575E+02  0.33214438981E+02  0.20490420906E+02  0.50528811020E+02  0.29999851577E+02 0.  0.
        -12    1    1    2    0    0 -0.11406723575E+02 -0.33214438981E+02 -0.20490420906E+02  0.40659188980E+02  0.00000000000E+00 0.  1.
         11    1    3    3    0    0  0.39085746641E+01  0.13006483382E+02 -0.16835184585E+01  0.13685021027E+02  0.51100000000E-03 0. -1.
        -11    1    3    3    0    0  0.91342143347E+01  0.23578496361E+02  0.21135632827E+02  0.32955945403E+02  0.51100000000E-03 0.  1.
        -12    1    3    3    0    0 -0.16360654233E+01 -0.33705407610E+01  0.10383065380E+01  0.38878445902E+01  0.00000000000E+00 0.  1.
</event>
<event>
 7    1  0.9406864E-013  0.5052886E+02  0.7816164E-02  0.1300439E+00
        -11   -1    0    0    0    0  0.00000000000E+00  0.00000000000E+00  0.45593999997E+02  0.45594000000E+02  0.51100000000E-03 0. -1.
         11   -1    0    0    0    0 -0.00000000000E+00 -0.00000000000E+00 -0.45593999997E+02  0.45594000000E+02  0.51100000000E-03 0.  1.
    9900012    2    1    2    0    0  0.33348613353E+02 -0.16792251652E+02  0.16095209647E+02  0.50528862015E+02  0.30000006581E+02 0.  0.
        -12    1    1    2    0    0 -0.33348613353E+02  0.16792251652E+02 -0.16095209647E+02  0.40659137985E+02  0.00000000000E+00 0.  1.
         11    1    3    3    0    0  0.24902080551E+02  0.10128018274E+01  0.94765059396E+01  0.26663524681E+02  0.51100000000E-03 0. -1.
        -11    1    3    3    0    0  0.41974772098E+01 -0.14847615342E+02  0.93201022122E+01  0.18025948013E+02  0.51100000000E-03 0.  1.
         12    1    3    3    0    0  0.42490555917E+01 -0.29574381381E+01 -0.27013985050E+01  0.58393893212E+01  0.00000000000E+00 0. -1.
</event>
<event>
 7    1  0.9406864E-013  0.5052886E+02  0.7816164E-02  0.1300439E+00
        -11   -1    0    0    0    0  0.00000000000E+00  0.00000000000E+00  0.45593999997E+02  0.45594000000E+02  0.51100000000E-03 0.  1.
         11   -1    0    0    0    0 -0.00000000000E+00 -0.00000000000E+00 -0.45593999997E+02  0.45594000000E+02  0.51100000000E-03 0. -1.
    9900012    2    1    2    0    0  0.11334176433E+02 -0.19600015149E+00 -0.39046943937E+02  0.50528858319E+02  0.29999995345E+02 0.  0.
        -12    1    1    2    0    0 -0.11334176433E+02  0.19600015149E+00  0.39046943937E+02  0.40659141681E+02  0.00000000000E+00 0.  1.
         11    1    3    3    0    0  0.15210347909E+02  0.91385643765E+01 -0.32909334200E+02  0.37388398203E+02  0.51100000000E-03 0. -1.
        -11    1    3    3    0    0 -0.41142383654E+01 -0.25778213945E+01 -0.27119364914E+01  0.55611797547E+01  0.51100000000E-03 0.  1.
         12    1    3    3    0    0  0.23806688879E+00 -0.67567431334E+01 -0.34256732449E+01  0.75792803613E+01  0.00000000000E+00 0. -1.
</event>
<event>
 7    1  0.9406864E-013  0.5052878E+02  0.7816164E-02  0.1300439E+00
        -11   -1    0    0    0    0  0.00000000000E+00  0.00000000000E+00  0.45593999997E+02  0.45594000000E+02  0.51100000000E-03 0.  1.
         11   -1    0    0    0    0 -0.00000000000E+00 -0.00000000000E+00 -0.45593999997E+02  0.45594000000E+02  0.51100000000E-03 0. -1.
    9900012    2    1    2    0    0 -0.32688579464E+01 -0.38166322090E+02 -0.13631530587E+02  0.50528779640E+02  0.29999756191E+02 0.  0.
        -12    1    1    2    0    0  0.32688579464E+01  0.38166322090E+02  0.13631530587E+02  0.40659220360E+02  0.00000000000E+00 0.  1.
         11    1    3    3    0    0 -0.10277468113E+01 -0.25445523755E+02  0.33118901766E+01  0.25680723499E+02  0.51100000000E-03 0. -1.
        -11    1    3    3    0    0  0.14878838620E+01  0.12969575083E+01 -0.69719902270E+01  0.72460020116E+01  0.51100000000E-03 0.  1.
         12    1    3    3    0    0 -0.37289949971E+01 -0.14017755844E+02 -0.99714305370E+01  0.17602054129E+02  0.00000000000E+00 0. -1.
</event>
<event>
 7    1  0.9406864E-013  0.5052886E+02  0.7816164E-02  0.1300439E+00
        -11   -1    0    0    0    0  0.00000000000E+00  0.00000000000E+00  0.45593999997E+02  0.45594000000E+02  0.51100000000E-03 0.  1.
         11   -1    0    0    0    0 -0.00000000000E+00 -0.00000000000E+00 -0.45593999997E+02  0.45594000000E+02  0.51100000000E-03 0. -1.
    9900012    2    1    2    0    0 -0.14130442041E+01  0.27804018941E+02 -0.29632840774E+02  0.50528863075E+02  0.30000009802E+02 0.  0.
        -12    1    1    2    0    0  0.14130442041E+01 -0.27804018941E+02  0.29632840774E+02  0.40659136925E+02  0.00000000000E+00 0.  1.
         11    1    3    3    0    0 -0.80435667635E+01  0.50354379526E+01  0.22885604832E+01  0.97617678214E+01  0.51100000000E-03 0. -1.
        -11    1    3    3    0    0  0.68596022649E+01  0.19596428815E+02 -0.21573374797E+02  0.29941353776E+02  0.51100000000E-03 0.  1.
         12    1    3    3    0    0 -0.22907970545E+00  0.31721521736E+01 -0.10348026460E+02  0.10825741477E+02  0.00000000000E+00 0. -1.
</event>
<event>
 7    1  0.9406864E-013  0.5052883E+02  0.7816164E-02  0.1300439E+00
        -11   -1    0    0    0    0  0.00000000000E+00  0.00000000000E+00  0.45593999997E+02  0.45594000000E+02  0.51100000000E-03 0. -1.
         11   -1    0    0    0    0 -0.00000000000E+00 -0.00000000000E+00 -0.45593999997E+02  0.45594000000E+02  0.51100000000E-03 0.  1.
    9900012    2    1    2    0    0 -0.38052311114E+02  0.10332372976E+02 -0.99212652178E+01  0.50528833555E+02  0.29999920075E+02 0.  0.
        -12    1    1    2    0    0  0.38052311114E+02 -0.10332372976E+02  0.99212652178E+01  0.40659166445E+02  0.00000000000E+00 0.  1.
         11    1    3    3    0    0 -0.33578997804E+02  0.16636575156E+02 -0.13938183366E+02  0.39982467186E+02  0.51100000000E-03 0.  1.
        -11    1    3    3    0    0 -0.51196831838E+01 -0.41364641841E+01  0.48069150110E+01  0.81503327560E+01  0.51100000000E-03 0. -1.
        -12    1    3    3    0    0  0.64636987350E+00 -0.21677379964E+01 -0.78999686283E+00  0.23960336137E+01  0.00000000000E+00 0.  1.
</event>
<event>
 7    1  0.9406864E-013  0.5052889E+02  0.7816164E-02  0.1300439E+00
        -11   -1    0    0    0    0  0.00000000000E+00  0.00000000000E+00  0.45593999997E+02  0.45594000000E+02  0.51100000000E-03 0.  1.
         11   -1    0    0    0    0 -0.00000000000E+00 -0.00000000000E+00 -0.45593999997E+02  0.45594000000E+02  0.51100000000E-03 0. -1.
    9900012    2    1    2    0    0  0.35927239263E+01  0.20196168110E+02 -0.35105136427E+02  0.50528886936E+02  0.30000082331E+02 0.  0.
        -12    1    1    2    0    0 -0.35927239263E+01 -0.20196168110E+02  0.35105136427E+02  0.40659113064E+02  0.00000000000E+00 0.  1.
         11    1    3    3    0    0  0.73148031640E+01  0.11061351013E+02 -0.12746203134E+02  0.18393627324E+02  0.51100000000E-03 0. -1.
        -11    1    3    3    0    0 -0.76515556617E+01  0.11618623360E+02 -0.23535795108E+02  0.27339940828E+02  0.51100000000E-03 0.  1.
        -12    1    3    3    0    0  0.39294764240E+01 -0.24838062626E+01  0.11768618140E+01  0.47953187846E+01  0.00000000000E+00 0.  1.
</event>
<event>
 7    1  0.9406864E-013  0.5052886E+02  0.7816164E-02  0.1300439E+00
        -11   -1    0    0    0    0  0.00000000000E+00  0.00000000000E+00  0.45593999997E+02  0.45594000000E+02  0.51100000000E-03 0.  1.
         11   -1    0    0    0    0 -0.00000000000E+00 -0.00000000000E+00 -0.45593999997E+02  0.45594000000E+02  0.51100000000E-03 0. -1.
    9900012    2    1    2    0    0  0.30889867451E+02 -0.16251390929E+02 -0.20853624665E+02  0.50528864742E+02  0.30000014869E+02 0.  0.
        -12    1    1    2    0    0 -0.30889867451E+02  0.16251390929E+02  0.20853624665E+02  0.40659135258E+02  0.00000000000E+00 0.  1.
         11    1    3    3    0    0  0.81607371381E+00 -0.65343354645E+00 -0.88009802529E+01  0.88628553739E+01  0.51100000000E-03 0. -1.
        -11    1    3    3    0    0  0.32498022783E+02 -0.17395686905E+02 -0.11324932663E+02  0.38561451059E+02  0.51100000000E-03 0.  1.
        -12    1    3    3    0    0 -0.24242290456E+01  0.17977295227E+01 -0.72771174939E+00  0.31045583088E+01  0.00000000000E+00 0.  1.
</event>
<event>
 7    1  0.9406864E-013  0.5052887E+02  0.7816164E-02  0.1300439E+00
        -11   -1    0    0    0    0  0.00000000000E+00  0.00000000000E+00  0.45593999997E+02  0.45594000000E+02  0.51100000000E-03 0. -1.
         11   -1    0    0    0    0 -0.00000000000E+00 -0.00000000000E+00 -0.45593999997E+02  0.45594000000E+02  0.51100000000E-03 0.  1.
    9900012    2    1    2    0    0  0.18445951474E+02  0.29489209500E+02  0.21054658669E+02  0.50528865056E+02  0.30000015825E+02 0.  0.
        -12    1    1    2    0    0 -0.18445951474E+02 -0.29489209500E+02 -0.21054658669E+02  0.40659134944E+02  0.00000000000E+00 0.  1.
         11    1    3    3    0    0 -0.84034191204E+00  0.56078641045E+01  0.51235531867E+01  0.76423237214E+01  0.51100000000E-03 0. -1.
        -11    1    3    3    0    0  0.16282967252E+02  0.55312371194E+00  0.61969893043E+01  0.17431111412E+02  0.51100000000E-03 0.  1.
        -12    1    3    3    0    0  0.30033261337E+01  0.23328221683E+02  0.97341161779E+01  0.25455429923E+02  0.00000000000E+00 0.  1.
</event>
<event>
 7    1  0.9406864E-013  0.5052885E+02  0.7816164E-02  0.1300439E+00
        -11   -1    0    0    0    0  0.00000000000E+00  0.00000000000E+00  0.45593999997E+02  0.45594000000E+02  0.51100000000E-03 0.  1.
         11   -1    0    0    0    0 -0.00000000000E+00 -0.00000000000E+00 -0.45593999997E+02  0.45594000000E+02  0.51100000000E-03 0. -1.
    9900012    2    1    2    0    0  0.20652913749E+02  0.34969148505E+02  0.19447392417E+01  0.50528853376E+02  0.29999980322E+02 0.  0.
        -12    1    1    2    0    0 -0.20652913749E+02 -0.34969148505E+02 -0.19447392417E+01  0.40659146624E+02  0.00000000000E+00 0.  1.
         11    1    3    3    0    0  0.10553888164E+02  0.19498601659E+02 -0.70075256054E+01  0.23252643664E+02  0.51100000000E-03 0. -1.
        -11    1    3    3    0    0  0.34356865859E+01  0.14055239048E+02  0.12915714067E+02  0.19395085902E+02  0.51100000000E-03 0.  1.
        -12    1    3    3    0    0  0.66633389995E+01  0.14153077980E+01 -0.39634492203E+01  0.78811238099E+01  0.00000000000E+00 0.  1.
</event>
<event>
 7    1  0.9406864E-013  0.5052885E+02  0.7816164E-02  0.1300439E+00
        -11   -1    0    0    0    0  0.00000000000E+00  0.00000000000E+00  0.45593999997E+02  0.45594000000E+02  0.51100000000E-03 0.  1.
         11   -1    0    0    0    0 -0.00000000000E+00 -0.00000000000E+00 -0.45593999997E+02  0.45594000000E+02  0.51100000000E-03 0. -1.
    9900012    2    1    2    0    0  0.29645801889E+02  0.11016216044E+01 -0.27804303933E+02  0.50528850267E+02  0.29999970872E+02 0.  0.
        -12    1    1    2    0    0 -0.29645801889E+02 -0.11016216044E+01  0.27804303933E+02  0.40659149733E+02  0.00000000000E+00 0.  1.
         11    1    3    3    0    0  0.11590901410E+02 -0.35719265761E+01 -0.96791953608E+01  0.15517553869E+02  0.51100000000E-03 0. -1.
        -11    1    3    3    0    0  0.40542301344E+01  0.11727111815E+02 -0.14186033814E+02  0.18846896008E+02  0.51100000000E-03 0.  1.
        -12    1    3    3    0    0  0.14000670344E+02 -0.70535636347E+01 -0.39390747588E+01  0.16164400390E+02  0.00000000000E+00 0.  1.
</event>
<event>
 7    1  0.9406864E-013  0.5052888E+02  0.7816164E-02  0.1300439E+00
        -11   -1    0    0    0    0  0.00000000000E+00  0.00000000000E+00  0.45593999997E+02  0.45594000000E+02  0.51100000000E-03 0. -1.
         11   -1    0    0    0    0 -0.00000000000E+00 -0.00000000000E+00 -0.45593999997E+02  0.45594000000E+02  0.51100000000E-03 0.  1.
    9900012    2    1    2    0    0  0.23993540440E+02  0.91270182379E+00  0.32812210802E+02  0.50528878205E+02  0.30000055792E+02 0.  0.
        -12    1    1    2    0    0 -0.23993540440E+02 -0.91270182379E+00 -0.32812210802E+02  0.40659121795E+02  0.00000000000E+00 0.  1.
         11    1    3    3    0    0  0.13415844947E+02  0.96153744568E+01  0.23159679521E+01  0.16667454197E+02  0.51100000000E-03 0. -1.
        -11    1    3    3    0    0  0.52537658117E+00 -0.25728385384E+01  0.87102279304E+01  0.90974496183E+01  0.51100000000E-03 0.  1.
         12    1    3    3    0    0  0.10052318912E+02 -0.61298340946E+01  0.21786014919E+02  0.24763974390E+02  0.00000000000E+00 0. -1.
</event>
<event>
 7    1  0.9406864E-013  0.5052885E+02  0.7816164E-02  0.1300439E+00
        -11   -1    0    0    0    0  0.00000000000E+00  0.00000000000E+00  0.45593999997E+02  0.45594000000E+02  0.51100000000E-03 0.  1.
         11   -1    0    0    0    0 -0.00000000000E+00 -0.00000000000E+00 -0.45593999997E+02  0.45594000000E+02  0.51100000000E-03 0. -1.
    9900012    2    1    2    0    0  0.39438953212E+02 -0.83635791736E+01  0.52712638397E+01  0.50528847162E+02  0.29999961434E+02 0.  0.
        -12    1    1    2    0    0 -0.39438953212E+02  0.83635791736E+01 -0.52712638397E+01  0.40659152838E+02  0.00000000000E+00 0.  1.
         11    1    3    3    0    0  0.59240696893E+01  0.87626717643E+01  0.26258676655E+01  0.10898357646E+02  0.51100000000E-03 0.  1.
        -11    1    3    3    0    0  0.32216149179E+02 -0.16471155282E+02  0.53339852448E+01  0.36573632894E+02  0.51100000000E-03 0. -1.
         12    1    3    3    0    0  0.12987343435E+01 -0.65509565581E+00 -0.26885890706E+01  0.30568566214E+01  0.00000000000E+00 0. -1.
</event>
<event>
 7    1  0.9406864E-013  0.5052886E+02  0.7816164E-02  0.1300439E+00
        -11   -1    0    0    0    0  0.00000000000E+00  0.00000000000E+00  0.45593999997E+02  0.45594000000E+02  0.51100000000E-03 0. -1.
         11   -1    0    0    0    0 -0.00000000000E+00 -0.00000000000E+00 -0.45593999997E+02  0.45594000000E+02  0.51100000000E-03 0.  1.
    9900012    2    1    2    0    0 -0.40193501935E+00  0.23196158488E+02  0.33390746309E+02  0.50528864994E+02  0.30000015636E+02 0.  0.
        -12    1    1    2    0    0  0.40193501935E+00 -0.23196158488E+02 -0.33390746309E+02  0.40659135006E+02  0.00000000000E+00 0.  1.
         11    1    3    3    0    0  0.18829308409E+01 -0.11075850917E+01 -0.37423022873E+01  0.43332435840E+01  0.51100000000E-03 0.  1.
        -11    1    3    3    0    0 -0.62072799458E+01  0.18827379811E+02  0.32324354359E+02  0.37919183006E+02  0.51100000000E-03 0. -1.
        -12    1    3    3    0    0  0.39224140855E+01  0.54763637685E+01  0.48086942382E+01  0.82764384043E+01  0.00000000000E+00 0.  1.
</event>
<event>
 7    1  0.9406864E-013  0.5052885E+02  0.7816164E-02  0.1300439E+00
        -11   -1    0    0    0    0  0.00000000000E+00  0.00000000000E+00  0.45593999997E+02  0.45594000000E+02  0.51100000000E-03 0.  1.
         11   -1    0    0    0    0 -0.00000000000E+00 -0.00000000000E+00 -0.45593999997E+02  0.45594000000E+02  0.51100000000E-03 0. -1.
    9900012    2    1    2    0    0  0.48574078858E+01 -0.17291596713E+02 -0.36477015577E+02  0.50528851046E+02  0.29999973239E+02 0.  0.
        -12    1    1    2    0    0 -0.48574078858E+01  0.17291596713E+02  0.36477015577E+02  0.40659148954E+02  0.00000000000E+00 0.  1.
         11    1    3    3    0    0 -0.23158685206E+01 -0.65735730241E+01 -0.95706312092E+01  0.11839429518E+02  0.51100000000E-03 0. -1.
        -11    1    3    3    0    0  0.10111855333E+02  0.89424258944E+00 -0.10652325857E+01  0.10207056814E+02  0.51100000000E-03 0.  1.
        -12    1    3    3    0    0 -0.29385789267E+01 -0.11612266279E+02 -0.25841151782E+02  0.28482364713E+02  0.00000000000E+00 0.  1.
</event>
<event>
 7    1  0.9406864E-013  0.5052886E+02  0.7816164E-02  0.1300439E+00
        -11   -1    0    0    0    0  0.00000000000E+00  0.00000000000E+00  0.45593999997E+02  0.45594000000E+02  0.51100000000E-03 0. -1.
         11   -1    0    0    0    0 -0.00000000000E+00 -0.00000000000E+00 -0.45593999997E+02  0.45594000000E+02  0.51100000000E-03 0.  1.
    9900012    2    1    2    0    0  0.13265061741E+02  0.30634928587E+02  0.23210015311E+02  0.50528861749E+02  0.30000005773E+02 0.  0.
        -12    1    1    2    0    0 -0.13265061741E+02 -0.30634928587E+02 -0.23210015311E+02  0.40659138251E+02  0.00000000000E+00 0.  1.
         11    1    3    3    0    0  0.34896027297E+01  0.28260239670E+02  0.23945802723E+02  0.37205106393E+02  0.51100000000E-03 0. -1.
        -11    1    3    3    0    0  0.18422144664E+01 -0.25988552627E+01 -0.21654487928E+01  0.38518789638E+01  0.51100000000E-03 0.  1.
         12    1    3    3    0    0  0.79332445453E+01  0.49735441805E+01  0.14296613812E+01  0.94718763926E+01  0.00000000000E+00 0. -1.
</event>
<event>
 7    1  0.9406864E-013  0.5052886E+02  0.7816164E-02  0.1300439E+00
        -11   -1    0    0    0    0  0.00000000000E+00  0.00000000000E+00  0.45593999997E+02  0.45594000000E+02  0.51100000000E-03 0.  1.
         11   -1    0    0    0    0 -0.00000000000E+00 -0.00000000000E+00 -0.45593999997E+02  0.45594000000E+02  0.51100000000E-03 0. -1.
    9900012    2    1    2    0    0 -0.40212082392E+02 -0.37872952577E+01  0.46701434775E+01  0.50528863072E+02  0.30000009793E+02 0.  0.
        -12    1    1    2    0    0  0.40212082392E+02  0.37872952577E+01 -0.46701434775E+01  0.40659136928E+02  0.00000000000E+00 0.  1.
         11    1    3    3    0    0 -0.62847933363E+01 -0.85419607094E+01 -0.61132679837E+01  0.12240742042E+02  0.51100000000E-03 0. -1.
        -11    1    3    3    0    0 -0.22574219819E+02  0.24598990014E+01  0.13463950468E+02  0.26399326999E+02  0.51100000000E-03 0.  1.
        -12    1    3    3    0    0 -0.11353069236E+02  0.22947664503E+01 -0.26805390063E+01  0.11888794031E+02  0.00000000000E+00 0.  1.
</event>
<event>
 7    1  0.9406864E-013  0.5052886E+02  0.7816164E-02  0.1300439E+00
        -11   -1    0    0    0    0  0.00000000000E+00  0.00000000000E+00  0.45593999997E+02  0.45594000000E+02  0.51100000000E-03 0. -1.
         11   -1    0    0    0    0 -0.00000000000E+00 -0.00000000000E+00 -0.45593999997E+02  0.45594000000E+02  0.51100000000E-03 0.  1.
    9900012    2    1    2    0    0 -0.24554654490E+02 -0.34174822592E+01  0.32226623592E+02  0.50528861910E+02  0.30000006260E+02 0.  0.
        -12    1    1    2    0    0  0.24554654490E+02  0.34174822592E+01 -0.32226623592E+02  0.40659138090E+02  0.00000000000E+00 0.  1.
         11    1    3    3    0    0 -0.17682490259E+02 -0.71135608270E+01  0.13745886239E+02  0.23499416975E+02  0.51100000000E-03 0. -1.
        -11    1    3    3    0    0  0.26625964265E+01  0.15544047460E+01 -0.24446035643E+01  0.39346766948E+01  0.51100000000E-03 0.  1.
        -12    1    3    3    0    0 -0.95347606582E+01  0.21416738218E+01  0.20925340917E+02  0.23094768240E+02  0.00000000000E+00 0.  1.
</event>
<event>
 7    1  0.9406864E-013  0.5052886E+02  0.7816164E-02  0.1300439E+00
        -11   -1    0    0    0    0  0.00000000000E+00  0.00000000000E+00  0.45593999997E+02  0.45594000000E+02  0.51100000000E-03 0. -1.
         11   -1    0    0    0    0 -0.00000000000E+00 -0.00000000000E+00 -0.45593999997E+02  0.45594000000E+02  0.51100000000E-03 0.  1.
    9900012    2    1    2    0    0 -0.27813916624E+02  0.28955484991E+02  0.64134152206E+01  0.50528856332E+02  0.29999989306E+02 0.  0.
        -12    1    1    2    0    0  0.27813916624E+02 -0.28955484991E+02 -0.64134152206E+01  0.40659143668E+02  0.00000000000E+00 0.  1.
         11    1    3    3    0    0 -0.20947176792E+02  0.20663710052E+02 -0.74733770805E+01  0.30358268955E+02  0.51100000000E-03 0. -1.
        -11    1    3    3    0    0  0.17193486507E+01  0.26176510907E+01  0.32889384397E+00  0.31490361124E+01  0.51100000000E-03 0.  1.
         12    1    3    3    0    0 -0.85860884828E+01  0.56741238485E+01  0.13557898457E+02  0.17021551265E+02  0.00000000000E+00 0. -1.
</event>
<event>
 7    1  0.9406864E-013  0.5052886E+02  0.7816164E-02  0.1300439E+00
        -11   -1    0    0    0    0  0.00000000000E+00  0.00000000000E+00  0.45593999997E+02  0.45594000000E+02  0.51100000000E-03 0.  1.
         11   -1    0    0    0    0 -0.00000000000E+00 -0.00000000000E+00 -0.45593999997E+02  0.45594000000E+02  0.51100000000E-03 0. -1.
    9900012    2    1    2    0    0 -0.14887255171E+01  0.14299972565E+02 -0.38032353999E+02  0.50528862408E+02  0.30000007777E+02 0.  0.
        -12    1    1    2    0    0  0.14887255171E+01 -0.14299972565E+02  0.38032353999E+02  0.40659137592E+02  0.00000000000E+00 0.  1.
         11    1    3    3    0    0 -0.90362329340E+01 -0.47348234582E+01 -0.17985582196E+02  0.20677360228E+02  0.51100000000E-03 0. -1.
        -11    1    3    3    0    0  0.28462216188E+01  0.28517691732E+01 -0.52663517888E+00  0.40633618831E+01  0.51100000000E-03 0.  1.
         12    1    3    3    0    0  0.47012857981E+01  0.16183026850E+02 -0.19520136624E+02  0.25788140297E+02  0.00000000000E+00 0. -1.
</event>
<event>
 7    1  0.9406864E-013  0.5052886E+02  0.7816164E-02  0.1300439E+00
        -11   -1    0    0    0    0  0.00000000000E+00  0.00000000000E+00  0.45593999997E+02  0.45594000000E+02  0.51100000000E-03 0.  1.
         11   -1    0    0    0    0 -0.00000000000E+00 -0.00000000000E+00 -0.45593999997E+02  0.45594000000E+02  0.51100000000E-03 0. -1.
    9900012    2    1    2    0    0  0.52441550932E+01  0.13934280311E+02 -0.37835171396E+02  0.50528861728E+02  0.30000005709E+02 0.  0.
        -12    1    1    2    0    0 -0.52441550932E+01 -0.13934280311E+02  0.37835171396E+02  0.40659138272E+02  0.00000000000E+00 0.  1.
         11    1    3    3    0    0  0.11106029170E+02 -0.34338667871E+01 -0.18625885758E+02  0.21955840808E+02  0.51100000000E-03 0. -1.
        -11    1    3    3    0    0 -0.83875976011E+01  0.86013367144E+01 -0.10383440790E+02  0.15879251547E+02  0.51100000000E-03 0.  1.
        -12    1    3    3    0    0  0.25257235247E+01  0.87668103839E+01 -0.88258448474E+01  0.12693769373E+02  0.00000000000E+00 0.  1.
</event>
<event>
 7    1  0.9406864E-013  0.5052886E+02  0.7816164E-02  0.1300439E+00
        -11   -1    0    0    0    0  0.00000000000E+00  0.00000000000E+00  0.45593999997E+02  0.45594000000E+02  0.51100000000E-03 0.  1.
         11   -1    0    0    0    0 -0.00000000000E+00 -0.00000000000E+00 -0.45593999997E+02  0.45594000000E+02  0.51100000000E-03 0. -1.
    9900012    2    1    2    0    0 -0.28099113024E+02  0.12336948649E+02 -0.26672187084E+02  0.50528855659E+02  0.29999987261E+02 0.  0.
        -12    1    1    2    0    0  0.28099113024E+02 -0.12336948649E+02  0.26672187084E+02  0.40659144341E+02  0.00000000000E+00 0.  1.
         11    1    3    3    0    0 -0.25858131991E+02  0.98034285478E+01 -0.19060258453E+02  0.33586361129E+02  0.51100000000E-03 0. -1.
        -11    1    3    3    0    0 -0.86269281100E-01 -0.58627644272E+01 -0.79973395134E+00  0.59176873669E+01  0.51100000000E-03 0.  1.
         12    1    3    3    0    0 -0.21547117511E+01  0.83962845286E+01 -0.68121946802E+01  0.11024807163E+02  0.00000000000E+00 0. -1.
</event>
<event>
 7    1  0.9406864E-013  0.5052886E+02  0.7816164E-02  0.1300439E+00
        -11   -1    0    0    0    0  0.00000000000E+00  0.00000000000E+00  0.45593999997E+02  0.45594000000E+02  0.51100000000E-03 0. -1.
         11   -1    0    0    0    0 -0.00000000000E+00 -0.00000000000E+00 -0.45593999997E+02  0.45594000000E+02  0.51100000000E-03 0.  1.
    9900012    2    1    2    0    0 -0.26199181502E+02 -0.14150332464E+01  0.31060690615E+02  0.50528856724E+02  0.29999990498E+02 0.  0.
        -12    1    1    2    0    0  0.26199181502E+02  0.14150332464E+01 -0.31060690615E+02  0.40659143276E+02  0.00000000000E+00 0.  1.
         11    1    3    3    0    0 -0.43427311300E+01 -0.98544375252E+01  0.14473983541E+02  0.18040661085E+02  0.51100000000E-03 0. -1.
        -11    1    3    3    0    0 -0.21055928135E+02  0.61645262181E+01  0.19038925055E+02  0.29048823739E+02  0.51100000000E-03 0.  1.
        -12    1    3    3    0    0 -0.80052223624E+00  0.22748780607E+01 -0.24522179798E+01  0.34393718994E+01  0.00000000000E+00 0.  1.
</event>
<event>
 7    1  0.9406864E-013  0.5052886E+02  0.7816164E-02  0.1300439E+00
        -11   -1    0    0    0    0  0.00000000000E+00  0.00000000000E+00  0.45593999997E+02  0.45594000000E+02  0.51100000000E-03 0. -1.
         11   -1    0    0    0    0 -0.00000000000E+00 -0.00000000000E+00 -0.45593999997E+02  0.45594000000E+02  0.51100000000E-03 0.  1.
    9900012    2    1    2    0    0  0.39005841527E+02 -0.94278112854E+01  0.65441718643E+01  0.50528862230E+02  0.30000007233E+02 0.  0.
        -12    1    1    2    0    0 -0.39005841527E+02  0.94278112854E+01 -0.65441718643E+01  0.40659137770E+02  0.00000000000E+00 0.  1.
         11    1    3    3    0    0  0.67305596411E+00 -0.83863538584E+00  0.20756343771E+01  0.23376423956E+01  0.51100000000E-03 0. -1.
        -11    1    3    3    0    0  0.12379076058E+01 -0.28001163671E+01 -0.80521834049E+01  0.86145646876E+01  0.51100000000E-03 0.  1.
        -12    1    3    3    0    0  0.37094877957E+02 -0.57890595324E+01  0.12520720892E+02  0.39576655146E+02  0.00000000000E+00 0.  1.
</event>
<event>
 7    1  0.9406864E-013  0.5052886E+02  0.7816164E-02  0.1300439E+00
        -11   -1    0    0    0    0  0.00000000000E+00  0.00000000000E+00  0.45593999997E+02  0.45594000000E+02  0.51100000000E-03 0. -1.
         11   -1    0    0    0    0 -0.00000000000E+00 -0.00000000000E+00 -0.45593999997E+02  0.45594000000E+02  0.51100000000E-03 0.  1.
    9900012    2    1    2    0    0 -0.33016785219E+02 -0.12655067492E+02  0.20072539942E+02  0.50528859587E+02  0.29999999201E+02 0.  0.
        -12    1    1    2    0    0  0.33016785219E+02  0.12655067492E+02 -0.20072539942E+02  0.40659140413E+02  0.00000000000E+00 0.  1.
         11    1    3    3    0    0 -0.13860868655E+02 -0.12380197437E+02 -0.90009018692E+00  0.18606534634E+02  0.51100000000E-03 0. -1.
        -11    1    3    3    0    0  0.23943602929E+01 -0.63167280749E+00  0.27239773639E+01  0.36813074699E+01  0.51100000000E-03 0.  1.
         12    1    3    3    0    0 -0.21550276856E+02  0.35680275323E+00  0.18248652765E+02  0.28241017484E+02  0.00000000000E+00 0. -1.
</event>
<event>
 7    1  0.9406864E-013  0.5052886E+02  0.7816164E-02  0.1300439E+00
        -11   -1    0    0    0    0  0.00000000000E+00  0.00000000000E+00  0.45593999997E+02  0.45594000000E+02  0.51100000000E-03 0.  1.
         11   -1    0    0    0    0 -0.00000000000E+00 -0.00000000000E+00 -0.45593999997E+02  0.45594000000E+02  0.51100000000E-03 0. -1.
    9900012    2    1    2    0    0  0.36494822020E+02  0.64973422761E+01 -0.16705634334E+02  0.50528859460E+02  0.29999998816E+02 0.  0.
        -12    1    1    2    0    0 -0.36494822020E+02 -0.64973422761E+01  0.16705634334E+02  0.40659140540E+02  0.00000000000E+00 0.  1.
         11    1    3    3    0    0  0.21818849438E+02  0.31970499087E+01 -0.88900656745E+01  0.23776387171E+02  0.51100000000E-03 0. -1.
        -11    1    3    3    0    0  0.58862015353E+01 -0.88205918259E+01 -0.28987208235E+01  0.10993306661E+02  0.51100000000E-03 0.  1.
        -12    1    3    3    0    0  0.87897710465E+01  0.12120884193E+02 -0.49168478356E+01  0.15759165629E+02  0.00000000000E+00 0.  1.
</event>
<event>
 7    1  0.9406864E-013  0.5052886E+02  0.7816164E-02  0.1300439E+00
        -11   -1    0    0    0    0  0.00000000000E+00  0.00000000000E+00  0.45593999997E+02  0.45594000000E+02  0.51100000000E-03 0. -1.
         11   -1    0    0    0    0 -0.00000000000E+00 -0.00000000000E+00 -0.45593999997E+02  0.45594000000E+02  0.51100000000E-03 0.  1.
    9900012    2    1    2    0    0 -0.13305081453E+01 -0.23869547207E+02  0.32888299454E+02  0.50528858632E+02  0.29999996297E+02 0.  0.
        -12    1    1    2    0    0  0.13305081453E+01  0.23869547207E+02 -0.32888299454E+02  0.40659141368E+02  0.00000000000E+00 0.  1.
         11    1    3    3    0    0  0.62742866738E+00 -0.11931759809E+02  0.26387894731E+02  0.28966904348E+02  0.51100000000E-03 0. -1.
        -11    1    3    3    0    0 -0.85340438036E+01 -0.24627944324E+01  0.15752191974E+01  0.90208966206E+01  0.51100000000E-03 0.  1.
        -12    1    3    3    0    0  0.65761069909E+01 -0.94749929662E+01  0.49251855253E+01  0.12541057664E+02  0.00000000000E+00 0.  1.
</event>
<event>
 7    1  0.9406864E-013  0.5052886E+02  0.7816164E-02  0.1300439E+00
        -11   -1    0    0    0    0  0.00000000000E+00  0.00000000000E+00  0.45593999997E+02  0.45594000000E+02  0.51100000000E-03 0.  1.
         11   -1    0    0    0    0 -0.00000000000E+00 -0.00000000000E+00 -0.45593999997E+02  0.45594000000E+02  0.51100000000E-03 0. -1.
    9900012    2    1    2    0    0 -0.67949859623E+01  0.91919028650E+01 -0.39019259470E+02  0.50528861764E+02  0.30000005817E+02 0.  0.
        -12    1    1    2    0    0  0.67949859623E+01 -0.91919028650E+01  0.39019259470E+02  0.40659138236E+02  0.00000000000E+00 0.  1.
         11    1    3    3    0    0 -0.87881677554E+00  0.20923024139E+01 -0.50139336162E+01  0.55035969043E+01  0.51100000000E-03 0. -1.
        -11    1    3    3    0    0 -0.15519315457E+02  0.92147475970E+01 -0.28559386095E+02  0.33784600929E+02  0.51100000000E-03 0.  1.
        -12    1    3    3    0    0  0.96031462704E+01 -0.21151471459E+01 -0.54459397592E+01  0.11240663931E+02  0.00000000000E+00 0.  1.
</event>
<event>
 7    1  0.9406864E-013  0.5052887E+02  0.7816164E-02  0.1300439E+00
        -11   -1    0    0    0    0  0.00000000000E+00  0.00000000000E+00  0.45593999997E+02  0.45594000000E+02  0.51100000000E-03 0.  1.
         11   -1    0    0    0    0 -0.00000000000E+00 -0.00000000000E+00 -0.45593999997E+02  0.45594000000E+02  0.51100000000E-03 0. -1.
    9900012    2    1    2    0    0 -0.13403173635E+02  0.53515457869E+01 -0.38011587069E+02  0.50528869939E+02  0.30000030667E+02 0.  0.
        -12    1    1    2    0    0  0.13403173635E+02 -0.53515457869E+01  0.38011587069E+02  0.40659130061E+02  0.00000000000E+00 0.  1.
         11    1    3    3    0    0 -0.12513982217E+02  0.53348576119E+01 -0.36561040002E+02  0.39009871866E+02  0.51100000000E-03 0. -1.
        -11    1    3    3    0    0 -0.29914321713E+00 -0.55153571175E+01  0.67249691728E+00  0.55642522555E+01  0.51100000000E-03 0.  1.
         12    1    3    3    0    0 -0.59004820143E+00  0.55320452925E+01 -0.21230439839E+01  0.59547458179E+01  0.00000000000E+00 0. -1.
</event>
<event>
 7    1  0.9406864E-013  0.5052886E+02  0.7816164E-02  0.1300439E+00
        -11   -1    0    0    0    0  0.00000000000E+00  0.00000000000E+00  0.45593999997E+02  0.45594000000E+02  0.51100000000E-03 0.  1.
         11   -1    0    0    0    0 -0.00000000000E+00 -0.00000000000E+00 -0.45593999997E+02  0.45594000000E+02  0.51100000000E-03 0. -1.
    9900012    2    1    2    0    0  0.17000041799E+02 -0.39225590486E+01 -0.36725710256E+02  0.50528859767E+02  0.29999999748E+02 0.  0.
        -12    1    1    2    0    0 -0.17000041799E+02  0.39225590486E+01  0.36725710256E+02  0.40659140233E+02  0.00000000000E+00 0.  1.
         11    1    3    3    0    0  0.21376700679E+02 -0.56802874981E+01 -0.28537450063E+02  0.36105609735E+02  0.51100000000E-03 0. -1.
        -11    1    3    3    0    0 -0.47818318414E+00 -0.12730646381E+01  0.23896574663E+01  0.27495119199E+01  0.51100000000E-03 0.  1.
         12    1    3    3    0    0 -0.38984756958E+01  0.30307930877E+01 -0.10577917660E+02  0.11673738112E+02  0.00000000000E+00 0. -1.
</event>
<event>
 7    1  0.9406864E-013  0.5052887E+02  0.7816164E-02  0.1300439E+00
        -11   -1    0    0    0    0  0.00000000000E+00  0.00000000000E+00  0.45593999997E+02  0.45594000000E+02  0.51100000000E-03 0. -1.
         11   -1    0    0    0    0 -0.00000000000E+00 -0.00000000000E+00 -0.45593999997E+02  0.45594000000E+02  0.51100000000E-03 0.  1.
    9900012    2    1    2    0    0  0.15515285601E+02  0.32673840831E+01  0.37440155881E+02  0.50528866237E+02  0.30000019413E+02 0.  0.
        -12    1    1    2    0    0 -0.15515285601E+02 -0.32673840831E+01 -0.37440155881E+02  0.40659133763E+02  0.00000000000E+00 0.  1.
         11    1    3    3    0    0  0.21866471705E+02 -0.54997228877E+01  0.24451640318E+02  0.33260671237E+02  0.51100000000E-03 0. -1.
        -11    1    3    3    0    0 -0.32946645320E+01  0.72536549207E+01  0.92347701043E+01  0.12196364345E+02  0.51100000000E-03 0.  1.
         12    1    3    3    0    0 -0.30565215715E+01  0.15134520501E+01  0.37537454579E+01  0.50718306545E+01  0.00000000000E+00 0. -1.
</event>
<event>
 7    1  0.9406864E-013  0.5052885E+02  0.7816164E-02  0.1300439E+00
        -11   -1    0    0    0    0  0.00000000000E+00  0.00000000000E+00  0.45593999997E+02  0.45594000000E+02  0.51100000000E-03 0.  1.
         11   -1    0    0    0    0 -0.00000000000E+00 -0.00000000000E+00 -0.45593999997E+02  0.45594000000E+02  0.51100000000E-03 0. -1.
    9900012    2    1    2    0    0  0.33933456980E+02 -0.22398248613E+02  0.71755695762E-01  0.50528853521E+02  0.29999980762E+02 0.  0.
        -12    1    1    2    0    0 -0.33933456980E+02  0.22398248613E+02 -0.71755695762E-01  0.40659146479E+02  0.00000000000E+00 0.  1.
         11    1    3    3    0    0  0.29257175747E+02 -0.41750341038E+01 -0.58076461976E+01  0.30118798068E+02  0.51100000000E-03 0. -1.
        -11    1    3    3    0    0 -0.85017258272E+00 -0.20292498327E+01 -0.29352344884E+00  0.22196406421E+01  0.51100000000E-03 0.  1.
         12    1    3    3    0    0  0.55264538162E+01 -0.16193964676E+02  0.61729253422E+01  0.18190414811E+02  0.00000000000E+00 0. -1.
</event>
<event>
 7    1  0.9406864E-013  0.5052884E+02  0.7816164E-02  0.1300439E+00
        -11   -1    0    0    0    0  0.00000000000E+00  0.00000000000E+00  0.45593999997E+02  0.45594000000E+02  0.51100000000E-03 0. -1.
         11   -1    0    0    0    0 -0.00000000000E+00 -0.00000000000E+00 -0.45593999997E+02  0.45594000000E+02  0.51100000000E-03 0.  1.
    9900012    2    1    2    0    0 -0.59529726687E+01 -0.24066379185E+02  0.32226368669E+02  0.50528839553E+02  0.29999938304E+02 0.  0.
        -12    1    1    2    0    0  0.59529726687E+01  0.24066379185E+02 -0.32226368669E+02  0.40659160447E+02  0.00000000000E+00 0.  1.
         11    1    3    3    0    0 -0.12939150647E+01 -0.17909272455E+01  0.36414591357E+01  0.42593264129E+01  0.51100000000E-03 0. -1.
        -11    1    3    3    0    0 -0.38920317448E+01  0.46470096209E+01  0.14842967155E+02  0.16032974888E+02  0.51100000000E-03 0.  1.
        -12    1    3    3    0    0 -0.76702585915E+00 -0.26922461561E+02  0.13741942378E+02  0.30236538252E+02  0.00000000000E+00 0.  1.
</event>
<event>
 7    1  0.9406864E-013  0.5052886E+02  0.7816164E-02  0.1300439E+00
        -11   -1    0    0    0    0  0.00000000000E+00  0.00000000000E+00  0.45593999997E+02  0.45594000000E+02  0.51100000000E-03 0. -1.
         11   -1    0    0    0    0 -0.00000000000E+00 -0.00000000000E+00 -0.45593999997E+02  0.45594000000E+02  0.51100000000E-03 0.  1.
    9900012    2    1    2    0    0 -0.16175986854E+02 -0.29031516985E+02 -0.23423799441E+02  0.50528857001E+02  0.29999991341E+02 0.  0.
        -12    1    1    2    0    0  0.16175986854E+02  0.29031516985E+02  0.23423799441E+02  0.40659142999E+02  0.00000000000E+00 0.  1.
         11    1    3    3    0    0 -0.47021843909E+01 -0.26038346760E+02 -0.46600214092E+01  0.26866742263E+02  0.51100000000E-03 0. -1.
        -11    1    3    3    0    0 -0.83167266872E+01 -0.37798081516E+01 -0.18194419207E+02  0.20359071270E+02  0.51100000000E-03 0.  1.
         12    1    3    3    0    0 -0.31570757756E+01  0.78663792622E+00 -0.56935882473E+00  0.33030434679E+01  0.00000000000E+00 0. -1.
</event>
<event>
 7    1  0.9406864E-013  0.5052884E+02  0.7816164E-02  0.1300439E+00
        -11   -1    0    0    0    0  0.00000000000E+00  0.00000000000E+00  0.45593999997E+02  0.45594000000E+02  0.51100000000E-03 0.  1.
         11   -1    0    0    0    0 -0.00000000000E+00 -0.00000000000E+00 -0.45593999997E+02  0.45594000000E+02  0.51100000000E-03 0. -1.
    9900012    2    1    2    0    0 -0.11957516600E+02  0.13314501295E+02 -0.36509023208E+02  0.50528844530E+02  0.29999953432E+02 0.  0.
        -12    1    1    2    0    0  0.11957516600E+02 -0.13314501295E+02  0.36509023208E+02  0.40659155470E+02  0.00000000000E+00 0.  1.
         11    1    3    3    0    0 -0.75341185530E+01 -0.31563019603E+01 -0.31644865522E+02  0.32682146481E+02  0.51100000000E-03 0. -1.
        -11    1    3    3    0    0 -0.32706496606E+00  0.43117239579E+01 -0.15668127468E+01  0.45992213935E+01  0.51100000000E-03 0.  1.
         12    1    3    3    0    0 -0.40963330811E+01  0.12159079298E+02 -0.32973449384E+01  0.13247476655E+02  0.00000000000E+00 0. -1.
</event>
<event>
 7    1  0.9406864E-013  0.5052889E+02  0.7816164E-02  0.1300439E+00
        -11   -1    0    0    0    0  0.00000000000E+00  0.00000000000E+00  0.45593999997E+02  0.45594000000E+02  0.51100000000E-03 0.  1.
         11   -1    0    0    0    0 -0.00000000000E+00 -0.00000000000E+00 -0.45593999997E+02  0.45594000000E+02  0.51100000000E-03 0. -1.
    9900012    2    1    2    0    0  0.32879855783E+02  0.23668101127E+02 -0.34495502947E+01  0.50528888789E+02  0.30000087963E+02 0.  0.
        -12    1    1    2    0    0 -0.32879855783E+02 -0.23668101127E+02  0.34495502947E+01  0.40659111211E+02  0.00000000000E+00 0.  1.
         11    1    3    3    0    0  0.19513474393E+02 -0.14746421507E+01 -0.32244272582E+00  0.19571771048E+02  0.51100000000E-03 0. -1.
        -11    1    3    3    0    0  0.71979018391E+01  0.22091214184E+02 -0.51213202957E+01  0.23792004052E+02  0.51100000000E-03 0.  1.
         12    1    3    3    0    0  0.61684795503E+01  0.30515290937E+01  0.19942127269E+01  0.71651136887E+01  0.00000000000E+00 0. -1.
</event>
<event>
 7    1  0.9406864E-013  0.5052886E+02  0.7816164E-02  0.1300439E+00
        -11   -1    0    0    0    0  0.00000000000E+00  0.00000000000E+00  0.45593999997E+02  0.45594000000E+02  0.51100000000E-03 0. -1.
         11   -1    0    0    0    0 -0.00000000000E+00 -0.00000000000E+00 -0.45593999997E+02  0.45594000000E+02  0.51100000000E-03 0.  1.
    9900012    2    1    2    0    0  0.28645925885E+02  0.23776598670E+02  0.16347769979E+02  0.50528864527E+02  0.30000014215E+02 0.  0.
        -12    1    1    2    0    0 -0.28645925885E+02 -0.23776598670E+02 -0.16347769979E+02  0.40659135473E+02  0.00000000000E+00 0.  1.
         11    1    3    3    0    0  0.22395841397E+02  0.15433093520E+02  0.25387479767E+01  0.27316649301E+02  0.51100000000E-03 0. -1.
        -11    1    3    3    0    0 -0.27804099571E+01  0.90074458071E+01  0.86319762747E+01  0.12781853315E+02  0.51100000000E-03 0.  1.
         12    1    3    3    0    0  0.90304944457E+01 -0.66394065694E+00  0.51770457277E+01  0.10430361911E+02  0.00000000000E+00 0. -1.
</event>
<event>
 7    1  0.9406864E-013  0.5052886E+02  0.7816164E-02  0.1300439E+00
        -11   -1    0    0    0    0  0.00000000000E+00  0.00000000000E+00  0.45593999997E+02  0.45594000000E+02  0.51100000000E-03 0.  1.
         11   -1    0    0    0    0 -0.00000000000E+00 -0.00000000000E+00 -0.45593999997E+02  0.45594000000E+02  0.51100000000E-03 0. -1.
    9900012    2    1    2    0    0 -0.19604794393E+02  0.64580047616E+01 -0.35030161462E+02  0.50528855878E+02  0.29999987927E+02 0.  0.
        -12    1    1    2    0    0  0.19604794393E+02 -0.64580047616E+01  0.35030161462E+02  0.40659144122E+02  0.00000000000E+00 0.  1.
         11    1    3    3    0    0 -0.13536886753E+02 -0.33935561864E+01 -0.26015201051E+02  0.29522097022E+02  0.51100000000E-03 0. -1.
        -11    1    3    3    0    0  0.15167528040E+01  0.68448377831E+01  0.20080182068E+01  0.72927690711E+01  0.51100000000E-03 0.  1.
        -12    1    3    3    0    0 -0.75846604441E+01  0.30067231649E+01 -0.11022978617E+02  0.13713989785E+02  0.00000000000E+00 0.  1.
</event>
<event>
 7    1  0.9406864E-013  0.5052885E+02  0.7816164E-02  0.1300439E+00
        -11   -1    0    0    0    0  0.00000000000E+00  0.00000000000E+00  0.45593999997E+02  0.45594000000E+02  0.51100000000E-03 0.  1.
         11   -1    0    0    0    0 -0.00000000000E+00 -0.00000000000E+00 -0.45593999997E+02  0.45594000000E+02  0.51100000000E-03 0. -1.
    9900012    2    1    2    0    0  0.28919434037E+02 -0.86889510067E+01 -0.27227464841E+02  0.50528851260E+02  0.29999973889E+02 0.  0.
        -12    1    1    2    0    0 -0.28919434037E+02  0.86889510067E+01  0.27227464841E+02  0.40659148740E+02  0.00000000000E+00 0.  1.
         11    1    3    3    0    0  0.53421927456E+01 -0.59017070514E+01 -0.18169324605E+02  0.19836671251E+02  0.51100000000E-03 0. -1.
        -11    1    3    3    0    0  0.15710871774E+02  0.52271040865E+01 -0.48638676904E+00  0.16564742116E+02  0.51100000000E-03 0.  1.
        -12    1    3    3    0    0  0.78663695178E+01 -0.80143480418E+01 -0.85717534669E+01  0.14127437893E+02  0.00000000000E+00 0.  1.
</event>
<event>
 7    1  0.9406864E-013  0.5052887E+02  0.7816164E-02  0.1300439E+00
        -11   -1    0    0    0    0  0.00000000000E+00  0.00000000000E+00  0.45593999997E+02  0.45594000000E+02  0.51100000000E-03 0. -1.
         11   -1    0    0    0    0 -0.00000000000E+00 -0.00000000000E+00 -0.45593999997E+02  0.45594000000E+02  0.51100000000E-03 0.  1.
    9900012    2    1    2    0    0 -0.17699172484E+02  0.18006563446E+02  0.31869547335E+02  0.50528867187E+02  0.30000022301E+02 0.  0.
        -12    1    1    2    0    0  0.17699172484E+02 -0.18006563446E+02 -0.31869547335E+02  0.40659132813E+02  0.00000000000E+00 0.  1.
         11    1    3    3    0    0 -0.22926208415E+02  0.18728041451E+02  0.32589761443E+02  0.44027753975E+02  0.51100000000E-03 0. -1.
        -11    1    3    3    0    0  0.11831744516E+01 -0.59242475642E-01 -0.18981013369E+01  0.22374539996E+01  0.51100000000E-03 0.  1.
         12    1    3    3    0    0  0.40438614788E+01 -0.66223552955E+00  0.11778872286E+01  0.42636592124E+01  0.00000000000E+00 0. -1.
</event>
<event>
 7    1  0.9406864E-013  0.5052882E+02  0.7816164E-02  0.1300439E+00
        -11   -1    0    0    0    0  0.00000000000E+00  0.00000000000E+00  0.45593999997E+02  0.45594000000E+02  0.51100000000E-03 0.  1.
         11   -1    0    0    0    0 -0.00000000000E+00 -0.00000000000E+00 -0.45593999997E+02  0.45594000000E+02  0.51100000000E-03 0. -1.
    9900012    2    1    2    0    0 -0.91029447050E+01 -0.17588166210E+02 -0.35510024508E+02  0.50528818583E+02  0.29999874564E+02 0.  0.
        -12    1    1    2    0    0  0.91029447050E+01  0.17588166210E+02  0.35510024508E+02  0.40659181417E+02  0.00000000000E+00 0.  1.
         11    1    3    3    0    0 -0.13149782692E+02 -0.51754488883E+01 -0.21737689762E+02  0.25927383449E+02  0.51100000000E-03 0. -1.
        -11    1    3    3    0    0  0.81880101391E+01 -0.10675528371E+01 -0.47491473362E+01  0.95256275268E+01  0.51100000000E-03 0.  1.
         12    1    3    3    0    0 -0.41411721518E+01 -0.11345164484E+02 -0.90231874104E+01  0.15075807607E+02  0.00000000000E+00 0. -1.
</event>
<event>
 7    1  0.9406864E-013  0.5052886E+02  0.7816164E-02  0.1300439E+00
        -11   -1    0    0    0    0  0.00000000000E+00  0.00000000000E+00  0.45593999997E+02  0.45594000000E+02  0.51100000000E-03 0.  1.
         11   -1    0    0    0    0 -0.00000000000E+00 -0.00000000000E+00 -0.45593999997E+02  0.45594000000E+02  0.51100000000E-03 0. -1.
    9900012    2    1    2    0    0  0.35068319302E+01 -0.40194507635E+02 -0.50268548933E+01  0.50528860999E+02  0.30000003493E+02 0.  0.
        -12    1    1    2    0    0 -0.35068319302E+01  0.40194507635E+02  0.50268548933E+01  0.40659139001E+02  0.00000000000E+00 0.  1.
         11    1    3    3    0    0 -0.66439543392E+01 -0.94388086368E+01  0.58992939814E+01  0.12962827912E+02  0.51100000000E-03 0. -1.
        -11    1    3    3    0    0  0.40758549843E+01 -0.24265362445E+02 -0.13815312949E+02  0.28218491820E+02  0.51100000000E-03 0.  1.
         12    1    3    3    0    0  0.60749312851E+01 -0.64903365532E+01  0.28891640744E+01  0.93475412672E+01  0.00000000000E+00 0. -1.
</event>
<event>
 7    1  0.9406864E-013  0.5052885E+02  0.7816164E-02  0.1300439E+00
        -11   -1    0    0    0    0  0.00000000000E+00  0.00000000000E+00  0.45593999997E+02  0.45594000000E+02  0.51100000000E-03 0.  1.
         11   -1    0    0    0    0 -0.00000000000E+00 -0.00000000000E+00 -0.45593999997E+02  0.45594000000E+02  0.51100000000E-03 0. -1.
    9900012    2    1    2    0    0  0.98658747976E+01 -0.23908018632E+02 -0.31372563696E+02  0.50528848591E+02  0.29999965778E+02 0.  0.
        -12    1    1    2    0    0 -0.98658747976E+01  0.23908018632E+02  0.31372563696E+02  0.40659151409E+02  0.00000000000E+00 0.  1.
         11    1    3    3    0    0  0.65024081577E+01  0.90228668671E+00 -0.20655336831E+02  0.21673448571E+02  0.51100000000E-03 0. -1.
        -11    1    3    3    0    0 -0.40509811564E+00 -0.13601699869E+02 -0.11713085981E+01  0.13658049198E+02  0.51100000000E-03 0.  1.
         12    1    3    3    0    0  0.37685647555E+01 -0.11208605450E+02 -0.95459182670E+01  0.15197350822E+02  0.00000000000E+00 0. -1.
</event>
<event>
 7    1  0.9406864E-013  0.5052886E+02  0.7816164E-02  0.1300439E+00
        -11   -1    0    0    0    0  0.00000000000E+00  0.00000000000E+00  0.45593999997E+02  0.45594000000E+02  0.51100000000E-03 0.  1.
         11   -1    0    0    0    0 -0.00000000000E+00 -0.00000000000E+00 -0.45593999997E+02  0.45594000000E+02  0.51100000000E-03 0. -1.
    9900012    2    1    2    0    0  0.14955576603E+02 -0.13686103130E+02 -0.35244672500E+02  0.50528860437E+02  0.30000001785E+02 0.  0.
        -12    1    1    2    0    0 -0.14955576603E+02  0.13686103130E+02  0.35244672500E+02  0.40659139563E+02  0.00000000000E+00 0.  1.
         11    1    3    3    0    0  0.11015190240E+02 -0.15010083050E+02 -0.35443247857E+02  0.40035744380E+02  0.51100000000E-03 0. -1.
        -11    1    3    3    0    0  0.22168709789E+01  0.38703784766E+01  0.37273033154E+01  0.58126703635E+01  0.51100000000E-03 0.  1.
        -12    1    3    3    0    0  0.17235153840E+01 -0.25463985564E+01 -0.35287279580E+01  0.46804456934E+01  0.00000000000E+00 0.  1.
</event>
<event>
 7    1  0.9406864E-013  0.5052886E+02  0.7816164E-02  0.1300439E+00
        -11   -1    0    0    0    0  0.00000000000E+00  0.00000000000E+00  0.45593999997E+02  0.45594000000E+02  0.51100000000E-03 0.  1.
         11   -1    0    0    0    0 -0.00000000000E+00 -0.00000000000E+00 -0.45593999997E+02  0.45594000000E+02  0.51100000000E-03 0. -1.
    9900012    2    1    2    0    0 -0.11372169492E+02 -0.17808052709E+01 -0.38995745780E+02  0.50528859634E+02  0.29999999345E+02 0.  0.
        -12    1    1    2    0    0  0.11372169492E+02  0.17808052709E+01  0.38995745780E+02  0.40659140366E+02  0.00000000000E+00 0.  1.
         11    1    3    3    0    0 -0.79836775436E+01  0.49461918891E+01 -0.13081419226E+02  0.16103647120E+02  0.51100000000E-03 0. -1.
        -11    1    3    3    0    0 -0.56921873772E+00 -0.74532750640E+01 -0.29137982395E+02  0.30081511556E+02  0.51100000000E-03 0.  1.
        -12    1    3    3    0    0 -0.28192732108E+01  0.72627790405E+00  0.32236558421E+01  0.43437009588E+01  0.00000000000E+00 0.  1.
</event>
<event>
 7    1  0.9406864E-013  0.5052886E+02  0.7816164E-02  0.1300439E+00
        -11   -1    0    0    0    0  0.00000000000E+00  0.00000000000E+00  0.45593999997E+02  0.45594000000E+02  0.51100000000E-03 0.  1.
         11   -1    0    0    0    0 -0.00000000000E+00 -0.00000000000E+00 -0.45593999997E+02  0.45594000000E+02  0.51100000000E-03 0. -1.
    9900012    2    1    2    0    0 -0.16006248827E+02  0.68639027666E+01 -0.36740338009E+02  0.50528860810E+02  0.30000002917E+02 0.  0.
        -12    1    1    2    0    0  0.16006248827E+02 -0.68639027666E+01  0.36740338009E+02  0.40659139190E+02  0.00000000000E+00 0.  1.
         11    1    3    3    0    0 -0.18343828683E+02 -0.17677887493E+01 -0.19334829630E+02  0.26710611466E+02  0.51100000000E-03 0. -1.
        -11    1    3    3    0    0 -0.17393424643E+00  0.40777196522E+01 -0.18115333076E+02  0.18569419577E+02  0.51100000000E-03 0.  1.
         12    1    3    3    0    0  0.25115141027E+01  0.45539718636E+01  0.70982469731E+00  0.52488297670E+01  0.00000000000E+00 0. -1.
</event>
<event>
 7    1  0.9406864E-013  0.5052888E+02  0.7816164E-02  0.1300439E+00
        -11   -1    0    0    0    0  0.00000000000E+00  0.00000000000E+00  0.45593999997E+02  0.45594000000E+02  0.51100000000E-03 0.  1.
         11   -1    0    0    0    0 -0.00000000000E+00 -0.00000000000E+00 -0.45593999997E+02  0.45594000000E+02  0.51100000000E-03 0. -1.
    9900012    2    1    2    0    0 -0.22985410619E+02 -0.63859895776E+01 -0.32924981876E+02  0.50528875615E+02  0.30000047920E+02 0.  0.
        -12    1    1    2    0    0  0.22985410619E+02  0.63859895776E+01  0.32924981876E+02  0.40659124385E+02  0.00000000000E+00 0.  1.
         11    1    3    3    0    0 -0.79860754361E+01 -0.54122292512E+01 -0.25058207380E+02  0.26851133750E+02  0.51100000000E-03 0. -1.
        -11    1    3    3    0    0  0.28324087474E+00 -0.43155273284E+01  0.24191544670E+01  0.49554323839E+01  0.51100000000E-03 0.  1.
        -12    1    3    3    0    0 -0.15282576058E+02  0.33417670019E+01 -0.10285928963E+02  0.18722309481E+02  0.00000000000E+00 0.  1.
</event>
<event>
 7    1  0.9406864E-013  0.5052884E+02  0.7816164E-02  0.1300439E+00
        -11   -1    0    0    0    0  0.00000000000E+00  0.00000000000E+00  0.45593999997E+02  0.45594000000E+02  0.51100000000E-03 0.  1.
         11   -1    0    0    0    0 -0.00000000000E+00 -0.00000000000E+00 -0.45593999997E+02  0.45594000000E+02  0.51100000000E-03 0. -1.
    9900012    2    1    2    0    0 -0.82266196542E+01 -0.39633448706E+02  0.38313798473E+01  0.50528843604E+02  0.29999950619E+02 0.  0.
        -12    1    1    2    0    0  0.82266196542E+01  0.39633448706E+02 -0.38313798473E+01  0.40659156396E+02  0.00000000000E+00 0.  1.
         11    1    3    3    0    0 -0.11481817421E+02 -0.48672707589E+01  0.29586484698E+01  0.12817022157E+02  0.51100000000E-03 0. -1.
        -11    1    3    3    0    0  0.87881918089E+01 -0.17955569184E+02  0.95895866504E+00  0.20013854750E+02  0.51100000000E-03 0.  1.
        -12    1    3    3    0    0 -0.55329940419E+01 -0.16810608764E+02 -0.86227287611E-01  0.17697966697E+02  0.00000000000E+00 0.  1.
</event>
<event>
 7    1  0.1164735E-012  0.5052884E+02  0.7816164E-02  0.1300439E+00
        -11   -1    0    0    0    0  0.00000000000E+00  0.00000000000E+00  0.45593999997E+02  0.45594000000E+02  0.51100000000E-03 0. -1.
         11   -1    0    0    0    0 -0.00000000000E+00 -0.00000000000E+00 -0.45593999997E+02  0.45594000000E+02  0.51100000000E-03 0.  1.
    9900012    2    1    2    0    0  0.53553200734E+01 -0.39489903563E+02  0.80644568679E+01  0.50528838658E+02  0.29999935585E+02 0.  0.
        -12    1    1    2    0    0 -0.53553200734E+01  0.39489903563E+02 -0.80644568679E+01  0.40659161342E+02  0.00000000000E+00 0.  1.
         11    1    3    3    0    0  0.14872129874E+02 -0.21823294765E+02  0.78124418745E+01  0.27540346579E+02  0.51100000000E-03 0. -1.
        -11    1    3    3    0    0 -0.94000245473E+00 -0.10416211355E+01 -0.36222746287E+01  0.38845145065E+01  0.51100000000E-03 0.  1.
         12    1    3    3    0    0 -0.85768073459E+01 -0.16624987662E+02  0.38742896221E+01  0.19103977572E+02  0.00000000000E+00 0. -1.
</event>
<event>
 7    1  0.9406864E-013  0.5052886E+02  0.7816164E-02  0.1300439E+00
        -11   -1    0    0    0    0  0.00000000000E+00  0.00000000000E+00  0.45593999997E+02  0.45594000000E+02  0.51100000000E-03 0.  1.
         11   -1    0    0    0    0 -0.00000000000E+00 -0.00000000000E+00 -0.45593999997E+02  0.45594000000E+02  0.51100000000E-03 0. -1.
    9900012    2    1    2    0    0  0.33181655656E+02  0.22952960122E+02 -0.50304028623E+01  0.50528860764E+02  0.30000002778E+02 0.  0.
        -12    1    1    2    0    0 -0.33181655656E+02 -0.22952960122E+02  0.50304028623E+01  0.40659139236E+02  0.00000000000E+00 0.  1.
         11    1    3    3    0    0  0.33999559574E+01  0.86785624223E+01  0.33543088740E+01  0.99059847826E+01  0.51100000000E-03 0. -1.
        -11    1    3    3    0    0  0.31777201392E+02  0.10429164919E+02 -0.28099013146E+01  0.33562680985E+02  0.51100000000E-03 0.  1.
        -12    1    3    3    0    0 -0.19955016934E+01  0.38452327809E+01 -0.55748104217E+01  0.70601949963E+01  0.00000000000E+00 0.  1.
</event>
<event>
 7    1  0.9406864E-013  0.5052886E+02  0.7816164E-02  0.1300439E+00
        -11   -1    0    0    0    0  0.00000000000E+00  0.00000000000E+00  0.45593999997E+02  0.45594000000E+02  0.51100000000E-03 0.  1.
         11   -1    0    0    0    0 -0.00000000000E+00 -0.00000000000E+00 -0.45593999997E+02  0.45594000000E+02  0.51100000000E-03 0. -1.
    9900012    2    1    2    0    0 -0.35470693153E+02 -0.19871427041E+02  0.34978861218E+00  0.50528855426E+02  0.29999986553E+02 0.  0.
        -12    1    1    2    0    0  0.35470693153E+02  0.19871427041E+02 -0.34978861218E+00  0.40659144574E+02  0.00000000000E+00 0.  1.
         11    1    3    3    0    0 -0.22193921352E+02 -0.14849260958E+01  0.28369132908E+01  0.22423720204E+02  0.51100000000E-03 0. -1.
        -11    1    3    3    0    0 -0.12795051421E+01 -0.10368711862E+02  0.52928708622E+01  0.11711609681E+02  0.51100000000E-03 0.  1.
         12    1    3    3    0    0 -0.11997266659E+02 -0.80177890825E+01 -0.77799955408E+01  0.16393525541E+02  0.00000000000E+00 0. -1.
</event>
<event>
 7    1  0.9406864E-013  0.5052888E+02  0.7816164E-02  0.1300439E+00
        -11   -1    0    0    0    0  0.00000000000E+00  0.00000000000E+00  0.45593999997E+02  0.45594000000E+02  0.51100000000E-03 0.  1.
         11   -1    0    0    0    0 -0.00000000000E+00 -0.00000000000E+00 -0.45593999997E+02  0.45594000000E+02  0.51100000000E-03 0. -1.
    9900012    2    1    2    0    0  0.35386402090E+02 -0.17513693157E+02  0.97075623853E+01  0.50528884561E+02  0.30000075111E+02 0.  0.
        -12    1    1    2    0    0 -0.35386402090E+02  0.17513693157E+02 -0.97075623853E+01  0.40659115439E+02  0.00000000000E+00 0.  1.
         11    1    3    3    0    0  0.16159843192E+02 -0.87853041610E+01 -0.59554502919E+01  0.19333636224E+02  0.51100000000E-03 0. -1.
        -11    1    3    3    0    0  0.17876350964E+02 -0.25314653832E+01  0.16903706728E+02  0.24732722093E+02  0.51100000000E-03 0.  1.
        -12    1    3    3    0    0  0.13502079344E+01 -0.61969236124E+01 -0.12406940504E+01  0.64625262437E+01  0.00000000000E+00 0.  1.
</event>
<event>
 7    1  0.9406864E-013  0.5052886E+02  0.7816164E-02  0.1300439E+00
        -11   -1    0    0    0    0  0.00000000000E+00  0.00000000000E+00  0.45593999997E+02  0.45594000000E+02  0.51100000000E-03 0.  1.
         11   -1    0    0    0    0 -0.00000000000E+00 -0.00000000000E+00 -0.45593999997E+02  0.45594000000E+02  0.51100000000E-03 0. -1.
    9900012    2    1    2    0    0 -0.28502691262E+02  0.21284535406E+02 -0.19690890050E+02  0.50528855794E+02  0.29999987670E+02 0.  0.
        -12    1    1    2    0    0  0.28502691262E+02 -0.21284535406E+02  0.19690890050E+02  0.40659144206E+02  0.00000000000E+00 0.  1.
         11    1    3    3    0    0 -0.13889049697E+01  0.12442704789E+01 -0.15191848077E+02  0.15305865356E+02  0.51100000000E-03 0. -1.
        -11    1    3    3    0    0 -0.18103300371E+02  0.15130634559E+02  0.93384910779E+00  0.23612235406E+02  0.51100000000E-03 0.  1.
        -12    1    3    3    0    0 -0.90104859214E+01  0.49096303685E+01 -0.54328910807E+01  0.11610755031E+02  0.00000000000E+00 0.  1.
</event>
<event>
 7    1  0.9406864E-013  0.5052886E+02  0.7816164E-02  0.1300439E+00
        -11   -1    0    0    0    0  0.00000000000E+00  0.00000000000E+00  0.45593999997E+02  0.45594000000E+02  0.51100000000E-03 0.  1.
         11   -1    0    0    0    0 -0.00000000000E+00 -0.00000000000E+00 -0.45593999997E+02  0.45594000000E+02  0.51100000000E-03 0. -1.
    9900012    2    1    2    0    0  0.39387694266E+02  0.45826233537E+01  0.89874972136E+01  0.50528855856E+02  0.29999987859E+02 0.  0.
        -12    1    1    2    0    0 -0.39387694266E+02 -0.45826233537E+01 -0.89874972136E+01  0.40659144144E+02  0.00000000000E+00 0.  1.
         11    1    3    3    0    0  0.24399416638E+02 -0.45176321364E+00 -0.92225175257E+01  0.26088128565E+02  0.51100000000E-03 0. -1.
        -11    1    3    3    0    0  0.21649251312E+01  0.15923114168E+01  0.51916820404E+01  0.58460173744E+01  0.51100000000E-03 0.  1.
         12    1    3    3    0    0  0.12823352497E+02  0.34420751505E+01  0.13018332699E+02  0.18594709916E+02  0.00000000000E+00 0. -1.
</event>
<event>
 7    1  0.9406864E-013  0.5052886E+02  0.7816164E-02  0.1300439E+00
        -11   -1    0    0    0    0  0.00000000000E+00  0.00000000000E+00  0.45593999997E+02  0.45594000000E+02  0.51100000000E-03 0.  1.
         11   -1    0    0    0    0 -0.00000000000E+00 -0.00000000000E+00 -0.45593999997E+02  0.45594000000E+02  0.51100000000E-03 0. -1.
    9900012    2    1    2    0    0 -0.10313657246E+02 -0.16226462475E+02 -0.35825908040E+02  0.50528864530E+02  0.30000014226E+02 0.  0.
        -12    1    1    2    0    0  0.10313657246E+02  0.16226462475E+02  0.35825908040E+02  0.40659135470E+02  0.00000000000E+00 0.  1.
         11    1    3    3    0    0 -0.53058466958E+01  0.96598215306E+00  0.29725652187E+01  0.61580252452E+01  0.51100000000E-03 0.  1.
        -11    1    3    3    0    0 -0.30193427252E+01 -0.13503732435E+02 -0.37519070764E+02  0.39989347225E+02  0.51100000000E-03 0. -1.
         12    1    3    3    0    0 -0.19884678245E+01 -0.36887121930E+01 -0.12794024943E+01  0.43814920603E+01  0.00000000000E+00 0. -1.
</event>
<event>
 7    1  0.9406864E-013  0.5052886E+02  0.7816164E-02  0.1300439E+00
        -11   -1    0    0    0    0  0.00000000000E+00  0.00000000000E+00  0.45593999997E+02  0.45594000000E+02  0.51100000000E-03 0.  1.
         11   -1    0    0    0    0 -0.00000000000E+00 -0.00000000000E+00 -0.45593999997E+02  0.45594000000E+02  0.51100000000E-03 0. -1.
    9900012    2    1    2    0    0 -0.29924948827E+02 -0.77880675363E+01 -0.26400934445E+02  0.50528857144E+02  0.29999991775E+02 0.  0.
        -12    1    1    2    0    0  0.29924948827E+02  0.77880675363E+01  0.26400934445E+02  0.40659142856E+02  0.00000000000E+00 0.  1.
         11    1    3    3    0    0 -0.99316806383E+01 -0.15084892573E+02 -0.69834868318E+01  0.19363918840E+02  0.51100000000E-03 0. -1.
        -11    1    3    3    0    0 -0.14875095076E+02  0.10236157530E+02 -0.11977233911E+02  0.21667983453E+02  0.51100000000E-03 0.  1.
        -12    1    3    3    0    0 -0.51181731122E+01 -0.29393324940E+01 -0.74402137021E+01  0.94969548514E+01  0.00000000000E+00 0.  1.
</event>
<event>
 7    1  0.9406864E-013  0.5052886E+02  0.7816164E-02  0.1300439E+00
        -11   -1    0    0    0    0  0.00000000000E+00  0.00000000000E+00  0.45593999997E+02  0.45594000000E+02  0.51100000000E-03 0.  1.
         11   -1    0    0    0    0 -0.00000000000E+00 -0.00000000000E+00 -0.45593999997E+02  0.45594000000E+02  0.51100000000E-03 0. -1.
    9900012    2    1    2    0    0 -0.82245934012E+01  0.39070329663E+02  0.76831692290E+01  0.50528859749E+02  0.29999999693E+02 0.  0.
        -12    1    1    2    0    0  0.82245934012E+01 -0.39070329663E+02 -0.76831692290E+01  0.40659140251E+02  0.00000000000E+00 0.  1.
         11    1    3    3    0    0 -0.57409848286E+01  0.96078723340E+01 -0.44840572177E+01  0.12057233803E+02  0.51100000000E-03 0. -1.
        -11    1    3    3    0    0  0.90438694385E+01  0.81242374680E+01  0.28202523950E+01  0.12479929194E+02  0.51100000000E-03 0.  1.
        -12    1    3    3    0    0 -0.11527478011E+02  0.21338219860E+02  0.93469740517E+01  0.25991696752E+02  0.00000000000E+00 0.  1.
</event>
<event>
 7    1  0.9406864E-013  0.5052883E+02  0.7816164E-02  0.1300439E+00
        -11   -1    0    0    0    0  0.00000000000E+00  0.00000000000E+00  0.45593999997E+02  0.45594000000E+02  0.51100000000E-03 0. -1.
         11   -1    0    0    0    0 -0.00000000000E+00 -0.00000000000E+00 -0.45593999997E+02  0.45594000000E+02  0.51100000000E-03 0.  1.
    9900012    2    1    2    0    0  0.23328139072E+02  0.31358289453E+02  0.11208210871E+02  0.50528826609E+02  0.29999898959E+02 0.  0.
        -12    1    1    2    0    0 -0.23328139072E+02 -0.31358289453E+02 -0.11208210871E+02  0.40659173391E+02  0.00000000000E+00 0.  1.
         11    1    3    3    0    0  0.18531536225E+02  0.17508040434E+02  0.59687879500E+01  0.26183501380E+02  0.51100000000E-03 0. -1.
        -11    1    3    3    0    0 -0.36485942092E+01 -0.15209053268E+01  0.55384842790E+01  0.68044251106E+01  0.51100000000E-03 0.  1.
        -12    1    3    3    0    0  0.84451970562E+01  0.15371154346E+02 -0.29906135852E+00  0.17540900118E+02  0.00000000000E+00 0.  1.
</event>
<event>
 7    1  0.9406864E-013  0.5052889E+02  0.7816164E-02  0.1300439E+00
        -11   -1    0    0    0    0  0.00000000000E+00  0.00000000000E+00  0.45593999997E+02  0.45594000000E+02  0.51100000000E-03 0. -1.
         11   -1    0    0    0    0 -0.00000000000E+00 -0.00000000000E+00 -0.45593999997E+02  0.45594000000E+02  0.51100000000E-03 0.  1.
    9900012    2    1    2    0    0  0.81190446381E+01  0.29078260764E+02  0.27234152327E+02  0.50528890469E+02  0.30000093069E+02 0.  0.
        -12    1    1    2    0    0 -0.81190446381E+01 -0.29078260764E+02 -0.27234152327E+02  0.40659109531E+02  0.00000000000E+00 0.  1.
         11    1    3    3    0    0 -0.19940867908E+01  0.16613257938E+02  0.59146475961E+01  0.17747106183E+02  0.51100000000E-03 0. -1.
        -11    1    3    3    0    0  0.13813303907E+02  0.53557388864E+01  0.19626354548E+02  0.24590345604E+02  0.51100000000E-03 0.  1.
        -12    1    3    3    0    0 -0.37001724779E+01  0.71092639393E+01  0.16931501835E+01  0.81914386813E+01  0.00000000000E+00 0.  1.
</event>
<event>
 7    1  0.9406864E-013  0.5052888E+02  0.7816164E-02  0.1300439E+00
        -11   -1    0    0    0    0  0.00000000000E+00  0.00000000000E+00  0.45593999997E+02  0.45594000000E+02  0.51100000000E-03 0.  1.
         11   -1    0    0    0    0 -0.00000000000E+00 -0.00000000000E+00 -0.45593999997E+02  0.45594000000E+02  0.51100000000E-03 0. -1.
    9900012    2    1    2    0    0 -0.80255648681E+01  0.39773451680E+02  0.26128747795E+01  0.50528877228E+02  0.30000052821E+02 0.  0.
        -12    1    1    2    0    0  0.80255648681E+01 -0.39773451680E+02 -0.26128747795E+01  0.40659122772E+02  0.00000000000E+00 0.  1.
         11    1    3    3    0    0 -0.44124307773E+01  0.33780741280E+02  0.48422614961E+01  0.34410107868E+02  0.51100000000E-03 0. -1.
        -11    1    3    3    0    0 -0.70007294600E+01 -0.46490577568E+00  0.24759923620E+01  0.74402210175E+01  0.51100000000E-03 0.  1.
        -12    1    3    3    0    0  0.33875953691E+01  0.64576161757E+01 -0.47053790786E+01  0.86785483424E+01  0.00000000000E+00 0.  1.
</event>
<event>
 7    1  0.9406864E-013  0.5052886E+02  0.7816164E-02  0.1300439E+00
        -11   -1    0    0    0    0  0.00000000000E+00  0.00000000000E+00  0.45593999997E+02  0.45594000000E+02  0.51100000000E-03 0.  1.
         11   -1    0    0    0    0 -0.00000000000E+00 -0.00000000000E+00 -0.45593999997E+02  0.45594000000E+02  0.51100000000E-03 0. -1.
    9900012    2    1    2    0    0  0.97308626304E+01 -0.20942478984E+02 -0.33464735791E+02  0.50528860129E+02  0.30000000847E+02 0.  0.
        -12    1    1    2    0    0 -0.97308626304E+01  0.20942478984E+02  0.33464735791E+02  0.40659139871E+02  0.00000000000E+00 0.  1.
         11    1    3    3    0    0  0.91458277271E+01 -0.87166180299E+01  0.81901000544E+00  0.12660820366E+02  0.51100000000E-03 0. -1.
        -11    1    3    3    0    0  0.12552352732E+01 -0.47671344207E+00 -0.16429448148E+02  0.16484223913E+02  0.51100000000E-03 0.  1.
         12    1    3    3    0    0 -0.67020036995E+00 -0.11749147512E+02 -0.17854297648E+02  0.21383815850E+02  0.00000000000E+00 0. -1.
</event>
<event>
 7    1  0.9406864E-013  0.5052887E+02  0.7816164E-02  0.1300439E+00
        -11   -1    0    0    0    0  0.00000000000E+00  0.00000000000E+00  0.45593999997E+02  0.45594000000E+02  0.51100000000E-03 0.  1.
         11   -1    0    0    0    0 -0.00000000000E+00 -0.00000000000E+00 -0.45593999997E+02  0.45594000000E+02  0.51100000000E-03 0. -1.
    9900012    2    1    2    0    0  0.15390795334E+02  0.37627095397E+02  0.70014013997E+00  0.50528867136E+02  0.30000022146E+02 0.  0.
        -12    1    1    2    0    0 -0.15390795334E+02 -0.37627095397E+02 -0.70014013997E+00  0.40659132864E+02  0.00000000000E+00 0.  1.
         11    1    3    3    0    0  0.20035347757E+02  0.19842538597E+02  0.10577776403E+01  0.28218086248E+02  0.51100000000E-03 0. -1.
        -11    1    3    3    0    0 -0.37382726617E+01  0.61430387095E+01 -0.59784174852E+01  0.93516353099E+01  0.51100000000E-03 0.  1.
        -12    1    3    3    0    0 -0.90627976137E+00  0.11641518091E+02  0.56207799849E+01  0.12959145578E+02  0.00000000000E+00 0.  1.
</event>
<event>
 7    1  0.9406864E-013  0.5052890E+02  0.7816164E-02  0.1300439E+00
        -11   -1    0    0    0    0  0.00000000000E+00  0.00000000000E+00  0.45593999997E+02  0.45594000000E+02  0.51100000000E-03 0. -1.
         11   -1    0    0    0    0 -0.00000000000E+00 -0.00000000000E+00 -0.45593999997E+02  0.45594000000E+02  0.51100000000E-03 0.  1.
    9900012    2    1    2    0    0 -0.28235600774E+02 -0.19528237667E+02  0.21784429881E+02  0.50528897665E+02  0.30000114943E+02 0.  0.
        -12    1    1    2    0    0  0.28235600774E+02  0.19528237667E+02 -0.21784429881E+02  0.40659102335E+02  0.00000000000E+00 0.  1.
         11    1    3    3    0    0 -0.34201637291E+02 -0.18040862155E+02  0.20352151299E+02  0.43697079575E+02  0.51100000000E-03 0. -1.
        -11    1    3    3    0    0  0.55036664424E+01 -0.14955926543E+01  0.20497157415E+01  0.60604023447E+01  0.51100000000E-03 0.  1.
         12    1    3    3    0    0  0.46237007445E+00  0.82171425230E-02 -0.61743715875E+00  0.77141574535E+00  0.00000000000E+00 0. -1.
</event>
<event>
 7    1  0.9406864E-013  0.5052886E+02  0.7816164E-02  0.1300439E+00
        -11   -1    0    0    0    0  0.00000000000E+00  0.00000000000E+00  0.45593999997E+02  0.45594000000E+02  0.51100000000E-03 0. -1.
         11   -1    0    0    0    0 -0.00000000000E+00 -0.00000000000E+00 -0.45593999997E+02  0.45594000000E+02  0.51100000000E-03 0.  1.
    9900012    2    1    2    0    0  0.11800357998E+02 -0.27818912740E+02  0.27203411462E+02  0.50528856501E+02  0.29999989820E+02 0.  0.
        -12    1    1    2    0    0 -0.11800357998E+02  0.27818912740E+02 -0.27203411462E+02  0.40659143499E+02  0.00000000000E+00 0.  1.
         11    1    3    3    0    0 -0.72429961877E+01 -0.12165132540E+02  0.11614473838E+02  0.18312494267E+02  0.51100000000E-03 0. -1.
        -11    1    3    3    0    0  0.19953873574E+02 -0.11399107236E+02  0.98200013776E+01  0.24990581099E+02  0.51100000000E-03 0.  1.
        -12    1    3    3    0    0 -0.91051938793E+00 -0.42546729648E+01  0.57689362459E+01  0.72257811344E+01  0.00000000000E+00 0.  1.
</event>
<event>
 7    1  0.9406864E-013  0.5052885E+02  0.7816164E-02  0.1300439E+00
        -11   -1    0    0    0    0  0.00000000000E+00  0.00000000000E+00  0.45593999997E+02  0.45594000000E+02  0.51100000000E-03 0. -1.
         11   -1    0    0    0    0 -0.00000000000E+00 -0.00000000000E+00 -0.45593999997E+02  0.45594000000E+02  0.51100000000E-03 0.  1.
    9900012    2    1    2    0    0 -0.24477128313E+02  0.31516209239E+02  0.77952237594E+01  0.50528846434E+02  0.29999959222E+02 0.  0.
        -12    1    1    2    0    0  0.24477128313E+02 -0.31516209239E+02 -0.77952237594E+01  0.40659153566E+02  0.00000000000E+00 0.  1.
         11    1    3    3    0    0 -0.22361167062E+02  0.90343816627E+01 -0.26228525347E+01  0.24259455890E+02  0.51100000000E-03 0. -1.
        -11    1    3    3    0    0  0.22748059785E+01  0.91582573485E+01  0.72181179308E+01  0.11880641676E+02  0.51100000000E-03 0.  1.
         12    1    3    3    0    0 -0.43907672288E+01  0.13323570228E+02  0.31999583633E+01  0.14388748868E+02  0.00000000000E+00 0. -1.
</event>
<event>
 7    1  0.9406864E-013  0.5052888E+02  0.7816164E-02  0.1300439E+00
        -11   -1    0    0    0    0  0.00000000000E+00  0.00000000000E+00  0.45593999997E+02  0.45594000000E+02  0.51100000000E-03 0. -1.
         11   -1    0    0    0    0 -0.00000000000E+00 -0.00000000000E+00 -0.45593999997E+02  0.45594000000E+02  0.51100000000E-03 0.  1.
    9900012    2    1    2    0    0 -0.26706996708E+02 -0.14998513744E+02 -0.26738449714E+02  0.50528883177E+02  0.30000070905E+02 0.  0.
        -12    1    1    2    0    0  0.26706996708E+02  0.14998513744E+02  0.26738449714E+02  0.40659116823E+02  0.00000000000E+00 0.  1.
         11    1    3    3    0    0 -0.10898698038E+01 -0.18299916435E+01  0.13655252903E+01  0.25300879795E+01  0.51100000000E-03 0. -1.
        -11    1    3    3    0    0 -0.79063232668E+01 -0.12673257410E+02 -0.26226384411E+02  0.30181859461E+02  0.51100000000E-03 0.  1.
        -12    1    3    3    0    0 -0.17710803638E+02 -0.49526469032E+00 -0.18775905932E+01  0.17816935737E+02  0.00000000000E+00 0.  1.
</event>
<event>
 7    1  0.9406864E-013  0.5052886E+02  0.7816164E-02  0.1300439E+00
        -11   -1    0    0    0    0  0.00000000000E+00  0.00000000000E+00  0.45593999997E+02  0.45594000000E+02  0.51100000000E-03 0.  1.
         11   -1    0    0    0    0 -0.00000000000E+00 -0.00000000000E+00 -0.45593999997E+02  0.45594000000E+02  0.51100000000E-03 0. -1.
    9900012    2    1    2    0    0  0.91783368283E+01 -0.12500587969E+02 -0.37585360678E+02  0.50528857070E+02  0.29999991550E+02 0.  0.
        -12    1    1    2    0    0 -0.91783368283E+01  0.12500587969E+02  0.37585360678E+02  0.40659142930E+02  0.00000000000E+00 0.  1.
         11    1    3    3    0    0  0.13043092754E+02 -0.65019685470E+01 -0.19307331801E+02  0.24190306429E+02  0.51100000000E-03 0. -1.
        -11    1    3    3    0    0  0.24523254612E+00  0.44625505504E+01  0.45501208454E+00  0.44923860781E+01  0.51100000000E-03 0.  1.
        -12    1    3    3    0    0 -0.41099884722E+01 -0.10461169973E+02 -0.18733040962E+02  0.21846164563E+02  0.00000000000E+00 0.  1.
</event>
<event>
 7    1  0.9406864E-013  0.5052878E+02  0.7816164E-02  0.1300439E+00
        -11   -1    0    0    0    0  0.00000000000E+00  0.00000000000E+00  0.45593999997E+02  0.45594000000E+02  0.51100000000E-03 0. -1.
         11   -1    0    0    0    0 -0.00000000000E+00 -0.00000000000E+00 -0.45593999997E+02  0.45594000000E+02  0.51100000000E-03 0.  1.
    9900012    2    1    2    0    0 -0.20107573486E+02  0.18125953151E+01  0.35292669336E+02  0.50528775682E+02  0.29999744162E+02 0.  0.
        -12    1    1    2    0    0  0.20107573486E+02 -0.18125953151E+01 -0.35292669336E+02  0.40659224318E+02  0.00000000000E+00 0.  1.
         11    1    3    3    0    0 -0.62075730871E+01 -0.98181062577E+01  0.22459029382E+02  0.25285117661E+02  0.51100000000E-03 0. -1.
        -11    1    3    3    0    0 -0.16585189114E+01  0.17948710322E+00 -0.21768637232E+01  0.27425602145E+01  0.51100000000E-03 0.  1.
         12    1    3    3    0    0 -0.12241481488E+02  0.11451214470E+02  0.15010503677E+02  0.22501097806E+02  0.00000000000E+00 0. -1.
</event>
<event>
 7    1  0.9406864E-013  0.5052886E+02  0.7816164E-02  0.1300439E+00
        -11   -1    0    0    0    0  0.00000000000E+00  0.00000000000E+00  0.45593999997E+02  0.45594000000E+02  0.51100000000E-03 0.  1.
         11   -1    0    0    0    0 -0.00000000000E+00 -0.00000000000E+00 -0.45593999997E+02  0.45594000000E+02  0.51100000000E-03 0. -1.
    9900012    2    1    2    0    0  0.29083138884E+02 -0.25939683561E+02 -0.11596099026E+02  0.50528860028E+02  0.30000000542E+02 0.  0.
        -12    1    1    2    0    0 -0.29083138884E+02  0.25939683561E+02  0.11596099026E+02  0.40659139972E+02  0.00000000000E+00 0.  1.
         11    1    3    3    0    0  0.33443346871E+01 -0.99950347863E+01 -0.13540289878E+02  0.17158809548E+02  0.51100000000E-03 0. -1.
        -11    1    3    3    0    0  0.10298340616E+02 -0.12344587928E+02  0.57350437461E+01  0.17068549956E+02  0.51100000000E-03 0.  1.
         12    1    3    3    0    0  0.15440463581E+02 -0.36000608470E+01 -0.37908528942E+01  0.16301500525E+02  0.00000000000E+00 0. -1.
</event>
<event>
 7    1  0.1243480E-012  0.5052885E+02  0.7816164E-02  0.1300439E+00
        -11   -1    0    0    0    0  0.00000000000E+00  0.00000000000E+00  0.45593999997E+02  0.45594000000E+02  0.51100000000E-03 0. -1.
         11   -1    0    0    0    0 -0.00000000000E+00 -0.00000000000E+00 -0.45593999997E+02  0.45594000000E+02  0.51100000000E-03 0.  1.
    9900012    2    1    2    0    0  0.11206408044E+02 -0.14848894061E+02  0.36153741276E+02  0.50528852882E+02  0.29999978821E+02 0.  0.
        -12    1    1    2    0    0 -0.11206408044E+02  0.14848894061E+02 -0.36153741276E+02  0.40659147118E+02  0.00000000000E+00 0.  1.
         11    1    3    3    0    0  0.14989747906E+02 -0.15816680029E+02  0.28001449553E+02  0.35481559813E+02  0.51100000000E-03 0. -1.
        -11    1    3    3    0    0  0.56806905377E-01  0.53421541939E+01  0.74740176860E+01  0.91870985130E+01  0.51100000000E-03 0.  1.
         12    1    3    3    0    0 -0.38401467677E+01 -0.43743682256E+01  0.67827403774E+00  0.58601945566E+01  0.00000000000E+00 0. -1.
</event>
<event>
 7    1  0.9406864E-013  0.5052886E+02  0.7816164E-02  0.1300439E+00
        -11   -1    0    0    0    0  0.00000000000E+00  0.00000000000E+00  0.45593999997E+02  0.45594000000E+02  0.51100000000E-03 0.  1.
         11   -1    0    0    0    0 -0.00000000000E+00 -0.00000000000E+00 -0.45593999997E+02  0.45594000000E+02  0.51100000000E-03 0. -1.
    9900012    2    1    2    0    0 -0.36438421247E+02  0.15369753386E+02 -0.94434046501E+01  0.50528858918E+02  0.29999997168E+02 0.  0.
        -12    1    1    2    0    0  0.36438421247E+02 -0.15369753386E+02  0.94434046501E+01  0.40659141082E+02  0.00000000000E+00 0.  1.
         11    1    3    3    0    0 -0.13424233976E+02  0.59748516595E+01 -0.14323354619E+02  0.20519926851E+02  0.51100000000E-03 0. -1.
        -11    1    3    3    0    0 -0.24819384047E+02  0.11029833832E+02  0.47311523413E+01  0.27568874870E+02  0.51100000000E-03 0.  1.
         12    1    3    3    0    0  0.18051967757E+01 -0.16349321059E+01  0.14879762751E+00  0.24400571969E+01  0.00000000000E+00 0. -1.
</event>
<event>
 7    1  0.9406864E-013  0.5052890E+02  0.7816164E-02  0.1300439E+00
        -11   -1    0    0    0    0  0.00000000000E+00  0.00000000000E+00  0.45593999997E+02  0.45594000000E+02  0.51100000000E-03 0.  1.
         11   -1    0    0    0    0 -0.00000000000E+00 -0.00000000000E+00 -0.45593999997E+02  0.45594000000E+02  0.51100000000E-03 0. -1.
    9900012    2    1    2    0    0  0.50458254753E+01 -0.33818517344E+02  0.22000217031E+02  0.50528904837E+02  0.30000136742E+02 0.  0.
        -12    1    1    2    0    0 -0.50458254753E+01  0.33818517344E+02 -0.22000217031E+02  0.40659095163E+02  0.00000000000E+00 0.  1.
         11    1    3    3    0    0 -0.10666702645E+02 -0.15464357079E+02  0.16480342197E+02  0.24990529494E+02  0.51100000000E-03 0. -1.
        -11    1    3    3    0    0  0.11191848378E+02 -0.11375776276E+02  0.63651118920E+01  0.17180815046E+02  0.51100000000E-03 0.  1.
         12    1    3    3    0    0  0.45206797429E+01 -0.69783839887E+01 -0.84523705786E+00  0.83575602968E+01  0.00000000000E+00 0. -1.
</event>
<event>
 7    1  0.9406864E-013  0.5052886E+02  0.7816164E-02  0.1300439E+00
        -11   -1    0    0    0    0  0.00000000000E+00  0.00000000000E+00  0.45593999997E+02  0.45594000000E+02  0.51100000000E-03 0. -1.
         11   -1    0    0    0    0 -0.00000000000E+00 -0.00000000000E+00 -0.45593999997E+02  0.45594000000E+02  0.51100000000E-03 0.  1.
    9900012    2    1    2    0    0 -0.11644843598E+02  0.37602638284E+02  0.10178633901E+02  0.50528863555E+02  0.30000011263E+02 0.  0.
        -12    1    1    2    0    0  0.11644843598E+02 -0.37602638284E+02 -0.10178633901E+02  0.40659136445E+02  0.00000000000E+00 0.  1.
         11    1    3    3    0    0 -0.46548724182E+01  0.16019876151E+02 -0.82198997886E+00  0.16702692504E+02  0.51100000000E-03 0. -1.
        -11    1    3    3    0    0 -0.98115023013E+01  0.10926236607E+02  0.16003751758E+02  0.21720227770E+02  0.51100000000E-03 0.  1.
        -12    1    3    3    0    0  0.28215311215E+01  0.10656525526E+02 -0.50031278779E+01  0.12105943281E+02  0.00000000000E+00 0.  1.
</event>
<event>
 7    1  0.9406864E-013  0.5052886E+02  0.7816164E-02  0.1300439E+00
        -11   -1    0    0    0    0  0.00000000000E+00  0.00000000000E+00  0.45593999997E+02  0.45594000000E+02  0.51100000000E-03 0. -1.
         11   -1    0    0    0    0 -0.00000000000E+00 -0.00000000000E+00 -0.45593999997E+02  0.45594000000E+02  0.51100000000E-03 0.  1.
    9900012    2    1    2    0    0  0.18165072406E+02  0.21964474102E+02  0.28995827648E+02  0.50528855898E+02  0.29999987989E+02 0.  0.
        -12    1    1    2    0    0 -0.18165072406E+02 -0.21964474102E+02 -0.28995827648E+02  0.40659144102E+02  0.00000000000E+00 0.  1.
         11    1    3    3    0    0  0.83313407024E+01  0.30072407695E+01  0.27364885525E+02  0.28762678856E+02  0.51100000000E-03 0. -1.
        -11    1    3    3    0    0  0.11111429578E+01  0.54505764097E+01  0.11518847907E+01  0.56806919211E+01  0.51100000000E-03 0.  1.
         12    1    3    3    0    0  0.87225887457E+01  0.13506656923E+02  0.47905733246E+00  0.16085485121E+02  0.00000000000E+00 0. -1.
</event>
<event>
 7    1  0.9406864E-013  0.5052886E+02  0.7816164E-02  0.1300439E+00
        -11   -1    0    0    0    0  0.00000000000E+00  0.00000000000E+00  0.45593999997E+02  0.45594000000E+02  0.51100000000E-03 0.  1.
         11   -1    0    0    0    0 -0.00000000000E+00 -0.00000000000E+00 -0.45593999997E+02  0.45594000000E+02  0.51100000000E-03 0. -1.
    9900012    2    1    2    0    0 -0.35350910089E+02 -0.18497720804E+02 -0.78302940402E+01  0.50528855594E+02  0.29999987064E+02 0.  0.
        -12    1    1    2    0    0  0.35350910089E+02  0.18497720804E+02  0.78302940402E+01  0.40659144406E+02  0.00000000000E+00 0.  1.
         11    1    3    3    0    0 -0.10646342091E+02 -0.84725087299E+01 -0.16741371349E+02  0.21573166643E+02  0.51100000000E-03 0. -1.
        -11    1    3    3    0    0 -0.18035808407E+02 -0.10091252286E+02  0.82541716372E+01  0.22254327832E+02  0.51100000000E-03 0.  1.
        -12    1    3    3    0    0 -0.66687595911E+01  0.66040211125E-01  0.65690567151E+00  0.67013611195E+01  0.00000000000E+00 0.  1.
</event>
<event>
 7    1  0.9406864E-013  0.5052886E+02  0.7816164E-02  0.1300439E+00
        -11   -1    0    0    0    0  0.00000000000E+00  0.00000000000E+00  0.45593999997E+02  0.45594000000E+02  0.51100000000E-03 0. -1.
         11   -1    0    0    0    0 -0.00000000000E+00 -0.00000000000E+00 -0.45593999997E+02  0.45594000000E+02  0.51100000000E-03 0.  1.
    9900012    2    1    2    0    0  0.26392355015E+02 -0.29770574666E+02 -0.83858326156E+01  0.50528859480E+02  0.29999998877E+02 0.  0.
        -12    1    1    2    0    0 -0.26392355015E+02  0.29770574666E+02  0.83858326156E+01  0.40659140520E+02  0.00000000000E+00 0.  1.
         11    1    3    3    0    0  0.20440910629E+02 -0.13207562943E+02 -0.11398783507E+02  0.26873831359E+02  0.51100000000E-03 0. -1.
        -11    1    3    3    0    0  0.78588255632E+01 -0.18578819616E+02  0.94612071976E+00  0.20194772151E+02  0.51100000000E-03 0.  1.
        -12    1    3    3    0    0 -0.19073811775E+01  0.20158078934E+01  0.20668301717E+01  0.34602559700E+01  0.00000000000E+00 0.  1.
</event>
<event>
 7    1  0.9406864E-013  0.5052886E+02  0.7816164E-02  0.1300439E+00
        -11   -1    0    0    0    0  0.00000000000E+00  0.00000000000E+00  0.45593999997E+02  0.45594000000E+02  0.51100000000E-03 0.  1.
         11   -1    0    0    0    0 -0.00000000000E+00 -0.00000000000E+00 -0.45593999997E+02  0.45594000000E+02  0.51100000000E-03 0. -1.
    9900012    2    1    2    0    0  0.78205341108E+01 -0.10817243761E+02 -0.38405628823E+02  0.50528857834E+02  0.29999993873E+02 0.  0.
        -12    1    1    2    0    0 -0.78205341108E+01  0.10817243761E+02  0.38405628823E+02  0.40659142166E+02  0.00000000000E+00 0.  1.
         11    1    3    3    0    0  0.14629396969E+02 -0.49957711741E+01 -0.20961488414E+02  0.26045363927E+02  0.51100000000E-03 0. -1.
        -11    1    3    3    0    0 -0.95467703523E+00 -0.74389691553E+01 -0.18160568649E+01  0.77167177694E+01  0.51100000000E-03 0.  1.
         12    1    3    3    0    0 -0.58541858228E+01  0.16174965684E+01 -0.15628083544E+02  0.16766776138E+02  0.00000000000E+00 0. -1.
</event>
<event>
 7    1  0.9406864E-013  0.5052886E+02  0.7816164E-02  0.1300439E+00
        -11   -1    0    0    0    0  0.00000000000E+00  0.00000000000E+00  0.45593999997E+02  0.45594000000E+02  0.51100000000E-03 0.  1.
         11   -1    0    0    0    0 -0.00000000000E+00 -0.00000000000E+00 -0.45593999997E+02  0.45594000000E+02  0.51100000000E-03 0. -1.
    9900012    2    1    2    0    0 -0.25302174644E+02 -0.28985937565E+02 -0.13144624429E+02  0.50528858720E+02  0.29999996567E+02 0.  0.
        -12    1    1    2    0    0  0.25302174644E+02  0.28985937565E+02  0.13144624429E+02  0.40659141280E+02  0.00000000000E+00 0.  1.
         11    1    3    3    0    0 -0.35354975485E+01 -0.13988762882E+02  0.72081131449E+01  0.16128922011E+02  0.51100000000E-03 0.  1.
        -11    1    3    3    0    0 -0.22109919511E+02 -0.15442696904E+02 -0.19162871670E+02  0.33083849222E+02  0.51100000000E-03 0. -1.
        -12    1    3    3    0    0  0.34324241564E+00  0.44552222080E+00 -0.11898659032E+01  0.13160874867E+01  0.00000000000E+00 0.  1.
</event>
<event>
 7    1  0.9406864E-013  0.5052890E+02  0.7816164E-02  0.1300439E+00
        -11   -1    0    0    0    0  0.00000000000E+00  0.00000000000E+00  0.45593999997E+02  0.45594000000E+02  0.51100000000E-03 0. -1.
         11   -1    0    0    0    0 -0.00000000000E+00 -0.00000000000E+00 -0.45593999997E+02  0.45594000000E+02  0.51100000000E-03 0.  1.
    9900012    2    1    2    0    0  0.17068081581E+02 -0.46752546396E+01  0.36605808186E+02  0.50528897602E+02  0.30000114752E+02 0.  0.
        -12    1    1    2    0    0 -0.17068081581E+02  0.46752546396E+01 -0.36605808186E+02  0.40659102398E+02  0.00000000000E+00 0.  1.
         11    1    3    3    0    0  0.78973158439E+01 -0.23346446924E+01  0.99576801193E+01  0.12921824832E+02  0.51100000000E-03 0. -1.
        -11    1    3    3    0    0 -0.26349396755E+01 -0.37197071873E+01  0.25228038675E+02  0.25636557185E+02  0.51100000000E-03 0.  1.
        -12    1    3    3    0    0  0.11805705413E+02  0.13790972401E+01  0.14200893924E+01  0.11970515585E+02  0.00000000000E+00 0.  1.
</event>
<event>
 7    1  0.9406864E-013  0.5052887E+02  0.7816164E-02  0.1300439E+00
        -11   -1    0    0    0    0  0.00000000000E+00  0.00000000000E+00  0.45593999997E+02  0.45594000000E+02  0.51100000000E-03 0. -1.
         11   -1    0    0    0    0 -0.00000000000E+00 -0.00000000000E+00 -0.45593999997E+02  0.45594000000E+02  0.51100000000E-03 0.  1.
    9900012    2    1    2    0    0 -0.29907010455E+02 -0.12886817744E+02  0.24344730200E+02  0.50528865301E+02  0.30000016570E+02 0.  0.
        -12    1    1    2    0    0  0.29907010455E+02  0.12886817744E+02 -0.24344730200E+02  0.40659134699E+02  0.00000000000E+00 0.  1.
         11    1    3    3    0    0 -0.82096132858E+01  0.29561095020E+01  0.73717923203E+01  0.11422769190E+02  0.51100000000E-03 0. -1.
        -11    1    3    3    0    0 -0.22499490724E+01 -0.11028495098E+02 -0.20939258360E+01  0.11448777255E+02  0.51100000000E-03 0.  1.
        -12    1    3    3    0    0 -0.19447448097E+02 -0.48144321482E+01  0.19066863716E+02  0.27657318857E+02  0.00000000000E+00 0.  1.
</event>
<event>
 7    1  0.9406864E-013  0.5052886E+02  0.7816164E-02  0.1300439E+00
        -11   -1    0    0    0    0  0.00000000000E+00  0.00000000000E+00  0.45593999997E+02  0.45594000000E+02  0.51100000000E-03 0.  1.
         11   -1    0    0    0    0 -0.00000000000E+00 -0.00000000000E+00 -0.45593999997E+02  0.45594000000E+02  0.51100000000E-03 0. -1.
    9900012    2    1    2    0    0 -0.55345078119E+01  0.14598220369E+02 -0.37542333485E+02  0.50528860583E+02  0.30000002228E+02 0.  0.
        -12    1    1    2    0    0  0.55345078119E+01 -0.14598220369E+02  0.37542333485E+02  0.40659139417E+02  0.00000000000E+00 0.  1.
         11    1    3    3    0    0 -0.93082978649E+01  0.14981533086E+02 -0.15996565393E+02  0.23811359629E+02  0.51100000000E-03 0. -1.
        -11    1    3    3    0    0  0.59323575262E+01  0.73370657297E+00 -0.10389723444E+01  0.60671784997E+01  0.51100000000E-03 0.  1.
        -12    1    3    3    0    0 -0.21585674732E+01 -0.11170192904E+01 -0.20506795747E+02  0.20650322454E+02  0.00000000000E+00 0.  1.
</event>
<event>
 7    1  0.9406864E-013  0.5052886E+02  0.7816164E-02  0.1300439E+00
        -11   -1    0    0    0    0  0.00000000000E+00  0.00000000000E+00  0.45593999997E+02  0.45594000000E+02  0.51100000000E-03 0.  1.
         11   -1    0    0    0    0 -0.00000000000E+00 -0.00000000000E+00 -0.45593999997E+02  0.45594000000E+02  0.51100000000E-03 0. -1.
    9900012    2    1    2    0    0  0.21330591239E+02  0.24376956614E+02  0.24575098301E+02  0.50528860894E+02  0.30000003173E+02 0.  0.
        -12    1    1    2    0    0 -0.21330591239E+02 -0.24376956614E+02 -0.24575098301E+02  0.40659139106E+02  0.00000000000E+00 0.  1.
         11    1    3    3    0    0  0.26697795467E+02  0.17816317068E+02  0.17522344163E+02  0.36568100606E+02  0.51100000000E-03 0. -1.
        -11    1    3    3    0    0 -0.68906222300E+01  0.48183538311E+01  0.23675945291E+01  0.87351423843E+01  0.51100000000E-03 0.  1.
         12    1    3    3    0    0  0.15234180017E+01  0.17422857153E+01  0.46851596085E+01  0.52256179040E+01  0.00000000000E+00 0. -1.
</event>
<event>
 7    1  0.9406864E-013  0.5052887E+02  0.7816164E-02  0.1300439E+00
        -11   -1    0    0    0    0  0.00000000000E+00  0.00000000000E+00  0.45593999997E+02  0.45594000000E+02  0.51100000000E-03 0. -1.
         11   -1    0    0    0    0 -0.00000000000E+00 -0.00000000000E+00 -0.45593999997E+02  0.45594000000E+02  0.51100000000E-03 0.  1.
    9900012    2    1    2    0    0 -0.20547333469E+02  0.34706112848E+02  0.51437390807E+01  0.50528865314E+02  0.30000016609E+02 0.  0.
        -12    1    1    2    0    0  0.20547333469E+02 -0.34706112848E+02 -0.51437390807E+01  0.40659134686E+02  0.00000000000E+00 0.  1.
         11    1    3    3    0    0  0.15580621577E+01  0.79071991685E+01  0.47562233813E+01  0.93580456021E+01  0.51100000000E-03 0. -1.
        -11    1    3    3    0    0 -0.61066351625E+01  0.12604224683E+01 -0.77582368500E+01  0.99533862121E+01  0.51100000000E-03 0.  1.
        -12    1    3    3    0    0 -0.15998760464E+02  0.25538491211E+02  0.81457525493E+01  0.31217433500E+02  0.00000000000E+00 0.  1.
</event>
<event>
 7    1  0.9406864E-013  0.5052885E+02  0.7816164E-02  0.1300439E+00
        -11   -1    0    0    0    0  0.00000000000E+00  0.00000000000E+00  0.45593999997E+02  0.45594000000E+02  0.51100000000E-03 0.  1.
         11   -1    0    0    0    0 -0.00000000000E+00 -0.00000000000E+00 -0.45593999997E+02  0.45594000000E+02  0.51100000000E-03 0. -1.
    9900012    2    1    2    0    0 -0.10322896398E+02 -0.26860667438E+02 -0.28724704570E+02  0.50528852224E+02  0.29999976820E+02 0.  0.
        -12    1    1    2    0    0  0.10322896398E+02  0.26860667438E+02  0.28724704570E+02  0.40659147776E+02  0.00000000000E+00 0.  1.
         11    1    3    3    0    0 -0.89276745835E+01 -0.97638556744E+01 -0.26818834211E+02  0.29904617032E+02  0.51100000000E-03 0. -1.
        -11    1    3    3    0    0 -0.38692626646E+01 -0.37474430883E+01  0.30274831944E+01  0.61790110877E+01  0.51100000000E-03 0.  1.
        -12    1    3    3    0    0  0.24740408502E+01 -0.13349368675E+02 -0.49333535530E+01  0.14445224105E+02  0.00000000000E+00 0.  1.
</event>
<event>
 7    1  0.9406864E-013  0.5052886E+02  0.7816164E-02  0.1300439E+00
        -11   -1    0    0    0    0  0.00000000000E+00  0.00000000000E+00  0.45593999997E+02  0.45594000000E+02  0.51100000000E-03 0.  1.
         11   -1    0    0    0    0 -0.00000000000E+00 -0.00000000000E+00 -0.45593999997E+02  0.45594000000E+02  0.51100000000E-03 0. -1.
    9900012    2    1    2    0    0  0.38450387179E+02 -0.77596683669E+01 -0.10701445971E+02  0.50528859905E+02  0.30000000167E+02 0.  0.
        -12    1    1    2    0    0 -0.38450387179E+02  0.77596683669E+01  0.10701445971E+02  0.40659140095E+02  0.00000000000E+00 0.  1.
         11    1    3    3    0    0  0.77574779677E+01 -0.72329974568E+01 -0.13195755688E+02  0.16929934586E+02  0.51100000000E-03 0. -1.
        -11    1    3    3    0    0  0.68243483262E+01  0.56363346929E+01  0.43492503897E+00  0.88616679524E+01  0.51100000000E-03 0.  1.
         12    1    3    3    0    0  0.23868560885E+02 -0.61630056030E+01  0.20593846779E+01  0.24737257367E+02  0.00000000000E+00 0. -1.
</event>
<event>
 7    1  0.9406864E-013  0.5052886E+02  0.7816164E-02  0.1300439E+00
        -11   -1    0    0    0    0  0.00000000000E+00  0.00000000000E+00  0.45593999997E+02  0.45594000000E+02  0.51100000000E-03 0.  1.
         11   -1    0    0    0    0 -0.00000000000E+00 -0.00000000000E+00 -0.45593999997E+02  0.45594000000E+02  0.51100000000E-03 0. -1.
    9900012    2    1    2    0    0  0.10428277353E+02 -0.37778637976E+02  0.10825491182E+02  0.50528859389E+02  0.29999998599E+02 0.  0.
        -12    1    1    2    0    0 -0.10428277353E+02  0.37778637976E+02 -0.10825491182E+02  0.40659140611E+02  0.00000000000E+00 0.  1.
         11    1    3    3    0    0  0.93775668082E+01 -0.26272512596E+02 -0.20035276519E+01  0.27967799353E+02  0.51100000000E-03 0. -1.
        -11    1    3    3    0    0 -0.59651144604E+00  0.33879710109E+01  0.13954070710E+01  0.37123219999E+01  0.51100000000E-03 0.  1.
         12    1    3    3    0    0  0.16472219907E+01 -0.14894096391E+02  0.11433611763E+02  0.18848738036E+02  0.00000000000E+00 0. -1.
</event>
<event>
 7    1  0.9406864E-013  0.5052886E+02  0.7816164E-02  0.1300439E+00
        -11   -1    0    0    0    0  0.00000000000E+00  0.00000000000E+00  0.45593999997E+02  0.45594000000E+02  0.51100000000E-03 0. -1.
         11   -1    0    0    0    0 -0.00000000000E+00 -0.00000000000E+00 -0.45593999997E+02  0.45594000000E+02  0.51100000000E-03 0.  1.
    9900012    2    1    2    0    0  0.38931371144E+02  0.11701975255E+02 -0.76017345279E+00  0.50528858990E+02  0.29999997386E+02 0.  0.
        -12    1    1    2    0    0 -0.38931371144E+02 -0.11701975255E+02  0.76017345279E+00  0.40659141010E+02  0.00000000000E+00 0.  1.
         11    1    3    3    0    0  0.21375690010E+02  0.12164258169E+02  0.24643994048E+01  0.24717656946E+02  0.51100000000E-03 0. -1.
        -11    1    3    3    0    0  0.10179380910E+02 -0.22188155601E+01 -0.10860739646E+02  0.15049870568E+02  0.51100000000E-03 0.  1.
        -12    1    3    3    0    0  0.73763002244E+01  0.17565326460E+01  0.76361667881E+01  0.10761331477E+02  0.00000000000E+00 0.  1.
</event>
<event>
 7    1  0.9406864E-013  0.5052886E+02  0.7816164E-02  0.1300439E+00
        -11   -1    0    0    0    0  0.00000000000E+00  0.00000000000E+00  0.45593999997E+02  0.45594000000E+02  0.51100000000E-03 0.  1.
         11   -1    0    0    0    0 -0.00000000000E+00 -0.00000000000E+00 -0.45593999997E+02  0.45594000000E+02  0.51100000000E-03 0. -1.
    9900012    2    1    2    0    0 -0.38395436620E+02  0.22004334804E+01 -0.13195235706E+02  0.50528859501E+02  0.29999998940E+02 0.  0.
        -12    1    1    2    0    0  0.38395436620E+02 -0.22004334804E+01  0.13195235706E+02  0.40659140499E+02  0.00000000000E+00 0.  1.
         11    1    3    3    0    0 -0.10853723419E+01  0.13835745967E+01 -0.65056678800E+01  0.67391413853E+01  0.51100000000E-03 0. -1.
        -11    1    3    3    0    0 -0.22725373740E+02 -0.80532917779E+01  0.27782501881E+01  0.24269668198E+02  0.51100000000E-03 0.  1.
        -12    1    3    3    0    0 -0.14584690539E+02  0.88701506616E+01 -0.94678180139E+01  0.19520049918E+02  0.00000000000E+00 0.  1.
</event>
<event>
 7    1  0.9406864E-013  0.5052886E+02  0.7816164E-02  0.1300439E+00
        -11   -1    0    0    0    0  0.00000000000E+00  0.00000000000E+00  0.45593999997E+02  0.45594000000E+02  0.51100000000E-03 0.  1.
         11   -1    0    0    0    0 -0.00000000000E+00 -0.00000000000E+00 -0.45593999997E+02  0.45594000000E+02  0.51100000000E-03 0. -1.
    9900012    2    1    2    0    0 -0.73023306949E+01  0.25747848717E+02 -0.30608659830E+02  0.50528858301E+02  0.29999995292E+02 0.  0.
        -12    1    1    2    0    0  0.73023306949E+01 -0.25747848717E+02  0.30608659830E+02  0.40659141699E+02  0.00000000000E+00 0.  1.
         11    1    3    3    0    0 -0.41884544069E+01  0.19033553150E+02 -0.22588249119E+02  0.29833677184E+02  0.51100000000E-03 0. -1.
        -11    1    3    3    0    0 -0.10509235107E+01  0.40871475173E+00  0.55108205289E+01  0.56250005455E+01  0.51100000000E-03 0.  1.
        -12    1    3    3    0    0 -0.20629527773E+01  0.63055808152E+01 -0.13531231240E+02  0.15070180571E+02  0.00000000000E+00 0.  1.
</event>
<event>
 7    1  0.1237393E-012  0.5052886E+02  0.7816164E-02  0.1300439E+00
        -11   -1    0    0    0    0  0.00000000000E+00  0.00000000000E+00  0.45593999997E+02  0.45594000000E+02  0.51100000000E-03 0.  1.
         11   -1    0    0    0    0 -0.00000000000E+00 -0.00000000000E+00 -0.45593999997E+02  0.45594000000E+02  0.51100000000E-03 0. -1.
    9900012    2    1    2    0    0 -0.33445783272E+02 -0.82215395584E+01 -0.21609063690E+02  0.50528858777E+02  0.29999996740E+02 0.  0.
        -12    1    1    2    0    0  0.33445783272E+02  0.82215395584E+01  0.21609063690E+02  0.40659141223E+02  0.00000000000E+00 0.  1.
         11    1    3    3    0    0 -0.18905572991E+02  0.76895240603E+01 -0.12280738866E+02  0.23819446210E+02  0.51100000000E-03 0. -1.
        -11    1    3    3    0    0 -0.12469891162E+02 -0.87740555190E+01 -0.61807490022E+00  0.15259890324E+02  0.51100000000E-03 0.  1.
         12    1    3    3    0    0 -0.20703191184E+01 -0.71370080997E+01 -0.87102499236E+01  0.11449522243E+02  0.00000000000E+00 0. -1.
</event>
<event>
 7    1  0.9406864E-013  0.5052885E+02  0.7816164E-02  0.1300439E+00
        -11   -1    0    0    0    0  0.00000000000E+00  0.00000000000E+00  0.45593999997E+02  0.45594000000E+02  0.51100000000E-03 0. -1.
         11   -1    0    0    0    0 -0.00000000000E+00 -0.00000000000E+00 -0.45593999997E+02  0.45594000000E+02  0.51100000000E-03 0.  1.
    9900012    2    1    2    0    0  0.19646496815E+02  0.89851023211E+01  0.34444878943E+02  0.50528848678E+02  0.29999966042E+02 0.  0.
        -12    1    1    2    0    0 -0.19646496815E+02 -0.89851023211E+01 -0.34444878943E+02  0.40659151322E+02  0.00000000000E+00 0.  1.
         11    1    3    3    0    0  0.10898730602E+02  0.73222316401E+01  0.56817696382E+00  0.13142306884E+02  0.51100000000E-03 0. -1.
        -11    1    3    3    0    0  0.11151747176E+02  0.37457383798E+01  0.30762147465E+02  0.32934810430E+02  0.51100000000E-03 0.  1.
        -12    1    3    3    0    0 -0.24039809629E+01 -0.20828676988E+01  0.31145545135E+01  0.44517313642E+01  0.00000000000E+00 0.  1.
</event>
<event>
 7    1  0.1016913E-012  0.5052888E+02  0.7816164E-02  0.1300439E+00
        -11   -1    0    0    0    0  0.00000000000E+00  0.00000000000E+00  0.45593999997E+02  0.45594000000E+02  0.51100000000E-03 0.  1.
         11   -1    0    0    0    0 -0.00000000000E+00 -0.00000000000E+00 -0.45593999997E+02  0.45594000000E+02  0.51100000000E-03 0. -1.
    9900012    2    1    2    0    0  0.39874641578E+02 -0.59292735686E+01  0.52934955127E+01  0.50528875308E+02  0.30000046985E+02 0.  0.
        -12    1    1    2    0    0 -0.39874641578E+02  0.59292735686E+01 -0.52934955127E+01  0.40659124692E+02  0.00000000000E+00 0.  1.
         11    1    3    3    0    0  0.30742885513E+02 -0.31368419986E+01  0.15463040001E+01  0.30941167459E+02  0.51100000000E-03 0. -1.
        -11    1    3    3    0    0  0.50670040889E+00  0.64769801103E+01  0.20526092431E+01  0.68133120888E+01  0.51100000000E-03 0.  1.
         12    1    3    3    0    0  0.86250556557E+01 -0.92694116803E+01  0.16945822695E+01  0.12774395760E+02  0.00000000000E+00 0. -1.
</event>
<event>
 7    1  0.9406864E-013  0.5052887E+02  0.7816164E-02  0.1300439E+00
        -11   -1    0    0    0    0  0.00000000000E+00  0.00000000000E+00  0.45593999997E+02  0.45594000000E+02  0.51100000000E-03 0.  1.
         11   -1    0    0    0    0 -0.00000000000E+00 -0.00000000000E+00 -0.45593999997E+02  0.45594000000E+02  0.51100000000E-03 0. -1.
    9900012    2    1    2    0    0 -0.30719968882E+02 -0.11281146434E+02  0.24128495569E+02  0.50528867552E+02  0.30000023412E+02 0.  0.
        -12    1    1    2    0    0  0.30719968882E+02  0.11281146434E+02 -0.24128495569E+02  0.40659132448E+02  0.00000000000E+00 0.  1.
         11    1    3    3    0    0 -0.21190838321E+02 -0.55910991697E+01  0.22956402949E+02  0.31738123059E+02  0.51100000000E-03 0. -1.
        -11    1    3    3    0    0  0.34733584635E+01 -0.19023602420E+01  0.32068609742E+01  0.50957973934E+01  0.51100000000E-03 0.  1.
        -12    1    3    3    0    0 -0.13002489025E+02 -0.37876870224E+01 -0.20347683546E+01  0.13694947100E+02  0.00000000000E+00 0.  1.
</event>
<event>
 7    1  0.1032937E-012  0.5052886E+02  0.7816164E-02  0.1300439E+00
        -11   -1    0    0    0    0  0.00000000000E+00  0.00000000000E+00  0.45593999997E+02  0.45594000000E+02  0.51100000000E-03 0. -1.
         11   -1    0    0    0    0 -0.00000000000E+00 -0.00000000000E+00 -0.45593999997E+02  0.45594000000E+02  0.51100000000E-03 0.  1.
    9900012    2    1    2    0    0 -0.18732715694E+02 -0.11162005202E+01  0.36069450506E+02  0.50528858338E+02  0.29999995404E+02 0.  0.
        -12    1    1    2    0    0  0.18732715694E+02  0.11162005202E+01 -0.36069450506E+02  0.40659141662E+02  0.00000000000E+00 0.  1.
         11    1    3    3    0    0 -0.34005679129E+00 -0.12096697945E+02  0.16213896295E+02  0.20232058054E+02  0.51100000000E-03 0. -1.
        -11    1    3    3    0    0 -0.57450715641E+01  0.79701290352E+01  0.74892115835E+01  0.12353829144E+02  0.51100000000E-03 0.  1.
         12    1    3    3    0    0 -0.12647587339E+02  0.30103683895E+01  0.12366342628E+02  0.17942971140E+02  0.00000000000E+00 0. -1.
</event>
<event>
 7    1  0.9406864E-013  0.5052885E+02  0.7816164E-02  0.1300439E+00
        -11   -1    0    0    0    0  0.00000000000E+00  0.00000000000E+00  0.45593999997E+02  0.45594000000E+02  0.51100000000E-03 0.  1.
         11   -1    0    0    0    0 -0.00000000000E+00 -0.00000000000E+00 -0.45593999997E+02  0.45594000000E+02  0.51100000000E-03 0. -1.
    9900012    2    1    2    0    0 -0.10535759820E+02 -0.69667752401E+01 -0.38647484379E+02  0.50528852923E+02  0.29999978943E+02 0.  0.
        -12    1    1    2    0    0  0.10535759820E+02  0.69667752401E+01  0.38647484379E+02  0.40659147077E+02  0.00000000000E+00 0.  1.
         11    1    3    3    0    0 -0.70813962718E+00 -0.10768036192E+02 -0.24474435489E+02  0.26747898197E+02  0.51100000000E-03 0. -1.
        -11    1    3    3    0    0 -0.30215324208E+01  0.16607148724E+01  0.33830914880E+01  0.48304182360E+01  0.51100000000E-03 0.  1.
         12    1    3    3    0    0 -0.68060877723E+01  0.21405460795E+01 -0.17556140378E+02  0.18950536490E+02  0.00000000000E+00 0. -1.
</event>
<event>
 7    1  0.9406864E-013  0.5052886E+02  0.7816164E-02  0.1300439E+00
        -11   -1    0    0    0    0  0.00000000000E+00  0.00000000000E+00  0.45593999997E+02  0.45594000000E+02  0.51100000000E-03 0.  1.
         11   -1    0    0    0    0 -0.00000000000E+00 -0.00000000000E+00 -0.45593999997E+02  0.45594000000E+02  0.51100000000E-03 0. -1.
    9900012    2    1    2    0    0 -0.21265308160E+02 -0.24533183079E+02 -0.24476011105E+02  0.50528861756E+02  0.30000005794E+02 0.  0.
        -12    1    1    2    0    0  0.21265308160E+02  0.24533183079E+02  0.24476011105E+02  0.40659138244E+02  0.00000000000E+00 0.  1.
         11    1    3    3    0    0 -0.16416524690E+02 -0.58736518853E+01 -0.13229165648E+02  0.21886363183E+02  0.51100000000E-03 0. -1.
        -11    1    3    3    0    0  0.34213468945E+01 -0.14130578248E+02 -0.12444763398E+02  0.19137685139E+02  0.51100000000E-03 0.  1.
        -12    1    3    3    0    0 -0.82701303643E+01 -0.45289529458E+01  0.11979179404E+01  0.95048134343E+01  0.00000000000E+00 0.  1.
</event>
<event>
 7    1  0.9406864E-013  0.5052886E+02  0.7816164E-02  0.1300439E+00
        -11   -1    0    0    0    0  0.00000000000E+00  0.00000000000E+00  0.45593999997E+02  0.45594000000E+02  0.51100000000E-03 0. -1.
         11   -1    0    0    0    0 -0.00000000000E+00 -0.00000000000E+00 -0.45593999997E+02  0.45594000000E+02  0.51100000000E-03 0.  1.
    9900012    2    1    2    0    0 -0.21226935501E+02  0.33722310673E+02 -0.80863292528E+01  0.50528858978E+02  0.29999997349E+02 0.  0.
        -12    1    1    2    0    0  0.21226935501E+02 -0.33722310673E+02  0.80863292528E+01  0.40659141022E+02  0.00000000000E+00 0.  1.
         11    1    3    3    0    0 -0.41603809246E+00  0.17300571833E+01 -0.94311736591E+01  0.95975633575E+01  0.51100000000E-03 0. -1.
        -11    1    3    3    0    0 -0.12845748422E+01  0.14022620070E+02  0.27916757565E+01  0.14355398286E+02  0.51100000000E-03 0.  1.
         12    1    3    3    0    0 -0.19526322566E+02  0.17969633420E+02 -0.14468313502E+01  0.26575897335E+02  0.00000000000E+00 0. -1.
</event>
<event>
 7    1  0.9406864E-013  0.5052887E+02  0.7816164E-02  0.1300439E+00
        -11   -1    0    0    0    0  0.00000000000E+00  0.00000000000E+00  0.45593999997E+02  0.45594000000E+02  0.51100000000E-03 0.  1.
         11   -1    0    0    0    0 -0.00000000000E+00 -0.00000000000E+00 -0.45593999997E+02  0.45594000000E+02  0.51100000000E-03 0. -1.
    9900012    2    1    2    0    0  0.28322264906E+02 -0.21124397146E+02 -0.20118993512E+02  0.50528871331E+02  0.30000034897E+02 0.  0.
        -12    1    1    2    0    0 -0.28322264906E+02  0.21124397146E+02  0.20118993512E+02  0.40659128669E+02  0.00000000000E+00 0.  1.
         11    1    3    3    0    0  0.25288899123E+02 -0.76361459368E+01 -0.79462835219E+00  0.26428593949E+02  0.51100000000E-03 0. -1.
        -11    1    3    3    0    0  0.31616291298E+00 -0.70455196074E+01 -0.12365254528E+02  0.14235126460E+02  0.51100000000E-03 0.  1.
         12    1    3    3    0    0  0.27172028703E+01 -0.64427316019E+01 -0.69591106313E+01  0.98651509219E+01  0.00000000000E+00 0. -1.
</event>
<event>
 7    1  0.9406864E-013  0.5052886E+02  0.7816164E-02  0.1300439E+00
        -11   -1    0    0    0    0  0.00000000000E+00  0.00000000000E+00  0.45593999997E+02  0.45594000000E+02  0.51100000000E-03 0.  1.
         11   -1    0    0    0    0 -0.00000000000E+00 -0.00000000000E+00 -0.45593999997E+02  0.45594000000E+02  0.51100000000E-03 0. -1.
    9900012    2    1    2    0    0  0.39182742469E+02  0.10251283982E+02  0.35762598627E+01  0.50528858773E+02  0.29999996728E+02 0.  0.
        -12    1    1    2    0    0 -0.39182742469E+02 -0.10251283982E+02 -0.35762598627E+01  0.40659141227E+02  0.00000000000E+00 0.  1.
         11    1    3    3    0    0  0.16068422358E+02  0.15839548981E+02  0.23423101159E+01  0.22684177877E+02  0.51100000000E-03 0.  1.
        -11    1    3    3    0    0  0.23796290985E+02 -0.48998567068E+01  0.42609785178E+01  0.24666333302E+02  0.51100000000E-03 0. -1.
         12    1    3    3    0    0 -0.68197087415E+00 -0.68840829186E+00 -0.30270287710E+01  0.31783475943E+01  0.00000000000E+00 0. -1.
</event>
<event>
 7    1  0.9406864E-013  0.5052886E+02  0.7816164E-02  0.1300439E+00
        -11   -1    0    0    0    0  0.00000000000E+00  0.00000000000E+00  0.45593999997E+02  0.45594000000E+02  0.51100000000E-03 0.  1.
         11   -1    0    0    0    0 -0.00000000000E+00 -0.00000000000E+00 -0.45593999997E+02  0.45594000000E+02  0.51100000000E-03 0. -1.
    9900012    2    1    2    0    0 -0.34464992853E+02  0.13639545953E+02 -0.16712052863E+02  0.50528860104E+02  0.30000000773E+02 0.  0.
        -12    1    1    2    0    0  0.34464992853E+02 -0.13639545953E+02  0.16712052863E+02  0.40659139896E+02  0.00000000000E+00 0.  1.
         11    1    3    3    0    0 -0.19768489271E+02 -0.28702317102E+01 -0.82820260006E+01  0.21624600645E+02  0.51100000000E-03 0. -1.
        -11    1    3    3    0    0 -0.48151601201E+01  0.11719630466E+02  0.30350146950E+01  0.13028692171E+02  0.51100000000E-03 0.  1.
        -12    1    3    3    0    0 -0.98813434620E+01  0.47901471973E+01 -0.11465041558E+02  0.15875567288E+02  0.00000000000E+00 0.  1.
</event>
<event>
 7    1  0.9406864E-013  0.5052886E+02  0.7816164E-02  0.1300439E+00
        -11   -1    0    0    0    0  0.00000000000E+00  0.00000000000E+00  0.45593999997E+02  0.45594000000E+02  0.51100000000E-03 0.  1.
         11   -1    0    0    0    0 -0.00000000000E+00 -0.00000000000E+00 -0.45593999997E+02  0.45594000000E+02  0.51100000000E-03 0. -1.
    9900012    2    1    2    0    0  0.61699377723E+01  0.33983812625E+02 -0.21452224227E+02  0.50528861089E+02  0.30000003768E+02 0.  0.
        -12    1    1    2    0    0 -0.61699377723E+01 -0.33983812625E+02  0.21452224227E+02  0.40659138911E+02  0.00000000000E+00 0.  1.
         11    1    3    3    0    0 -0.35431637015E+01  0.13667012587E+02 -0.14190111060E+02  0.20017504695E+02  0.51100000000E-03 0. -1.
        -11    1    3    3    0    0  0.12061007797E+02  0.19899685359E+02 -0.42821917846E+00  0.23273348671E+02  0.51100000000E-03 0.  1.
        -12    1    3    3    0    0 -0.23479063228E+01  0.41711467975E+00 -0.68338939883E+01  0.72380077231E+01  0.00000000000E+00 0.  1.
</event>
<event>
 7    1  0.9406864E-013  0.5052885E+02  0.7816164E-02  0.1300439E+00
        -11   -1    0    0    0    0  0.00000000000E+00  0.00000000000E+00  0.45593999997E+02  0.45594000000E+02  0.51100000000E-03 0. -1.
         11   -1    0    0    0    0 -0.00000000000E+00 -0.00000000000E+00 -0.45593999997E+02  0.45594000000E+02  0.51100000000E-03 0.  1.
    9900012    2    1    2    0    0 -0.16531351296E+02 -0.18747890655E+02  0.32068636177E+02  0.50528850895E+02  0.29999972781E+02 0.  0.
        -12    1    1    2    0    0  0.16531351296E+02  0.18747890655E+02 -0.32068636177E+02  0.40659149105E+02  0.00000000000E+00 0.  1.
         11    1    3    3    0    0 -0.19384369407E+02 -0.12367069275E+02  0.23034520220E+02  0.32546694176E+02  0.51100000000E-03 0. -1.
        -11    1    3    3    0    0  0.46710366197E+01 -0.29424524027E+01  0.11921798308E+02  0.13137955868E+02  0.51100000000E-03 0.  1.
        -12    1    3    3    0    0 -0.18180185091E+01 -0.34383689774E+01 -0.28876823511E+01  0.48442008510E+01  0.00000000000E+00 0.  1.
</event>
<event>
 7    1  0.9406864E-013  0.5052887E+02  0.7816164E-02  0.1300439E+00
        -11   -1    0    0    0    0  0.00000000000E+00  0.00000000000E+00  0.45593999997E+02  0.45594000000E+02  0.51100000000E-03 0.  1.
         11   -1    0    0    0    0 -0.00000000000E+00 -0.00000000000E+00 -0.45593999997E+02  0.45594000000E+02  0.51100000000E-03 0. -1.
    9900012    2    1    2    0    0 -0.31440260244E+02 -0.23287219588E+02 -0.11062569857E+02  0.50528868034E+02  0.30000024875E+02 0.  0.
        -12    1    1    2    0    0  0.31440260244E+02  0.23287219588E+02  0.11062569857E+02  0.40659131966E+02  0.00000000000E+00 0.  1.
         11    1    3    3    0    0 -0.10371847816E+02  0.31032483061E+01 -0.96280060487E+01  0.14488059839E+02  0.51100000000E-03 0. -1.
        -11    1    3    3    0    0  0.94279304848E-01 -0.72619153234E+01 -0.19131768927E+01  0.75102961882E+01  0.51100000000E-03 0.  1.
         12    1    3    3    0    0 -0.21162691733E+02 -0.19128552571E+02  0.47861308398E+00  0.28530512006E+02  0.00000000000E+00 0. -1.
</event>
<event>
 7    1  0.1369558E-012  0.5052886E+02  0.7816164E-02  0.1300439E+00
        -11   -1    0    0    0    0  0.00000000000E+00  0.00000000000E+00  0.45593999997E+02  0.45594000000E+02  0.51100000000E-03 0.  1.
         11   -1    0    0    0    0 -0.00000000000E+00 -0.00000000000E+00 -0.45593999997E+02  0.45594000000E+02  0.51100000000E-03 0. -1.
    9900012    2    1    2    0    0  0.48334752861E+01 -0.39961824453E+02 -0.57320093126E+01  0.50528858006E+02  0.29999994395E+02 0.  0.
        -12    1    1    2    0    0 -0.48334752861E+01  0.39961824453E+02  0.57320093126E+01  0.40659141994E+02  0.00000000000E+00 0.  1.
         11    1    3    3    0    0  0.92242930002E+01 -0.34343975785E+02 -0.92334064326E+01  0.36740332725E+02  0.51100000000E-03 0. -1.
        -11    1    3    3    0    0 -0.72457620170E+01 -0.34031633903E+01 -0.94319004488E+00  0.80605332323E+01  0.51100000000E-03 0.  1.
         12    1    3    3    0    0  0.28549443028E+01 -0.22146852770E+01  0.44445871649E+01  0.57279920491E+01  0.00000000000E+00 0. -1.
</event>
<event>
 7    1  0.9406864E-013  0.5052886E+02  0.7816164E-02  0.1300439E+00
        -11   -1    0    0    0    0  0.00000000000E+00  0.00000000000E+00  0.45593999997E+02  0.45594000000E+02  0.51100000000E-03 0.  1.
         11   -1    0    0    0    0 -0.00000000000E+00 -0.00000000000E+00 -0.45593999997E+02  0.45594000000E+02  0.51100000000E-03 0. -1.
    9900012    2    1    2    0    0  0.50108744151E+01  0.31090895355E+02 -0.25717957934E+02  0.50528855928E+02  0.29999988079E+02 0.  0.
        -12    1    1    2    0    0 -0.50108744151E+01 -0.31090895355E+02  0.25717957934E+02  0.40659144072E+02  0.00000000000E+00 0.  1.
         11    1    3    3    0    0 -0.52607799390E+00  0.37756725286E+01 -0.97436432116E+01  0.10462841124E+02  0.51100000000E-03 0. -1.
        -11    1    3    3    0    0  0.12894673215E+02  0.19694467102E+02 -0.36611271895E+01  0.23823276104E+02  0.51100000000E-03 0.  1.
        -12    1    3    3    0    0 -0.73577208058E+01  0.76207557240E+01 -0.12313187533E+02  0.16242738700E+02  0.00000000000E+00 0.  1.
</event>
<event>
 7    1  0.9406864E-013  0.5052886E+02  0.7816164E-02  0.1300439E+00
        -11   -1    0    0    0    0  0.00000000000E+00  0.00000000000E+00  0.45593999997E+02  0.45594000000E+02  0.51100000000E-03 0.  1.
         11   -1    0    0    0    0 -0.00000000000E+00 -0.00000000000E+00 -0.45593999997E+02  0.45594000000E+02  0.51100000000E-03 0. -1.
    9900012    2    1    2    0    0 -0.44812777656E+01 -0.10454795449E+02 -0.39035633781E+02  0.50528864458E+02  0.30000014008E+02 0.  0.
        -12    1    1    2    0    0  0.44812777656E+01  0.10454795449E+02  0.39035633781E+02  0.40659135542E+02  0.00000000000E+00 0.  1.
         11    1    3    3    0    0 -0.11277545814E+02 -0.12125681880E+02 -0.24628653356E+02  0.29678035094E+02  0.51100000000E-03 0. -1.
        -11    1    3    3    0    0  0.16971572508E+01 -0.21279059932E+01  0.19189926408E+01  0.33302942312E+01  0.51100000000E-03 0.  1.
         12    1    3    3    0    0  0.50991107980E+01  0.37987924240E+01 -0.16325973066E+02  0.17520535134E+02  0.00000000000E+00 0. -1.
</event>
<event>
 7    1  0.9406864E-013  0.5052882E+02  0.7816164E-02  0.1300439E+00
        -11   -1    0    0    0    0  0.00000000000E+00  0.00000000000E+00  0.45593999997E+02  0.45594000000E+02  0.51100000000E-03 0.  1.
         11   -1    0    0    0    0 -0.00000000000E+00 -0.00000000000E+00 -0.45593999997E+02  0.45594000000E+02  0.51100000000E-03 0. -1.
    9900012    2    1    2    0    0  0.28882422374E+02 -0.47077411344E+01 -0.28227849286E+02  0.50528823618E+02  0.29999889868E+02 0.  0.
        -12    1    1    2    0    0 -0.28882422374E+02  0.47077411344E+01  0.28227849286E+02  0.40659176382E+02  0.00000000000E+00 0.  1.
         11    1    3    3    0    0  0.10545229405E+01  0.23469422960E+01 -0.20271983282E+02  0.20434614340E+02  0.51100000000E-03 0. -1.
        -11    1    3    3    0    0  0.20100116103E+02 -0.37455969621E+01 -0.41345778424E+01  0.20859983177E+02  0.51100000000E-03 0.  1.
         12    1    3    3    0    0  0.77277833313E+01 -0.33090864683E+01 -0.38212881612E+01  0.92342261008E+01  0.00000000000E+00 0. -1.
</event>
<event>
 7    1  0.9406864E-013  0.5052885E+02  0.7816164E-02  0.1300439E+00
        -11   -1    0    0    0    0  0.00000000000E+00  0.00000000000E+00  0.45593999997E+02  0.45594000000E+02  0.51100000000E-03 0.  1.
         11   -1    0    0    0    0 -0.00000000000E+00 -0.00000000000E+00 -0.45593999997E+02  0.45594000000E+02  0.51100000000E-03 0. -1.
    9900012    2    1    2    0    0  0.38911590536E+02 -0.88314360128E+01 -0.78141341013E+01  0.50528845657E+02  0.29999956860E+02 0.  0.
        -12    1    1    2    0    0 -0.38911590536E+02  0.88314360128E+01  0.78141341013E+01  0.40659154343E+02  0.00000000000E+00 0.  1.
         11    1    3    3    0    0  0.36596018216E+02  0.17556486406E+01 -0.12354733867E+02  0.38665104430E+02  0.51100000000E-03 0. -1.
        -11    1    3    3    0    0  0.18873963548E+01 -0.48337020586E+01  0.20360879415E+01  0.55742797704E+01  0.51100000000E-03 0.  1.
         12    1    3    3    0    0  0.42817596551E+00 -0.57533825947E+01  0.25045118238E+01  0.62894614566E+01  0.00000000000E+00 0. -1.
</event>
<event>
 7    1  0.9406864E-013  0.5052885E+02  0.7816164E-02  0.1300439E+00
        -11   -1    0    0    0    0  0.00000000000E+00  0.00000000000E+00  0.45593999997E+02  0.45594000000E+02  0.51100000000E-03 0.  1.
         11   -1    0    0    0    0 -0.00000000000E+00 -0.00000000000E+00 -0.45593999997E+02  0.45594000000E+02  0.51100000000E-03 0. -1.
    9900012    2    1    2    0    0 -0.24705101084E+02 -0.22266413622E+02 -0.23388705524E+02  0.50528846772E+02  0.29999960247E+02 0.  0.
        -12    1    1    2    0    0  0.24705101084E+02  0.22266413622E+02  0.23388705524E+02  0.40659153228E+02  0.00000000000E+00 0.  1.
         11    1    3    3    0    0 -0.26952526427E+02 -0.18881569548E+02 -0.12296967756E+02  0.35130723955E+02  0.51100000000E-03 0. -1.
        -11    1    3    3    0    0 -0.25279982320E+01  0.21610193834E+01 -0.28915755759E+01  0.44070386213E+01  0.51100000000E-03 0.  1.
         12    1    3    3    0    0  0.47754235746E+01 -0.55458634578E+01 -0.82001621923E+01  0.10991084195E+02  0.00000000000E+00 0. -1.
</event>
<event>
 7    1  0.9406864E-013  0.5052886E+02  0.7816164E-02  0.1300439E+00
        -11   -1    0    0    0    0  0.00000000000E+00  0.00000000000E+00  0.45593999997E+02  0.45594000000E+02  0.51100000000E-03 0. -1.
         11   -1    0    0    0    0 -0.00000000000E+00 -0.00000000000E+00 -0.45593999997E+02  0.45594000000E+02  0.51100000000E-03 0.  1.
    9900012    2    1    2    0    0 -0.54185264354E+01 -0.30837990015E+02  0.25938836313E+02  0.50528864665E+02  0.30000014636E+02 0.  0.
        -12    1    1    2    0    0  0.54185264354E+01  0.30837990015E+02 -0.25938836313E+02  0.40659135335E+02  0.00000000000E+00 0.  1.
         11    1    3    3    0    0 -0.11279793288E+02 -0.68624906233E+01  0.18462165122E+02  0.22697556155E+02  0.51100000000E-03 0. -1.
        -11    1    3    3    0    0  0.55237061302E+01 -0.18638907611E+02  0.10064279937E+02  0.21890864242E+02  0.51100000000E-03 0.  1.
        -12    1    3    3    0    0  0.33756072204E+00 -0.53365917806E+01 -0.25876087460E+01  0.59404442675E+01  0.00000000000E+00 0.  1.
</event>
<event>
 7    1  0.9406864E-013  0.5052886E+02  0.7816164E-02  0.1300439E+00
        -11   -1    0    0    0    0  0.00000000000E+00  0.00000000000E+00  0.45593999997E+02  0.45594000000E+02  0.51100000000E-03 0. -1.
         11   -1    0    0    0    0 -0.00000000000E+00 -0.00000000000E+00 -0.45593999997E+02  0.45594000000E+02  0.51100000000E-03 0.  1.
    9900012    2    1    2    0    0 -0.31914249592E+02  0.14418792268E+02  0.20657809221E+02  0.50528856142E+02  0.29999988730E+02 0.  0.
        -12    1    1    2    0    0  0.31914249592E+02 -0.14418792268E+02 -0.20657809221E+02  0.40659143858E+02  0.00000000000E+00 0.  1.
         11    1    3    3    0    0 -0.18482507577E+02  0.12294903923E+02  0.17552459803E+02  0.28299409786E+02  0.51100000000E-03 0. -1.
        -11    1    3    3    0    0 -0.12852462819E+02 -0.43855266190E+01 -0.22689078618E+01  0.13768318248E+02  0.51100000000E-03 0.  1.
        -12    1    3    3    0    0 -0.57927919516E+00  0.65094149637E+01  0.53742572793E+01  0.84611281080E+01  0.00000000000E+00 0.  1.
</event>
<event>
 7    1  0.9406864E-013  0.5052886E+02  0.7816164E-02  0.1300439E+00
        -11   -1    0    0    0    0  0.00000000000E+00  0.00000000000E+00  0.45593999997E+02  0.45594000000E+02  0.51100000000E-03 0.  1.
         11   -1    0    0    0    0 -0.00000000000E+00 -0.00000000000E+00 -0.45593999997E+02  0.45594000000E+02  0.51100000000E-03 0. -1.
    9900012    2    1    2    0    0  0.40330146682E+02  0.46097214223E+01  0.23227579558E+01  0.50528862436E+02  0.30000007859E+02 0.  0.
        -12    1    1    2    0    0 -0.40330146682E+02 -0.46097214223E+01 -0.23227579558E+01  0.40659137564E+02  0.00000000000E+00 0.  1.
         11    1    3    3    0    0  0.39527748789E+02  0.31389248192E+00 -0.50978186511E+01  0.39856357185E+02  0.51100000000E-03 0. -1.
        -11    1    3    3    0    0  0.17850924261E+01 -0.10627331412E+01  0.30389262690E+01  0.36811723443E+01  0.51100000000E-03 0.  1.
         12    1    3    3    0    0 -0.98269453293E+00  0.53585620816E+01  0.43816503379E+01  0.69913329066E+01  0.00000000000E+00 0. -1.
</event>
<event>
 7    1  0.9406864E-013  0.5052887E+02  0.7816164E-02  0.1300439E+00
        -11   -1    0    0    0    0  0.00000000000E+00  0.00000000000E+00  0.45593999997E+02  0.45594000000E+02  0.51100000000E-03 0. -1.
         11   -1    0    0    0    0 -0.00000000000E+00 -0.00000000000E+00 -0.45593999997E+02  0.45594000000E+02  0.51100000000E-03 0.  1.
    9900012    2    1    2    0    0 -0.21645865676E+02  0.10061586305E+02  0.32914831357E+02  0.50528866424E+02  0.30000019984E+02 0.  0.
        -12    1    1    2    0    0  0.21645865676E+02 -0.10061586305E+02 -0.32914831357E+02  0.40659133576E+02  0.00000000000E+00 0.  1.
         11    1    3    3    0    0 -0.60558678713E+01 -0.39347767735E+01 -0.63853004118E+00  0.72500844690E+01  0.51100000000E-03 0. -1.
        -11    1    3    3    0    0 -0.74350157420E+01  0.13537400715E+02  0.10125671318E+02  0.18468077785E+02  0.51100000000E-03 0.  1.
         12    1    3    3    0    0 -0.81549820623E+01  0.45896236410E+00  0.23427690081E+02  0.24810704170E+02  0.00000000000E+00 0. -1.
</event>
<event>
 7    1  0.9406864E-013  0.5052886E+02  0.7816164E-02  0.1300439E+00
        -11   -1    0    0    0    0  0.00000000000E+00  0.00000000000E+00  0.45593999997E+02  0.45594000000E+02  0.51100000000E-03 0. -1.
         11   -1    0    0    0    0 -0.00000000000E+00 -0.00000000000E+00 -0.45593999997E+02  0.45594000000E+02  0.51100000000E-03 0.  1.
    9900012    2    1    2    0    0 -0.19375062576E+02 -0.14562052786E+02  0.32645351874E+02  0.50528862895E+02  0.30000009255E+02 0.  0.
        -12    1    1    2    0    0  0.19375062576E+02  0.14562052786E+02 -0.32645351874E+02  0.40659137105E+02  0.00000000000E+00 0.  1.
         11    1    3    3    0    0 -0.24903485391E+02 -0.14486474343E+02  0.22905477629E+02  0.36806282469E+02  0.51100000000E-03 0. -1.
        -11    1    3    3    0    0  0.46840464649E+01  0.34681125245E+01  0.72861007804E+01  0.93303462214E+01  0.51100000000E-03 0.  1.
         12    1    3    3    0    0  0.84437634954E+00 -0.35436909678E+01  0.24537734641E+01  0.43922342046E+01  0.00000000000E+00 0. -1.
</event>
<event>
 7    1  0.9406864E-013  0.5052886E+02  0.7816164E-02  0.1300439E+00
        -11   -1    0    0    0    0  0.00000000000E+00  0.00000000000E+00  0.45593999997E+02  0.45594000000E+02  0.51100000000E-03 0. -1.
         11   -1    0    0    0    0 -0.00000000000E+00 -0.00000000000E+00 -0.45593999997E+02  0.45594000000E+02  0.51100000000E-03 0.  1.
    9900012    2    1    2    0    0  0.33532347198E+02  0.22921039289E+02 -0.18366837290E+01  0.50528858865E+02  0.29999997007E+02 0.  0.
        -12    1    1    2    0    0 -0.33532347198E+02 -0.22921039289E+02  0.18366837290E+01  0.40659141135E+02  0.00000000000E+00 0.  1.
         11    1    3    3    0    0  0.17631393027E+02  0.14799723020E+02  0.59194533237E+01  0.23768419162E+02  0.51100000000E-03 0. -1.
        -11    1    3    3    0    0  0.10688769174E+02  0.11937716128E+02 -0.11093685070E+02  0.19489194480E+02  0.51100000000E-03 0.  1.
         12    1    3    3    0    0  0.52121849970E+01 -0.38163998588E+01  0.33375480171E+01  0.72712452229E+01  0.00000000000E+00 0. -1.
</event>
<event>
 7    1  0.9406864E-013  0.5052886E+02  0.7816164E-02  0.1300439E+00
        -11   -1    0    0    0    0  0.00000000000E+00  0.00000000000E+00  0.45593999997E+02  0.45594000000E+02  0.51100000000E-03 0.  1.
         11   -1    0    0    0    0 -0.00000000000E+00 -0.00000000000E+00 -0.45593999997E+02  0.45594000000E+02  0.51100000000E-03 0. -1.
    9900012    2    1    2    0    0 -0.42557395755E+01 -0.37710648546E+02 -0.14593197383E+02  0.50528859048E+02  0.29999997564E+02 0.  0.
        -12    1    1    2    0    0  0.42557395755E+01  0.37710648546E+02  0.14593197383E+02  0.40659140952E+02  0.00000000000E+00 0.  1.
         11    1    3    3    0    0  0.92221964205E+00 -0.74503771663E+01 -0.14686089506E+02  0.16493630111E+02  0.51100000000E-03 0. -1.
        -11    1    3    3    0    0  0.82320976461E+00 -0.11898666678E+02  0.66246778933E+01  0.13643397689E+02  0.51100000000E-03 0.  1.
         12    1    3    3    0    0 -0.60011689822E+01 -0.18361604701E+02 -0.65317857703E+01  0.20391831249E+02  0.00000000000E+00 0. -1.
</event>
<event>
 7    1  0.9406864E-013  0.5052886E+02  0.7816164E-02  0.1300439E+00
        -11   -1    0    0    0    0  0.00000000000E+00  0.00000000000E+00  0.45593999997E+02  0.45594000000E+02  0.51100000000E-03 0.  1.
         11   -1    0    0    0    0 -0.00000000000E+00 -0.00000000000E+00 -0.45593999997E+02  0.45594000000E+02  0.51100000000E-03 0. -1.
    9900012    2    1    2    0    0 -0.21341898592E+02 -0.31840022573E+02 -0.13561042792E+02  0.50528861364E+02  0.30000004602E+02 0.  0.
        -12    1    1    2    0    0  0.21341898592E+02  0.31840022573E+02  0.13561042792E+02  0.40659138636E+02  0.00000000000E+00 0.  1.
         11    1    3    3    0    0 -0.18845813707E+02 -0.15872143100E+02 -0.15075052253E+02  0.28885062256E+02  0.51100000000E-03 0. -1.
        -11    1    3    3    0    0 -0.38199436906E+01 -0.53359830289E+01  0.70100415615E+01  0.96023626071E+01  0.51100000000E-03 0.  1.
         12    1    3    3    0    0  0.13238588053E+01 -0.10631896445E+02 -0.54960321000E+01  0.12041436501E+02  0.00000000000E+00 0. -1.
</event>
<event>
 7    1  0.9406864E-013  0.5052886E+02  0.7816164E-02  0.1300439E+00
        -11   -1    0    0    0    0  0.00000000000E+00  0.00000000000E+00  0.45593999997E+02  0.45594000000E+02  0.51100000000E-03 0. -1.
         11   -1    0    0    0    0 -0.00000000000E+00 -0.00000000000E+00 -0.45593999997E+02  0.45594000000E+02  0.51100000000E-03 0.  1.
    9900012    2    1    2    0    0 -0.39174361733E+01 -0.12833333910E+02  0.38381313030E+02  0.50528856437E+02  0.29999989626E+02 0.  0.
        -12    1    1    2    0    0  0.39174361733E+01  0.12833333910E+02 -0.38381313030E+02  0.40659143563E+02  0.00000000000E+00 0.  1.
         11    1    3    3    0    0  0.20186686964E+01 -0.26427740821E+01  0.33872080740E+02  0.34034939872E+02  0.51100000000E-03 0. -1.
        -11    1    3    3    0    0 -0.39700058231E+01  0.76720305803E+00 -0.86020072639E+00  0.41339439181E+01  0.51100000000E-03 0.  1.
         12    1    3    3    0    0 -0.19660990466E+01 -0.10957762886E+02  0.53694330159E+01  0.12359972647E+02  0.00000000000E+00 0. -1.
</event>
<event>
 7    1  0.9406864E-013  0.5052886E+02  0.7816164E-02  0.1300439E+00
        -11   -1    0    0    0    0  0.00000000000E+00  0.00000000000E+00  0.45593999997E+02  0.45594000000E+02  0.51100000000E-03 0.  1.
         11   -1    0    0    0    0 -0.00000000000E+00 -0.00000000000E+00 -0.45593999997E+02  0.45594000000E+02  0.51100000000E-03 0. -1.
    9900012    2    1    2    0    0  0.17508284760E+02 -0.34069278955E+02  0.13634874984E+02  0.50528860565E+02  0.30000002174E+02 0.  0.
        -12    1    1    2    0    0 -0.17508284760E+02  0.34069278955E+02 -0.13634874984E+02  0.40659139435E+02  0.00000000000E+00 0.  1.
         11    1    3    3    0    0  0.23126413964E+01 -0.18101992400E+02 -0.55868309296E+01  0.19085154418E+02  0.51100000000E-03 0. -1.
        -11    1    3    3    0    0  0.73007899838E+01 -0.63226523239E+00  0.80898070288E+01  0.10915414410E+02  0.51100000000E-03 0.  1.
         12    1    3    3    0    0  0.78948533801E+01 -0.15335021323E+02  0.11131898884E+02  0.20528291737E+02  0.00000000000E+00 0. -1.
</event>
<event>
 7    1  0.1006966E-012  0.5052885E+02  0.7816164E-02  0.1300439E+00
        -11   -1    0    0    0    0  0.00000000000E+00  0.00000000000E+00  0.45593999997E+02  0.45594000000E+02  0.51100000000E-03 0. -1.
         11   -1    0    0    0    0 -0.00000000000E+00 -0.00000000000E+00 -0.45593999997E+02  0.45594000000E+02  0.51100000000E-03 0.  1.
    9900012    2    1    2    0    0 -0.26312908197E+02  0.20996777625E+00  0.30996013710E+02  0.50528854778E+02  0.29999984583E+02 0.  0.
        -12    1    1    2    0    0  0.26312908197E+02 -0.20996777625E+00 -0.30996013710E+02  0.40659145222E+02  0.00000000000E+00 0.  1.
         11    1    3    3    0    0 -0.18424604050E+02 -0.35545462579E+01  0.10546637870E+02  0.21525157471E+02  0.51100000000E-03 0. -1.
        -11    1    3    3    0    0  0.49107490746E+01 -0.17500932764E+01  0.10979154012E+02  0.12154016046E+02  0.51100000000E-03 0.  1.
         12    1    3    3    0    0 -0.12799053221E+02  0.55146073105E+01  0.94702218284E+01  0.16849681262E+02  0.00000000000E+00 0. -1.
</event>
<event>
 7    1  0.9406864E-013  0.5052886E+02  0.7816164E-02  0.1300439E+00
        -11   -1    0    0    0    0  0.00000000000E+00  0.00000000000E+00  0.45593999997E+02  0.45594000000E+02  0.51100000000E-03 0.  1.
         11   -1    0    0    0    0 -0.00000000000E+00 -0.00000000000E+00 -0.45593999997E+02  0.45594000000E+02  0.51100000000E-03 0. -1.
    9900012    2    1    2    0    0  0.28375520349E+02 -0.28951688087E+02 -0.31297342995E+01  0.50528860376E+02  0.30000001600E+02 0.  0.
        -12    1    1    2    0    0 -0.28375520349E+02  0.28951688087E+02  0.31297342995E+01  0.40659139624E+02  0.00000000000E+00 0.  1.
         11    1    3    3    0    0  0.10251751054E+02 -0.15818773266E+02 -0.20889935984E+01  0.18965650050E+02  0.51100000000E-03 0. -1.
        -11    1    3    3    0    0  0.90743894439E+01  0.50675330483E+01  0.30455386399E+01  0.10830500489E+02  0.51100000000E-03 0.  1.
        -12    1    3    3    0    0  0.90493798506E+01 -0.18200447870E+02 -0.40862793410E+01  0.20732709837E+02  0.00000000000E+00 0.  1.
</event>
<event>
 7    1  0.9406864E-013  0.5052886E+02  0.7816164E-02  0.1300439E+00
        -11   -1    0    0    0    0  0.00000000000E+00  0.00000000000E+00  0.45593999997E+02  0.45594000000E+02  0.51100000000E-03 0.  1.
         11   -1    0    0    0    0 -0.00000000000E+00 -0.00000000000E+00 -0.45593999997E+02  0.45594000000E+02  0.51100000000E-03 0. -1.
    9900012    2    1    2    0    0 -0.19033665500E+02 -0.97790654912E+01 -0.34572464960E+02  0.50528857391E+02  0.29999992526E+02 0.  0.
        -12    1    1    2    0    0  0.19033665500E+02  0.97790654912E+01  0.34572464960E+02  0.40659142609E+02  0.00000000000E+00 0.  1.
         11    1    3    3    0    0 -0.60011543882E+01 -0.17339924245E+02 -0.27254564406E+02  0.32855716520E+02  0.51100000000E-03 0. -1.
        -11    1    3    3    0    0 -0.38347881681E+01  0.48882523621E+01 -0.12581355669E+01  0.63390469959E+01  0.51100000000E-03 0.  1.
         12    1    3    3    0    0 -0.91977229439E+01  0.26726063917E+01 -0.60597649876E+01  0.11334093876E+02  0.00000000000E+00 0. -1.
</event>
<event>
 7    1  0.9406864E-013  0.5052886E+02  0.7816164E-02  0.1300439E+00
        -11   -1    0    0    0    0  0.00000000000E+00  0.00000000000E+00  0.45593999997E+02  0.45594000000E+02  0.51100000000E-03 0.  1.
         11   -1    0    0    0    0 -0.00000000000E+00 -0.00000000000E+00 -0.45593999997E+02  0.45594000000E+02  0.51100000000E-03 0. -1.
    9900012    2    1    2    0    0 -0.76020344775E+01 -0.73160413731E+01 -0.39266397731E+02  0.50528863507E+02  0.30000011117E+02 0.  0.
        -12    1    1    2    0    0  0.76020344775E+01  0.73160413731E+01  0.39266397731E+02  0.40659136493E+02  0.00000000000E+00 0.  1.
         11    1    3    3    0    0 -0.91601214300E+01 -0.13419434602E+02 -0.76121521380E+01  0.17942516827E+02  0.51100000000E-03 0. -1.
        -11    1    3    3    0    0  0.26618859076E+01  0.50719480380E+01 -0.28724322849E+02  0.29289879086E+02  0.51100000000E-03 0.  1.
         12    1    3    3    0    0 -0.11037989551E+01  0.10314451910E+01 -0.29299227439E+01  0.32964675944E+01  0.00000000000E+00 0. -1.
</event>
<event>
 7    1  0.9406864E-013  0.5052886E+02  0.7816164E-02  0.1300439E+00
        -11   -1    0    0    0    0  0.00000000000E+00  0.00000000000E+00  0.45593999997E+02  0.45594000000E+02  0.51100000000E-03 0. -1.
         11   -1    0    0    0    0 -0.00000000000E+00 -0.00000000000E+00 -0.45593999997E+02  0.45594000000E+02  0.51100000000E-03 0.  1.
    9900012    2    1    2    0    0 -0.14662749858E+02 -0.37893729125E+02  0.14949444928E+01  0.50528858353E+02  0.29999995450E+02 0.  0.
        -12    1    1    2    0    0  0.14662749858E+02  0.37893729125E+02 -0.14949444928E+01  0.40659141647E+02  0.00000000000E+00 0.  1.
         11    1    3    3    0    0 -0.56226619188E+01 -0.23592563132E+02 -0.12808414670E+02  0.27427702215E+02  0.51100000000E-03 0. -1.
        -11    1    3    3    0    0 -0.64480757093E+01 -0.41655712697E+01  0.58782817452E+01  0.96687052336E+01  0.51100000000E-03 0.  1.
         12    1    3    3    0    0 -0.25920122299E+01 -0.10135594724E+02  0.84250774177E+01  0.13432450904E+02  0.00000000000E+00 0. -1.
</event>
<event>
 7    1  0.9406864E-013  0.5052886E+02  0.7816164E-02  0.1300439E+00
        -11   -1    0    0    0    0  0.00000000000E+00  0.00000000000E+00  0.45593999997E+02  0.45594000000E+02  0.51100000000E-03 0.  1.
         11   -1    0    0    0    0 -0.00000000000E+00 -0.00000000000E+00 -0.45593999997E+02  0.45594000000E+02  0.51100000000E-03 0. -1.
    9900012    2    1    2    0    0 -0.10813179029E+02 -0.25690572801E+01 -0.39110622821E+02  0.50528859410E+02  0.29999998663E+02 0.  0.
        -12    1    1    2    0    0  0.10813179029E+02  0.25690572801E+01  0.39110622821E+02  0.40659140590E+02  0.00000000000E+00 0.  1.
         11    1    3    3    0    0 -0.18783168426E+01 -0.18059990855E+01 -0.18764022885E+02  0.18944082505E+02  0.51100000000E-03 0. -1.
        -11    1    3    3    0    0 -0.16005800458E+02 -0.46578573516E+00 -0.94546582984E+01  0.18595514740E+02  0.51100000000E-03 0.  1.
        -12    1    3    3    0    0  0.70709382716E+01 -0.29727245938E+00 -0.10891941638E+02  0.12989262165E+02  0.00000000000E+00 0.  1.
</event>
<event>
 7    1  0.9406864E-013  0.5052890E+02  0.7816164E-02  0.1300439E+00
        -11   -1    0    0    0    0  0.00000000000E+00  0.00000000000E+00  0.45593999997E+02  0.45594000000E+02  0.51100000000E-03 0.  1.
         11   -1    0    0    0    0 -0.00000000000E+00 -0.00000000000E+00 -0.45593999997E+02  0.45594000000E+02  0.51100000000E-03 0. -1.
    9900012    2    1    2    0    0  0.25176173752E+01  0.40567736490E+02  0.10406816752E+01  0.50528896966E+02  0.30000112817E+02 0.  0.
        -12    1    1    2    0    0 -0.25176173752E+01 -0.40567736490E+02 -0.10406816752E+01  0.40659103034E+02  0.00000000000E+00 0.  1.
         11    1    3    3    0    0  0.43334840992E+00  0.36700270393E+02 -0.79022418816E+01  0.37543881855E+02  0.51100000000E-03 0. -1.
        -11    1    3    3    0    0 -0.29520401709E+01  0.12093084161E+01  0.12791094718E+01  0.34370175033E+01  0.51100000000E-03 0.  1.
         12    1    3    3    0    0  0.50363091362E+01  0.26581576814E+01  0.76638140850E+01  0.95479976070E+01  0.00000000000E+00 0. -1.
</event>
<event>
 7    1  0.9406864E-013  0.5052886E+02  0.7816164E-02  0.1300439E+00
        -11   -1    0    0    0    0  0.00000000000E+00  0.00000000000E+00  0.45593999997E+02  0.45594000000E+02  0.51100000000E-03 0.  1.
         11   -1    0    0    0    0 -0.00000000000E+00 -0.00000000000E+00 -0.45593999997E+02  0.45594000000E+02  0.51100000000E-03 0. -1.
    9900012    2    1    2    0    0 -0.28680684446E+02  0.22787074483E+02 -0.17644638221E+02  0.50528859801E+02  0.29999999850E+02 0.  0.
        -12    1    1    2    0    0  0.28680684446E+02 -0.22787074483E+02  0.17644638221E+02  0.40659140199E+02  0.00000000000E+00 0.  1.
         11    1    3    3    0    0 -0.26221745517E+02  0.24742389314E+02 -0.21662887985E+02  0.42060034273E+02  0.51100000000E-03 0. -1.
        -11    1    3    3    0    0 -0.37643079007E+01 -0.24671793676E+01  0.31819666899E+00  0.45120103484E+01  0.51100000000E-03 0.  1.
         12    1    3    3    0    0  0.13053689721E+01  0.51186453631E+00  0.37000530947E+01  0.39568151789E+01  0.00000000000E+00 0. -1.
</event>
<event>
 7    1  0.9406864E-013  0.5052886E+02  0.7816164E-02  0.1300439E+00
        -11   -1    0    0    0    0  0.00000000000E+00  0.00000000000E+00  0.45593999997E+02  0.45594000000E+02  0.51100000000E-03 0. -1.
         11   -1    0    0    0    0 -0.00000000000E+00 -0.00000000000E+00 -0.45593999997E+02  0.45594000000E+02  0.51100000000E-03 0.  1.
    9900012    2    1    2    0    0 -0.16026903449E+02 -0.36031858455E+02 -0.98999592013E+01  0.50528860191E+02  0.30000001035E+02 0.  0.
        -12    1    1    2    0    0  0.16026903449E+02  0.36031858455E+02  0.98999592013E+01  0.40659139809E+02  0.00000000000E+00 0.  1.
         11    1    3    3    0    0  0.50036628027E+01 -0.18123832849E+01  0.18823402717E+01  0.56448719891E+01  0.51100000000E-03 0. -1.
        -11    1    3    3    0    0 -0.16695733098E+02 -0.25624641260E+02 -0.15834409220E+02  0.34439777279E+02  0.51100000000E-03 0.  1.
         12    1    3    3    0    0 -0.43348331530E+01 -0.85948339096E+01  0.40521097469E+01  0.10444210923E+02  0.00000000000E+00 0. -1.
</event>
<event>
 7    1  0.9406864E-013  0.5052886E+02  0.7816164E-02  0.1300439E+00
        -11   -1    0    0    0    0  0.00000000000E+00  0.00000000000E+00  0.45593999997E+02  0.45594000000E+02  0.51100000000E-03 0. -1.
         11   -1    0    0    0    0 -0.00000000000E+00 -0.00000000000E+00 -0.45593999997E+02  0.45594000000E+02  0.51100000000E-03 0.  1.
    9900012    2    1    2    0    0  0.19293710778E+02 -0.35772375783E+02 -0.11203453193E+01  0.50528864269E+02  0.30000013431E+02 0.  0.
        -12    1    1    2    0    0 -0.19293710778E+02  0.35772375783E+02  0.11203453193E+01  0.40659135731E+02  0.00000000000E+00 0.  1.
         11    1    3    3    0    0  0.84817430544E+01  0.20297777412E+01  0.18996048906E+01  0.89257191263E+01  0.51100000000E-03 0. -1.
        -11    1    3    3    0    0  0.40311021726E+01 -0.25426748072E+02 -0.74709933730E+01  0.26806436624E+02  0.51100000000E-03 0.  1.
         12    1    3    3    0    0  0.67808655510E+01 -0.12375405453E+02  0.44510431631E+01  0.14796708519E+02  0.00000000000E+00 0. -1.
</event>
<event>
 7    1  0.9406864E-013  0.5052886E+02  0.7816164E-02  0.1300439E+00
        -11   -1    0    0    0    0  0.00000000000E+00  0.00000000000E+00  0.45593999997E+02  0.45594000000E+02  0.51100000000E-03 0.  1.
         11   -1    0    0    0    0 -0.00000000000E+00 -0.00000000000E+00 -0.45593999997E+02  0.45594000000E+02  0.51100000000E-03 0. -1.
    9900012    2    1    2    0    0 -0.15378453328E+02  0.36649272903E+02  0.85731901369E+01  0.50528860558E+02  0.30000002152E+02 0.  0.
        -12    1    1    2    0    0  0.15378453328E+02 -0.36649272903E+02 -0.85731901369E+01  0.40659139442E+02  0.00000000000E+00 0.  1.
         11    1    3    3    0    0 -0.11390994041E+02  0.95488269901E+01  0.14160803285E+01  0.14931179655E+02  0.51100000000E-03 0. -1.
        -11    1    3    3    0    0 -0.41677349865E+01  0.22645902616E+02  0.14352554114E+02  0.27133056040E+02  0.51100000000E-03 0.  1.
        -12    1    3    3    0    0  0.18027569981E+00  0.44545432967E+01 -0.71954443059E+01  0.84646248629E+01  0.00000000000E+00 0.  1.
</event>
<event>
 7    1  0.9406864E-013  0.5052884E+02  0.7816164E-02  0.1300439E+00
        -11   -1    0    0    0    0  0.00000000000E+00  0.00000000000E+00  0.45593999997E+02  0.45594000000E+02  0.51100000000E-03 0.  1.
         11   -1    0    0    0    0 -0.00000000000E+00 -0.00000000000E+00 -0.45593999997E+02  0.45594000000E+02  0.51100000000E-03 0. -1.
    9900012    2    1    2    0    0 -0.20084001973E+02  0.22608504987E+02 -0.27178221799E+02  0.50528839001E+02  0.29999936627E+02 0.  0.
        -12    1    1    2    0    0  0.20084001973E+02 -0.22608504987E+02  0.27178221799E+02  0.40659160999E+02  0.00000000000E+00 0.  1.
         11    1    3    3    0    0 -0.26480897692E+02  0.15784402900E+02 -0.23995549383E+02  0.39066247682E+02  0.51100000000E-03 0. -1.
        -11    1    3    3    0    0  0.29262907002E+01  0.64574203084E+01 -0.35940631381E+01  0.79485057969E+01  0.51100000000E-03 0.  1.
         12    1    3    3    0    0  0.34706050196E+01  0.36668177883E+00  0.41139072182E+00  0.35140855219E+01  0.00000000000E+00 0. -1.
</event>
<event>
 7    1  0.9406864E-013  0.5052886E+02  0.7816164E-02  0.1300439E+00
        -11   -1    0    0    0    0  0.00000000000E+00  0.00000000000E+00  0.45593999997E+02  0.45594000000E+02  0.51100000000E-03 0.  1.
         11   -1    0    0    0    0 -0.00000000000E+00 -0.00000000000E+00 -0.45593999997E+02  0.45594000000E+02  0.51100000000E-03 0. -1.
    9900012    2    1    2    0    0  0.23276584117E+02 -0.14676026266E+02 -0.29932934203E+02  0.50528860005E+02  0.30000000473E+02 0.  0.
        -12    1    1    2    0    0 -0.23276584117E+02  0.14676026266E+02  0.29932934203E+02  0.40659139995E+02  0.00000000000E+00 0.  1.
         11    1    3    3    0    0 -0.38213636600E-01 -0.90155289550E+00 -0.34301002718E+01  0.35468078664E+01  0.51100000000E-03 0. -1.
        -11    1    3    3    0    0  0.12066475348E+02  0.72252556654E+01 -0.51100121466E+01  0.14963835443E+02  0.51100000000E-03 0.  1.
        -12    1    3    3    0    0  0.11248322405E+02 -0.20999729035E+02 -0.21392821785E+02  0.32018216696E+02  0.00000000000E+00 0.  1.
</event>
<event>
 7    1  0.9406864E-013  0.5052886E+02  0.7816164E-02  0.1300439E+00
        -11   -1    0    0    0    0  0.00000000000E+00  0.00000000000E+00  0.45593999997E+02  0.45594000000E+02  0.51100000000E-03 0.  1.
         11   -1    0    0    0    0 -0.00000000000E+00 -0.00000000000E+00 -0.45593999997E+02  0.45594000000E+02  0.51100000000E-03 0. -1.
    9900012    2    1    2    0    0  0.44438103655E+01 -0.33302673207E+01 -0.40278122272E+02  0.50528864929E+02  0.30000015438E+02 0.  0.
        -12    1    1    2    0    0 -0.44438103655E+01  0.33302673207E+01  0.40278122272E+02  0.40659135071E+02  0.00000000000E+00 0.  1.
         11    1    3    3    0    0  0.59711115336E+01  0.54155591321E+00 -0.20365048429E+02  0.21229287636E+02  0.51100000000E-03 0. -1.
        -11    1    3    3    0    0 -0.74215695224E+01 -0.97318035854E+01 -0.15914188787E+02  0.20076082790E+02  0.51100000000E-03 0.  1.
        -12    1    3    3    0    0  0.58942683543E+01  0.58599803515E+01 -0.39988850563E+01  0.92234945030E+01  0.00000000000E+00 0.  1.
</event>
<event>
 7    1  0.9406864E-013  0.5052889E+02  0.7816164E-02  0.1300439E+00
        -11   -1    0    0    0    0  0.00000000000E+00  0.00000000000E+00  0.45593999997E+02  0.45594000000E+02  0.51100000000E-03 0.  1.
         11   -1    0    0    0    0 -0.00000000000E+00 -0.00000000000E+00 -0.45593999997E+02  0.45594000000E+02  0.51100000000E-03 0. -1.
    9900012    2    1    2    0    0 -0.11834924578E+02  0.28948739438E+02 -0.25982083193E+02  0.50528885377E+02  0.30000077593E+02 0.  0.
        -12    1    1    2    0    0  0.11834924578E+02 -0.28948739438E+02  0.25982083193E+02  0.40659114623E+02  0.00000000000E+00 0.  1.
         11    1    3    3    0    0  0.13516679300E+00 -0.35438859021E+01 -0.65452231266E+01  0.74442825973E+01  0.51100000000E-03 0. -1.
        -11    1    3    3    0    0 -0.91413085850E+01  0.94766101245E+01 -0.55215137240E+00  0.13178563408E+02  0.51100000000E-03 0.  1.
         12    1    3    3    0    0 -0.28287827861E+01  0.23016015216E+02 -0.18884708694E+02  0.29906039372E+02  0.00000000000E+00 0. -1.
</event>
<event>
 7    1  0.9406864E-013  0.5052886E+02  0.7816164E-02  0.1300439E+00
        -11   -1    0    0    0    0  0.00000000000E+00  0.00000000000E+00  0.45593999997E+02  0.45594000000E+02  0.51100000000E-03 0.  1.
         11   -1    0    0    0    0 -0.00000000000E+00 -0.00000000000E+00 -0.45593999997E+02  0.45594000000E+02  0.51100000000E-03 0. -1.
    9900012    2    1    2    0    0  0.13636511685E+02  0.27105172958E+02 -0.27065121157E+02  0.50528860372E+02  0.30000001587E+02 0.  0.
        -12    1    1    2    0    0 -0.13636511685E+02 -0.27105172958E+02  0.27065121157E+02  0.40659139628E+02  0.00000000000E+00 0.  1.
         11    1    3    3    0    0 -0.23705659410E+01 -0.52632232707E+01 -0.44938132902E+01  0.73154261821E+01  0.51100000000E-03 0. -1.
        -11    1    3    3    0    0  0.89689053230E+00 -0.73969905025E-01  0.31644687743E-02  0.89994135852E+00  0.51100000000E-03 0.  1.
         12    1    3    3    0    0  0.15110187094E+02  0.32442366134E+02 -0.22574472335E+02  0.42313492832E+02  0.00000000000E+00 0. -1.
</event>
<event>
 7    1  0.9406864E-013  0.5052885E+02  0.7816164E-02  0.1300439E+00
        -11   -1    0    0    0    0  0.00000000000E+00  0.00000000000E+00  0.45593999997E+02  0.45594000000E+02  0.51100000000E-03 0.  1.
         11   -1    0    0    0    0 -0.00000000000E+00 -0.00000000000E+00 -0.45593999997E+02  0.45594000000E+02  0.51100000000E-03 0. -1.
    9900012    2    1    2    0    0 -0.33668751670E+02 -0.18575780347E+01 -0.22718525990E+02  0.50528845332E+02  0.29999955872E+02 0.  0.
        -12    1    1    2    0    0  0.33668751670E+02  0.18575780347E+01  0.22718525990E+02  0.40659154668E+02  0.00000000000E+00 0.  1.
         11    1    3    3    0    0 -0.21916888330E+02 -0.19612294179E+00 -0.24968041792E+01  0.22059521519E+02  0.51100000000E-03 0. -1.
        -11    1    3    3    0    0  0.39539558976E+01 -0.16217355236E+01 -0.52647199924E+01  0.67809343167E+01  0.51100000000E-03 0.  1.
        -12    1    3    3    0    0 -0.15705819237E+02 -0.39719569353E-01 -0.14957001818E+02  0.21688389496E+02  0.00000000000E+00 0.  1.
</event>
<event>
 7    1  0.9406864E-013  0.5052883E+02  0.7816164E-02  0.1300439E+00
        -11   -1    0    0    0    0  0.00000000000E+00  0.00000000000E+00  0.45593999997E+02  0.45594000000E+02  0.51100000000E-03 0.  1.
         11   -1    0    0    0    0 -0.00000000000E+00 -0.00000000000E+00 -0.45593999997E+02  0.45594000000E+02  0.51100000000E-03 0. -1.
    9900012    2    1    2    0    0  0.84773525538E+01 -0.23404090841E+02 -0.32148884430E+02  0.50528834434E+02  0.29999922745E+02 0.  0.
        -12    1    1    2    0    0 -0.84773525538E+01  0.23404090841E+02  0.32148884430E+02  0.40659165566E+02  0.00000000000E+00 0.  1.
         11    1    3    3    0    0 -0.28830396759E+01  0.26949061219E+01 -0.39456903090E+01  0.55805832181E+01  0.51100000000E-03 0. -1.
        -11    1    3    3    0    0  0.16126687114E+02 -0.15794637792E+02 -0.23713548061E+02  0.32739471318E+02  0.51100000000E-03 0.  1.
        -12    1    3    3    0    0 -0.47662948843E+01 -0.10304359171E+02 -0.44896460602E+01  0.12208779898E+02  0.00000000000E+00 0.  1.
</event>
<event>
 7    1  0.9406864E-013  0.5052886E+02  0.7816164E-02  0.1300439E+00
        -11   -1    0    0    0    0  0.00000000000E+00  0.00000000000E+00  0.45593999997E+02  0.45594000000E+02  0.51100000000E-03 0.  1.
         11   -1    0    0    0    0 -0.00000000000E+00 -0.00000000000E+00 -0.45593999997E+02  0.45594000000E+02  0.51100000000E-03 0. -1.
    9900012    2    1    2    0    0  0.22992392034E+02  0.22674856778E+02 -0.24705587791E+02  0.50528864626E+02  0.30000014516E+02 0.  0.
        -12    1    1    2    0    0 -0.22992392034E+02 -0.22674856778E+02  0.24705587791E+02  0.40659135374E+02  0.00000000000E+00 0.  1.
         11    1    3    3    0    0  0.23621921455E+02  0.18820627271E+02 -0.23221861550E+02  0.38098110691E+02  0.51100000000E-03 0. -1.
        -11    1    3    3    0    0 -0.45829342072E+01  0.41823025260E+00 -0.44581135834E+01  0.64072599038E+01  0.51100000000E-03 0.  1.
         12    1    3    3    0    0  0.39534047853E+01  0.34359992538E+01  0.29743873431E+01  0.60234940305E+01  0.00000000000E+00 0. -1.
</event>
<event>
 7    1  0.9406864E-013  0.5052885E+02  0.7816164E-02  0.1300439E+00
        -11   -1    0    0    0    0  0.00000000000E+00  0.00000000000E+00  0.45593999997E+02  0.45594000000E+02  0.51100000000E-03 0. -1.
         11   -1    0    0    0    0 -0.00000000000E+00 -0.00000000000E+00 -0.45593999997E+02  0.45594000000E+02  0.51100000000E-03 0.  1.
    9900012    2    1    2    0    0  0.15181115450E+02  0.91774233985E+01  0.36585171631E+02  0.50528854045E+02  0.29999982355E+02 0.  0.
        -12    1    1    2    0    0 -0.15181115450E+02 -0.91774233985E+01 -0.36585171631E+02  0.40659145955E+02  0.00000000000E+00 0.  1.
         11    1    3    3    0    0  0.11990978367E+02  0.73341836550E+01  0.21382076875E+02  0.25588415813E+02  0.51100000000E-03 0. -1.
        -11    1    3    3    0    0 -0.51440693877E+01  0.72184939335E+01  0.11107561492E+02  0.14210771516E+02  0.51100000000E-03 0.  1.
        -12    1    3    3    0    0  0.83342064707E+01 -0.53752541900E+01  0.40955332641E+01  0.10729666715E+02  0.00000000000E+00 0.  1.
</event>
<event>
 7    1  0.9406864E-013  0.5052886E+02  0.7816164E-02  0.1300439E+00
        -11   -1    0    0    0    0  0.00000000000E+00  0.00000000000E+00  0.45593999997E+02  0.45594000000E+02  0.51100000000E-03 0.  1.
         11   -1    0    0    0    0 -0.00000000000E+00 -0.00000000000E+00 -0.45593999997E+02  0.45594000000E+02  0.51100000000E-03 0. -1.
    9900012    2    1    2    0    0  0.14452602561E+02 -0.34140354861E+02  0.16695024535E+02  0.50528863326E+02  0.30000010566E+02 0.  0.
        -12    1    1    2    0    0 -0.14452602561E+02  0.34140354861E+02 -0.16695024535E+02  0.40659136674E+02  0.00000000000E+00 0.  1.
         11    1    3    3    0    0 -0.31712452547E+01 -0.24689175300E+01  0.62182376997E+01  0.74039739726E+01  0.51100000000E-03 0. -1.
        -11    1    3    3    0    0  0.11500655740E+02 -0.30860905501E+02  0.24897001229E+01  0.33028157348E+02  0.51100000000E-03 0.  1.
        -12    1    3    3    0    0  0.61231920759E+01 -0.81053182953E+00  0.79870867126E+01  0.10096732006E+02  0.00000000000E+00 0.  1.
</event>
<event>
 7    1  0.9406864E-013  0.5052886E+02  0.7816164E-02  0.1300439E+00
        -11   -1    0    0    0    0  0.00000000000E+00  0.00000000000E+00  0.45593999997E+02  0.45594000000E+02  0.51100000000E-03 0.  1.
         11   -1    0    0    0    0 -0.00000000000E+00 -0.00000000000E+00 -0.45593999997E+02  0.45594000000E+02  0.51100000000E-03 0. -1.
    9900012    2    1    2    0    0 -0.11966168054E+02  0.20413169849E+02 -0.33064768359E+02  0.50528860956E+02  0.30000003363E+02 0.  0.
        -12    1    1    2    0    0  0.11966168054E+02 -0.20413169849E+02  0.33064768359E+02  0.40659139044E+02  0.00000000000E+00 0.  1.
         11    1    3    3    0    0 -0.12510230451E+02  0.12384492648E+02 -0.16354606971E+02  0.24028206207E+02  0.51100000000E-03 0. -1.
        -11    1    3    3    0    0  0.94951063962E+01  0.59868160167E+01 -0.10832356858E+02  0.15599325846E+02  0.51100000000E-03 0.  1.
        -12    1    3    3    0    0 -0.89510439985E+01  0.20418611835E+01 -0.58778045302E+01  0.10901328903E+02  0.00000000000E+00 0.  1.
</event>
<event>
 7    1  0.1020886E-012  0.5052887E+02  0.7816164E-02  0.1300439E+00
        -11   -1    0    0    0    0  0.00000000000E+00  0.00000000000E+00  0.45593999997E+02  0.45594000000E+02  0.51100000000E-03 0. -1.
         11   -1    0    0    0    0 -0.00000000000E+00 -0.00000000000E+00 -0.45593999997E+02  0.45594000000E+02  0.51100000000E-03 0.  1.
    9900012    2    1    2    0    0 -0.18658282750E+02  0.13436716476E+02  0.33533381249E+02  0.50528874052E+02  0.30000043169E+02 0.  0.
        -12    1    1    2    0    0  0.18658282750E+02 -0.13436716476E+02 -0.33533381249E+02  0.40659125948E+02  0.00000000000E+00 0.  1.
         11    1    3    3    0    0 -0.17029374602E+02 -0.24536234938E+01  0.18283549235E+02  0.25105936359E+02  0.51100000000E-03 0. -1.
        -11    1    3    3    0    0 -0.52922835686E+01  0.15814174963E+02  0.12409940720E+02  0.20787087917E+02  0.51100000000E-03 0.  1.
        -12    1    3    3    0    0  0.36633754208E+01  0.76165006647E-01  0.28398912935E+01  0.46358497755E+01  0.00000000000E+00 0.  1.
</event>
<event>
 7    1  0.9406864E-013  0.5052885E+02  0.7816164E-02  0.1300439E+00
        -11   -1    0    0    0    0  0.00000000000E+00  0.00000000000E+00  0.45593999997E+02  0.45594000000E+02  0.51100000000E-03 0.  1.
         11   -1    0    0    0    0 -0.00000000000E+00 -0.00000000000E+00 -0.45593999997E+02  0.45594000000E+02  0.51100000000E-03 0. -1.
    9900012    2    1    2    0    0 -0.24938732197E+02 -0.78823844516E+01 -0.31130278344E+02  0.50528848779E+02  0.29999966348E+02 0.  0.
        -12    1    1    2    0    0  0.24938732197E+02  0.78823844516E+01  0.31130278344E+02  0.40659151221E+02  0.00000000000E+00 0.  1.
         11    1    3    3    0    0 -0.86886332500E+01  0.52005209772E+01 -0.48414260957E+01  0.11223955323E+02  0.51100000000E-03 0. -1.
        -11    1    3    3    0    0 -0.15596987363E+01 -0.33674443084E+01 -0.20398844202E+02  0.20733672765E+02  0.51100000000E-03 0.  1.
        -12    1    3    3    0    0 -0.14690400211E+02 -0.97154611203E+01 -0.58900080468E+01  0.18571220691E+02  0.00000000000E+00 0.  1.
</event>
<event>
 7    1  0.9406864E-013  0.5052886E+02  0.7816164E-02  0.1300439E+00
        -11   -1    0    0    0    0  0.00000000000E+00  0.00000000000E+00  0.45593999997E+02  0.45594000000E+02  0.51100000000E-03 0.  1.
         11   -1    0    0    0    0 -0.00000000000E+00 -0.00000000000E+00 -0.45593999997E+02  0.45594000000E+02  0.51100000000E-03 0. -1.
    9900012    2    1    2    0    0 -0.24677626320E+02 -0.62485363464E+01 -0.31703886577E+02  0.50528857469E+02  0.29999992763E+02 0.  0.
        -12    1    1    2    0    0  0.24677626320E+02  0.62485363464E+01  0.31703886577E+02  0.40659142531E+02  0.00000000000E+00 0.  1.
         11    1    3    3    0    0 -0.24263051761E+02 -0.71004529416E+01 -0.36155997780E+02  0.44117664132E+02  0.51100000000E-03 0. -1.
        -11    1    3    3    0    0 -0.24428781872E+00  0.48951965720E+00  0.53762624654E+01  0.54040266830E+01  0.51100000000E-03 0.  1.
         12    1    3    3    0    0 -0.17028674103E+00  0.36239693797E+00 -0.92415126152E+00  0.10071666540E+01  0.00000000000E+00 0. -1.
</event>
<event>
 7    1  0.9406864E-013  0.5052886E+02  0.7816164E-02  0.1300439E+00
        -11   -1    0    0    0    0  0.00000000000E+00  0.00000000000E+00  0.45593999997E+02  0.45594000000E+02  0.51100000000E-03 0. -1.
         11   -1    0    0    0    0 -0.00000000000E+00 -0.00000000000E+00 -0.45593999997E+02  0.45594000000E+02  0.51100000000E-03 0.  1.
    9900012    2    1    2    0    0 -0.32184392458E+02 -0.24058152439E+02 -0.62077114672E+01  0.50528862057E+02  0.30000006707E+02 0.  0.
        -12    1    1    2    0    0  0.32184392458E+02  0.24058152439E+02  0.62077114672E+01  0.40659137943E+02  0.00000000000E+00 0.  1.
         11    1    3    3    0    0 -0.26991405884E+02 -0.15445759685E+02 -0.81632799794E+01  0.32151930333E+02  0.51100000000E-03 0. -1.
        -11    1    3    3    0    0  0.25735272616E+01 -0.99160663055E+01  0.22794336591E+01  0.10495105126E+02  0.51100000000E-03 0.  1.
         12    1    3    3    0    0 -0.77665138355E+01  0.13036735516E+01 -0.32386514688E+00  0.78818265979E+01  0.00000000000E+00 0. -1.
</event>
<event>
 7    1  0.9406864E-013  0.5052886E+02  0.7816164E-02  0.1300439E+00
        -11   -1    0    0    0    0  0.00000000000E+00  0.00000000000E+00  0.45593999997E+02  0.45594000000E+02  0.51100000000E-03 0.  1.
         11   -1    0    0    0    0 -0.00000000000E+00 -0.00000000000E+00 -0.45593999997E+02  0.45594000000E+02  0.51100000000E-03 0. -1.
    9900012    2    1    2    0    0  0.32883390073E+02 -0.11090438914E+02 -0.21186090669E+02  0.50528860611E+02  0.30000002314E+02 0.  0.
        -12    1    1    2    0    0 -0.32883390073E+02  0.11090438914E+02  0.21186090669E+02  0.40659139389E+02  0.00000000000E+00 0.  1.
         11    1    3    3    0    0  0.23708154981E+01  0.16213324152E+01 -0.37641740595E+00  0.28967525354E+01  0.51100000000E-03 0.  1.
        -11    1    3    3    0    0  0.26249923005E+01 -0.85370192494E+01 -0.16965593234E+02  0.19172966288E+02  0.51100000000E-03 0. -1.
        -12    1    3    3    0    0  0.27887582274E+02 -0.41747520796E+01 -0.38440800297E+01  0.28459141788E+02  0.00000000000E+00 0.  1.
</event>
<event>
 7    1  0.9406864E-013  0.5052887E+02  0.7816164E-02  0.1300439E+00
        -11   -1    0    0    0    0  0.00000000000E+00  0.00000000000E+00  0.45593999997E+02  0.45594000000E+02  0.51100000000E-03 0. -1.
         11   -1    0    0    0    0 -0.00000000000E+00 -0.00000000000E+00 -0.45593999997E+02  0.45594000000E+02  0.51100000000E-03 0.  1.
    9900012    2    1    2    0    0  0.35778182310E+02  0.70113477280E+01  0.17997997721E+02  0.50528865131E+02  0.30000016052E+02 0.  0.
        -12    1    1    2    0    0 -0.35778182310E+02 -0.70113477280E+01 -0.17997997721E+02  0.40659134869E+02  0.00000000000E+00 0.  1.
         11    1    3    3    0    0  0.19213722812E+02  0.15170713353E+02  0.20316866677E+02  0.31813405347E+02  0.51100000000E-03 0. -1.
        -11    1    3    3    0    0  0.10231804992E+02 -0.42942948570E+01 -0.67759953867E+00  0.11117101381E+02  0.51100000000E-03 0.  1.
         12    1    3    3    0    0  0.63326545057E+01 -0.38650707678E+01 -0.16412694171E+01  0.75983584035E+01  0.00000000000E+00 0. -1.
</event>
<event>
 7    1  0.9406864E-013  0.5052886E+02  0.7816164E-02  0.1300439E+00
        -11   -1    0    0    0    0  0.00000000000E+00  0.00000000000E+00  0.45593999997E+02  0.45594000000E+02  0.51100000000E-03 0.  1.
         11   -1    0    0    0    0 -0.00000000000E+00 -0.00000000000E+00 -0.45593999997E+02  0.45594000000E+02  0.51100000000E-03 0. -1.
    9900012    2    1    2    0    0 -0.27594299159E+01 -0.27815288370E+01 -0.40469916213E+02  0.50528862350E+02  0.30000007600E+02 0.  0.
        -12    1    1    2    0    0  0.27594299159E+01  0.27815288370E+01  0.40469916213E+02  0.40659137650E+02  0.00000000000E+00 0.  1.
         11    1    3    3    0    0 -0.48665072640E+01 -0.10536673927E+02 -0.18965543493E+02  0.22235022613E+02  0.51100000000E-03 0. -1.
        -11    1    3    3    0    0  0.62077460155E+01  0.49238762279E+01 -0.21905635758E+02  0.23294581901E+02  0.51100000000E-03 0.  1.
        -12    1    3    3    0    0 -0.41006686674E+01  0.28312688616E+01  0.40126303775E+00  0.49992578361E+01  0.00000000000E+00 0.  1.
</event>
<event>
 7    1  0.9406864E-013  0.5052886E+02  0.7816164E-02  0.1300439E+00
        -11   -1    0    0    0    0  0.00000000000E+00  0.00000000000E+00  0.45593999997E+02  0.45594000000E+02  0.51100000000E-03 0.  1.
         11   -1    0    0    0    0 -0.00000000000E+00 -0.00000000000E+00 -0.45593999997E+02  0.45594000000E+02  0.51100000000E-03 0. -1.
    9900012    2    1    2    0    0 -0.39457676304E+02  0.90704275626E+01  0.37395840648E+01  0.50528863703E+02  0.30000011710E+02 0.  0.
        -12    1    1    2    0    0  0.39457676304E+02 -0.90704275626E+01 -0.37395840648E+01  0.40659136297E+02  0.00000000000E+00 0.  1.
         11    1    3    3    0    0 -0.39215425024E+02  0.64342082910E+01  0.51059356602E+01  0.40066434523E+02  0.51100000000E-03 0. -1.
        -11    1    3    3    0    0  0.21275564751E+01 -0.70976945809E+00  0.34638853292E+01  0.41265931558E+01  0.51100000000E-03 0.  1.
         12    1    3    3    0    0 -0.23698077551E+01  0.33459887297E+01 -0.48302369246E+01  0.63358360240E+01  0.00000000000E+00 0. -1.
</event>
<event>
 7    1  0.9406864E-013  0.5052886E+02  0.7816164E-02  0.1300439E+00
        -11   -1    0    0    0    0  0.00000000000E+00  0.00000000000E+00  0.45593999997E+02  0.45594000000E+02  0.51100000000E-03 0. -1.
         11   -1    0    0    0    0 -0.00000000000E+00 -0.00000000000E+00 -0.45593999997E+02  0.45594000000E+02  0.51100000000E-03 0.  1.
    9900012    2    1    2    0    0 -0.36620222998E+02  0.17452510469E+02 -0.27448939655E+01  0.50528864532E+02  0.30000014232E+02 0.  0.
        -12    1    1    2    0    0  0.36620222998E+02 -0.17452510469E+02  0.27448939655E+01  0.40659135468E+02  0.00000000000E+00 0.  1.
         11    1    3    3    0    0 -0.33578792532E+02  0.23137449467E+02 -0.42595334213E+01  0.41000250011E+02  0.51100000000E-03 0. -1.
        -11    1    3    3    0    0  0.64936264734E-01 -0.49084447164E+01 -0.14978438538E+01  0.51323077386E+01  0.51100000000E-03 0.  1.
         12    1    3    3    0    0 -0.31063667309E+01 -0.77649428150E+00  0.30124833097E+01  0.43963067826E+01  0.00000000000E+00 0. -1.
</event>
<event>
 7    1  0.9406864E-013  0.5052886E+02  0.7816164E-02  0.1300439E+00
        -11   -1    0    0    0    0  0.00000000000E+00  0.00000000000E+00  0.45593999997E+02  0.45594000000E+02  0.51100000000E-03 0. -1.
         11   -1    0    0    0    0 -0.00000000000E+00 -0.00000000000E+00 -0.45593999997E+02  0.45594000000E+02  0.51100000000E-03 0.  1.
    9900012    2    1    2    0    0  0.12404286746E+02 -0.22011310969E+02  0.31855949404E+02  0.50528860158E+02  0.30000000938E+02 0.  0.
        -12    1    1    2    0    0 -0.12404286746E+02  0.22011310969E+02 -0.31855949404E+02  0.40659139842E+02  0.00000000000E+00 0.  1.
         11    1    3    3    0    0 -0.12217816279E+01 -0.12442402584E+02  0.11228549836E+02  0.16804358485E+02  0.51100000000E-03 0. -1.
        -11    1    3    3    0    0  0.86178868764E+01  0.49441441046E+01  0.13592753977E+02  0.16836730564E+02  0.51100000000E-03 0.  1.
        -12    1    3    3    0    0  0.50081814973E+01 -0.14513052489E+02  0.70346455910E+01  0.16887771110E+02  0.00000000000E+00 0.  1.
</event>
<event>
 7    1  0.9406864E-013  0.5052888E+02  0.7816164E-02  0.1300439E+00
        -11   -1    0    0    0    0  0.00000000000E+00  0.00000000000E+00  0.45593999997E+02  0.45594000000E+02  0.51100000000E-03 0.  1.
         11   -1    0    0    0    0 -0.00000000000E+00 -0.00000000000E+00 -0.45593999997E+02  0.45594000000E+02  0.51100000000E-03 0. -1.
    9900012    2    1    2    0    0  0.14236634399E+02 -0.31185225444E+02 -0.21862394536E+02  0.50528876303E+02  0.30000050010E+02 0.  0.
        -12    1    1    2    0    0 -0.14236634399E+02  0.31185225444E+02  0.21862394536E+02  0.40659123697E+02  0.00000000000E+00 0.  1.
         11    1    3    3    0    0 -0.50088415725E-01  0.22038739338E+01 -0.11497099342E+02  0.11706530771E+02  0.51100000000E-03 0. -1.
        -11    1    3    3    0    0  0.44495044062E+00 -0.10865024474E+02 -0.17323141137E+01  0.11011251072E+02  0.51100000000E-03 0.  1.
         12    1    3    3    0    0  0.13841772374E+02 -0.22524074903E+02 -0.86329810802E+01  0.27811094459E+02  0.00000000000E+00 0. -1.
</event>
<event>
 7    1  0.9406864E-013  0.5052883E+02  0.7816164E-02  0.1300439E+00
        -11   -1    0    0    0    0  0.00000000000E+00  0.00000000000E+00  0.45593999997E+02  0.45594000000E+02  0.51100000000E-03 0.  1.
         11   -1    0    0    0    0 -0.00000000000E+00 -0.00000000000E+00 -0.45593999997E+02  0.45594000000E+02  0.51100000000E-03 0. -1.
    9900012    2    1    2    0    0  0.36297646849E+02  0.15611837388E+02 -0.95874751176E+01  0.50528827449E+02  0.29999901515E+02 0.  0.
        -12    1    1    2    0    0 -0.36297646849E+02 -0.15611837388E+02  0.95874751176E+01  0.40659172551E+02  0.00000000000E+00 0.  1.
         11    1    3    3    0    0  0.13673235042E+02  0.18404148024E+02  0.90116133426E-01  0.22927671975E+02  0.51100000000E-03 0. -1.
        -11    1    3    3    0    0  0.10066055799E+02 -0.68949512617E+01 -0.21296486803E+01  0.12385525262E+02  0.51100000000E-03 0.  1.
         12    1    3    3    0    0  0.12558356007E+02  0.41026406260E+01 -0.75479425707E+01  0.15215630212E+02  0.00000000000E+00 0. -1.
</event>
<event>
 7    1  0.9406864E-013  0.5052886E+02  0.7816164E-02  0.1300439E+00
        -11   -1    0    0    0    0  0.00000000000E+00  0.00000000000E+00  0.45593999997E+02  0.45594000000E+02  0.51100000000E-03 0.  1.
         11   -1    0    0    0    0 -0.00000000000E+00 -0.00000000000E+00 -0.45593999997E+02  0.45594000000E+02  0.51100000000E-03 0. -1.
    9900012    2    1    2    0    0 -0.19090008871E+02  0.16079194355E+02 -0.32096683351E+02  0.50528855740E+02  0.29999987508E+02 0.  0.
        -12    1    1    2    0    0  0.19090008871E+02 -0.16079194355E+02  0.32096683351E+02  0.40659144260E+02  0.00000000000E+00 0.  1.
         11    1    3    3    0    0 -0.11603000666E+02  0.77412358365E+01 -0.15550831905E+02  0.20889823597E+02  0.51100000000E-03 0. -1.
        -11    1    3    3    0    0  0.47319467185E+01 -0.47366499100E+01 -0.45019327714E+01  0.80681206644E+01  0.51100000000E-03 0.  1.
        -12    1    3    3    0    0 -0.12218954924E+02  0.13074608428E+02 -0.12043918675E+02  0.21570911479E+02  0.00000000000E+00 0.  1.
</event>
<event>
 7    1  0.9406864E-013  0.5052885E+02  0.7816164E-02  0.1300439E+00
        -11   -1    0    0    0    0  0.00000000000E+00  0.00000000000E+00  0.45593999997E+02  0.45594000000E+02  0.51100000000E-03 0. -1.
         11   -1    0    0    0    0 -0.00000000000E+00 -0.00000000000E+00 -0.45593999997E+02  0.45594000000E+02  0.51100000000E-03 0.  1.
    9900012    2    1    2    0    0  0.29993853170E+02  0.66462237902E+01  0.26633866380E+02  0.50528851497E+02  0.29999974611E+02 0.  0.
        -12    1    1    2    0    0 -0.29993853170E+02 -0.66462237902E+01 -0.26633866380E+02  0.40659148503E+02  0.00000000000E+00 0.  1.
         11    1    3    3    0    0  0.31249441634E+02  0.71683483852E+01  0.20213809947E+02  0.37901331558E+02  0.51100000000E-03 0. -1.
        -11    1    3    3    0    0 -0.45715129865E+01 -0.36155321337E+01  0.16758496944E+01  0.60645919941E+01  0.51100000000E-03 0.  1.
         12    1    3    3    0    0  0.33159245219E+01  0.30934075387E+01  0.47442067388E+01  0.65629279453E+01  0.00000000000E+00 0. -1.
</event>
<event>
 7    1  0.9406864E-013  0.5052887E+02  0.7816164E-02  0.1300439E+00
        -11   -1    0    0    0    0  0.00000000000E+00  0.00000000000E+00  0.45593999997E+02  0.45594000000E+02  0.51100000000E-03 0. -1.
         11   -1    0    0    0    0 -0.00000000000E+00 -0.00000000000E+00 -0.45593999997E+02  0.45594000000E+02  0.51100000000E-03 0.  1.
    9900012    2    1    2    0    0  0.28722475949E+02 -0.21315324681E+01 -0.28699149101E+02  0.50528865548E+02  0.30000017318E+02 0.  0.
        -12    1    1    2    0    0 -0.28722475949E+02  0.21315324681E+01  0.28699149101E+02  0.40659134452E+02  0.00000000000E+00 0.  1.
         11    1    3    3    0    0  0.18183978592E+02 -0.12040723062E+02 -0.24599871167E+02  0.32875366933E+02  0.51100000000E-03 0. -1.
        -11    1    3    3    0    0  0.71466736770E+00 -0.10232112482E+00  0.21721368164E+01  0.22889730600E+01  0.51100000000E-03 0.  1.
         12    1    3    3    0    0  0.98238299899E+01  0.10011511719E+02 -0.62714147504E+01  0.15364525555E+02  0.00000000000E+00 0. -1.
</event>
<event>
 7    1  0.9406864E-013  0.5052886E+02  0.7816164E-02  0.1300439E+00
        -11   -1    0    0    0    0  0.00000000000E+00  0.00000000000E+00  0.45593999997E+02  0.45594000000E+02  0.51100000000E-03 0.  1.
         11   -1    0    0    0    0 -0.00000000000E+00 -0.00000000000E+00 -0.45593999997E+02  0.45594000000E+02  0.51100000000E-03 0. -1.
    9900012    2    1    2    0    0  0.32471677147E+02  0.24282888247E+02 -0.30161420362E+01  0.50528860914E+02  0.30000003235E+02 0.  0.
        -12    1    1    2    0    0 -0.32471677147E+02 -0.24282888247E+02  0.30161420362E+01  0.40659139086E+02  0.00000000000E+00 0.  1.
         11    1    3    3    0    0  0.87465232313E+01  0.23385843432E+02 -0.75484691146E+00  0.24979374207E+02  0.51100000000E-03 0. -1.
        -11    1    3    3    0    0  0.21442938168E+02 -0.68387439708E+00  0.73273096421E+00  0.21466349862E+02  0.51100000000E-03 0.  1.
         12    1    3    3    0    0  0.22822157479E+01  0.15809192128E+01 -0.29940260889E+01  0.40831368454E+01  0.00000000000E+00 0. -1.
</event>
<event>
 7    1  0.9406864E-013  0.5052888E+02  0.7816164E-02  0.1300439E+00
        -11   -1    0    0    0    0  0.00000000000E+00  0.00000000000E+00  0.45593999997E+02  0.45594000000E+02  0.51100000000E-03 0.  1.
         11   -1    0    0    0    0 -0.00000000000E+00 -0.00000000000E+00 -0.45593999997E+02  0.45594000000E+02  0.51100000000E-03 0. -1.
    9900012    2    1    2    0    0 -0.38959834619E+01  0.40339503909E+02 -0.32725403958E+01  0.50528883145E+02  0.30000070808E+02 0.  0.
        -12    1    1    2    0    0  0.38959834619E+01 -0.40339503909E+02  0.32725403958E+01  0.40659116855E+02  0.00000000000E+00 0.  1.
         11    1    3    3    0    0  0.82048507477E+01  0.80160416755E+01 -0.74107687593E+01  0.13656353606E+02  0.51100000000E-03 0.  1.
        -11    1    3    3    0    0 -0.11045946353E+02  0.13490580815E+02 -0.51943560964E+00  0.17443580916E+02  0.51100000000E-03 0. -1.
         12    1    3    3    0    0 -0.10548878565E+01  0.18832881419E+02  0.46576639732E+01  0.19428948623E+02  0.00000000000E+00 0. -1.
</event>
<event>
 7    1  0.9406864E-013  0.5052883E+02  0.7816164E-02  0.1300439E+00
        -11   -1    0    0    0    0  0.00000000000E+00  0.00000000000E+00  0.45593999997E+02  0.45594000000E+02  0.51100000000E-03 0. -1.
         11   -1    0    0    0    0 -0.00000000000E+00 -0.00000000000E+00 -0.45593999997E+02  0.45594000000E+02  0.51100000000E-03 0.  1.
    9900012    2    1    2    0    0 -0.20660103438E+01  0.36250049685E+02 -0.18298453765E+02  0.50528832386E+02  0.29999916520E+02 0.  0.
        -12    1    1    2    0    0  0.20660103438E+01 -0.36250049685E+02  0.18298453765E+02  0.40659167614E+02  0.00000000000E+00 0.  1.
         11    1    3    3    0    0  0.17606451758E+00  0.39163206912E+02 -0.16980935147E+02  0.42686531050E+02  0.51100000000E-03 0. -1.
        -11    1    3    3    0    0 -0.35451199641E+01 -0.55956406287E+00 -0.29927943804E+01  0.46730938322E+01  0.51100000000E-03 0.  1.
         12    1    3    3    0    0  0.13030451027E+01 -0.23535931642E+01  0.16752757623E+01  0.31692075038E+01  0.00000000000E+00 0. -1.
</event>
<event>
 7    1  0.9406864E-013  0.5052885E+02  0.7816164E-02  0.1300439E+00
        -11   -1    0    0    0    0  0.00000000000E+00  0.00000000000E+00  0.45593999997E+02  0.45594000000E+02  0.51100000000E-03 0. -1.
         11   -1    0    0    0    0 -0.00000000000E+00 -0.00000000000E+00 -0.45593999997E+02  0.45594000000E+02  0.51100000000E-03 0.  1.
    9900012    2    1    2    0    0  0.63083716736E+01  0.23842440726E+02  0.32325046558E+02  0.50528853822E+02  0.29999981677E+02 0.  0.
        -12    1    1    2    0    0 -0.63083716736E+01 -0.23842440726E+02 -0.32325046558E+02  0.40659146178E+02  0.00000000000E+00 0.  1.
         11    1    3    3    0    0 -0.43175797863E+01  0.31382273564E+01  0.19828180416E+02  0.20534037718E+02  0.51100000000E-03 0. -1.
        -11    1    3    3    0    0  0.12589788253E+02  0.10405378393E+02  0.49167092147E+01  0.17057218340E+02  0.51100000000E-03 0.  1.
         12    1    3    3    0    0 -0.19638367931E+01  0.10298834977E+02  0.75801569276E+01  0.12937597763E+02  0.00000000000E+00 0. -1.
</event>
<event>
 7    1  0.9406864E-013  0.5052886E+02  0.7816164E-02  0.1300439E+00
        -11   -1    0    0    0    0  0.00000000000E+00  0.00000000000E+00  0.45593999997E+02  0.45594000000E+02  0.51100000000E-03 0. -1.
         11   -1    0    0    0    0 -0.00000000000E+00 -0.00000000000E+00 -0.45593999997E+02  0.45594000000E+02  0.51100000000E-03 0.  1.
    9900012    2    1    2    0    0  0.46788736067E+01  0.27385531742E+02  0.29686804215E+02  0.50528861402E+02  0.30000004719E+02 0.  0.
        -12    1    1    2    0    0 -0.46788736067E+01 -0.27385531742E+02 -0.29686804215E+02  0.40659138598E+02  0.00000000000E+00 0.  1.
         11    1    3    3    0    0  0.55739094130E+01  0.34679906313E+01  0.17580994228E+02  0.18766640175E+02  0.51100000000E-03 0.  1.
        -11    1    3    3    0    0  0.28948831090E+01  0.24803094205E+02  0.12358005832E+02  0.27862055537E+02  0.51100000000E-03 0. -1.
         12    1    3    3    0    0 -0.37899189153E+01 -0.88555309403E+00 -0.25219584494E+00  0.39001656902E+01  0.00000000000E+00 0. -1.
</event>
<event>
 7    1  0.9406864E-013  0.5052886E+02  0.7816164E-02  0.1300439E+00
        -11   -1    0    0    0    0  0.00000000000E+00  0.00000000000E+00  0.45593999997E+02  0.45594000000E+02  0.51100000000E-03 0. -1.
         11   -1    0    0    0    0 -0.00000000000E+00 -0.00000000000E+00 -0.45593999997E+02  0.45594000000E+02  0.51100000000E-03 0.  1.
    9900012    2    1    2    0    0  0.11695054143E+02  0.93199980162E+01  0.37809114558E+02  0.50528858370E+02  0.29999995502E+02 0.  0.
        -12    1    1    2    0    0 -0.11695054143E+02 -0.93199980162E+01 -0.37809114558E+02  0.40659141630E+02  0.00000000000E+00 0.  1.
         11    1    3    3    0    0  0.43139757180E+01  0.12852236878E+02  0.18827643958E+02  0.23200658537E+02  0.51100000000E-03 0. -1.
        -11    1    3    3    0    0  0.29017240787E-01 -0.66982805700E+01 -0.31977318915E-01  0.66984197692E+01  0.51100000000E-03 0.  1.
        -12    1    3    3    0    0  0.73520611842E+01  0.31660417087E+01  0.19013447918E+02  0.20629780064E+02  0.00000000000E+00 0.  1.
</event>
<event>
 7    1  0.9406864E-013  0.5052872E+02  0.7816164E-02  0.1300439E+00
        -11   -1    0    0    0    0  0.00000000000E+00  0.00000000000E+00  0.45593999997E+02  0.45594000000E+02  0.51100000000E-03 0. -1.
         11   -1    0    0    0    0 -0.00000000000E+00 -0.00000000000E+00 -0.45593999997E+02  0.45594000000E+02  0.51100000000E-03 0.  1.
    9900012    2    1    2    0    0 -0.81792902892E+01 -0.38485151521E+02  0.10255209946E+02  0.50528720515E+02  0.29999576474E+02 0.  0.
        -12    1    1    2    0    0  0.81792902892E+01  0.38485151521E+02 -0.10255209946E+02  0.40659279485E+02  0.00000000000E+00 0.  1.
         11    1    3    3    0    0  0.25783864725E+00 -0.50505430526E+01  0.19361950181E+01  0.54151008582E+01  0.51100000000E-03 0. -1.
        -11    1    3    3    0    0 -0.12112981749E+02 -0.31796710413E+02  0.15102018271E+02  0.37226685000E+02  0.51100000000E-03 0.  1.
        -12    1    3    3    0    0  0.36758528126E+01 -0.16378980548E+01 -0.67830033426E+01  0.78869346570E+01  0.00000000000E+00 0.  1.
</event>
<event>
 7    1  0.9406864E-013  0.5052886E+02  0.7816164E-02  0.1300439E+00
        -11   -1    0    0    0    0  0.00000000000E+00  0.00000000000E+00  0.45593999997E+02  0.45594000000E+02  0.51100000000E-03 0.  1.
         11   -1    0    0    0    0 -0.00000000000E+00 -0.00000000000E+00 -0.45593999997E+02  0.45594000000E+02  0.51100000000E-03 0. -1.
    9900012    2    1    2    0    0 -0.43295550106E+01  0.13102169994E+02 -0.38245963998E+02  0.50528859978E+02  0.30000000390E+02 0.  0.
        -12    1    1    2    0    0  0.43295550106E+01 -0.13102169994E+02  0.38245963998E+02  0.40659140022E+02  0.00000000000E+00 0.  1.
         11    1    3    3    0    0  0.43324145411E+01  0.64424352327E+01 -0.30000642865E+02  0.30988923184E+02  0.51100000000E-03 0. -1.
        -11    1    3    3    0    0 -0.62867519309E+01  0.56901995004E+00 -0.10809419168E+02  0.12517610656E+02  0.51100000000E-03 0.  1.
        -12    1    3    3    0    0 -0.23752176208E+01  0.60907148116E+01  0.25640980348E+01  0.70223261384E+01  0.00000000000E+00 0.  1.
</event>
<event>
 7    1  0.9406864E-013  0.5052886E+02  0.7816164E-02  0.1300439E+00
        -11   -1    0    0    0    0  0.00000000000E+00  0.00000000000E+00  0.45593999997E+02  0.45594000000E+02  0.51100000000E-03 0.  1.
         11   -1    0    0    0    0 -0.00000000000E+00 -0.00000000000E+00 -0.45593999997E+02  0.45594000000E+02  0.51100000000E-03 0. -1.
    9900012    2    1    2    0    0 -0.35571265664E+02 -0.15005165361E+02  0.12755218224E+02  0.50528861785E+02  0.30000005882E+02 0.  0.
        -12    1    1    2    0    0  0.35571265664E+02  0.15005165361E+02 -0.12755218224E+02  0.40659138215E+02  0.00000000000E+00 0.  1.
         11    1    3    3    0    0 -0.86780495805E+01 -0.66859630344E+01  0.88003557462E+01  0.14051936085E+02  0.51100000000E-03 0. -1.
        -11    1    3    3    0    0 -0.12237838673E+02  0.60384025975E+01 -0.43799634349E+01  0.14332169455E+02  0.51100000000E-03 0.  1.
        -12    1    3    3    0    0 -0.14655377410E+02 -0.14357604924E+02  0.83348259131E+01  0.22144756246E+02  0.00000000000E+00 0.  1.
</event>
<event>
 7    1  0.9406864E-013  0.5052886E+02  0.7816164E-02  0.1300439E+00
        -11   -1    0    0    0    0  0.00000000000E+00  0.00000000000E+00  0.45593999997E+02  0.45594000000E+02  0.51100000000E-03 0.  1.
         11   -1    0    0    0    0 -0.00000000000E+00 -0.00000000000E+00 -0.45593999997E+02  0.45594000000E+02  0.51100000000E-03 0. -1.
    9900012    2    1    2    0    0  0.95775979715E+01 -0.23750640707E+02 -0.31580722191E+02  0.50528864114E+02  0.30000012961E+02 0.  0.
        -12    1    1    2    0    0 -0.95775979715E+01  0.23750640707E+02  0.31580722191E+02  0.40659135886E+02  0.00000000000E+00 0.  1.
         11    1    3    3    0    0  0.14107685968E+01 -0.80946876703E+01 -0.40971796784E+01  0.91815640330E+01  0.51100000000E-03 0. -1.
        -11    1    3    3    0    0 -0.74102098626E+01  0.86890127541E+00 -0.32558715609E+01  0.81404483609E+01  0.51100000000E-03 0.  1.
        -12    1    3    3    0    0  0.15577039237E+02 -0.16524854312E+02 -0.24227670952E+02  0.33206851720E+02  0.00000000000E+00 0.  1.
</event>
<event>
 7    1  0.1090209E-012  0.5052887E+02  0.7816164E-02  0.1300439E+00
        -11   -1    0    0    0    0  0.00000000000E+00  0.00000000000E+00  0.45593999997E+02  0.45594000000E+02  0.51100000000E-03 0.  1.
         11   -1    0    0    0    0 -0.00000000000E+00 -0.00000000000E+00 -0.45593999997E+02  0.45594000000E+02  0.51100000000E-03 0. -1.
    9900012    2    1    2    0    0  0.47685664240E+00 -0.35599810648E+02 -0.19636476800E+02  0.50528866567E+02  0.30000020418E+02 0.  0.
        -12    1    1    2    0    0 -0.47685664240E+00  0.35599810648E+02  0.19636476800E+02  0.40659133433E+02  0.00000000000E+00 0.  1.
         11    1    3    3    0    0  0.72081435577E+01 -0.29795560763E+02 -0.11133196161E+02  0.32614120128E+02  0.51100000000E-03 0. -1.
        -11    1    3    3    0    0 -0.29510802754E+01  0.63401942720E+00  0.29645216337E+01  0.42307498394E+01  0.51100000000E-03 0.  1.
         12    1    3    3    0    0 -0.37802066399E+01 -0.64382693117E+01 -0.11467802273E+02  0.13683996599E+02  0.00000000000E+00 0. -1.
</event>
<event>
 7    1  0.9406864E-013  0.5052886E+02  0.7816164E-02  0.1300439E+00
        -11   -1    0    0    0    0  0.00000000000E+00  0.00000000000E+00  0.45593999997E+02  0.45594000000E+02  0.51100000000E-03 0.  1.
         11   -1    0    0    0    0 -0.00000000000E+00 -0.00000000000E+00 -0.45593999997E+02  0.45594000000E+02  0.51100000000E-03 0. -1.
    9900012    2    1    2    0    0 -0.33922567014E+02  0.22221864661E+02  0.29348744822E+01  0.50528864372E+02  0.30000013745E+02 0.  0.
        -12    1    1    2    0    0  0.33922567014E+02 -0.22221864661E+02 -0.29348744822E+01  0.40659135628E+02  0.00000000000E+00 0.  1.
         11    1    3    3    0    0 -0.30186336893E+00  0.36992128071E+01 -0.49549881693E+01  0.61908969386E+01  0.51100000000E-03 0. -1.
        -11    1    3    3    0    0 -0.31834138458E+02  0.11476775187E+02  0.31720493093E+00  0.33841237555E+02  0.51100000000E-03 0.  1.
        -12    1    3    3    0    0 -0.17865651866E+01  0.70458766671E+01  0.75726577206E+01  0.10496729878E+02  0.00000000000E+00 0.  1.
</event>
<event>
 7    1  0.9406864E-013  0.5052886E+02  0.7816164E-02  0.1300439E+00
        -11   -1    0    0    0    0  0.00000000000E+00  0.00000000000E+00  0.45593999997E+02  0.45594000000E+02  0.51100000000E-03 0. -1.
         11   -1    0    0    0    0 -0.00000000000E+00 -0.00000000000E+00 -0.45593999997E+02  0.45594000000E+02  0.51100000000E-03 0.  1.
    9900012    2    1    2    0    0  0.44818967282E+01  0.37186014581E+02  0.15820201862E+02  0.50528857539E+02  0.29999992975E+02 0.  0.
        -12    1    1    2    0    0 -0.44818967282E+01 -0.37186014581E+02 -0.15820201862E+02  0.40659142461E+02  0.00000000000E+00 0.  1.
         11    1    3    3    0    0  0.33992147804E+01  0.27505111850E+02  0.11964569739E+02  0.30186698533E+02  0.51100000000E-03 0. -1.
        -11    1    3    3    0    0  0.82646487234E+01  0.18872560032E+01 -0.12658585532E+01  0.85713798119E+01  0.51100000000E-03 0.  1.
         12    1    3    3    0    0 -0.71819667755E+01  0.77936467278E+01  0.51214906760E+01  0.11770779194E+02  0.00000000000E+00 0. -1.
</event>
<event>
 7    1  0.9406864E-013  0.5052880E+02  0.7816164E-02  0.1300439E+00
        -11   -1    0    0    0    0  0.00000000000E+00  0.00000000000E+00  0.45593999997E+02  0.45594000000E+02  0.51100000000E-03 0.  1.
         11   -1    0    0    0    0 -0.00000000000E+00 -0.00000000000E+00 -0.45593999997E+02  0.45594000000E+02  0.51100000000E-03 0. -1.
    9900012    2    1    2    0    0 -0.88587340061E+01 -0.32731820492E+02 -0.22434827464E+02  0.50528797791E+02  0.29999811366E+02 0.  0.
        -12    1    1    2    0    0  0.88587340061E+01  0.32731820492E+02  0.22434827464E+02  0.40659202209E+02  0.00000000000E+00 0.  1.
         11    1    3    3    0    0  0.29940403613E+01 -0.12619909705E+02 -0.19549227914E+02  0.23460577805E+02  0.51100000000E-03 0.  1.
        -11    1    3    3    0    0 -0.65260124516E+01 -0.87125608659E+01  0.52490925195E+01  0.12085136652E+02  0.51100000000E-03 0. -1.
         12    1    3    3    0    0 -0.53267619158E+01 -0.11399349921E+02 -0.81346920700E+01  0.14983083334E+02  0.00000000000E+00 0. -1.
</event>
<event>
 7    1  0.9406864E-013  0.5052886E+02  0.7816164E-02  0.1300439E+00
        -11   -1    0    0    0    0  0.00000000000E+00  0.00000000000E+00  0.45593999997E+02  0.45594000000E+02  0.51100000000E-03 0. -1.
         11   -1    0    0    0    0 -0.00000000000E+00 -0.00000000000E+00 -0.45593999997E+02  0.45594000000E+02  0.51100000000E-03 0.  1.
    9900012    2    1    2    0    0  0.23646406122E+01 -0.38308107559E+02  0.13418747861E+02  0.50528862968E+02  0.30000009478E+02 0.  0.
        -12    1    1    2    0    0 -0.23646406122E+01  0.38308107559E+02 -0.13418747861E+02  0.40659137032E+02  0.00000000000E+00 0.  1.
         11    1    3    3    0    0 -0.10085447460E+02 -0.10849134690E+02  0.64150342753E+01  0.16142262512E+02  0.51100000000E-03 0. -1.
        -11    1    3    3    0    0  0.14146332720E+02 -0.25075547399E+02  0.23455862735E+01  0.28886044763E+02  0.51100000000E-03 0.  1.
         12    1    3    3    0    0 -0.16962446485E+01 -0.23834254696E+01  0.46581273126E+01  0.55005556935E+01  0.00000000000E+00 0. -1.
</event>
<event>
 7    1  0.9406864E-013  0.5052886E+02  0.7816164E-02  0.1300439E+00
        -11   -1    0    0    0    0  0.00000000000E+00  0.00000000000E+00  0.45593999997E+02  0.45594000000E+02  0.51100000000E-03 0. -1.
         11   -1    0    0    0    0 -0.00000000000E+00 -0.00000000000E+00 -0.45593999997E+02  0.45594000000E+02  0.51100000000E-03 0.  1.
    9900012    2    1    2    0    0 -0.30996978523E+02  0.11731636590E+02  0.23552538706E+02  0.50528855221E+02  0.29999985931E+02 0.  0.
        -12    1    1    2    0    0  0.30996978523E+02 -0.11731636590E+02 -0.23552538706E+02  0.40659144779E+02  0.00000000000E+00 0.  1.
         11    1    3    3    0    0 -0.47302219545E+01 -0.11490505561E+01  0.12565668325E+02  0.13475583017E+02  0.51100000000E-03 0. -1.
        -11    1    3    3    0    0 -0.39467298804E+01  0.11099105292E+02 -0.69055460150E+00  0.11800155972E+02  0.51100000000E-03 0.  1.
        -12    1    3    3    0    0 -0.22320026688E+02  0.17815818533E+01  0.11677424982E+02  0.25253116233E+02  0.00000000000E+00 0.  1.
</event>
<event>
 7    1  0.9406864E-013  0.5052896E+02  0.7816164E-02  0.1300438E+00
        -11   -1    0    0    0    0  0.00000000000E+00  0.00000000000E+00  0.45593999997E+02  0.45594000000E+02  0.51100000000E-03 0. -1.
         11   -1    0    0    0    0 -0.00000000000E+00 -0.00000000000E+00 -0.45593999997E+02  0.45594000000E+02  0.51100000000E-03 0.  1.
    9900012    2    1    2    0    0  0.20125587168E+02  0.24128577167E+02  0.25805616265E+02  0.50528962558E+02  0.30000312188E+02 0.  0.
        -12    1    1    2    0    0 -0.20125587168E+02 -0.24128577167E+02 -0.25805616265E+02  0.40659037442E+02  0.00000000000E+00 0.  1.
         11    1    3    3    0    0 -0.86093845664E+00 -0.18785581673E+01  0.12951534153E+02  0.13115351043E+02  0.51100000000E-03 0. -1.
        -11    1    3    3    0    0  0.21511192389E+02  0.20916739188E+02  0.10594221602E+02  0.31819473720E+02  0.51100000000E-03 0.  1.
         12    1    3    3    0    0 -0.52466676370E+00  0.50903961460E+01  0.22598605103E+01  0.55941377944E+01  0.00000000000E+00 0. -1.
</event>
<event>
 7    1  0.9406864E-013  0.5052887E+02  0.7816164E-02  0.1300439E+00
        -11   -1    0    0    0    0  0.00000000000E+00  0.00000000000E+00  0.45593999997E+02  0.45594000000E+02  0.51100000000E-03 0. -1.
         11   -1    0    0    0    0 -0.00000000000E+00 -0.00000000000E+00 -0.45593999997E+02  0.45594000000E+02  0.51100000000E-03 0.  1.
    9900012    2    1    2    0    0  0.32765190945E+02  0.23522650835E+02 -0.51276062040E+01  0.50528865905E+02  0.30000018405E+02 0.  0.
        -12    1    1    2    0    0 -0.32765190945E+02 -0.23522650835E+02  0.51276062040E+01  0.40659134095E+02  0.00000000000E+00 0.  1.
         11    1    3    3    0    0  0.15352226404E+02 -0.44476928180E+01 -0.29205430661E+01  0.16248150634E+02  0.51100000000E-03 0. -1.
        -11    1    3    3    0    0  0.13422111073E+02  0.24761661917E+02  0.10964737045E+01  0.28186791612E+02  0.51100000000E-03 0.  1.
        -12    1    3    3    0    0  0.39908534682E+01  0.32086817357E+01 -0.33035368423E+01  0.60939236584E+01  0.00000000000E+00 0.  1.
</event>
<event>
 7    1  0.9406864E-013  0.5052886E+02  0.7816164E-02  0.1300439E+00
        -11   -1    0    0    0    0  0.00000000000E+00  0.00000000000E+00  0.45593999997E+02  0.45594000000E+02  0.51100000000E-03 0.  1.
         11   -1    0    0    0    0 -0.00000000000E+00 -0.00000000000E+00 -0.45593999997E+02  0.45594000000E+02  0.51100000000E-03 0. -1.
    9900012    2    1    2    0    0 -0.31232621809E+02  0.16735014931E+02 -0.19940623664E+02  0.50528857585E+02  0.29999993115E+02 0.  0.
        -12    1    1    2    0    0  0.31232621809E+02 -0.16735014931E+02  0.19940623664E+02  0.40659142415E+02  0.00000000000E+00 0.  1.
         11    1    3    3    0    0 -0.13512122198E+02 -0.49731202545E+01 -0.59304319568E+01  0.15571749896E+02  0.51100000000E-03 0. -1.
        -11    1    3    3    0    0 -0.12616658024E+02  0.19430625671E+02 -0.40253831060E+01  0.23514527065E+02  0.51100000000E-03 0.  1.
         12    1    3    3    0    0 -0.51038415875E+01  0.22775095145E+01 -0.99848086012E+01  0.11442580624E+02  0.00000000000E+00 0. -1.
</event>
<event>
 7    1  0.9406864E-013  0.5052888E+02  0.7816164E-02  0.1300439E+00
        -11   -1    0    0    0    0  0.00000000000E+00  0.00000000000E+00  0.45593999997E+02  0.45594000000E+02  0.51100000000E-03 0.  1.
         11   -1    0    0    0    0 -0.00000000000E+00 -0.00000000000E+00 -0.45593999997E+02  0.45594000000E+02  0.51100000000E-03 0. -1.
    9900012    2    1    2    0    0 -0.35075995736E+02  0.37100043635E+01 -0.20225585519E+02  0.50528881480E+02  0.30000065748E+02 0.  0.
        -12    1    1    2    0    0  0.35075995736E+02 -0.37100043635E+01  0.20225585519E+02  0.40659118520E+02  0.00000000000E+00 0.  1.
         11    1    3    3    0    0 -0.87307893662E+01  0.12680289386E+02 -0.10182410103E+02  0.18458003620E+02  0.51100000000E-03 0. -1.
        -11    1    3    3    0    0 -0.23262802366E+02 -0.11729874123E+02 -0.10076415530E+02  0.27933529513E+02  0.51100000000E-03 0.  1.
        -12    1    3    3    0    0 -0.30824040037E+01  0.27595891006E+01  0.33240113883E-01  0.41373483478E+01  0.00000000000E+00 0.  1.
</event>
<event>
 7    1  0.9406864E-013  0.5052884E+02  0.7816164E-02  0.1300439E+00
        -11   -1    0    0    0    0  0.00000000000E+00  0.00000000000E+00  0.45593999997E+02  0.45594000000E+02  0.51100000000E-03 0. -1.
         11   -1    0    0    0    0 -0.00000000000E+00 -0.00000000000E+00 -0.45593999997E+02  0.45594000000E+02  0.51100000000E-03 0.  1.
    9900012    2    1    2    0    0 -0.28257043176E+02 -0.16937704629E+02  0.23828986479E+02  0.50528844527E+02  0.29999953425E+02 0.  0.
        -12    1    1    2    0    0  0.28257043176E+02  0.16937704629E+02 -0.23828986479E+02  0.40659155473E+02  0.00000000000E+00 0.  1.
         11    1    3    3    0    0 -0.25249187530E+02 -0.20179021134E+02  0.21308671477E+02  0.38714000636E+02  0.51100000000E-03 0. -1.
        -11    1    3    3    0    0 -0.31553265341E+01  0.57761464960E+01 -0.17823420232E+01  0.68188486733E+01  0.51100000000E-03 0.  1.
        -12    1    3    3    0    0  0.14747088807E+00 -0.25348299905E+01  0.43026570248E+01  0.49959952179E+01  0.00000000000E+00 0.  1.
</event>
<event>
 7    1  0.9406864E-013  0.5052886E+02  0.7816164E-02  0.1300439E+00
        -11   -1    0    0    0    0  0.00000000000E+00  0.00000000000E+00  0.45593999997E+02  0.45594000000E+02  0.51100000000E-03 0.  1.
         11   -1    0    0    0    0 -0.00000000000E+00 -0.00000000000E+00 -0.45593999997E+02  0.45594000000E+02  0.51100000000E-03 0. -1.
    9900012    2    1    2    0    0 -0.22648271314E+02 -0.32262252564E+01 -0.33612694230E+02  0.50528856670E+02  0.29999990334E+02 0.  0.
        -12    1    1    2    0    0  0.22648271314E+02  0.32262252564E+01  0.33612694230E+02  0.40659143330E+02  0.00000000000E+00 0.  1.
         11    1    3    3    0    0 -0.19011038132E+02 -0.59085812433E+01 -0.21956402955E+02  0.29638058880E+02  0.51100000000E-03 0. -1.
        -11    1    3    3    0    0  0.10826630353E+01  0.87368712527E+01 -0.29534876665E+01  0.92859123511E+01  0.51100000000E-03 0.  1.
         12    1    3    3    0    0 -0.47198962172E+01 -0.60545152658E+01 -0.87028036084E+01  0.11604885439E+02  0.00000000000E+00 0. -1.
</event>
<event>
 7    1  0.9406864E-013  0.5052885E+02  0.7816164E-02  0.1300439E+00
        -11   -1    0    0    0    0  0.00000000000E+00  0.00000000000E+00  0.45593999997E+02  0.45594000000E+02  0.51100000000E-03 0. -1.
         11   -1    0    0    0    0 -0.00000000000E+00 -0.00000000000E+00 -0.45593999997E+02  0.45594000000E+02  0.51100000000E-03 0.  1.
    9900012    2    1    2    0    0  0.31983529701E+02 -0.24509500749E+02 -0.54318528753E+01  0.50528845744E+02  0.29999957124E+02 0.  0.
        -12    1    1    2    0    0 -0.31983529701E+02  0.24509500749E+02  0.54318528753E+01  0.40659154256E+02  0.00000000000E+00 0.  1.
         11    1    3    3    0    0  0.26090284690E+02 -0.10993647368E+02 -0.68101573422E+01  0.29119434763E+02  0.51100000000E-03 0. -1.
        -11    1    3    3    0    0 -0.50192312779E+00 -0.73341322552E+01  0.75854687255E+01  0.10563179389E+02  0.51100000000E-03 0.  1.
         12    1    3    3    0    0  0.63951681394E+01 -0.61817211263E+01 -0.62071642587E+01  0.10846231592E+02  0.00000000000E+00 0. -1.
</event>
<event>
 7    1  0.9406864E-013  0.5052885E+02  0.7816164E-02  0.1300439E+00
        -11   -1    0    0    0    0  0.00000000000E+00  0.00000000000E+00  0.45593999997E+02  0.45594000000E+02  0.51100000000E-03 0. -1.
         11   -1    0    0    0    0 -0.00000000000E+00 -0.00000000000E+00 -0.45593999997E+02  0.45594000000E+02  0.51100000000E-03 0.  1.
    9900012    2    1    2    0    0  0.16011651748E+02 -0.15557162317E+02  0.33981874702E+02  0.50528854665E+02  0.29999984241E+02 0.  0.
        -12    1    1    2    0    0 -0.16011651748E+02  0.15557162317E+02 -0.33981874702E+02  0.40659145335E+02  0.00000000000E+00 0.  1.
         11    1    3    3    0    0  0.41830746817E+01 -0.17368627554E+02  0.20120497418E+02  0.26907280679E+02  0.51100000000E-03 0. -1.
        -11    1    3    3    0    0  0.52687340730E+01  0.13774241116E+01 -0.24974499663E+01  0.59911695445E+01  0.51100000000E-03 0.  1.
        -12    1    3    3    0    0  0.65598429930E+01  0.43404112516E+00  0.16358827250E+02  0.17630404442E+02  0.00000000000E+00 0.  1.
</event>
<event>
 7    1  0.9826720E-013  0.5052886E+02  0.7816164E-02  0.1300439E+00
        -11   -1    0    0    0    0  0.00000000000E+00  0.00000000000E+00  0.45593999997E+02  0.45594000000E+02  0.51100000000E-03 0. -1.
         11   -1    0    0    0    0 -0.00000000000E+00 -0.00000000000E+00 -0.45593999997E+02  0.45594000000E+02  0.51100000000E-03 0.  1.
    9900012    2    1    2    0    0 -0.35931735494E+02 -0.18224118963E+02  0.54733515333E+01  0.50528859520E+02  0.29999998996E+02 0.  0.
        -12    1    1    2    0    0  0.35931735494E+02  0.18224118963E+02 -0.54733515333E+01  0.40659140480E+02  0.00000000000E+00 0.  1.
         11    1    3    3    0    0 -0.14761600989E+02  0.34565915242E+01 -0.31657874319E+01  0.15487901699E+02  0.51100000000E-03 0.  1.
        -11    1    3    3    0    0 -0.22003598427E+01 -0.12523161538E+02  0.15178666137E+01  0.12805275384E+02  0.51100000000E-03 0. -1.
         12    1    3    3    0    0 -0.18969774663E+02 -0.91575489497E+01  0.71212723515E+01  0.22235682436E+02  0.00000000000E+00 0. -1.
</event>
<event>
 7    1  0.9406864E-013  0.5052885E+02  0.7816164E-02  0.1300439E+00
        -11   -1    0    0    0    0  0.00000000000E+00  0.00000000000E+00  0.45593999997E+02  0.45594000000E+02  0.51100000000E-03 0. -1.
         11   -1    0    0    0    0 -0.00000000000E+00 -0.00000000000E+00 -0.45593999997E+02  0.45594000000E+02  0.51100000000E-03 0.  1.
    9900012    2    1    2    0    0 -0.37676635995E+02  0.65571966675E+01  0.13807261526E+02  0.50528853441E+02  0.29999980519E+02 0.  0.
        -12    1    1    2    0    0  0.37676635995E+02 -0.65571966675E+01 -0.13807261526E+02  0.40659146559E+02  0.00000000000E+00 0.  1.
         11    1    3    3    0    0 -0.12371091747E+02  0.28196797431E+01  0.10109012201E+02  0.16223027856E+02  0.51100000000E-03 0. -1.
        -11    1    3    3    0    0 -0.17677721695E+02 -0.83325582767E+01 -0.52105253657E-01  0.19543185180E+02  0.51100000000E-03 0.  1.
        -12    1    3    3    0    0 -0.76278225532E+01  0.12070075201E+02  0.37503545790E+01  0.14762640405E+02  0.00000000000E+00 0.  1.
</event>
<event>
 7    1  0.9406864E-013  0.5052886E+02  0.7816164E-02  0.1300439E+00
        -11   -1    0    0    0    0  0.00000000000E+00  0.00000000000E+00  0.45593999997E+02  0.45594000000E+02  0.51100000000E-03 0.  1.
         11   -1    0    0    0    0 -0.00000000000E+00 -0.00000000000E+00 -0.45593999997E+02  0.45594000000E+02  0.51100000000E-03 0. -1.
    9900012    2    1    2    0    0  0.38651362592E+02 -0.12614240437E+02  0.34449638961E+00  0.50528861178E+02  0.30000004036E+02 0.  0.
        -12    1    1    2    0    0 -0.38651362592E+02  0.12614240437E+02 -0.34449638961E+00  0.40659138822E+02  0.00000000000E+00 0.  1.
         11    1    3    3    0    0  0.14381345815E+02 -0.40459528428E+00 -0.62665245730E+01  0.15692550312E+02  0.51100000000E-03 0. -1.
        -11    1    3    3    0    0 -0.35749610041E+01 -0.65810389724E+00  0.24989770757E+01  0.44111601203E+01  0.51100000000E-03 0.  1.
         12    1    3    3    0    0  0.27844977780E+02 -0.11551541256E+02  0.41120438869E+01  0.30425150746E+02  0.00000000000E+00 0. -1.
</event>
<event>
 7    1  0.9406864E-013  0.5052885E+02  0.7816164E-02  0.1300439E+00
        -11   -1    0    0    0    0  0.00000000000E+00  0.00000000000E+00  0.45593999997E+02  0.45594000000E+02  0.51100000000E-03 0. -1.
         11   -1    0    0    0    0 -0.00000000000E+00 -0.00000000000E+00 -0.45593999997E+02  0.45594000000E+02  0.51100000000E-03 0.  1.
    9900012    2    1    2    0    0 -0.96471998644E+01 -0.48506267400E+01  0.39199099727E+02  0.50528850176E+02  0.29999970594E+02 0.  0.
        -12    1    1    2    0    0  0.96471998644E+01  0.48506267400E+01 -0.39199099727E+02  0.40659149824E+02  0.00000000000E+00 0.  1.
         11    1    3    3    0    0 -0.36322999490E+01 -0.15743992071E+02  0.28312604387E+02  0.32598626607E+02  0.51100000000E-03 0. -1.
        -11    1    3    3    0    0 -0.49791887488E+01  0.30772697676E+01  0.23438092875E+01  0.63051845378E+01  0.51100000000E-03 0.  1.
         12    1    3    3    0    0 -0.10357111667E+01  0.78160955630E+01  0.85426860532E+01  0.11625039031E+02  0.00000000000E+00 0. -1.
</event>
<event>
 7    1  0.9406864E-013  0.5052887E+02  0.7816164E-02  0.1300439E+00
        -11   -1    0    0    0    0  0.00000000000E+00  0.00000000000E+00  0.45593999997E+02  0.45594000000E+02  0.51100000000E-03 0.  1.
         11   -1    0    0    0    0 -0.00000000000E+00 -0.00000000000E+00 -0.45593999997E+02  0.45594000000E+02  0.51100000000E-03 0. -1.
    9900012    2    1    2    0    0 -0.11484314591E+02 -0.11341478085E+02 -0.37318180788E+02  0.50528865428E+02  0.30000016956E+02 0.  0.
        -12    1    1    2    0    0  0.11484314591E+02  0.11341478085E+02  0.37318180788E+02  0.40659134572E+02  0.00000000000E+00 0.  1.
         11    1    3    3    0    0  0.26990329059E+01  0.20011861521E+01 -0.65453314332E+01  0.73573696709E+01  0.51100000000E-03 0. -1.
        -11    1    3    3    0    0 -0.36763268576E+01 -0.17509329245E+02 -0.13025524574E+02  0.22130437874E+02  0.51100000000E-03 0.  1.
        -12    1    3    3    0    0 -0.10507020639E+02  0.41666650080E+01 -0.17747324780E+02  0.21041057884E+02  0.00000000000E+00 0.  1.
</event>
<event>
 7    1  0.9406864E-013  0.5052888E+02  0.7816164E-02  0.1300439E+00
        -11   -1    0    0    0    0  0.00000000000E+00  0.00000000000E+00  0.45593999997E+02  0.45594000000E+02  0.51100000000E-03 0.  1.
         11   -1    0    0    0    0 -0.00000000000E+00 -0.00000000000E+00 -0.45593999997E+02  0.45594000000E+02  0.51100000000E-03 0. -1.
    9900012    2    1    2    0    0  0.44068548184E+01  0.93751209742E+01 -0.39317310448E+02  0.50528878471E+02  0.30000056600E+02 0.  0.
        -12    1    1    2    0    0 -0.44068548184E+01 -0.93751209742E+01  0.39317310448E+02  0.40659121529E+02  0.00000000000E+00 0.  1.
         11    1    3    3    0    0  0.80339453714E+01  0.22364193520E+01 -0.31072661705E+02  0.32172288626E+02  0.51100000000E-03 0. -1.
        -11    1    3    3    0    0 -0.11880179264E+01  0.64290993793E+01  0.27349795541E+01  0.70869470751E+01  0.51100000000E-03 0.  1.
        -12    1    3    3    0    0 -0.24390726267E+01  0.70960224284E+00 -0.10979628297E+02  0.11269642770E+02  0.00000000000E+00 0.  1.
</event>
<event>
 7    1  0.9406864E-013  0.5052886E+02  0.7816164E-02  0.1300439E+00
        -11   -1    0    0    0    0  0.00000000000E+00  0.00000000000E+00  0.45593999997E+02  0.45594000000E+02  0.51100000000E-03 0.  1.
         11   -1    0    0    0    0 -0.00000000000E+00 -0.00000000000E+00 -0.45593999997E+02  0.45594000000E+02  0.51100000000E-03 0. -1.
    9900012    2    1    2    0    0  0.82878199282E+01 -0.27219511625E+01 -0.39712322624E+02  0.50528861477E+02  0.30000004945E+02 0.  0.
        -12    1    1    2    0    0 -0.82878199282E+01  0.27219511625E+01  0.39712322624E+02  0.40659138523E+02  0.00000000000E+00 0.  1.
         11    1    3    3    0    0  0.33336689025E+01 -0.11649390702E+02 -0.20347325469E+02  0.23681961618E+02  0.51100000000E-03 0. -1.
        -11    1    3    3    0    0 -0.41299895414E+01  0.65808938477E+01 -0.37432651717E+01  0.86242107960E+01  0.51100000000E-03 0.  1.
         12    1    3    3    0    0  0.90841405671E+01  0.23465456917E+01 -0.15621731983E+02  0.18222689063E+02  0.00000000000E+00 0. -1.
</event>
<event>
 7    1  0.9406864E-013  0.5052887E+02  0.7816164E-02  0.1300439E+00
        -11   -1    0    0    0    0  0.00000000000E+00  0.00000000000E+00  0.45593999997E+02  0.45594000000E+02  0.51100000000E-03 0.  1.
         11   -1    0    0    0    0 -0.00000000000E+00 -0.00000000000E+00 -0.45593999997E+02  0.45594000000E+02  0.51100000000E-03 0. -1.
    9900012    2    1    2    0    0  0.37590522736E+02 -0.14398076034E+02 -0.57282529141E+01  0.50528869728E+02  0.30000030024E+02 0.  0.
        -12    1    1    2    0    0 -0.37590522736E+02  0.14398076034E+02  0.57282529141E+01  0.40659130272E+02  0.00000000000E+00 0.  1.
         11    1    3    3    0    0  0.28910132692E+02 -0.64302924681E+00 -0.76252501173E+01  0.29905746914E+02  0.51100000000E-03 0. -1.
        -11    1    3    3    0    0  0.11907570883E+02 -0.11281388271E+02  0.85369887675E+00  0.16425247873E+02  0.51100000000E-03 0.  1.
         12    1    3    3    0    0 -0.32271808385E+01 -0.24736585167E+01  0.10432983265E+01  0.41978749409E+01  0.00000000000E+00 0. -1.
</event>
<event>
 7    1  0.9406864E-013  0.5052886E+02  0.7816164E-02  0.1300439E+00
        -11   -1    0    0    0    0  0.00000000000E+00  0.00000000000E+00  0.45593999997E+02  0.45594000000E+02  0.51100000000E-03 0.  1.
         11   -1    0    0    0    0 -0.00000000000E+00 -0.00000000000E+00 -0.45593999997E+02  0.45594000000E+02  0.51100000000E-03 0. -1.
    9900012    2    1    2    0    0  0.30768941085E+02  0.15110406585E+02 -0.21865811804E+02  0.50528857750E+02  0.29999993616E+02 0.  0.
        -12    1    1    2    0    0 -0.30768941085E+02 -0.15110406585E+02  0.21865811804E+02  0.40659142250E+02  0.00000000000E+00 0.  1.
         11    1    3    3    0    0  0.22498524426E+02  0.13637968664E+02 -0.12067207997E+02  0.28944693810E+02  0.51100000000E-03 0. -1.
        -11    1    3    3    0    0  0.60434361032E+01 -0.65814230778E+01 -0.97540111469E+01  0.13227962178E+02  0.51100000000E-03 0.  1.
         12    1    3    3    0    0  0.22269805554E+01  0.80538609991E+01 -0.44592660519E-01  0.83562017623E+01  0.00000000000E+00 0. -1.
</event>
<event>
 7    1  0.9406864E-013  0.5052886E+02  0.7816164E-02  0.1300439E+00
        -11   -1    0    0    0    0  0.00000000000E+00  0.00000000000E+00  0.45593999997E+02  0.45594000000E+02  0.51100000000E-03 0. -1.
         11   -1    0    0    0    0 -0.00000000000E+00 -0.00000000000E+00 -0.45593999997E+02  0.45594000000E+02  0.51100000000E-03 0.  1.
    9900012    2    1    2    0    0 -0.40398023489E+02 -0.45986984325E+01 -0.13029568453E+00  0.50528864421E+02  0.30000013894E+02 0.  0.
        -12    1    1    2    0    0  0.40398023489E+02  0.45986984325E+01  0.13029568453E+00  0.40659135579E+02  0.00000000000E+00 0.  1.
         11    1    3    3    0    0 -0.82883624184E+01  0.38810221356E+01  0.15311029263E+01  0.92792004412E+01  0.51100000000E-03 0. -1.
        -11    1    3    3    0    0 -0.11152141174E+02 -0.13480034488E+02  0.58263709913E+01  0.18439853084E+02  0.51100000000E-03 0.  1.
        -12    1    3    3    0    0 -0.20957519896E+02  0.50003139196E+01 -0.74877696022E+01  0.22809810896E+02  0.00000000000E+00 0.  1.
</event>
<event>
 7    1  0.9406864E-013  0.5052886E+02  0.7816164E-02  0.1300439E+00
        -11   -1    0    0    0    0  0.00000000000E+00  0.00000000000E+00  0.45593999997E+02  0.45594000000E+02  0.51100000000E-03 0. -1.
         11   -1    0    0    0    0 -0.00000000000E+00 -0.00000000000E+00 -0.45593999997E+02  0.45594000000E+02  0.51100000000E-03 0.  1.
    9900012    2    1    2    0    0  0.34354483109E+02  0.21746441521E+02 -0.16557913268E+00  0.50528860253E+02  0.30000001225E+02 0.  0.
        -12    1    1    2    0    0 -0.34354483109E+02 -0.21746441521E+02  0.16557913268E+00  0.40659139747E+02  0.00000000000E+00 0.  1.
         11    1    3    3    0    0  0.74830479464E+00  0.65627529785E+01 -0.67255712339E+01  0.94267171064E+01  0.51100000000E-03 0. -1.
        -11    1    3    3    0    0  0.90316799986E+01  0.39207095409E+01  0.97808732039E+01  0.13878353209E+02  0.51100000000E-03 0.  1.
        -12    1    3    3    0    0  0.24574498316E+02  0.11262979001E+02 -0.32208811028E+01  0.27223789937E+02  0.00000000000E+00 0.  1.
</event>
<event>
 7    1  0.9406864E-013  0.5052886E+02  0.7816164E-02  0.1300439E+00
        -11   -1    0    0    0    0  0.00000000000E+00  0.00000000000E+00  0.45593999997E+02  0.45594000000E+02  0.51100000000E-03 0.  1.
         11   -1    0    0    0    0 -0.00000000000E+00 -0.00000000000E+00 -0.45593999997E+02  0.45594000000E+02  0.51100000000E-03 0. -1.
    9900012    2    1    2    0    0 -0.14333441758E+02  0.10275161066E+02 -0.36635221699E+02  0.50528856422E+02  0.29999989581E+02 0.  0.
        -12    1    1    2    0    0  0.14333441758E+02 -0.10275161066E+02  0.36635221699E+02  0.40659143578E+02  0.00000000000E+00 0.  1.
         11    1    3    3    0    0 -0.19166058938E+02 -0.10846019822E+01 -0.26531092794E+02  0.32747718421E+02  0.51100000000E-03 0. -1.
        -11    1    3    3    0    0  0.13871783223E+01  0.10332438085E+02 -0.95599938119E+01  0.14144858515E+02  0.51100000000E-03 0.  1.
         12    1    3    3    0    0  0.34454388573E+01  0.10273249633E+01 -0.54413509247E+00  0.36362794858E+01  0.00000000000E+00 0. -1.
</event>
<event>
 7    1  0.9406864E-013  0.5052886E+02  0.7816164E-02  0.1300439E+00
        -11   -1    0    0    0    0  0.00000000000E+00  0.00000000000E+00  0.45593999997E+02  0.45594000000E+02  0.51100000000E-03 0.  1.
         11   -1    0    0    0    0 -0.00000000000E+00 -0.00000000000E+00 -0.45593999997E+02  0.45594000000E+02  0.51100000000E-03 0. -1.
    9900012    2    1    2    0    0 -0.39514310926E+01  0.23829900130E+02 -0.32706084904E+02  0.50528856654E+02  0.29999990285E+02 0.  0.
        -12    1    1    2    0    0  0.39514310926E+01 -0.23829900130E+02  0.32706084904E+02  0.40659143346E+02  0.00000000000E+00 0.  1.
         11    1    3    3    0    0  0.94463751618E+01  0.24510637664E+01 -0.19273193982E+02  0.21603187816E+02  0.51100000000E-03 0. -1.
        -11    1    3    3    0    0 -0.40416708739E+01  0.55705710152E+01 -0.59238689302E+01  0.90806711345E+01  0.51100000000E-03 0.  1.
         12    1    3    3    0    0 -0.93561353804E+01  0.15808265348E+02 -0.75090219921E+01  0.19844997704E+02  0.00000000000E+00 0. -1.
</event>
<event>
 7    1  0.9406864E-013  0.5052886E+02  0.7816164E-02  0.1300439E+00
        -11   -1    0    0    0    0  0.00000000000E+00  0.00000000000E+00  0.45593999997E+02  0.45594000000E+02  0.51100000000E-03 0.  1.
         11   -1    0    0    0    0 -0.00000000000E+00 -0.00000000000E+00 -0.45593999997E+02  0.45594000000E+02  0.51100000000E-03 0. -1.
    9900012    2    1    2    0    0  0.21164347856E+02 -0.68044618686E+01 -0.34043143643E+02  0.50528856495E+02  0.29999989801E+02 0.  0.
        -12    1    1    2    0    0 -0.21164347856E+02  0.68044618686E+01  0.34043143643E+02  0.40659143505E+02  0.00000000000E+00 0.  1.
         11    1    3    3    0    0  0.18985235706E+02  0.58681358773E+01 -0.27214260353E+02  0.33697034889E+02  0.51100000000E-03 0. -1.
        -11    1    3    3    0    0  0.38019270239E+01 -0.12741729057E+02 -0.45920485911E+01  0.14067452469E+02  0.51100000000E-03 0.  1.
        -12    1    3    3    0    0 -0.16228148738E+01  0.69131310901E-01 -0.22368346985E+01  0.27643691362E+01  0.00000000000E+00 0.  1.
</event>
<event>
 7    1  0.9406864E-013  0.5052884E+02  0.7816164E-02  0.1300439E+00
        -11   -1    0    0    0    0  0.00000000000E+00  0.00000000000E+00  0.45593999997E+02  0.45594000000E+02  0.51100000000E-03 0.  1.
         11   -1    0    0    0    0 -0.00000000000E+00 -0.00000000000E+00 -0.45593999997E+02  0.45594000000E+02  0.51100000000E-03 0. -1.
    9900012    2    1    2    0    0  0.19160326265E+02  0.33943071948E+02 -0.11572250525E+02  0.50528840908E+02  0.29999942423E+02 0.  0.
        -12    1    1    2    0    0 -0.19160326265E+02 -0.33943071948E+02  0.11572250525E+02  0.40659159092E+02  0.00000000000E+00 0.  1.
         11    1    3    3    0    0  0.62249654583E+01  0.21345216419E+02  0.32602380095E+01  0.22472151902E+02  0.51100000000E-03 0. -1.
        -11    1    3    3    0    0  0.16470112204E+02  0.11428808604E+02 -0.13120198307E+02  0.23958753432E+02  0.51100000000E-03 0.  1.
         12    1    3    3    0    0 -0.35347513971E+01  0.11690469248E+01 -0.17122902267E+01  0.40979355745E+01  0.00000000000E+00 0. -1.
</event>
<event>
 7    1  0.9406864E-013  0.5052886E+02  0.7816164E-02  0.1300439E+00
        -11   -1    0    0    0    0  0.00000000000E+00  0.00000000000E+00  0.45593999997E+02  0.45594000000E+02  0.51100000000E-03 0.  1.
         11   -1    0    0    0    0 -0.00000000000E+00 -0.00000000000E+00 -0.45593999997E+02  0.45594000000E+02  0.51100000000E-03 0. -1.
    9900012    2    1    2    0    0  0.86005360056E+01 -0.18913019044E+02 -0.34949879422E+02  0.50528861045E+02  0.30000003634E+02 0.  0.
        -12    1    1    2    0    0 -0.86005360056E+01  0.18913019044E+02  0.34949879422E+02  0.40659138955E+02  0.00000000000E+00 0.  1.
         11    1    3    3    0    0  0.40849782386E+01 -0.22363766838E+02 -0.24787706486E+02  0.33634141992E+02  0.51100000000E-03 0. -1.
        -11    1    3    3    0    0  0.20130581030E+01 -0.16038794462E+01  0.21489928662E+01  0.33530587236E+01  0.51100000000E-03 0.  1.
         12    1    3    3    0    0  0.25024996639E+01  0.50546272402E+01 -0.12311165802E+02  0.13541660330E+02  0.00000000000E+00 0. -1.
</event>
<event>
 7    1  0.9406864E-013  0.5052888E+02  0.7816164E-02  0.1300439E+00
        -11   -1    0    0    0    0  0.00000000000E+00  0.00000000000E+00  0.45593999997E+02  0.45594000000E+02  0.51100000000E-03 0. -1.
         11   -1    0    0    0    0 -0.00000000000E+00 -0.00000000000E+00 -0.45593999997E+02  0.45594000000E+02  0.51100000000E-03 0.  1.
    9900012    2    1    2    0    0  0.14546171627E+01 -0.35262570369E+02  0.20189097444E+02  0.50528875124E+02  0.30000046425E+02 0.  0.
        -12    1    1    2    0    0 -0.14546171627E+01  0.35262570369E+02 -0.20189097444E+02  0.40659124876E+02  0.00000000000E+00 0.  1.
         11    1    3    3    0    0 -0.71862788148E+01 -0.25523545196E+02  0.19413918913E+02  0.32863265364E+02  0.51100000000E-03 0. -1.
        -11    1    3    3    0    0  0.20379919735E+01 -0.90518026291E+01 -0.33328035262E+01  0.98588093463E+01  0.51100000000E-03 0.  1.
         12    1    3    3    0    0  0.66029040040E+01 -0.68722254423E+00  0.41079820563E+01  0.78068004129E+01  0.00000000000E+00 0. -1.
</event>
<event>
 7    1  0.9406864E-013  0.5052889E+02  0.7816164E-02  0.1300439E+00
        -11   -1    0    0    0    0  0.00000000000E+00  0.00000000000E+00  0.45593999997E+02  0.45594000000E+02  0.51100000000E-03 0.  1.
         11   -1    0    0    0    0 -0.00000000000E+00 -0.00000000000E+00 -0.45593999997E+02  0.45594000000E+02  0.51100000000E-03 0. -1.
    9900012    2    1    2    0    0  0.74109024801E+01 -0.12568647479E+01 -0.39958257452E+02  0.50528886345E+02  0.30000080535E+02 0.  0.
        -12    1    1    2    0    0 -0.74109024801E+01  0.12568647479E+01  0.39958257452E+02  0.40659113655E+02  0.00000000000E+00 0.  1.
         11    1    3    3    0    0 -0.30181465793E+01  0.12811468372E+01 -0.17386946430E+02  0.17693401381E+02  0.51100000000E-03 0. -1.
        -11    1    3    3    0    0  0.17018630139E+02 -0.13869614425E+01 -0.17416377956E+02  0.24390318883E+02  0.51100000000E-03 0.  1.
        -12    1    3    3    0    0 -0.65895810794E+01 -0.11510501426E+01 -0.51549330661E+01  0.84451660817E+01  0.00000000000E+00 0.  1.
</event>
<event>
 7    1  0.9406864E-013  0.5052887E+02  0.7816164E-02  0.1300439E+00
        -11   -1    0    0    0    0  0.00000000000E+00  0.00000000000E+00  0.45593999997E+02  0.45594000000E+02  0.51100000000E-03 0.  1.
         11   -1    0    0    0    0 -0.00000000000E+00 -0.00000000000E+00 -0.45593999997E+02  0.45594000000E+02  0.51100000000E-03 0. -1.
    9900012    2    1    2    0    0  0.15157068255E+02  0.24487917961E+02 -0.28701393474E+02  0.50528870256E+02  0.30000031631E+02 0.  0.
        -12    1    1    2    0    0 -0.15157068255E+02 -0.24487917961E+02  0.28701393474E+02  0.40659129744E+02  0.00000000000E+00 0.  1.
         11    1    3    3    0    0 -0.30575546400E+01  0.19537195104E+02 -0.16647439676E+02  0.25849330376E+02  0.51100000000E-03 0. -1.
        -11    1    3    3    0    0  0.15126600837E+02  0.80702343878E+01 -0.97095039535E+01  0.19703228244E+02  0.51100000000E-03 0.  1.
        -12    1    3    3    0    0  0.30880220583E+01 -0.31195115302E+01 -0.23444498452E+01  0.49763116358E+01  0.00000000000E+00 0.  1.
</event>
<event>
 7    1  0.9406864E-013  0.5052888E+02  0.7816164E-02  0.1300439E+00
        -11   -1    0    0    0    0  0.00000000000E+00  0.00000000000E+00  0.45593999997E+02  0.45594000000E+02  0.51100000000E-03 0.  1.
         11   -1    0    0    0    0 -0.00000000000E+00 -0.00000000000E+00 -0.45593999997E+02  0.45594000000E+02  0.51100000000E-03 0. -1.
    9900012    2    1    2    0    0  0.29769899266E+02  0.24868945815E+02 -0.12184111669E+02  0.50528881153E+02  0.30000064753E+02 0.  0.
        -12    1    1    2    0    0 -0.29769899266E+02 -0.24868945815E+02  0.12184111669E+02  0.40659118847E+02  0.00000000000E+00 0.  1.
         11    1    3    3    0    0 -0.16919895186E+01  0.13490656246E+02 -0.23660412605E+01  0.13800680635E+02  0.51100000000E-03 0. -1.
        -11    1    3    3    0    0  0.28955905470E+01  0.47641394015E+01  0.60710873349E+00  0.56080344265E+01  0.51100000000E-03 0.  1.
         12    1    3    3    0    0  0.28566298237E+02  0.66141501673E+01 -0.10425179142E+02  0.31120166091E+02  0.00000000000E+00 0. -1.
</event>
<event>
 7    1  0.9406864E-013  0.5052886E+02  0.7816164E-02  0.1300439E+00
        -11   -1    0    0    0    0  0.00000000000E+00  0.00000000000E+00  0.45593999997E+02  0.45594000000E+02  0.51100000000E-03 0. -1.
         11   -1    0    0    0    0 -0.00000000000E+00 -0.00000000000E+00 -0.45593999997E+02  0.45594000000E+02  0.51100000000E-03 0.  1.
    9900012    2    1    2    0    0  0.15501072874E+02  0.34971902247E+02 -0.13778562355E+02  0.50528856040E+02  0.29999988419E+02 0.  0.
        -12    1    1    2    0    0 -0.15501072874E+02 -0.34971902247E+02  0.13778562355E+02  0.40659143960E+02  0.00000000000E+00 0.  1.
         11    1    3    3    0    0 -0.25696668114E+01  0.18989309080E+02 -0.13522789285E+02  0.23453419307E+02  0.51100000000E-03 0. -1.
        -11    1    3    3    0    0  0.14694649153E+02  0.52060485323E+01 -0.17354890258E+01  0.15685903782E+02  0.51100000000E-03 0.  1.
         12    1    3    3    0    0  0.33760905326E+01  0.10776544634E+02  0.14797159562E+01  0.11389532951E+02  0.00000000000E+00 0. -1.
</event>
<event>
 7    1  0.9406864E-013  0.5052886E+02  0.7816164E-02  0.1300439E+00
        -11   -1    0    0    0    0  0.00000000000E+00  0.00000000000E+00  0.45593999997E+02  0.45594000000E+02  0.51100000000E-03 0.  1.
         11   -1    0    0    0    0 -0.00000000000E+00 -0.00000000000E+00 -0.45593999997E+02  0.45594000000E+02  0.51100000000E-03 0. -1.
    9900012    2    1    2    0    0  0.26339340218E+02  0.14501018292E+02 -0.27370153597E+02  0.50528859791E+02  0.29999999821E+02 0.  0.
        -12    1    1    2    0    0 -0.26339340218E+02 -0.14501018292E+02  0.27370153597E+02  0.40659140209E+02  0.00000000000E+00 0.  1.
         11    1    3    3    0    0  0.16481728297E+02  0.14721402118E+02 -0.89442382683E+01  0.23840437212E+02  0.51100000000E-03 0. -1.
        -11    1    3    3    0    0  0.47547542221E+01 -0.81444846407E+01 -0.12083441004E+02  0.15328074391E+02  0.51100000000E-03 0.  1.
        -12    1    3    3    0    0  0.51028576994E+01  0.79241008140E+01 -0.63424743246E+01  0.11360348189E+02  0.00000000000E+00 0.  1.
</event>
<event>
 7    1  0.9406864E-013  0.5052886E+02  0.7816164E-02  0.1300439E+00
        -11   -1    0    0    0    0  0.00000000000E+00  0.00000000000E+00  0.45593999997E+02  0.45594000000E+02  0.51100000000E-03 0.  1.
         11   -1    0    0    0    0 -0.00000000000E+00 -0.00000000000E+00 -0.45593999997E+02  0.45594000000E+02  0.51100000000E-03 0. -1.
    9900012    2    1    2    0    0 -0.18709562152E+02 -0.28163949512E+02  0.22581183679E+02  0.50528860507E+02  0.30000001996E+02 0.  0.
        -12    1    1    2    0    0  0.18709562152E+02  0.28163949512E+02 -0.22581183679E+02  0.40659139493E+02  0.00000000000E+00 0.  1.
         11    1    3    3    0    0 -0.35038934805E+01 -0.36981022035E+01 -0.20321645800E+01  0.54847901119E+01  0.51100000000E-03 0.  1.
        -11    1    3    3    0    0  0.51810450074E+01 -0.96411938270E+01  0.13805548382E+02  0.17617860601E+02  0.51100000000E-03 0. -1.
        -12    1    3    3    0    0 -0.20386713679E+02 -0.14824653481E+02  0.10807799877E+02  0.27426209793E+02  0.00000000000E+00 0.  1.
</event>
<event>
 7    1  0.9406864E-013  0.5052887E+02  0.7816164E-02  0.1300439E+00
        -11   -1    0    0    0    0  0.00000000000E+00  0.00000000000E+00  0.45593999997E+02  0.45594000000E+02  0.51100000000E-03 0.  1.
         11   -1    0    0    0    0 -0.00000000000E+00 -0.00000000000E+00 -0.45593999997E+02  0.45594000000E+02  0.51100000000E-03 0. -1.
    9900012    2    1    2    0    0  0.33597066266E+01  0.22836867247E+02 -0.33471704597E+02  0.50528866427E+02  0.30000019992E+02 0.  0.
        -12    1    1    2    0    0 -0.33597066266E+01 -0.22836867247E+02  0.33471704597E+02  0.40659133573E+02  0.00000000000E+00 0.  1.
         11    1    3    3    0    0  0.49604045251E+01  0.49665646805E+01 -0.13442046519E+02  0.15164464800E+02  0.51100000000E-03 0. -1.
        -11    1    3    3    0    0 -0.71983107982E+01  0.18911482153E+02 -0.74619209401E+01  0.21567106898E+02  0.51100000000E-03 0.  1.
        -12    1    3    3    0    0  0.55976128997E+01 -0.10411795861E+01 -0.12567737137E+02  0.13797294730E+02  0.00000000000E+00 0.  1.
</event>
<event>
 7    1  0.9406864E-013  0.5052886E+02  0.7816164E-02  0.1300439E+00
        -11   -1    0    0    0    0  0.00000000000E+00  0.00000000000E+00  0.45593999997E+02  0.45594000000E+02  0.51100000000E-03 0. -1.
         11   -1    0    0    0    0 -0.00000000000E+00 -0.00000000000E+00 -0.45593999997E+02  0.45594000000E+02  0.51100000000E-03 0.  1.
    9900012    2    1    2    0    0 -0.86289722157E+01 -0.20678374911E+02  0.33928029038E+02  0.50528861976E+02  0.30000006461E+02 0.  0.
        -12    1    1    2    0    0  0.86289722157E+01  0.20678374911E+02 -0.33928029038E+02  0.40659138024E+02  0.00000000000E+00 0.  1.
         11    1    3    3    0    0 -0.80598831519E+01  0.45962378372E+00 -0.17577328394E+01  0.82621180965E+01  0.51100000000E-03 0. -1.
        -11    1    3    3    0    0 -0.40814409630E+01 -0.79501088080E+01  0.12572452938E+02  0.15424946144E+02  0.51100000000E-03 0.  1.
         12    1    3    3    0    0  0.35123518992E+01 -0.13187889887E+02  0.23113308939E+02  0.26841797735E+02  0.00000000000E+00 0. -1.
</event>
<event>
 7    1  0.9406864E-013  0.5052887E+02  0.7816164E-02  0.1300439E+00
        -11   -1    0    0    0    0  0.00000000000E+00  0.00000000000E+00  0.45593999997E+02  0.45594000000E+02  0.51100000000E-03 0.  1.
         11   -1    0    0    0    0 -0.00000000000E+00 -0.00000000000E+00 -0.45593999997E+02  0.45594000000E+02  0.51100000000E-03 0. -1.
    9900012    2    1    2    0    0 -0.38422009189E+02 -0.12374365802E+02 -0.48773974202E+01  0.50528871570E+02  0.30000035623E+02 0.  0.
        -12    1    1    2    0    0  0.38422009189E+02  0.12374365802E+02  0.48773974202E+01  0.40659128430E+02  0.00000000000E+00 0.  1.
         11    1    3    3    0    0 -0.32738595664E+02 -0.13477109238E+01  0.36534804621E+01  0.32969378074E+02  0.51100000000E-03 0. -1.
        -11    1    3    3    0    0 -0.22111699080E+01 -0.11151248036E+01  0.16153625122E+01  0.29567164214E+01  0.51100000000E-03 0.  1.
         12    1    3    3    0    0 -0.34722436164E+01 -0.99115300746E+01 -0.10146240394E+02  0.14602777075E+02  0.00000000000E+00 0. -1.
</event>
<event>
 7    1  0.9406864E-013  0.5052889E+02  0.7816164E-02  0.1300439E+00
        -11   -1    0    0    0    0  0.00000000000E+00  0.00000000000E+00  0.45593999997E+02  0.45594000000E+02  0.51100000000E-03 0. -1.
         11   -1    0    0    0    0 -0.00000000000E+00 -0.00000000000E+00 -0.45593999997E+02  0.45594000000E+02  0.51100000000E-03 0.  1.
    9900012    2    1    2    0    0  0.61569421036E+01 -0.39675271196E+02 -0.64131245705E+01  0.50528889738E+02  0.30000090848E+02 0.  0.
        -12    1    1    2    0    0 -0.61569421036E+01  0.39675271196E+02  0.64131245705E+01  0.40659110262E+02  0.00000000000E+00 0.  1.
         11    1    3    3    0    0 -0.60463771995E+01 -0.59082211718E+01 -0.69143978150E+01  0.10921293516E+02  0.51100000000E-03 0.  1.
        -11    1    3    3    0    0  0.10545798748E+02 -0.27237157754E+02  0.72267013374E+01  0.30088234349E+02  0.51100000000E-03 0. -1.
         12    1    3    3    0    0  0.16575205553E+01 -0.65298922701E+01 -0.67254280929E+01  0.95193618737E+01  0.00000000000E+00 0. -1.
</event>
<event>
 7    1  0.9406864E-013  0.5052886E+02  0.7816164E-02  0.1300439E+00
        -11   -1    0    0    0    0  0.00000000000E+00  0.00000000000E+00  0.45593999997E+02  0.45594000000E+02  0.51100000000E-03 0.  1.
         11   -1    0    0    0    0 -0.00000000000E+00 -0.00000000000E+00 -0.45593999997E+02  0.45594000000E+02  0.51100000000E-03 0. -1.
    9900012    2    1    2    0    0  0.38398508186E+02 -0.12959818867E+02  0.32807851156E+01  0.50528857277E+02  0.29999992179E+02 0.  0.
        -12    1    1    2    0    0 -0.38398508186E+02  0.12959818867E+02 -0.32807851156E+01  0.40659142723E+02  0.00000000000E+00 0.  1.
         11    1    3    3    0    0  0.33684750117E+02 -0.80542279391E+01 -0.71678749205E+01  0.35368225984E+02  0.51100000000E-03 0. -1.
        -11    1    3    3    0    0  0.64635287473E+00  0.23050376495E+01  0.40207209723E+01  0.46794409926E+01  0.51100000000E-03 0.  1.
         12    1    3    3    0    0  0.40674051947E+01 -0.72106285778E+01  0.64279390638E+01  0.10481190300E+02  0.00000000000E+00 0. -1.
</event>
<event>
 7    1  0.9406864E-013  0.5052886E+02  0.7816164E-02  0.1300439E+00
        -11   -1    0    0    0    0  0.00000000000E+00  0.00000000000E+00  0.45593999997E+02  0.45594000000E+02  0.51100000000E-03 0. -1.
         11   -1    0    0    0    0 -0.00000000000E+00 -0.00000000000E+00 -0.45593999997E+02  0.45594000000E+02  0.51100000000E-03 0.  1.
    9900012    2    1    2    0    0 -0.14262622108E+02 -0.38059037377E+02 -0.11194584859E+01  0.50528857083E+02  0.29999991589E+02 0.  0.
        -12    1    1    2    0    0  0.14262622108E+02  0.38059037377E+02  0.11194584859E+01  0.40659142917E+02  0.00000000000E+00 0.  1.
         11    1    3    3    0    0  0.19260633178E+01 -0.20862515248E+02  0.81591873490E+01  0.22483918716E+02  0.51100000000E-03 0. -1.
        -11    1    3    3    0    0 -0.10958414485E+02 -0.39981043804E+01 -0.12415342277E+01  0.11730860760E+02  0.51100000000E-03 0.  1.
         12    1    3    3    0    0 -0.52302709408E+01 -0.13198417749E+02 -0.80371116072E+01  0.16314077607E+02  0.00000000000E+00 0. -1.
</event>
<event>
 7    1  0.9406864E-013  0.5052886E+02  0.7816164E-02  0.1300439E+00
        -11   -1    0    0    0    0  0.00000000000E+00  0.00000000000E+00  0.45593999997E+02  0.45594000000E+02  0.51100000000E-03 0.  1.
         11   -1    0    0    0    0 -0.00000000000E+00 -0.00000000000E+00 -0.45593999997E+02  0.45594000000E+02  0.51100000000E-03 0. -1.
    9900012    2    1    2    0    0  0.21597980376E+02  0.19955040179E+02 -0.28080057780E+02  0.50528855520E+02  0.29999986840E+02 0.  0.
        -12    1    1    2    0    0 -0.21597980376E+02 -0.19955040179E+02  0.28080057780E+02  0.40659144480E+02  0.00000000000E+00 0.  1.
         11    1    3    3    0    0 -0.25691933318E+01 -0.32858494095E+01 -0.50920071145E+01  0.65822562570E+01  0.51100000000E-03 0.  1.
        -11    1    3    3    0    0  0.18080979751E+02  0.23818323215E+02 -0.23171099800E+02  0.37830334597E+02  0.51100000000E-03 0. -1.
        -12    1    3    3    0    0  0.60861939575E+01 -0.57743362668E+00  0.18304913450E+00  0.61162646662E+01  0.00000000000E+00 0.  1.
</event>
<event>
 7    1  0.9406864E-013  0.5052886E+02  0.7816164E-02  0.1300439E+00
        -11   -1    0    0    0    0  0.00000000000E+00  0.00000000000E+00  0.45593999997E+02  0.45594000000E+02  0.51100000000E-03 0.  1.
         11   -1    0    0    0    0 -0.00000000000E+00 -0.00000000000E+00 -0.45593999997E+02  0.45594000000E+02  0.51100000000E-03 0. -1.
    9900012    2    1    2    0    0  0.37169444644E+02 -0.93639702296E+01 -0.13561503037E+02  0.50528856893E+02  0.29999991011E+02 0.  0.
        -12    1    1    2    0    0 -0.37169444644E+02  0.93639702296E+01  0.13561503037E+02  0.40659143107E+02  0.00000000000E+00 0.  1.
         11    1    3    3    0    0  0.24534236640E+02 -0.67086258500E-01 -0.92300956137E+01  0.26213125212E+02  0.51100000000E-03 0. -1.
        -11    1    3    3    0    0 -0.29907641986E+01 -0.75633648760E+00 -0.56731078591E+01  0.64576209564E+01  0.51100000000E-03 0.  1.
        -12    1    3    3    0    0  0.15625972203E+02 -0.85405474835E+01  0.13417004362E+01  0.17858110725E+02  0.00000000000E+00 0.  1.
</event>
<event>
 7    1  0.9406864E-013  0.5052886E+02  0.7816164E-02  0.1300439E+00
        -11   -1    0    0    0    0  0.00000000000E+00  0.00000000000E+00  0.45593999997E+02  0.45594000000E+02  0.51100000000E-03 0. -1.
         11   -1    0    0    0    0 -0.00000000000E+00 -0.00000000000E+00 -0.45593999997E+02  0.45594000000E+02  0.51100000000E-03 0.  1.
    9900012    2    1    2    0    0 -0.31693426312E+02 -0.74562157071E+00  0.25458521069E+02  0.50528861815E+02  0.30000005974E+02 0.  0.
        -12    1    1    2    0    0  0.31693426312E+02  0.74562157071E+00 -0.25458521069E+02  0.40659138185E+02  0.00000000000E+00 0.  1.
         11    1    3    3    0    0 -0.20401399249E+02 -0.92939265520E+00  0.66139053735E+01  0.21466825722E+02  0.51100000000E-03 0. -1.
        -11    1    3    3    0    0 -0.58915132997E+01  0.24305842854E+01  0.21654496776E+02  0.22572879741E+02  0.51100000000E-03 0.  1.
        -12    1    3    3    0    0 -0.54005137635E+01 -0.22468132009E+01 -0.28098810812E+01  0.64891563519E+01  0.00000000000E+00 0.  1.
</event>
<event>
 7    1  0.9406864E-013  0.5052886E+02  0.7816164E-02  0.1300439E+00
        -11   -1    0    0    0    0  0.00000000000E+00  0.00000000000E+00  0.45593999997E+02  0.45594000000E+02  0.51100000000E-03 0. -1.
         11   -1    0    0    0    0 -0.00000000000E+00 -0.00000000000E+00 -0.45593999997E+02  0.45594000000E+02  0.51100000000E-03 0.  1.
    9900012    2    1    2    0    0 -0.16734472976E+02 -0.36373800112E+02 -0.70759760259E+01  0.50528863793E+02  0.30000011985E+02 0.  0.
        -12    1    1    2    0    0  0.16734472976E+02  0.36373800112E+02  0.70759760259E+01  0.40659136207E+02  0.00000000000E+00 0.  1.
         11    1    3    3    0    0 -0.12928170198E+02 -0.26633262481E+01  0.44840358923E+01  0.13940497463E+02  0.51100000000E-03 0. -1.
        -11    1    3    3    0    0 -0.33375071487E+00 -0.20531827880E+02 -0.10093757181E+02  0.22881242972E+02  0.51100000000E-03 0.  1.
         12    1    3    3    0    0 -0.34725520635E+01 -0.13178645984E+02 -0.14662547373E+01  0.13707123358E+02  0.00000000000E+00 0. -1.
</event>
<event>
 7    1  0.9406864E-013  0.5052887E+02  0.7816164E-02  0.1300439E+00
        -11   -1    0    0    0    0  0.00000000000E+00  0.00000000000E+00  0.45593999997E+02  0.45594000000E+02  0.51100000000E-03 0.  1.
         11   -1    0    0    0    0 -0.00000000000E+00 -0.00000000000E+00 -0.45593999997E+02  0.45594000000E+02  0.51100000000E-03 0. -1.
    9900012    2    1    2    0    0 -0.29780409827E+02 -0.22157560792E+02  0.16593212734E+02  0.50528867956E+02  0.30000024640E+02 0.  0.
        -12    1    1    2    0    0  0.29780409827E+02  0.22157560792E+02 -0.16593212734E+02  0.40659132044E+02  0.00000000000E+00 0.  1.
         11    1    3    3    0    0 -0.12282131282E+02 -0.36597343334E+00  0.12625406585E+02  0.17617763112E+02  0.51100000000E-03 0. -1.
        -11    1    3    3    0    0  0.11061435644E+01 -0.11152769464E+02  0.67142515937E+00  0.11227583547E+02  0.51100000000E-03 0.  1.
        -12    1    3    3    0    0 -0.18604422109E+02 -0.10638817895E+02  0.32963809898E+01  0.21683521297E+02  0.00000000000E+00 0.  1.
</event>
<event>
 7    1  0.9406864E-013  0.5052887E+02  0.7816164E-02  0.1300439E+00
        -11   -1    0    0    0    0  0.00000000000E+00  0.00000000000E+00  0.45593999997E+02  0.45594000000E+02  0.51100000000E-03 0.  1.
         11   -1    0    0    0    0 -0.00000000000E+00 -0.00000000000E+00 -0.45593999997E+02  0.45594000000E+02  0.51100000000E-03 0. -1.
    9900012    2    1    2    0    0 -0.40270081747E+01  0.25638167823E+02 -0.31299085496E+02  0.50528865761E+02  0.30000017967E+02 0.  0.
        -12    1    1    2    0    0  0.40270081747E+01 -0.25638167823E+02  0.31299085496E+02  0.40659134239E+02  0.00000000000E+00 0.  1.
         11    1    3    3    0    0 -0.18908184869E+01  0.14800499393E+02 -0.28276390930E+02  0.31971616492E+02  0.51100000000E-03 0. -1.
        -11    1    3    3    0    0 -0.73578105653E+01  0.76854501448E+01  0.17882123965E+01  0.10788939896E+02  0.51100000000E-03 0.  1.
         12    1    3    3    0    0  0.52216208775E+01  0.31522182851E+01 -0.48109069634E+01  0.77683093730E+01  0.00000000000E+00 0. -1.
</event>
<event>
 7    1  0.9406864E-013  0.5052886E+02  0.7816164E-02  0.1300439E+00
        -11   -1    0    0    0    0  0.00000000000E+00  0.00000000000E+00  0.45593999997E+02  0.45594000000E+02  0.51100000000E-03 0.  1.
         11   -1    0    0    0    0 -0.00000000000E+00 -0.00000000000E+00 -0.45593999997E+02  0.45594000000E+02  0.51100000000E-03 0. -1.
    9900012    2    1    2    0    0  0.27402363927E+02  0.13164494605E+02 -0.26999486268E+02  0.50528859260E+02  0.29999998206E+02 0.  0.
        -12    1    1    2    0    0 -0.27402363927E+02 -0.13164494605E+02  0.26999486268E+02  0.40659140740E+02  0.00000000000E+00 0.  1.
         11    1    3    3    0    0  0.91009307129E+01  0.20031370126E+02 -0.14668577085E+02  0.26443333430E+02  0.51100000000E-03 0. -1.
        -11    1    3    3    0    0  0.15409283973E+02 -0.43387407164E+01 -0.68970851025E+01  0.17431020817E+02  0.51100000000E-03 0.  1.
         12    1    3    3    0    0  0.28921492415E+01 -0.25281348044E+01 -0.54338240804E+01  0.66545050125E+01  0.00000000000E+00 0. -1.
</event>
<event>
 7    1  0.9406864E-013  0.5052886E+02  0.7816164E-02  0.1300439E+00
        -11   -1    0    0    0    0  0.00000000000E+00  0.00000000000E+00  0.45593999997E+02  0.45594000000E+02  0.51100000000E-03 0.  1.
         11   -1    0    0    0    0 -0.00000000000E+00 -0.00000000000E+00 -0.45593999997E+02  0.45594000000E+02  0.51100000000E-03 0. -1.
    9900012    2    1    2    0    0  0.38014023848E+02  0.23643470988E+01 -0.14230584325E+02  0.50528859865E+02  0.30000000045E+02 0.  0.
        -12    1    1    2    0    0 -0.38014023848E+02 -0.23643470988E+01  0.14230584325E+02  0.40659140135E+02  0.00000000000E+00 0.  1.
         11    1    3    3    0    0  0.14767732660E+01  0.46960562451E+01 -0.72037454308E+01  0.87251218920E+01  0.51100000000E-03 0. -1.
        -11    1    3    3    0    0  0.38688684360E+02 -0.13771355351E+01 -0.74188056066E+01  0.39417629009E+02  0.51100000000E-03 0.  1.
        -12    1    3    3    0    0 -0.21514337787E+01 -0.95457361127E+00  0.39196671244E+00  0.23861089638E+01  0.00000000000E+00 0.  1.
</event>
<event>
 7    1  0.9406864E-013  0.5052886E+02  0.7816164E-02  0.1300439E+00
        -11   -1    0    0    0    0  0.00000000000E+00  0.00000000000E+00  0.45593999997E+02  0.45594000000E+02  0.51100000000E-03 0.  1.
         11   -1    0    0    0    0 -0.00000000000E+00 -0.00000000000E+00 -0.45593999997E+02  0.45594000000E+02  0.51100000000E-03 0. -1.
    9900012    2    1    2    0    0  0.25720817786E+02 -0.25262369247E+02  0.18799416945E+02  0.50528857793E+02  0.29999993747E+02 0.  0.
        -12    1    1    2    0    0 -0.25720817786E+02  0.25262369247E+02 -0.18799416945E+02  0.40659142207E+02  0.00000000000E+00 0.  1.
         11    1    3    3    0    0  0.19911474782E+02 -0.27184826939E+02  0.15383859570E+02  0.37042472639E+02  0.51100000000E-03 0. -1.
        -11    1    3    3    0    0  0.11431328374E+01  0.63283731039E+01  0.28807332410E+01  0.70465369575E+01  0.51100000000E-03 0.  1.
        -12    1    3    3    0    0  0.46662101669E+01 -0.44059154121E+01  0.53482413381E+00  0.64398481965E+01  0.00000000000E+00 0.  1.
</event>
<event>
 7    1  0.9406864E-013  0.5052885E+02  0.7816164E-02  0.1300439E+00
        -11   -1    0    0    0    0  0.00000000000E+00  0.00000000000E+00  0.45593999997E+02  0.45594000000E+02  0.51100000000E-03 0. -1.
         11   -1    0    0    0    0 -0.00000000000E+00 -0.00000000000E+00 -0.45593999997E+02  0.45594000000E+02  0.51100000000E-03 0.  1.
    9900012    2    1    2    0    0  0.35707816478E+02 -0.50931939296E+01  0.18766401800E+02  0.50528848280E+02  0.29999964832E+02 0.  0.
        -12    1    1    2    0    0 -0.35707816478E+02  0.50931939296E+01 -0.18766401800E+02  0.40659151720E+02  0.00000000000E+00 0.  1.
         11    1    3    3    0    0  0.19511306675E+02 -0.12161007699E+02  0.69529157807E+00  0.23001404893E+02  0.51100000000E-03 0. -1.
        -11    1    3    3    0    0 -0.15599852375E+01  0.75993627611E-01  0.22481684619E+01  0.27374423586E+01  0.51100000000E-03 0.  1.
         12    1    3    3    0    0  0.17756495041E+02  0.69918201417E+01  0.15822941760E+02  0.24790001028E+02  0.00000000000E+00 0. -1.
</event>
<event>
 7    1  0.9406864E-013  0.5052888E+02  0.7816164E-02  0.1300439E+00
        -11   -1    0    0    0    0  0.00000000000E+00  0.00000000000E+00  0.45593999997E+02  0.45594000000E+02  0.51100000000E-03 0.  1.
         11   -1    0    0    0    0 -0.00000000000E+00 -0.00000000000E+00 -0.45593999997E+02  0.45594000000E+02  0.51100000000E-03 0. -1.
    9900012    2    1    2    0    0 -0.17846264414E+02 -0.36052680729E+02 -0.59058269290E+01  0.50528883765E+02  0.30000072691E+02 0.  0.
        -12    1    1    2    0    0  0.17846264414E+02  0.36052680729E+02  0.59058269290E+01  0.40659116235E+02  0.00000000000E+00 0.  1.
         11    1    3    3    0    0 -0.30785841272E+01 -0.36709929428E+00 -0.43481817294E+01  0.53403302082E+01  0.51100000000E-03 0. -1.
        -11    1    3    3    0    0 -0.71421402294E+01 -0.36447803770E+02 -0.34317433715E+01  0.37299188055E+02  0.51100000000E-03 0.  1.
        -12    1    3    3    0    0 -0.76255400579E+01  0.76222233465E+00  0.18740981719E+01  0.78893655017E+01  0.00000000000E+00 0.  1.
</event>
<event>
 7    1  0.9406864E-013  0.5052886E+02  0.7816164E-02  0.1300439E+00
        -11   -1    0    0    0    0  0.00000000000E+00  0.00000000000E+00  0.45593999997E+02  0.45594000000E+02  0.51100000000E-03 0. -1.
         11   -1    0    0    0    0 -0.00000000000E+00 -0.00000000000E+00 -0.45593999997E+02  0.45594000000E+02  0.51100000000E-03 0.  1.
    9900012    2    1    2    0    0  0.17551732417E+02  0.20376113284E+02  0.30494530024E+02  0.50528860010E+02  0.30000000486E+02 0.  0.
        -12    1    1    2    0    0 -0.17551732417E+02 -0.20376113284E+02 -0.30494530024E+02  0.40659139990E+02  0.00000000000E+00 0.  1.
         11    1    3    3    0    0  0.14825054143E+01  0.10587245396E+01  0.23208140493E+02  0.23279529749E+02  0.51100000000E-03 0. -1.
        -11    1    3    3    0    0  0.14644271140E+02  0.15389076619E+02  0.85262419202E+01  0.22890503663E+02  0.51100000000E-03 0.  1.
         12    1    3    3    0    0  0.14249558624E+01  0.39283121250E+01 -0.12398523891E+01  0.43588265976E+01  0.00000000000E+00 0. -1.
</event>
<event>
 7    1  0.9406864E-013  0.5052887E+02  0.7816164E-02  0.1300439E+00
        -11   -1    0    0    0    0  0.00000000000E+00  0.00000000000E+00  0.45593999997E+02  0.45594000000E+02  0.51100000000E-03 0.  1.
         11   -1    0    0    0    0 -0.00000000000E+00 -0.00000000000E+00 -0.45593999997E+02  0.45594000000E+02  0.51100000000E-03 0. -1.
    9900012    2    1    2    0    0  0.25049359280E+02  0.11993371656E+02 -0.29696023682E+02  0.50528865891E+02  0.30000018361E+02 0.  0.
        -12    1    1    2    0    0 -0.25049359280E+02 -0.11993371656E+02  0.29696023682E+02  0.40659134109E+02  0.00000000000E+00 0.  1.
         11    1    3    3    0    0 -0.21123256457E+01  0.26205165494E+01 -0.99643320708E+01  0.10517458842E+02  0.51100000000E-03 0. -1.
        -11    1    3    3    0    0  0.17587989699E+02 -0.32212387463E+01 -0.54342482051E+01  0.18688092855E+02  0.51100000000E-03 0.  1.
        -12    1    3    3    0    0  0.95736952263E+01  0.12594093852E+02 -0.14297443406E+02  0.21323314194E+02  0.00000000000E+00 0.  1.
</event>
<event>
 7    1  0.1179191E-012  0.5052886E+02  0.7816164E-02  0.1300439E+00
        -11   -1    0    0    0    0  0.00000000000E+00  0.00000000000E+00  0.45593999997E+02  0.45594000000E+02  0.51100000000E-03 0.  1.
         11   -1    0    0    0    0 -0.00000000000E+00 -0.00000000000E+00 -0.45593999997E+02  0.45594000000E+02  0.51100000000E-03 0. -1.
    9900012    2    1    2    0    0 -0.30268678841E+02 -0.19847342251E+02 -0.18521765684E+02  0.50528859364E+02  0.29999998524E+02 0.  0.
        -12    1    1    2    0    0  0.30268678841E+02  0.19847342251E+02  0.18521765684E+02  0.40659140636E+02  0.00000000000E+00 0.  1.
         11    1    3    3    0    0 -0.27565410410E+02 -0.15588071526E+02 -0.79811656931E+01  0.32657906103E+02  0.51100000000E-03 0. -1.
        -11    1    3    3    0    0 -0.83478365940E+00  0.46916549255E+01 -0.14593977058E+01  0.49838069407E+01  0.51100000000E-03 0.  1.
         12    1    3    3    0    0 -0.18684847711E+01 -0.89509256508E+01 -0.90812022847E+01  0.12887146320E+02  0.00000000000E+00 0. -1.
</event>
<event>
 7    1  0.9406864E-013  0.5052886E+02  0.7816164E-02  0.1300439E+00
        -11   -1    0    0    0    0  0.00000000000E+00  0.00000000000E+00  0.45593999997E+02  0.45594000000E+02  0.51100000000E-03 0.  1.
         11   -1    0    0    0    0 -0.00000000000E+00 -0.00000000000E+00 -0.45593999997E+02  0.45594000000E+02  0.51100000000E-03 0. -1.
    9900012    2    1    2    0    0 -0.39719645005E+01 -0.13432785730E+02 -0.38170009553E+02  0.50528857562E+02  0.29999993047E+02 0.  0.
        -12    1    1    2    0    0  0.39719645005E+01  0.13432785730E+02  0.38170009553E+02  0.40659142438E+02  0.00000000000E+00 0.  1.
         11    1    3    3    0    0 -0.12409733145E+02 -0.17298500117E+02 -0.18662611788E+02  0.28311352177E+02  0.51100000000E-03 0. -1.
        -11    1    3    3    0    0  0.75671029946E+01  0.20270900270E+01 -0.18159315683E+02  0.19777029303E+02  0.51100000000E-03 0.  1.
         12    1    3    3    0    0  0.87066565008E+00  0.18386243603E+01 -0.13480820820E+01  0.24404760831E+01  0.00000000000E+00 0. -1.
</event>
<event>
 7    1  0.9406864E-013  0.5052896E+02  0.7816164E-02  0.1300438E+00
        -11   -1    0    0    0    0  0.00000000000E+00  0.00000000000E+00  0.45593999997E+02  0.45594000000E+02  0.51100000000E-03 0. -1.
         11   -1    0    0    0    0 -0.00000000000E+00 -0.00000000000E+00 -0.45593999997E+02  0.45594000000E+02  0.51100000000E-03 0.  1.
    9900012    2    1    2    0    0 -0.17103623820E+02  0.30268981440E+02  0.21081086885E+02  0.50528961529E+02  0.30000309060E+02 0.  0.
        -12    1    1    2    0    0  0.17103623820E+02 -0.30268981440E+02 -0.21081086885E+02  0.40659038471E+02  0.00000000000E+00 0.  1.
         11    1    3    3    0    0  0.27976725339E+01 -0.11350856305E+01  0.11995103043E+01  0.32487253234E+01  0.51100000000E-03 0. -1.
        -11    1    3    3    0    0 -0.11786063345E+02  0.26163128660E+02  0.43983284342E+01  0.29030430306E+02  0.51100000000E-03 0.  1.
        -12    1    3    3    0    0 -0.81152330085E+01  0.52409384102E+01  0.15483248146E+02  0.18249805899E+02  0.00000000000E+00 0.  1.
</event>
<event>
 7    1  0.9406864E-013  0.5052884E+02  0.7816164E-02  0.1300439E+00
        -11   -1    0    0    0    0  0.00000000000E+00  0.00000000000E+00  0.45593999997E+02  0.45594000000E+02  0.51100000000E-03 0. -1.
         11   -1    0    0    0    0 -0.00000000000E+00 -0.00000000000E+00 -0.45593999997E+02  0.45594000000E+02  0.51100000000E-03 0.  1.
    9900012    2    1    2    0    0 -0.20848356185E+02  0.65406153163E+01  0.34288971302E+02  0.50528841656E+02  0.29999944697E+02 0.  0.
        -12    1    1    2    0    0  0.20848356185E+02 -0.65406153163E+01 -0.34288971302E+02  0.40659158344E+02  0.00000000000E+00 0.  1.
         11    1    3    3    0    0 -0.24319542785E+02  0.60990375782E+01  0.26900808953E+02  0.36773522312E+02  0.51100000000E-03 0. -1.
        -11    1    3    3    0    0  0.11298084596E+01  0.80700649703E+00 -0.28906911317E+01  0.32068398965E+01  0.51100000000E-03 0.  1.
        -12    1    3    3    0    0  0.23413781404E+01 -0.36542875895E+00  0.10278853480E+02  0.10548479447E+02  0.00000000000E+00 0.  1.
</event>
<event>
 7    1  0.9406864E-013  0.5052887E+02  0.7816164E-02  0.1300439E+00
        -11   -1    0    0    0    0  0.00000000000E+00  0.00000000000E+00  0.45593999997E+02  0.45594000000E+02  0.51100000000E-03 0.  1.
         11   -1    0    0    0    0 -0.00000000000E+00 -0.00000000000E+00 -0.45593999997E+02  0.45594000000E+02  0.51100000000E-03 0. -1.
    9900012    2    1    2    0    0  0.45534289397E+01  0.36264045322E+02 -0.17814324833E+02  0.50528869814E+02  0.30000030287E+02 0.  0.
        -12    1    1    2    0    0 -0.45534289397E+01 -0.36264045322E+02  0.17814324833E+02  0.40659130186E+02  0.00000000000E+00 0.  1.
         11    1    3    3    0    0  0.10547685039E+02  0.14869096125E+02 -0.13139925990E+02  0.22472234747E+02  0.51100000000E-03 0. -1.
        -11    1    3    3    0    0  0.19683335214E+01  0.11362606492E+02  0.44180731143E+01  0.12349191611E+02  0.51100000000E-03 0.  1.
         12    1    3    3    0    0 -0.79625896205E+01  0.10032342705E+02 -0.90924719577E+01  0.15707443455E+02  0.00000000000E+00 0. -1.
</event>
<event>
 7    1  0.9406864E-013  0.5052889E+02  0.7816164E-02  0.1300439E+00
        -11   -1    0    0    0    0  0.00000000000E+00  0.00000000000E+00  0.45593999997E+02  0.45594000000E+02  0.51100000000E-03 0. -1.
         11   -1    0    0    0    0 -0.00000000000E+00 -0.00000000000E+00 -0.45593999997E+02  0.45594000000E+02  0.51100000000E-03 0.  1.
    9900012    2    1    2    0    0  0.39983878199E+02 -0.55586303374E+01  0.48532473535E+01  0.50528894047E+02  0.30000103944E+02 0.  0.
        -12    1    1    2    0    0 -0.39983878199E+02  0.55586303374E+01 -0.48532473535E+01  0.40659105953E+02  0.00000000000E+00 0.  1.
         11    1    3    3    0    0  0.14321711176E+02 -0.10331584871E+02  0.80468768017E+00  0.17677685920E+02  0.51100000000E-03 0. -1.
        -11    1    3    3    0    0  0.18326590891E+02  0.98344375071E+01  0.89926437827E+01  0.22659385191E+02  0.51100000000E-03 0.  1.
        -12    1    3    3    0    0  0.73355761321E+01 -0.50614829739E+01 -0.49440841094E+01  0.10191822936E+02  0.00000000000E+00 0.  1.
</event>
<event>
 7    1  0.9406864E-013  0.5052886E+02  0.7816164E-02  0.1300439E+00
        -11   -1    0    0    0    0  0.00000000000E+00  0.00000000000E+00  0.45593999997E+02  0.45594000000E+02  0.51100000000E-03 0. -1.
         11   -1    0    0    0    0 -0.00000000000E+00 -0.00000000000E+00 -0.45593999997E+02  0.45594000000E+02  0.51100000000E-03 0.  1.
    9900012    2    1    2    0    0  0.36287658701E+02  0.17325940922E+02  0.60152357441E+01  0.50528862480E+02  0.30000007993E+02 0.  0.
        -12    1    1    2    0    0 -0.36287658701E+02 -0.17325940922E+02 -0.60152357441E+01  0.40659137520E+02  0.00000000000E+00 0.  1.
         11    1    3    3    0    0  0.41541035015E+01  0.39140146562E+01 -0.43200648817E+01  0.71581455331E+01  0.51100000000E-03 0. -1.
        -11    1    3    3    0    0  0.28372658827E+02  0.22490771768E+00  0.77919405834E+01  0.29424015544E+02  0.51100000000E-03 0.  1.
        -12    1    3    3    0    0  0.37608963725E+01  0.13187018548E+02  0.25433600424E+01  0.13946701403E+02  0.00000000000E+00 0.  1.
</event>
<event>
 7    1  0.9406864E-013  0.5052892E+02  0.7816164E-02  0.1300439E+00
        -11   -1    0    0    0    0  0.00000000000E+00  0.00000000000E+00  0.45593999997E+02  0.45594000000E+02  0.51100000000E-03 0.  1.
         11   -1    0    0    0    0 -0.00000000000E+00 -0.00000000000E+00 -0.45593999997E+02  0.45594000000E+02  0.51100000000E-03 0. -1.
    9900012    2    1    2    0    0 -0.31765155070E+02  0.82260596852E+01 -0.24009741937E+02  0.50528919311E+02  0.30000180738E+02 0.  0.
        -12    1    1    2    0    0  0.31765155070E+02 -0.82260596852E+01  0.24009741937E+02  0.40659080689E+02  0.00000000000E+00 0.  1.
         11    1    3    3    0    0 -0.19990598701E+01  0.91250380869E+01 -0.11176115481E+02  0.14565991829E+02  0.51100000000E-03 0.  1.
        -11    1    3    3    0    0 -0.30141489504E+02 -0.85447578491E-01 -0.14964071874E+02  0.33651747921E+02  0.51100000000E-03 0. -1.
        -12    1    3    3    0    0  0.37539430413E+00 -0.81353082320E+00  0.21304454184E+01  0.23111795613E+01  0.00000000000E+00 0.  1.
</event>
<event>
 7    1  0.9406864E-013  0.5052887E+02  0.7816164E-02  0.1300439E+00
        -11   -1    0    0    0    0  0.00000000000E+00  0.00000000000E+00  0.45593999997E+02  0.45594000000E+02  0.51100000000E-03 0.  1.
         11   -1    0    0    0    0 -0.00000000000E+00 -0.00000000000E+00 -0.45593999997E+02  0.45594000000E+02  0.51100000000E-03 0. -1.
    9900012    2    1    2    0    0  0.14228013466E+02  0.30839692629E+02  0.22352674006E+02  0.50528867645E+02  0.30000023694E+02 0.  0.
        -12    1    1    2    0    0 -0.14228013466E+02 -0.30839692629E+02 -0.22352674006E+02  0.40659132355E+02  0.00000000000E+00 0.  1.
         11    1    3    3    0    0  0.24705099977E+01  0.12764848735E+01 -0.60622300176E+01  0.66695926659E+01  0.51100000000E-03 0. -1.
        -11    1    3    3    0    0  0.13314660347E+01  0.16461990866E+02  0.16192136802E+02  0.23129099411E+02  0.51100000000E-03 0.  1.
        -12    1    3    3    0    0  0.10426037433E+02  0.13101216889E+02  0.12222767222E+02  0.20730175569E+02  0.00000000000E+00 0.  1.
</event>
<event>
 7    1  0.9406864E-013  0.5052886E+02  0.7816164E-02  0.1300439E+00
        -11   -1    0    0    0    0  0.00000000000E+00  0.00000000000E+00  0.45593999997E+02  0.45594000000E+02  0.51100000000E-03 0.  1.
         11   -1    0    0    0    0 -0.00000000000E+00 -0.00000000000E+00 -0.45593999997E+02  0.45594000000E+02  0.51100000000E-03 0. -1.
    9900012    2    1    2    0    0 -0.23646114190E+02 -0.21086832931E+02 -0.25482790670E+02  0.50528857612E+02  0.29999993199E+02 0.  0.
        -12    1    1    2    0    0  0.23646114190E+02  0.21086832931E+02  0.25482790670E+02  0.40659142388E+02  0.00000000000E+00 0.  1.
         11    1    3    3    0    0 -0.22483579918E+02 -0.10491840492E+02 -0.80003134233E+01  0.26069044823E+02  0.51100000000E-03 0. -1.
        -11    1    3    3    0    0  0.25995744029E+01 -0.12430380948E+02 -0.14737071986E+02  0.19453880039E+02  0.51100000000E-03 0.  1.
        -12    1    3    3    0    0 -0.37621086742E+01  0.18353885088E+01 -0.27454052611E+01  0.50059327505E+01  0.00000000000E+00 0.  1.
</event>
<event>
 7    1  0.9406864E-013  0.5052887E+02  0.7816164E-02  0.1300439E+00
        -11   -1    0    0    0    0  0.00000000000E+00  0.00000000000E+00  0.45593999997E+02  0.45594000000E+02  0.51100000000E-03 0. -1.
         11   -1    0    0    0    0 -0.00000000000E+00 -0.00000000000E+00 -0.45593999997E+02  0.45594000000E+02  0.51100000000E-03 0.  1.
    9900012    2    1    2    0    0 -0.38007167807E+02  0.14417597878E+02  0.86794075994E+00  0.50528865055E+02  0.30000015822E+02 0.  0.
        -12    1    1    2    0    0  0.38007167807E+02 -0.14417597878E+02 -0.86794075994E+00  0.40659134945E+02  0.00000000000E+00 0.  1.
         11    1    3    3    0    0  0.10383123511E+01  0.12032165407E+00  0.78129442103E+01  0.78825546198E+01  0.51100000000E-03 0. -1.
        -11    1    3    3    0    0 -0.12989992791E+02  0.18252348175E+01 -0.33352293084E+01  0.13534960275E+02  0.51100000000E-03 0.  1.
         12    1    3    3    0    0 -0.26055487368E+02  0.12472041407E+02 -0.36097741420E+01  0.29111350161E+02  0.00000000000E+00 0. -1.
</event>
<event>
 7    1  0.9406864E-013  0.5052886E+02  0.7816164E-02  0.1300439E+00
        -11   -1    0    0    0    0  0.00000000000E+00  0.00000000000E+00  0.45593999997E+02  0.45594000000E+02  0.51100000000E-03 0.  1.
         11   -1    0    0    0    0 -0.00000000000E+00 -0.00000000000E+00 -0.45593999997E+02  0.45594000000E+02  0.51100000000E-03 0. -1.
    9900012    2    1    2    0    0 -0.14756772977E+02 -0.11847588956E+02 -0.35986631624E+02  0.50528863654E+02  0.30000011564E+02 0.  0.
        -12    1    1    2    0    0  0.14756772977E+02  0.11847588956E+02  0.35986631624E+02  0.40659136346E+02  0.00000000000E+00 0.  1.
         11    1    3    3    0    0 -0.62056828813E+01 -0.19012734608E+02 -0.27505064402E+02  0.34007692443E+02  0.51100000000E-03 0. -1.
        -11    1    3    3    0    0 -0.35636380021E-01 -0.17943600342E+01 -0.13956499264E+01  0.22735076120E+01  0.51100000000E-03 0.  1.
         12    1    3    3    0    0 -0.85154537155E+01  0.89595056861E+01 -0.70859172954E+01  0.14247663599E+02  0.00000000000E+00 0. -1.
</event>
<event>
 7    1  0.9406864E-013  0.5052886E+02  0.7816164E-02  0.1300439E+00
        -11   -1    0    0    0    0  0.00000000000E+00  0.00000000000E+00  0.45593999997E+02  0.45594000000E+02  0.51100000000E-03 0. -1.
         11   -1    0    0    0    0 -0.00000000000E+00 -0.00000000000E+00 -0.45593999997E+02  0.45594000000E+02  0.51100000000E-03 0.  1.
    9900012    2    1    2    0    0 -0.24545900699E+02 -0.14875792578E+02 -0.28798875578E+02  0.50528859816E+02  0.29999999895E+02 0.  0.
        -12    1    1    2    0    0  0.24545900699E+02  0.14875792578E+02  0.28798875578E+02  0.40659140184E+02  0.00000000000E+00 0.  1.
         11    1    3    3    0    0 -0.45056327728E+01 -0.11402638105E+02 -0.63643518850E+01  0.13813973274E+02  0.51100000000E-03 0. -1.
        -11    1    3    3    0    0 -0.61678457858E+01  0.82883291549E+01 -0.48366370231E+01  0.11407531713E+02  0.51100000000E-03 0.  1.
        -12    1    3    3    0    0 -0.13872422141E+02 -0.11761483628E+02 -0.17597886670E+02  0.25307354829E+02  0.00000000000E+00 0.  1.
</event>
<event>
 7    1  0.9406864E-013  0.5052886E+02  0.7816164E-02  0.1300439E+00
        -11   -1    0    0    0    0  0.00000000000E+00  0.00000000000E+00  0.45593999997E+02  0.45594000000E+02  0.51100000000E-03 0.  1.
         11   -1    0    0    0    0 -0.00000000000E+00 -0.00000000000E+00 -0.45593999997E+02  0.45594000000E+02  0.51100000000E-03 0. -1.
    9900012    2    1    2    0    0 -0.28033723803E+02 -0.25959130627E+02  0.13906819487E+02  0.50528858821E+02  0.29999996872E+02 0.  0.
        -12    1    1    2    0    0  0.28033723803E+02  0.25959130627E+02 -0.13906819487E+02  0.40659141179E+02  0.00000000000E+00 0.  1.
         11    1    3    3    0    0 -0.22543513897E+02 -0.29349405274E+02  0.78003475484E+01  0.37821198169E+02  0.51100000000E-03 0. -1.
        -11    1    3    3    0    0  0.45001517893E+00  0.64244527998E+00  0.61125506617E+01  0.61626719410E+01  0.51100000000E-03 0.  1.
         12    1    3    3    0    0 -0.59402250843E+01  0.27478293668E+01 -0.60787229697E-02  0.65449887114E+01  0.00000000000E+00 0. -1.
</event>
<event>
 7    1  0.9406864E-013  0.5052896E+02  0.7816164E-02  0.1300438E+00
        -11   -1    0    0    0    0  0.00000000000E+00  0.00000000000E+00  0.45593999997E+02  0.45594000000E+02  0.51100000000E-03 0.  1.
         11   -1    0    0    0    0 -0.00000000000E+00 -0.00000000000E+00 -0.45593999997E+02  0.45594000000E+02  0.51100000000E-03 0. -1.
    9900012    2    1    2    0    0  0.99307896085E+00 -0.11227733109E+02 -0.39065452455E+02  0.50528957069E+02  0.30000295505E+02 0.  0.
        -12    1    1    2    0    0 -0.99307896085E+00  0.11227733109E+02  0.39065452455E+02  0.40659042931E+02  0.00000000000E+00 0.  1.
         11    1    3    3    0    0  0.81388773459E+01 -0.11047252172E+02 -0.14721101797E+02  0.20124461319E+02  0.51100000000E-03 0. -1.
        -11    1    3    3    0    0 -0.10283943884E+02 -0.52220052199E+01 -0.11669662865E+02  0.16407616279E+02  0.51100000000E-03 0.  1.
        -12    1    3    3    0    0  0.31381454989E+01  0.50415242831E+01 -0.12674687793E+02  0.13996879470E+02  0.00000000000E+00 0.  1.
</event>
<event>
 7    1  0.9406864E-013  0.5052887E+02  0.7816164E-02  0.1300439E+00
        -11   -1    0    0    0    0  0.00000000000E+00  0.00000000000E+00  0.45593999997E+02  0.45594000000E+02  0.51100000000E-03 0.  1.
         11   -1    0    0    0    0 -0.00000000000E+00 -0.00000000000E+00 -0.45593999997E+02  0.45594000000E+02  0.51100000000E-03 0. -1.
    9900012    2    1    2    0    0 -0.12305072485E+02  0.23514041351E+02 -0.30803239207E+02  0.50528874392E+02  0.30000044203E+02 0.  0.
        -12    1    1    2    0    0  0.12305072485E+02 -0.23514041351E+02  0.30803239207E+02  0.40659125608E+02  0.00000000000E+00 0.  1.
         11    1    3    3    0    0 -0.63111931405E+01  0.18867340950E+01 -0.94547547572E+01  0.11523164157E+02  0.51100000000E-03 0. -1.
        -11    1    3    3    0    0  0.91294608713E+01  0.62055887891E+01 -0.75861387183E+01  0.13394248353E+02  0.51100000000E-03 0.  1.
        -12    1    3    3    0    0 -0.15123340216E+02  0.15421718467E+02 -0.13762345732E+02  0.25611461883E+02  0.00000000000E+00 0.  1.
</event>
<event>
 7    1  0.9406864E-013  0.5052886E+02  0.7816164E-02  0.1300439E+00
        -11   -1    0    0    0    0  0.00000000000E+00  0.00000000000E+00  0.45593999997E+02  0.45594000000E+02  0.51100000000E-03 0.  1.
         11   -1    0    0    0    0 -0.00000000000E+00 -0.00000000000E+00 -0.45593999997E+02  0.45594000000E+02  0.51100000000E-03 0. -1.
    9900012    2    1    2    0    0  0.23267026956E+01 -0.15382686776E+01 -0.40563358681E+02  0.50528857320E+02  0.29999992311E+02 0.  0.
        -12    1    1    2    0    0 -0.23267026956E+01  0.15382686776E+01  0.40563358681E+02  0.40659142680E+02  0.00000000000E+00 0.  1.
         11    1    3    3    0    0  0.38766604772E+01  0.54683701160E+01 -0.10796564892E+02  0.12708162019E+02  0.51100000000E-03 0. -1.
        -11    1    3    3    0    0 -0.11480394072E+02 -0.65269082486E+01 -0.19290379248E+02  0.23377739650E+02  0.51100000000E-03 0.  1.
         12    1    3    3    0    0  0.99304362905E+01 -0.47973054496E+00 -0.10476414541E+02  0.14442955652E+02  0.00000000000E+00 0. -1.
</event>
<event>
 7    1  0.9406864E-013  0.5052886E+02  0.7816164E-02  0.1300439E+00
        -11   -1    0    0    0    0  0.00000000000E+00  0.00000000000E+00  0.45593999997E+02  0.45594000000E+02  0.51100000000E-03 0.  1.
         11   -1    0    0    0    0 -0.00000000000E+00 -0.00000000000E+00 -0.45593999997E+02  0.45594000000E+02  0.51100000000E-03 0. -1.
    9900012    2    1    2    0    0  0.16407104504E+01 -0.10445284084E+02 -0.39260283216E+02  0.50528859225E+02  0.29999998100E+02 0.  0.
        -12    1    1    2    0    0 -0.16407104504E+01  0.10445284084E+02  0.39260283216E+02  0.40659140775E+02  0.00000000000E+00 0.  1.
         11    1    3    3    0    0  0.13185549621E+02 -0.60800498150E+01 -0.11439263501E+02  0.18484655103E+02  0.51100000000E-03 0.  1.
        -11    1    3    3    0    0 -0.12633094020E+02 -0.35276340242E+01 -0.18824233439E+02  0.22943213183E+02  0.51100000000E-03 0. -1.
        -12    1    3    3    0    0  0.10882548488E+01 -0.83760024494E+00 -0.89967862756E+01  0.91009909392E+01  0.00000000000E+00 0.  1.
</event>
<event>
 7    1  0.9406864E-013  0.5052886E+02  0.7816164E-02  0.1300439E+00
        -11   -1    0    0    0    0  0.00000000000E+00  0.00000000000E+00  0.45593999997E+02  0.45594000000E+02  0.51100000000E-03 0. -1.
         11   -1    0    0    0    0 -0.00000000000E+00 -0.00000000000E+00 -0.45593999997E+02  0.45594000000E+02  0.51100000000E-03 0.  1.
    9900012    2    1    2    0    0 -0.18364891327E+02  0.23249339364E+02  0.27845368257E+02  0.50528861449E+02  0.30000004862E+02 0.  0.
        -12    1    1    2    0    0  0.18364891327E+02 -0.23249339364E+02 -0.27845368257E+02  0.40659138551E+02  0.00000000000E+00 0.  1.
         11    1    3    3    0    0 -0.35000271432E+00 -0.41275444915E+01  0.68146932246E+01  0.79749087416E+01  0.51100000000E-03 0.  1.
        -11    1    3    3    0    0 -0.91334281188E+01  0.22786773622E+02  0.21374806471E+02  0.32550559339E+02  0.51100000000E-03 0. -1.
        -12    1    3    3    0    0 -0.88814604938E+01  0.45901102330E+01 -0.34413143856E+00  0.10003393369E+02  0.00000000000E+00 0.  1.
</event>
<event>
 7    1  0.9406864E-013  0.5052886E+02  0.7816164E-02  0.1300439E+00
        -11   -1    0    0    0    0  0.00000000000E+00  0.00000000000E+00  0.45593999997E+02  0.45594000000E+02  0.51100000000E-03 0. -1.
         11   -1    0    0    0    0 -0.00000000000E+00 -0.00000000000E+00 -0.45593999997E+02  0.45594000000E+02  0.51100000000E-03 0.  1.
    9900012    2    1    2    0    0  0.13804558559E+02 -0.14287515116E+02  0.35474871208E+02  0.50528863113E+02  0.30000009918E+02 0.  0.
        -12    1    1    2    0    0 -0.13804558559E+02  0.14287515116E+02 -0.35474871208E+02  0.40659136887E+02  0.00000000000E+00 0.  1.
         11    1    3    3    0    0  0.10900164570E+02 -0.90148583815E+01  0.20413209476E+02  0.24835063532E+02  0.51100000000E-03 0. -1.
        -11    1    3    3    0    0 -0.11469644976E+00  0.58909261062E+01 -0.92350068488E+00  0.59639768142E+01  0.51100000000E-03 0.  1.
        -12    1    3    3    0    0  0.30190904393E+01 -0.11163582840E+02  0.15985162417E+02  0.19729822767E+02  0.00000000000E+00 0.  1.
</event>
<event>
 7    1  0.9406864E-013  0.5052883E+02  0.7816164E-02  0.1300439E+00
        -11   -1    0    0    0    0  0.00000000000E+00  0.00000000000E+00  0.45593999997E+02  0.45594000000E+02  0.51100000000E-03 0.  1.
         11   -1    0    0    0    0 -0.00000000000E+00 -0.00000000000E+00 -0.45593999997E+02  0.45594000000E+02  0.51100000000E-03 0. -1.
    9900012    2    1    2    0    0 -0.60742388360E+01 -0.23377794100E+02 -0.32707040316E+02  0.50528829809E+02  0.29999908687E+02 0.  0.
        -12    1    1    2    0    0  0.60742388360E+01  0.23377794100E+02  0.32707040316E+02  0.40659170191E+02  0.00000000000E+00 0.  1.
         11    1    3    3    0    0  0.25594287380E+01 -0.24974174602E+02 -0.27110534904E+02  0.36949170161E+02  0.51100000000E-03 0. -1.
        -11    1    3    3    0    0 -0.65189250391E+01  0.24553484822E+01 -0.77647035619E+01  0.10431478395E+02  0.51100000000E-03 0.  1.
        -12    1    3    3    0    0 -0.21147425349E+01 -0.85896797993E+00  0.21681981509E+01  0.31481812529E+01  0.00000000000E+00 0.  1.
</event>
<event>
 7    1  0.9406864E-013  0.5052883E+02  0.7816164E-02  0.1300439E+00
        -11   -1    0    0    0    0  0.00000000000E+00  0.00000000000E+00  0.45593999997E+02  0.45594000000E+02  0.51100000000E-03 0.  1.
         11   -1    0    0    0    0 -0.00000000000E+00 -0.00000000000E+00 -0.45593999997E+02  0.45594000000E+02  0.51100000000E-03 0. -1.
    9900012    2    1    2    0    0  0.50729906486E+01 -0.28339212955E+02 -0.28711000551E+02  0.50528834027E+02  0.29999921508E+02 0.  0.
        -12    1    1    2    0    0 -0.50729906486E+01  0.28339212955E+02  0.28711000551E+02  0.40659165973E+02  0.00000000000E+00 0.  1.
         11    1    3    3    0    0  0.93783208611E+00  0.14054581081E+01  0.25682387892E+01  0.30741978230E+01  0.51100000000E-03 0. -1.
        -11    1    3    3    0    0  0.40203381531E+00 -0.27913033720E+02 -0.17234893317E+02  0.32807630675E+02  0.51100000000E-03 0.  1.
         12    1    3    3    0    0  0.37331247471E+01 -0.18316373430E+01 -0.14044346023E+02  0.14647005529E+02  0.00000000000E+00 0. -1.
</event>
<event>
 7    1  0.9406864E-013  0.5052886E+02  0.7816164E-02  0.1300439E+00
        -11   -1    0    0    0    0  0.00000000000E+00  0.00000000000E+00  0.45593999997E+02  0.45594000000E+02  0.51100000000E-03 0.  1.
         11   -1    0    0    0    0 -0.00000000000E+00 -0.00000000000E+00 -0.45593999997E+02  0.45594000000E+02  0.51100000000E-03 0. -1.
    9900012    2    1    2    0    0  0.22319630923E+02  0.14018607480E+02 -0.30959298269E+02  0.50528862903E+02  0.30000009279E+02 0.  0.
        -12    1    1    2    0    0 -0.22319630923E+02 -0.14018607480E+02  0.30959298269E+02  0.40659137097E+02  0.00000000000E+00 0.  1.
         11    1    3    3    0    0  0.20084566788E+02  0.16874414921E+02 -0.19929828638E+02  0.32944404256E+02  0.51100000000E-03 0. -1.
        -11    1    3    3    0    0  0.17197643522E+01 -0.68805105837E+01 -0.15308838067E+01  0.72555234690E+01  0.51100000000E-03 0.  1.
        -12    1    3    3    0    0  0.51529978275E+00  0.40247031420E+01 -0.94985858244E+01  0.10328935178E+02  0.00000000000E+00 0.  1.
</event>
<event>
 7    1  0.9406864E-013  0.5052884E+02  0.7816164E-02  0.1300439E+00
        -11   -1    0    0    0    0  0.00000000000E+00  0.00000000000E+00  0.45593999997E+02  0.45594000000E+02  0.51100000000E-03 0.  1.
         11   -1    0    0    0    0 -0.00000000000E+00 -0.00000000000E+00 -0.45593999997E+02  0.45594000000E+02  0.51100000000E-03 0. -1.
    9900012    2    1    2    0    0  0.13326621474E+02 -0.20153787770E+02 -0.32701574530E+02  0.50528843859E+02  0.29999951393E+02 0.  0.
        -12    1    1    2    0    0 -0.13326621474E+02  0.20153787770E+02  0.32701574530E+02  0.40659156141E+02  0.00000000000E+00 0.  1.
         11    1    3    3    0    0 -0.23704092406E+00 -0.11151009248E+02  0.35640702709E+00  0.11159221383E+02  0.51100000000E-03 0. -1.
        -11    1    3    3    0    0  0.12442364668E+02 -0.26720852656E+01 -0.12533456874E+02  0.17861691400E+02  0.51100000000E-03 0.  1.
         12    1    3    3    0    0  0.11212977303E+01 -0.63306932572E+01 -0.20524524683E+02  0.21507931076E+02  0.00000000000E+00 0. -1.
</event>
<event>
 7    1  0.9406864E-013  0.5052886E+02  0.7816164E-02  0.1300439E+00
        -11   -1    0    0    0    0  0.00000000000E+00  0.00000000000E+00  0.45593999997E+02  0.45594000000E+02  0.51100000000E-03 0.  1.
         11   -1    0    0    0    0 -0.00000000000E+00 -0.00000000000E+00 -0.45593999997E+02  0.45594000000E+02  0.51100000000E-03 0. -1.
    9900012    2    1    2    0    0  0.24575145709E+02 -0.32389132859E+02  0.41471339091E+00  0.50528859562E+02  0.29999999126E+02 0.  0.
        -12    1    1    2    0    0 -0.24575145709E+02  0.32389132859E+02 -0.41471339091E+00  0.40659140438E+02  0.00000000000E+00 0.  1.
         11    1    3    3    0    0  0.14321312070E+02 -0.24952469534E+02 -0.10606891174E+02  0.30663200353E+02  0.51100000000E-03 0. -1.
        -11    1    3    3    0    0  0.98898823317E+01 -0.56980678003E+01  0.32129481102E+01  0.11857520188E+02  0.51100000000E-03 0.  1.
         12    1    3    3    0    0  0.36395130661E+00 -0.17385955246E+01  0.78086564549E+01  0.80081390212E+01  0.00000000000E+00 0. -1.
</event>
<event>
 7    1  0.9406864E-013  0.5052886E+02  0.7816164E-02  0.1300439E+00
        -11   -1    0    0    0    0  0.00000000000E+00  0.00000000000E+00  0.45593999997E+02  0.45594000000E+02  0.51100000000E-03 0. -1.
         11   -1    0    0    0    0 -0.00000000000E+00 -0.00000000000E+00 -0.45593999997E+02  0.45594000000E+02  0.51100000000E-03 0.  1.
    9900012    2    1    2    0    0  0.42175204972E+01  0.24190585449E+02  0.32406690226E+02  0.50528862344E+02  0.30000007582E+02 0.  0.
        -12    1    1    2    0    0 -0.42175204972E+01 -0.24190585449E+02 -0.32406690226E+02  0.40659137656E+02  0.00000000000E+00 0.  1.
         11    1    3    3    0    0  0.84071055909E+01  0.15117218769E+02  0.12903295647E+02  0.21580193848E+02  0.51100000000E-03 0. -1.
        -11    1    3    3    0    0 -0.42146177105E+00 -0.37630531628E+01  0.13965420125E+02  0.14469663392E+02  0.51100000000E-03 0.  1.
        -12    1    3    3    0    0 -0.37681233226E+01  0.12836419843E+02  0.55379744537E+01  0.14479005105E+02  0.00000000000E+00 0.  1.
</event>
<event>
 7    1  0.9406864E-013  0.5052884E+02  0.7816164E-02  0.1300439E+00
        -11   -1    0    0    0    0  0.00000000000E+00  0.00000000000E+00  0.45593999997E+02  0.45594000000E+02  0.51100000000E-03 0. -1.
         11   -1    0    0    0    0 -0.00000000000E+00 -0.00000000000E+00 -0.45593999997E+02  0.45594000000E+02  0.51100000000E-03 0.  1.
    9900012    2    1    2    0    0  0.10844032045E+02 -0.31073648540E+02  0.23874723324E+02  0.50528842626E+02  0.29999947646E+02 0.  0.
        -12    1    1    2    0    0 -0.10844032045E+02  0.31073648540E+02 -0.23874723324E+02  0.40659157374E+02  0.00000000000E+00 0.  1.
         11    1    3    3    0    0 -0.68771204156E+01 -0.19329713841E+02  0.69292320578E+01  0.21655181356E+02  0.51100000000E-03 0. -1.
        -11    1    3    3    0    0  0.52066209562E+01  0.33359263017E+00  0.10706181373E+01  0.53260125123E+01  0.51100000000E-03 0.  1.
         12    1    3    3    0    0  0.12514531505E+02 -0.12077527329E+02  0.15874873129E+02  0.23547648758E+02  0.00000000000E+00 0. -1.
</event>
<event>
 7    1  0.9406864E-013  0.5052880E+02  0.7816164E-02  0.1300439E+00
        -11   -1    0    0    0    0  0.00000000000E+00  0.00000000000E+00  0.45593999997E+02  0.45594000000E+02  0.51100000000E-03 0.  1.
         11   -1    0    0    0    0 -0.00000000000E+00 -0.00000000000E+00 -0.45593999997E+02  0.45594000000E+02  0.51100000000E-03 0. -1.
    9900012    2    1    2    0    0  0.24568673297E+02 -0.22003641977E+02 -0.23777946571E+02  0.50528797955E+02  0.29999811863E+02 0.  0.
        -12    1    1    2    0    0 -0.24568673297E+02  0.22003641977E+02  0.23777946571E+02  0.40659202045E+02  0.00000000000E+00 0.  1.
         11    1    3    3    0    0  0.23421664511E+02 -0.98999982188E+01 -0.27501601118E+01  0.25576311581E+02  0.51100000000E-03 0. -1.
        -11    1    3    3    0    0 -0.23222093843E+01 -0.46817570445E+01 -0.76239108823E+01  0.92431338220E+01  0.51100000000E-03 0.  1.
        -12    1    3    3    0    0  0.34692181698E+01 -0.74218867134E+01 -0.13403875577E+02  0.15709352551E+02  0.00000000000E+00 0.  1.
</event>
<event>
 7    1  0.9406864E-013  0.5052884E+02  0.7816164E-02  0.1300439E+00
        -11   -1    0    0    0    0  0.00000000000E+00  0.00000000000E+00  0.45593999997E+02  0.45594000000E+02  0.51100000000E-03 0.  1.
         11   -1    0    0    0    0 -0.00000000000E+00 -0.00000000000E+00 -0.45593999997E+02  0.45594000000E+02  0.51100000000E-03 0. -1.
    9900012    2    1    2    0    0 -0.13374568860E+02  0.21397794261E+02  0.31881385771E+02  0.50528838054E+02  0.29999933748E+02 0.  0.
        -12    1    1    2    0    0  0.13374568860E+02 -0.21397794261E+02 -0.31881385771E+02  0.40659161946E+02  0.00000000000E+00 0.  1.
         11    1    3    3    0    0 -0.65133398585E+01  0.87192289730E+01  0.14060514752E+02  0.17780512517E+02  0.51100000000E-03 0. -1.
        -11    1    3    3    0    0  0.65627457003E+01 -0.19501467719E+01  0.14113494499E+01  0.69903226742E+01  0.51100000000E-03 0.  1.
        -12    1    3    3    0    0 -0.13423974702E+02  0.14628712060E+02  0.16409521570E+02  0.25758002863E+02  0.00000000000E+00 0.  1.
</event>
<event>
 7    1  0.9406864E-013  0.5052886E+02  0.7816164E-02  0.1300439E+00
        -11   -1    0    0    0    0  0.00000000000E+00  0.00000000000E+00  0.45593999997E+02  0.45594000000E+02  0.51100000000E-03 0.  1.
         11   -1    0    0    0    0 -0.00000000000E+00 -0.00000000000E+00 -0.45593999997E+02  0.45594000000E+02  0.51100000000E-03 0. -1.
    9900012    2    1    2    0    0  0.35976184124E+02  0.18339927069E+02  0.47462735953E+01  0.50528857583E+02  0.29999993110E+02 0.  0.
        -12    1    1    2    0    0 -0.35976184124E+02 -0.18339927069E+02 -0.47462735953E+01  0.40659142417E+02  0.00000000000E+00 0.  1.
         11    1    3    3    0    0  0.24416003190E+02  0.92845578995E+01  0.10634039528E+02  0.28203315835E+02  0.51100000000E-03 0. -1.
        -11    1    3    3    0    0  0.90459022622E+01  0.11801482799E+02 -0.90786920778E+01  0.17421997420E+02  0.51100000000E-03 0.  1.
        -12    1    3    3    0    0  0.25142786717E+01 -0.27461136301E+01  0.31909261453E+01  0.49035443276E+01  0.00000000000E+00 0.  1.
</event>
<event>
 7    1  0.9406864E-013  0.5052886E+02  0.7816164E-02  0.1300439E+00
        -11   -1    0    0    0    0  0.00000000000E+00  0.00000000000E+00  0.45593999997E+02  0.45594000000E+02  0.51100000000E-03 0. -1.
         11   -1    0    0    0    0 -0.00000000000E+00 -0.00000000000E+00 -0.45593999997E+02  0.45594000000E+02  0.51100000000E-03 0.  1.
    9900012    2    1    2    0    0  0.32422373138E+02  0.21344306192E+02  0.12098583038E+02  0.50528863287E+02  0.30000010448E+02 0.  0.
        -12    1    1    2    0    0 -0.32422373138E+02 -0.21344306192E+02 -0.12098583038E+02  0.40659136713E+02  0.00000000000E+00 0.  1.
         11    1    3    3    0    0 -0.34962421371E-01  0.10316816341E+02  0.34014772390E+01  0.10863147309E+02  0.51100000000E-03 0. -1.
        -11    1    3    3    0    0  0.12557834417E+02 -0.34627341269E+01 -0.13120751125E+01  0.13092412850E+02  0.51100000000E-03 0.  1.
         12    1    3    3    0    0  0.19899501142E+02  0.14490223977E+02  0.10009180911E+02  0.26573303128E+02  0.00000000000E+00 0. -1.
</event>
<event>
 7    1  0.9406864E-013  0.5052886E+02  0.7816164E-02  0.1300439E+00
        -11   -1    0    0    0    0  0.00000000000E+00  0.00000000000E+00  0.45593999997E+02  0.45594000000E+02  0.51100000000E-03 0. -1.
         11   -1    0    0    0    0 -0.00000000000E+00 -0.00000000000E+00 -0.45593999997E+02  0.45594000000E+02  0.51100000000E-03 0.  1.
    9900012    2    1    2    0    0  0.23860257934E+02 -0.31387487379E+02  0.99337461305E+01  0.50528860992E+02  0.30000003473E+02 0.  0.
        -12    1    1    2    0    0 -0.23860257934E+02  0.31387487379E+02 -0.99337461305E+01  0.40659139008E+02  0.00000000000E+00 0.  1.
         11    1    3    3    0    0  0.20247449056E+02 -0.24696284452E+02  0.19063176962E+02  0.37192342964E+02  0.51100000000E-03 0. -1.
        -11    1    3    3    0    0  0.40540748675E+01 -0.20944436969E+01 -0.67336613378E+01  0.81341510131E+01  0.51100000000E-03 0.  1.
         12    1    3    3    0    0 -0.44126598987E+00 -0.45967592305E+01 -0.23957694935E+01  0.52023670154E+01  0.00000000000E+00 0. -1.
</event>
<event>
 7    1  0.9406864E-013  0.5052877E+02  0.7816164E-02  0.1300439E+00
        -11   -1    0    0    0    0  0.00000000000E+00  0.00000000000E+00  0.45593999997E+02  0.45594000000E+02  0.51100000000E-03 0.  1.
         11   -1    0    0    0    0 -0.00000000000E+00 -0.00000000000E+00 -0.45593999997E+02  0.45594000000E+02  0.51100000000E-03 0. -1.
    9900012    2    1    2    0    0 -0.26339363366E+02  0.35305868791E+01 -0.30772489645E+02  0.50528767036E+02  0.29999717882E+02 0.  0.
        -12    1    1    2    0    0  0.26339363366E+02 -0.35305868791E+01  0.30772489645E+02  0.40659232964E+02  0.00000000000E+00 0.  1.
         11    1    3    3    0    0 -0.10796128096E+02  0.35036047554E+01 -0.22462771882E+02  0.25167593230E+02  0.51100000000E-03 0. -1.
        -11    1    3    3    0    0 -0.20101516136E+01 -0.68420831631E+01  0.15039066858E+01  0.72881099814E+01  0.51100000000E-03 0.  1.
        -12    1    3    3    0    0 -0.13533083656E+02  0.68690652868E+01 -0.98136244496E+01  0.18073063824E+02  0.00000000000E+00 0.  1.
</event>
<event>
 7    1  0.9406864E-013  0.5052886E+02  0.7816164E-02  0.1300439E+00
        -11   -1    0    0    0    0  0.00000000000E+00  0.00000000000E+00  0.45593999997E+02  0.45594000000E+02  0.51100000000E-03 0.  1.
         11   -1    0    0    0    0 -0.00000000000E+00 -0.00000000000E+00 -0.45593999997E+02  0.45594000000E+02  0.51100000000E-03 0. -1.
    9900012    2    1    2    0    0 -0.23153558564E+02  0.30044135442E+02  0.14643374960E+02  0.50528858607E+02  0.29999996223E+02 0.  0.
        -12    1    1    2    0    0  0.23153558564E+02 -0.30044135442E+02 -0.14643374960E+02  0.40659141393E+02  0.00000000000E+00 0.  1.
         11    1    3    3    0    0  0.15752411774E+01  0.41772567862E+01  0.66159297068E+00  0.45131546113E+01  0.51100000000E-03 0. -1.
        -11    1    3    3    0    0 -0.28578509815E+02  0.22200333406E+02  0.63907775869E+01  0.36748170907E+02  0.51100000000E-03 0.  1.
        -12    1    3    3    0    0  0.38497100742E+01  0.36665452490E+01  0.75910044019E+01  0.92675330886E+01  0.00000000000E+00 0.  1.
</event>
<event>
 7    1  0.9406864E-013  0.5052885E+02  0.7816164E-02  0.1300439E+00
        -11   -1    0    0    0    0  0.00000000000E+00  0.00000000000E+00  0.45593999997E+02  0.45594000000E+02  0.51100000000E-03 0.  1.
         11   -1    0    0    0    0 -0.00000000000E+00 -0.00000000000E+00 -0.45593999997E+02  0.45594000000E+02  0.51100000000E-03 0. -1.
    9900012    2    1    2    0    0  0.10185752141E+02  0.15069662996E+02 -0.36363747695E+02  0.50528850527E+02  0.29999971661E+02 0.  0.
        -12    1    1    2    0    0 -0.10185752141E+02 -0.15069662996E+02  0.36363747695E+02  0.40659149473E+02  0.00000000000E+00 0.  1.
         11    1    3    3    0    0  0.13103355065E+02  0.13904146738E+02 -0.26398100969E+02  0.32586545468E+02  0.51100000000E-03 0. -1.
        -11    1    3    3    0    0 -0.78549930737E+01 -0.29663857600E+01 -0.46820759544E+01  0.96136463514E+01  0.51100000000E-03 0.  1.
        -12    1    3    3    0    0  0.49373901489E+01  0.41319020177E+01 -0.52835707712E+01  0.83286587072E+01  0.00000000000E+00 0.  1.
</event>
<event>
 7    1  0.9406864E-013  0.5052886E+02  0.7816164E-02  0.1300439E+00
        -11   -1    0    0    0    0  0.00000000000E+00  0.00000000000E+00  0.45593999997E+02  0.45594000000E+02  0.51100000000E-03 0.  1.
         11   -1    0    0    0    0 -0.00000000000E+00 -0.00000000000E+00 -0.45593999997E+02  0.45594000000E+02  0.51100000000E-03 0. -1.
    9900012    2    1    2    0    0 -0.12401687615E+02  0.38071182148E+02  0.70674583545E+01  0.50528859165E+02  0.29999997918E+02 0.  0.
        -12    1    1    2    0    0  0.12401687615E+02 -0.38071182148E+02 -0.70674583545E+01  0.40659140835E+02  0.00000000000E+00 0.  1.
         11    1    3    3    0    0 -0.89672699098E+01  0.35009853501E+02 -0.30632850814E+01  0.36269622103E+02  0.51100000000E-03 0. -1.
        -11    1    3    3    0    0 -0.48036781176E+00  0.22082365375E+01  0.10865398092E+02  0.11097924932E+02  0.51100000000E-03 0.  1.
         12    1    3    3    0    0 -0.29540498931E+01  0.85309210985E+00 -0.73465465602E+00  0.31613121298E+01  0.00000000000E+00 0. -1.
</event>
<event>
 7    1  0.9406864E-013  0.5052885E+02  0.7816164E-02  0.1300439E+00
        -11   -1    0    0    0    0  0.00000000000E+00  0.00000000000E+00  0.45593999997E+02  0.45594000000E+02  0.51100000000E-03 0. -1.
         11   -1    0    0    0    0 -0.00000000000E+00 -0.00000000000E+00 -0.45593999997E+02  0.45594000000E+02  0.51100000000E-03 0.  1.
    9900012    2    1    2    0    0  0.35165688941E+02 -0.10809061377E+02  0.17311988318E+02  0.50528850647E+02  0.29999972027E+02 0.  0.
        -12    1    1    2    0    0 -0.35165688941E+02  0.10809061377E+02 -0.17311988318E+02  0.40659149353E+02  0.00000000000E+00 0.  1.
         11    1    3    3    0    0  0.23240004328E+02  0.28068142984E+01  0.16397241975E+02  0.28580510008E+02  0.51100000000E-03 0. -1.
        -11    1    3    3    0    0 -0.24898504231E+01 -0.34573992046E+01 -0.30084658593E+00  0.42712379141E+01  0.51100000000E-03 0.  1.
         12    1    3    3    0    0  0.14415535036E+02 -0.10158476471E+02  0.12155929298E+01  0.17677102725E+02  0.00000000000E+00 0. -1.
</event>
<event>
 7    1  0.9406864E-013  0.5052885E+02  0.7816164E-02  0.1300439E+00
        -11   -1    0    0    0    0  0.00000000000E+00  0.00000000000E+00  0.45593999997E+02  0.45594000000E+02  0.51100000000E-03 0.  1.
         11   -1    0    0    0    0 -0.00000000000E+00 -0.00000000000E+00 -0.45593999997E+02  0.45594000000E+02  0.51100000000E-03 0. -1.
    9900012    2    1    2    0    0 -0.13797643195E+02 -0.31319621528E+02 -0.21951594396E+02  0.50528854080E+02  0.29999982463E+02 0.  0.
        -12    1    1    2    0    0  0.13797643195E+02  0.31319621528E+02  0.21951594396E+02  0.40659145920E+02  0.00000000000E+00 0.  1.
         11    1    3    3    0    0 -0.18872951870E+02 -0.21678261074E+02 -0.17464213745E+02  0.33632336782E+02  0.51100000000E-03 0. -1.
        -11    1    3    3    0    0  0.66478289206E+01 -0.56178964235E+00 -0.37478147165E+01  0.76521469125E+01  0.51100000000E-03 0.  1.
         12    1    3    3    0    0 -0.15725202462E+01 -0.90795708119E+01 -0.73956593404E+00  0.92443703855E+01  0.00000000000E+00 0. -1.
</event>
<event>
 7    1  0.9406864E-013  0.5052885E+02  0.7816164E-02  0.1300439E+00
        -11   -1    0    0    0    0  0.00000000000E+00  0.00000000000E+00  0.45593999997E+02  0.45594000000E+02  0.51100000000E-03 0. -1.
         11   -1    0    0    0    0 -0.00000000000E+00 -0.00000000000E+00 -0.45593999997E+02  0.45594000000E+02  0.51100000000E-03 0.  1.
    9900012    2    1    2    0    0  0.28982160780E+02  0.25826941820E+01  0.28399478422E+02  0.50528851862E+02  0.29999975719E+02 0.  0.
        -12    1    1    2    0    0 -0.28982160780E+02 -0.25826941820E+01 -0.28399478422E+02  0.40659148138E+02  0.00000000000E+00 0.  1.
         11    1    3    3    0    0  0.18913226308E+02  0.65406749225E+01  0.15872323835E+02  0.25542537502E+02  0.51100000000E-03 0. -1.
        -11    1    3    3    0    0  0.69141785934E+01 -0.93220870832E+01  0.14392977353E+02  0.18489590870E+02  0.51100000000E-03 0.  1.
        -12    1    3    3    0    0  0.31547558779E+01  0.53641063427E+01 -0.18658227666E+01  0.64967234896E+01  0.00000000000E+00 0.  1.
</event>
<event>
 7    1  0.9406864E-013  0.5052882E+02  0.7816164E-02  0.1300439E+00
        -11   -1    0    0    0    0  0.00000000000E+00  0.00000000000E+00  0.45593999997E+02  0.45594000000E+02  0.51100000000E-03 0.  1.
         11   -1    0    0    0    0 -0.00000000000E+00 -0.00000000000E+00 -0.45593999997E+02  0.45594000000E+02  0.51100000000E-03 0. -1.
    9900012    2    1    2    0    0 -0.13208071092E+02 -0.15887082295E+02 -0.35018800580E+02  0.50528819981E+02  0.29999878813E+02 0.  0.
        -12    1    1    2    0    0  0.13208071092E+02  0.15887082295E+02  0.35018800580E+02  0.40659180019E+02  0.00000000000E+00 0.  1.
         11    1    3    3    0    0 -0.15655570593E+02 -0.21884196794E+01 -0.25813441492E+02  0.30269123430E+02  0.51100000000E-03 0. -1.
        -11    1    3    3    0    0  0.35875823376E-02  0.39566711697E+00  0.20312768625E+01  0.20694567624E+01  0.51100000000E-03 0.  1.
         12    1    3    3    0    0  0.24439119195E+01 -0.14094329732E+02 -0.11236635950E+02  0.18190239788E+02  0.00000000000E+00 0. -1.
</event>
<event>
 7    1  0.9406864E-013  0.5052886E+02  0.7816164E-02  0.1300439E+00
        -11   -1    0    0    0    0  0.00000000000E+00  0.00000000000E+00  0.45593999997E+02  0.45594000000E+02  0.51100000000E-03 0. -1.
         11   -1    0    0    0    0 -0.00000000000E+00 -0.00000000000E+00 -0.45593999997E+02  0.45594000000E+02  0.51100000000E-03 0.  1.
    9900012    2    1    2    0    0 -0.92034971590E+00  0.18732157447E+02  0.36075272560E+02  0.50528855192E+02  0.29999985842E+02 0.  0.
        -12    1    1    2    0    0  0.92034971590E+00 -0.18732157447E+02 -0.36075272560E+02  0.40659144808E+02  0.00000000000E+00 0.  1.
         11    1    3    3    0    0 -0.20056810811E+01  0.23186406569E+02  0.27215534267E+02  0.35809461206E+02  0.51100000000E-03 0. -1.
        -11    1    3    3    0    0  0.46848574495E+01 -0.24387583562E+01  0.38709208798E+00  0.52957787140E+01  0.51100000000E-03 0.  1.
         12    1    3    3    0    0 -0.35995260843E+01 -0.20154907665E+01  0.84726462056E+01  0.94236152716E+01  0.00000000000E+00 0. -1.
</event>
<event>
 7    1  0.9406864E-013  0.5052886E+02  0.7816164E-02  0.1300439E+00
        -11   -1    0    0    0    0  0.00000000000E+00  0.00000000000E+00  0.45593999997E+02  0.45594000000E+02  0.51100000000E-03 0.  1.
         11   -1    0    0    0    0 -0.00000000000E+00 -0.00000000000E+00 -0.45593999997E+02  0.45594000000E+02  0.51100000000E-03 0. -1.
    9900012    2    1    2    0    0 -0.24170858050E+02  0.90720905726E+01 -0.31410702034E+02  0.50528863161E+02  0.30000010065E+02 0.  0.
        -12    1    1    2    0    0  0.24170858050E+02 -0.90720905726E+01  0.31410702034E+02  0.40659136839E+02  0.00000000000E+00 0.  1.
         11    1    3    3    0    0 -0.15476500874E+02  0.42821183697E+01 -0.85411584703E+01  0.18188183123E+02  0.51100000000E-03 0. -1.
        -11    1    3    3    0    0  0.58655693645E+00  0.11381907560E+02 -0.12845401546E+02  0.17172542325E+02  0.51100000000E-03 0.  1.
        -12    1    3    3    0    0 -0.92809141124E+01 -0.65919353574E+01 -0.10024142018E+02  0.15168137714E+02  0.00000000000E+00 0.  1.
</event>
<event>
 7    1  0.9406864E-013  0.5052888E+02  0.7816164E-02  0.1300439E+00
        -11   -1    0    0    0    0  0.00000000000E+00  0.00000000000E+00  0.45593999997E+02  0.45594000000E+02  0.51100000000E-03 0.  1.
         11   -1    0    0    0    0 -0.00000000000E+00 -0.00000000000E+00 -0.45593999997E+02  0.45594000000E+02  0.51100000000E-03 0. -1.
    9900012    2    1    2    0    0 -0.18700406342E+02 -0.24077341341E+02 -0.26902418043E+02  0.50528884664E+02  0.30000075424E+02 0.  0.
        -12    1    1    2    0    0  0.18700406342E+02  0.24077341341E+02  0.26902418043E+02  0.40659115336E+02  0.00000000000E+00 0.  1.
         11    1    3    3    0    0 -0.69418827990E+01 -0.10416779394E+02 -0.18319296416E+02  0.22187736505E+02  0.51100000000E-03 0. -1.
        -11    1    3    3    0    0 -0.34215444664E+01 -0.97591865895E+01  0.53489235116E+01  0.11643009595E+02  0.51100000000E-03 0.  1.
        -12    1    3    3    0    0 -0.83369790765E+01 -0.39013753571E+01 -0.13932045138E+02  0.16698138565E+02  0.00000000000E+00 0.  1.
</event>
<event>
 7    1  0.9406864E-013  0.5052890E+02  0.7816164E-02  0.1300439E+00
        -11   -1    0    0    0    0  0.00000000000E+00  0.00000000000E+00  0.45593999997E+02  0.45594000000E+02  0.51100000000E-03 0. -1.
         11   -1    0    0    0    0 -0.00000000000E+00 -0.00000000000E+00 -0.45593999997E+02  0.45594000000E+02  0.51100000000E-03 0.  1.
    9900012    2    1    2    0    0  0.22369202285E+01 -0.22409284556E+01  0.40535627239E+02  0.50528897107E+02  0.30000113245E+02 0.  0.
        -12    1    1    2    0    0 -0.22369202285E+01  0.22409284556E+01 -0.40535627239E+02  0.40659102893E+02  0.00000000000E+00 0.  1.
         11    1    3    3    0    0 -0.17523997499E+01 -0.10508825428E+02  0.27057414346E+02  0.29079373929E+02  0.51100000000E-03 0. -1.
        -11    1    3    3    0    0 -0.16065549324E+01  0.98250161719E+01  0.49162045459E+01  0.11103199040E+02  0.51100000000E-03 0.  1.
        -12    1    3    3    0    0  0.55958749108E+01 -0.15571191996E+01  0.85620083472E+01  0.10346324137E+02  0.00000000000E+00 0.  1.
</event>
<event>
 7    1  0.9406864E-013  0.5052886E+02  0.7816164E-02  0.1300439E+00
        -11   -1    0    0    0    0  0.00000000000E+00  0.00000000000E+00  0.45593999997E+02  0.45594000000E+02  0.51100000000E-03 0.  1.
         11   -1    0    0    0    0 -0.00000000000E+00 -0.00000000000E+00 -0.45593999997E+02  0.45594000000E+02  0.51100000000E-03 0. -1.
    9900012    2    1    2    0    0 -0.18138312671E+02 -0.21825194919E+02 -0.29117488816E+02  0.50528859887E+02  0.30000000111E+02 0.  0.
        -12    1    1    2    0    0  0.18138312671E+02  0.21825194919E+02  0.29117488816E+02  0.40659140113E+02  0.00000000000E+00 0.  1.
         11    1    3    3    0    0  0.18268989794E+01 -0.19809161353E+02 -0.13089437995E+02  0.23813311837E+02  0.51100000000E-03 0.  1.
        -11    1    3    3    0    0 -0.83446457268E+01  0.25267380679E+01 -0.83084571487E+01  0.12043586593E+02  0.51100000000E-03 0. -1.
        -12    1    3    3    0    0 -0.11620565924E+02 -0.45427716336E+01 -0.77195936730E+01  0.14671961456E+02  0.00000000000E+00 0.  1.
</event>
<event>
 7    1  0.9406864E-013  0.5052886E+02  0.7816164E-02  0.1300439E+00
        -11   -1    0    0    0    0  0.00000000000E+00  0.00000000000E+00  0.45593999997E+02  0.45594000000E+02  0.51100000000E-03 0.  1.
         11   -1    0    0    0    0 -0.00000000000E+00 -0.00000000000E+00 -0.45593999997E+02  0.45594000000E+02  0.51100000000E-03 0. -1.
    9900012    2    1    2    0    0 -0.13047559972E+01  0.40282432906E+02 -0.53655538306E+01  0.50528856416E+02  0.29999989562E+02 0.  0.
        -12    1    1    2    0    0  0.13047559972E+01 -0.40282432906E+02  0.53655538306E+01  0.40659143584E+02  0.00000000000E+00 0.  1.
         11    1    3    3    0    0 -0.21149425343E+01  0.34467434294E+02  0.35126217849E+01  0.34710452616E+02  0.51100000000E-03 0. -1.
        -11    1    3    3    0    0  0.17517911295E+00 -0.35664374622E+01 -0.34293809192E+01  0.49508400947E+01  0.51100000000E-03 0.  1.
         12    1    3    3    0    0  0.63500742406E+00  0.93814360745E+01 -0.54487946962E+01  0.10867563705E+02  0.00000000000E+00 0. -1.
</event>
<event>
 7    1  0.9406864E-013  0.5052886E+02  0.7816164E-02  0.1300439E+00
        -11   -1    0    0    0    0  0.00000000000E+00  0.00000000000E+00  0.45593999997E+02  0.45594000000E+02  0.51100000000E-03 0. -1.
         11   -1    0    0    0    0 -0.00000000000E+00 -0.00000000000E+00 -0.45593999997E+02  0.45594000000E+02  0.51100000000E-03 0.  1.
    9900012    2    1    2    0    0  0.38756689975E+02  0.78369194903E+01 -0.94692640394E+01  0.50528864663E+02  0.30000014629E+02 0.  0.
        -12    1    1    2    0    0 -0.38756689975E+02 -0.78369194903E+01  0.94692640394E+01  0.40659135337E+02  0.00000000000E+00 0.  1.
         11    1    3    3    0    0  0.15341768510E+02 -0.74187161809E+01 -0.44675169920E+01  0.17617205202E+02  0.51100000000E-03 0. -1.
        -11    1    3    3    0    0  0.16702205078E+02  0.13522263575E+02 -0.10636108569E+02  0.23977949712E+02  0.51100000000E-03 0.  1.
        -12    1    3    3    0    0  0.67127163869E+01  0.17333720959E+01  0.56343615214E+01  0.89337097483E+01  0.00000000000E+00 0.  1.
</event>
<event>
 7    1  0.9406864E-013  0.5052888E+02  0.7816164E-02  0.1300439E+00
        -11   -1    0    0    0    0  0.00000000000E+00  0.00000000000E+00  0.45593999997E+02  0.45594000000E+02  0.51100000000E-03 0.  1.
         11   -1    0    0    0    0 -0.00000000000E+00 -0.00000000000E+00 -0.45593999997E+02  0.45594000000E+02  0.51100000000E-03 0. -1.
    9900012    2    1    2    0    0  0.34901832929E+01 -0.17606858059E+01 -0.40470765446E+02  0.50528877411E+02  0.30000053379E+02 0.  0.
        -12    1    1    2    0    0 -0.34901832929E+01  0.17606858059E+01  0.40470765446E+02  0.40659122589E+02  0.00000000000E+00 0.  1.
         11    1    3    3    0    0 -0.60942543967E+01 -0.78436594048E+01 -0.16238807490E+02  0.19035803069E+02  0.51100000000E-03 0. -1.
        -11    1    3    3    0    0  0.93409397100E+01  0.10215154227E+02 -0.23522959082E+02  0.27293444905E+02  0.51100000000E-03 0.  1.
        -12    1    3    3    0    0  0.24349797960E+00 -0.41321806281E+01 -0.70899887395E+00  0.41996294376E+01  0.00000000000E+00 0.  1.
</event>
<event>
 7    1  0.9406864E-013  0.5052886E+02  0.7816164E-02  0.1300439E+00
        -11   -1    0    0    0    0  0.00000000000E+00  0.00000000000E+00  0.45593999997E+02  0.45594000000E+02  0.51100000000E-03 0.  1.
         11   -1    0    0    0    0 -0.00000000000E+00 -0.00000000000E+00 -0.45593999997E+02  0.45594000000E+02  0.51100000000E-03 0. -1.
    9900012    2    1    2    0    0  0.14320199035E+01  0.21000757241E+02 -0.34786251315E+02  0.50528858762E+02  0.29999996693E+02 0.  0.
        -12    1    1    2    0    0 -0.14320199035E+01 -0.21000757241E+02  0.34786251315E+02  0.40659141238E+02  0.00000000000E+00 0.  1.
         11    1    3    3    0    0  0.65856588946E+01  0.10617709366E+02 -0.30344438675E+02  0.32816026786E+02  0.51100000000E-03 0.  1.
        -11    1    3    3    0    0 -0.60033855485E+01  0.10814413334E+02 -0.75301147572E+01  0.14480842597E+02  0.51100000000E-03 0. -1.
        -12    1    3    3    0    0  0.84974655742E+00 -0.43136546012E+00  0.30883021178E+01  0.32319893786E+01  0.00000000000E+00 0.  1.
</event>
<event>
 7    1  0.9406864E-013  0.5052887E+02  0.7816164E-02  0.1300439E+00
        -11   -1    0    0    0    0  0.00000000000E+00  0.00000000000E+00  0.45593999997E+02  0.45594000000E+02  0.51100000000E-03 0.  1.
         11   -1    0    0    0    0 -0.00000000000E+00 -0.00000000000E+00 -0.45593999997E+02  0.45594000000E+02  0.51100000000E-03 0. -1.
    9900012    2    1    2    0    0  0.22153458512E+02 -0.23113687488E+01 -0.34015383479E+02  0.50528874791E+02  0.30000045416E+02 0.  0.
        -12    1    1    2    0    0 -0.22153458512E+02  0.23113687488E+01  0.34015383479E+02  0.40659125209E+02  0.00000000000E+00 0.  1.
         11    1    3    3    0    0  0.18678690103E+02  0.29278201207E+01 -0.14856923419E+02  0.24045660074E+02  0.51100000000E-03 0. -1.
        -11    1    3    3    0    0 -0.27316305429E+01 -0.52866707009E+00  0.23279163896E+01  0.36277388649E+01  0.51100000000E-03 0.  1.
         12    1    3    3    0    0  0.62063989519E+01 -0.47105217994E+01 -0.21486376449E+02  0.22855475853E+02  0.00000000000E+00 0. -1.
</event>
<event>
 7    1  0.9406864E-013  0.5052888E+02  0.7816164E-02  0.1300439E+00
        -11   -1    0    0    0    0  0.00000000000E+00  0.00000000000E+00  0.45593999997E+02  0.45594000000E+02  0.51100000000E-03 0.  1.
         11   -1    0    0    0    0 -0.00000000000E+00 -0.00000000000E+00 -0.45593999997E+02  0.45594000000E+02  0.51100000000E-03 0. -1.
    9900012    2    1    2    0    0  0.11413815936E+02 -0.33332554472E+02 -0.20293594150E+02  0.50528876235E+02  0.30000049803E+02 0.  0.
        -12    1    1    2    0    0 -0.11413815936E+02  0.33332554472E+02  0.20293594150E+02  0.40659123765E+02  0.00000000000E+00 0.  1.
         11    1    3    3    0    0  0.17350299192E+02 -0.25453762200E+02 -0.20836348653E+02  0.37189787814E+02  0.51100000000E-03 0. -1.
        -11    1    3    3    0    0 -0.24109981074E+01  0.12957361359E+01  0.20177239010E+01  0.34004490894E+01  0.51100000000E-03 0.  1.
         12    1    3    3    0    0 -0.35254851480E+01 -0.91745284077E+01 -0.14749693978E+01  0.99386393312E+01  0.00000000000E+00 0. -1.
</event>
<event>
 7    1  0.9406864E-013  0.5052886E+02  0.7816164E-02  0.1300439E+00
        -11   -1    0    0    0    0  0.00000000000E+00  0.00000000000E+00  0.45593999997E+02  0.45594000000E+02  0.51100000000E-03 0.  1.
         11   -1    0    0    0    0 -0.00000000000E+00 -0.00000000000E+00 -0.45593999997E+02  0.45594000000E+02  0.51100000000E-03 0. -1.
    9900012    2    1    2    0    0 -0.23938707872E+01  0.21082374189E+02 -0.34683833756E+02  0.50528862739E+02  0.30000008782E+02 0.  0.
        -12    1    1    2    0    0  0.23938707872E+01 -0.21082374189E+02  0.34683833756E+02  0.40659137261E+02  0.00000000000E+00 0.  1.
         11    1    3    3    0    0  0.69817968861E+01  0.16848033638E+01 -0.10807451422E+02  0.12976326777E+02  0.51100000000E-03 0. -1.
        -11    1    3    3    0    0 -0.10870857625E+02  0.22232694752E+02 -0.17174452410E+02  0.30123580088E+02  0.51100000000E-03 0.  1.
        -12    1    3    3    0    0  0.14951899516E+01 -0.28351239273E+01 -0.67019299236E+01  0.74289558739E+01  0.00000000000E+00 0.  1.
</event>
<event>
 7    1  0.9406864E-013  0.5052886E+02  0.7816164E-02  0.1300439E+00
        -11   -1    0    0    0    0  0.00000000000E+00  0.00000000000E+00  0.45593999997E+02  0.45594000000E+02  0.51100000000E-03 0. -1.
         11   -1    0    0    0    0 -0.00000000000E+00 -0.00000000000E+00 -0.45593999997E+02  0.45594000000E+02  0.51100000000E-03 0.  1.
    9900012    2    1    2    0    0 -0.16444013603E+02 -0.18184463903E+02  0.32435864483E+02  0.50528860615E+02  0.30000002324E+02 0.  0.
        -12    1    1    2    0    0  0.16444013603E+02  0.18184463903E+02 -0.32435864483E+02  0.40659139385E+02  0.00000000000E+00 0.  1.
         11    1    3    3    0    0 -0.43227567685E+00 -0.29350337669E+01  0.12644429654E+02  0.12987797620E+02  0.51100000000E-03 0. -1.
        -11    1    3    3    0    0 -0.13572947549E+02 -0.74566878757E+01 -0.67995613053E+00  0.15501272201E+02  0.51100000000E-03 0.  1.
        -12    1    3    3    0    0 -0.24387903774E+01 -0.77927422603E+01  0.20471390959E+02  0.22039790794E+02  0.00000000000E+00 0.  1.
</event>
<event>
 7    1  0.9406864E-013  0.5052886E+02  0.7816164E-02  0.1300439E+00
        -11   -1    0    0    0    0  0.00000000000E+00  0.00000000000E+00  0.45593999997E+02  0.45594000000E+02  0.51100000000E-03 0.  1.
         11   -1    0    0    0    0 -0.00000000000E+00 -0.00000000000E+00 -0.45593999997E+02  0.45594000000E+02  0.51100000000E-03 0. -1.
    9900012    2    1    2    0    0 -0.28777218451E+02 -0.13942226534E+02 -0.25112782738E+02  0.50528857863E+02  0.29999993960E+02 0.  0.
        -12    1    1    2    0    0  0.28777218451E+02  0.13942226534E+02  0.25112782738E+02  0.40659142137E+02  0.00000000000E+00 0.  1.
         11    1    3    3    0    0 -0.57401698912E+01  0.51024450138E+00 -0.29366133086E+01  0.64678897499E+01  0.51100000000E-03 0. -1.
        -11    1    3    3    0    0 -0.19609514213E+02 -0.15240261881E+02 -0.27894075075E+02  0.37348066275E+02  0.51100000000E-03 0.  1.
        -12    1    3    3    0    0 -0.34275343467E+01  0.78779084639E+00  0.57179056459E+01  0.67129018384E+01  0.00000000000E+00 0.  1.
</event>
<event>
 7    1  0.9406864E-013  0.5052887E+02  0.7816164E-02  0.1300439E+00
        -11   -1    0    0    0    0  0.00000000000E+00  0.00000000000E+00  0.45593999997E+02  0.45594000000E+02  0.51100000000E-03 0. -1.
         11   -1    0    0    0    0 -0.00000000000E+00 -0.00000000000E+00 -0.45593999997E+02  0.45594000000E+02  0.51100000000E-03 0.  1.
    9900012    2    1    2    0    0  0.41921192612E+00  0.64910072413E+01  0.40135474402E+02  0.50528865489E+02  0.30000017142E+02 0.  0.
        -12    1    1    2    0    0 -0.41921192612E+00 -0.64910072413E+01 -0.40135474402E+02  0.40659134511E+02  0.00000000000E+00 0.  1.
         11    1    3    3    0    0 -0.30937528385E+01 -0.10186175931E+02  0.17032802467E+02  0.20085961437E+02  0.51100000000E-03 0. -1.
        -11    1    3    3    0    0 -0.18807452206E+01  0.13017936781E+02  0.13601687094E+02  0.18921146178E+02  0.51100000000E-03 0.  1.
         12    1    3    3    0    0  0.53937099852E+01  0.36592463917E+01  0.95009848413E+01  0.11521757874E+02  0.00000000000E+00 0. -1.
</event>
<event>
 7    1  0.9406864E-013  0.5052887E+02  0.7816164E-02  0.1300439E+00
        -11   -1    0    0    0    0  0.00000000000E+00  0.00000000000E+00  0.45593999997E+02  0.45594000000E+02  0.51100000000E-03 0.  1.
         11   -1    0    0    0    0 -0.00000000000E+00 -0.00000000000E+00 -0.45593999997E+02  0.45594000000E+02  0.51100000000E-03 0. -1.
    9900012    2    1    2    0    0 -0.58306459420E+01 -0.31271138766E+02 -0.25323596365E+02  0.50528867144E+02  0.30000022169E+02 0.  0.
        -12    1    1    2    0    0  0.58306459420E+01  0.31271138766E+02  0.25323596365E+02  0.40659132856E+02  0.00000000000E+00 0.  1.
         11    1    3    3    0    0  0.49830437698E+01 -0.19811778804E+02 -0.59135220017E+01  0.21267511545E+02  0.51100000000E-03 0.  1.
        -11    1    3    3    0    0 -0.29078692055E+01 -0.16227436274E+01 -0.15783186931E+02  0.16130653743E+02  0.51100000000E-03 0. -1.
        -12    1    3    3    0    0 -0.79058205063E+01 -0.98366163340E+01 -0.36268874317E+01  0.13130701856E+02  0.00000000000E+00 0.  1.
</event>
<event>
 7    1  0.9406864E-013  0.5052886E+02  0.7816164E-02  0.1300439E+00
        -11   -1    0    0    0    0  0.00000000000E+00  0.00000000000E+00  0.45593999997E+02  0.45594000000E+02  0.51100000000E-03 0.  1.
         11   -1    0    0    0    0 -0.00000000000E+00 -0.00000000000E+00 -0.45593999997E+02  0.45594000000E+02  0.51100000000E-03 0. -1.
    9900012    2    1    2    0    0  0.23095121105E+02 -0.11904919387E+02 -0.31273850612E+02  0.50528862571E+02  0.30000008269E+02 0.  0.
        -12    1    1    2    0    0 -0.23095121105E+02  0.11904919387E+02  0.31273850612E+02  0.40659137429E+02  0.00000000000E+00 0.  1.
         11    1    3    3    0    0  0.15206646098E+02  0.66659497388E+01 -0.22882539331E+02  0.28271674481E+02  0.51100000000E-03 0. -1.
        -11    1    3    3    0    0  0.26970035606E+01 -0.83172382376E+01 -0.57493138985E+01  0.10464458451E+02  0.51100000000E-03 0.  1.
         12    1    3    3    0    0  0.51914714459E+01 -0.10253630888E+02 -0.26419973819E+01  0.11792729638E+02  0.00000000000E+00 0. -1.
</event>
<event>
 7    1  0.9406864E-013  0.5052883E+02  0.7816164E-02  0.1300439E+00
        -11   -1    0    0    0    0  0.00000000000E+00  0.00000000000E+00  0.45593999997E+02  0.45594000000E+02  0.51100000000E-03 0.  1.
         11   -1    0    0    0    0 -0.00000000000E+00 -0.00000000000E+00 -0.45593999997E+02  0.45594000000E+02  0.51100000000E-03 0. -1.
    9900012    2    1    2    0    0  0.20018680688E+02  0.84729982833E+01 -0.34360279486E+02  0.50528830275E+02  0.29999910103E+02 0.  0.
        -12    1    1    2    0    0 -0.20018680688E+02 -0.84729982833E+01  0.34360279486E+02  0.40659169725E+02  0.00000000000E+00 0.  1.
         11    1    3    3    0    0  0.14474287449E+02  0.13382589359E+02 -0.24190987934E+02  0.31205810237E+02  0.51100000000E-03 0. -1.
        -11    1    3    3    0    0  0.90754623900E+01 -0.46005320721E+01 -0.19336993132E+01  0.10357031729E+02  0.51100000000E-03 0.  1.
         12    1    3    3    0    0 -0.35310691510E+01 -0.30905900346E+00 -0.82355922393E+01  0.89659883085E+01  0.00000000000E+00 0. -1.
</event>
<event>
 7    1  0.9406864E-013  0.5052886E+02  0.7816164E-02  0.1300439E+00
        -11   -1    0    0    0    0  0.00000000000E+00  0.00000000000E+00  0.45593999997E+02  0.45594000000E+02  0.51100000000E-03 0.  1.
         11   -1    0    0    0    0 -0.00000000000E+00 -0.00000000000E+00 -0.45593999997E+02  0.45594000000E+02  0.51100000000E-03 0. -1.
    9900012    2    1    2    0    0  0.25969581469E+02 -0.29007129980E+02 -0.11718926850E+02  0.50528855913E+02  0.29999988034E+02 0.  0.
        -12    1    1    2    0    0 -0.25969581469E+02  0.29007129980E+02  0.11718926850E+02  0.40659144087E+02  0.00000000000E+00 0.  1.
         11    1    3    3    0    0  0.21062464810E+01 -0.46874354943E+01 -0.37030904949E+01  0.63341301871E+01  0.51100000000E-03 0. -1.
        -11    1    3    3    0    0 -0.57972816640E+01 -0.45042526651E+01 -0.38264110727E+01  0.82787794222E+01  0.51100000000E-03 0.  1.
        -12    1    3    3    0    0  0.29660616652E+02 -0.19815441821E+02 -0.41894252819E+01  0.35915946304E+02  0.00000000000E+00 0.  1.
</event>
<event>
 7    1  0.9406864E-013  0.5052885E+02  0.7816164E-02  0.1300439E+00
        -11   -1    0    0    0    0  0.00000000000E+00  0.00000000000E+00  0.45593999997E+02  0.45594000000E+02  0.51100000000E-03 0.  1.
         11   -1    0    0    0    0 -0.00000000000E+00 -0.00000000000E+00 -0.45593999997E+02  0.45594000000E+02  0.51100000000E-03 0. -1.
    9900012    2    1    2    0    0 -0.21546268988E+02  0.15770668085E+02 -0.30662863624E+02  0.50528845007E+02  0.29999954882E+02 0.  0.
        -12    1    1    2    0    0  0.21546268988E+02 -0.15770668085E+02  0.30662863624E+02  0.40659154993E+02  0.00000000000E+00 0.  1.
         11    1    3    3    0    0  0.28450038612E+01  0.50767518362E+01 -0.16898251603E+02  0.17872279197E+02  0.51100000000E-03 0. -1.
        -11    1    3    3    0    0 -0.13212700943E+02 -0.24791639507E+00 -0.26777352912E+01  0.13483589853E+02  0.51100000000E-03 0.  1.
        -12    1    3    3    0    0 -0.11178571906E+02  0.10941832644E+02 -0.11086876730E+02  0.19172975958E+02  0.00000000000E+00 0.  1.
</event>
<event>
 7    1  0.9406864E-013  0.5052886E+02  0.7816164E-02  0.1300439E+00
        -11   -1    0    0    0    0  0.00000000000E+00  0.00000000000E+00  0.45593999997E+02  0.45594000000E+02  0.51100000000E-03 0.  1.
         11   -1    0    0    0    0 -0.00000000000E+00 -0.00000000000E+00 -0.45593999997E+02  0.45594000000E+02  0.51100000000E-03 0. -1.
    9900012    2    1    2    0    0  0.33287544903E+01  0.27020448776E+02 -0.30199010426E+02  0.50528862168E+02  0.30000007046E+02 0.  0.
        -12    1    1    2    0    0 -0.33287544903E+01 -0.27020448776E+02  0.30199010426E+02  0.40659137832E+02  0.00000000000E+00 0.  1.
         11    1    3    3    0    0  0.62144473552E-01  0.74044409483E+01 -0.15349415055E+02  0.17042128696E+02  0.51100000000E-03 0. -1.
        -11    1    3    3    0    0  0.76977635172E+01 -0.12615498491E+01 -0.59823717830E+00  0.78233598390E+01  0.51100000000E-03 0.  1.
        -12    1    3    3    0    0 -0.44311535004E+01  0.20877557677E+02 -0.14251358193E+02  0.25663373633E+02  0.00000000000E+00 0.  1.
</event>
<event>
 7    1  0.9406864E-013  0.5052885E+02  0.7816164E-02  0.1300439E+00
        -11   -1    0    0    0    0  0.00000000000E+00  0.00000000000E+00  0.45593999997E+02  0.45594000000E+02  0.51100000000E-03 0. -1.
         11   -1    0    0    0    0 -0.00000000000E+00 -0.00000000000E+00 -0.45593999997E+02  0.45594000000E+02  0.51100000000E-03 0.  1.
    9900012    2    1    2    0    0  0.18203199846E+01 -0.33589407544E+02  0.22838660044E+02  0.50528852731E+02  0.29999978363E+02 0.  0.
        -12    1    1    2    0    0 -0.18203199846E+01  0.33589407544E+02 -0.22838660044E+02  0.40659147269E+02  0.00000000000E+00 0.  1.
         11    1    3    3    0    0 -0.32981551253E+01 -0.10002095821E+02  0.10414124527E+02  0.14811270639E+02  0.51100000000E-03 0. -1.
        -11    1    3    3    0    0  0.14358662089E+02 -0.15572270291E+02  0.90061869011E+01  0.23016910778E+02  0.51100000000E-03 0.  1.
        -12    1    3    3    0    0 -0.92401869790E+01 -0.80150414319E+01  0.34183486162E+01  0.12700671314E+02  0.00000000000E+00 0.  1.
</event>
<event>
 7    1  0.9406864E-013  0.5052887E+02  0.7816164E-02  0.1300439E+00
        -11   -1    0    0    0    0  0.00000000000E+00  0.00000000000E+00  0.45593999997E+02  0.45594000000E+02  0.51100000000E-03 0.  1.
         11   -1    0    0    0    0 -0.00000000000E+00 -0.00000000000E+00 -0.45593999997E+02  0.45594000000E+02  0.51100000000E-03 0. -1.
    9900012    2    1    2    0    0 -0.26665868874E+02 -0.30603423009E+02 -0.23508861486E+01  0.50528871525E+02  0.30000035487E+02 0.  0.
        -12    1    1    2    0    0  0.26665868874E+02  0.30603423009E+02  0.23508861486E+01  0.40659128475E+02  0.00000000000E+00 0.  1.
         11    1    3    3    0    0 -0.11824527482E+02 -0.10212300694E+02 -0.12810977726E+02  0.20204744150E+02  0.51100000000E-03 0. -1.
        -11    1    3    3    0    0 -0.77944512388E+01 -0.14865327509E+02  0.30914629247E+00  0.16787703945E+02  0.51100000000E-03 0.  1.
         12    1    3    3    0    0 -0.70468901539E+01 -0.55257948058E+01  0.10150945285E+02  0.13536423429E+02  0.00000000000E+00 0. -1.
</event>
<event>
 7    1  0.9406864E-013  0.5052886E+02  0.7816164E-02  0.1300439E+00
        -11   -1    0    0    0    0  0.00000000000E+00  0.00000000000E+00  0.45593999997E+02  0.45594000000E+02  0.51100000000E-03 0.  1.
         11   -1    0    0    0    0 -0.00000000000E+00 -0.00000000000E+00 -0.45593999997E+02  0.45594000000E+02  0.51100000000E-03 0. -1.
    9900012    2    1    2    0    0  0.33927070393E+02  0.20651175292E+02 -0.86976383229E+01  0.50528855164E+02  0.29999985756E+02 0.  0.
        -12    1    1    2    0    0 -0.33927070393E+02 -0.20651175292E+02  0.86976383229E+01  0.40659144836E+02  0.00000000000E+00 0.  1.
         11    1    3    3    0    0  0.95346130406E+01 -0.71987977172E+01 -0.36031801882E+01  0.12478559297E+02  0.51100000000E-03 0. -1.
        -11    1    3    3    0    0  0.13733491989E+02  0.11637878811E+02 -0.43506817648E-01  0.18001414348E+02  0.51100000000E-03 0.  1.
         12    1    3    3    0    0  0.10658965364E+02  0.16212094199E+02 -0.50509513170E+01  0.20048881519E+02  0.00000000000E+00 0. -1.
</event>
<event>
 7    1  0.9406864E-013  0.5052886E+02  0.7816164E-02  0.1300439E+00
        -11   -1    0    0    0    0  0.00000000000E+00  0.00000000000E+00  0.45593999997E+02  0.45594000000E+02  0.51100000000E-03 0.  1.
         11   -1    0    0    0    0 -0.00000000000E+00 -0.00000000000E+00 -0.45593999997E+02  0.45594000000E+02  0.51100000000E-03 0. -1.
    9900012    2    1    2    0    0 -0.19002197770E+02  0.19951915407E+02 -0.29899881672E+02  0.50528863604E+02  0.30000011411E+02 0.  0.
        -12    1    1    2    0    0  0.19002197770E+02 -0.19951915407E+02  0.29899881672E+02  0.40659136396E+02  0.00000000000E+00 0.  1.
         11    1    3    3    0    0 -0.53964054979E+01  0.10572244415E+02 -0.13487988162E+02  0.17967174769E+02  0.51100000000E-03 0. -1.
        -11    1    3    3    0    0  0.38983353634E+01 -0.30585225663E+01  0.82859553488E+00  0.50237585248E+01  0.51100000000E-03 0.  1.
        -12    1    3    3    0    0 -0.17504127635E+02  0.12438193558E+02 -0.17240489045E+02  0.27537930310E+02  0.00000000000E+00 0.  1.
</event>
<event>
 7    1  0.9406864E-013  0.5052886E+02  0.7816164E-02  0.1300439E+00
        -11   -1    0    0    0    0  0.00000000000E+00  0.00000000000E+00  0.45593999997E+02  0.45594000000E+02  0.51100000000E-03 0. -1.
         11   -1    0    0    0    0 -0.00000000000E+00 -0.00000000000E+00 -0.45593999997E+02  0.45594000000E+02  0.51100000000E-03 0.  1.
    9900012    2    1    2    0    0 -0.38771967459E+02 -0.11433652949E+02 -0.43785336932E+01  0.50528862802E+02  0.30000008972E+02 0.  0.
        -12    1    1    2    0    0  0.38771967459E+02  0.11433652949E+02  0.43785336932E+01  0.40659137198E+02  0.00000000000E+00 0.  1.
         11    1    3    3    0    0 -0.17783987565E+02  0.17600345342E+01  0.79632560894E+01  0.19564799592E+02  0.51100000000E-03 0. -1.
        -11    1    3    3    0    0  0.13457290125E+01 -0.22166938082E+01 -0.39043798426E+01  0.46870993408E+01  0.51100000000E-03 0.  1.
         12    1    3    3    0    0 -0.22333708907E+02 -0.10976993676E+02 -0.84374099400E+01  0.26276963869E+02  0.00000000000E+00 0. -1.
</event>
<event>
 7    1  0.9406864E-013  0.5052886E+02  0.7816164E-02  0.1300439E+00
        -11   -1    0    0    0    0  0.00000000000E+00  0.00000000000E+00  0.45593999997E+02  0.45594000000E+02  0.51100000000E-03 0.  1.
         11   -1    0    0    0    0 -0.00000000000E+00 -0.00000000000E+00 -0.45593999997E+02  0.45594000000E+02  0.51100000000E-03 0. -1.
    9900012    2    1    2    0    0 -0.16320233206E+02 -0.82560915353E+01 -0.36313262188E+02  0.50528855025E+02  0.29999985335E+02 0.  0.
        -12    1    1    2    0    0  0.16320233206E+02  0.82560915353E+01  0.36313262188E+02  0.40659144975E+02  0.00000000000E+00 0.  1.
         11    1    3    3    0    0 -0.10783725354E+02 -0.90105990228E+01 -0.32777150824E+02  0.35662602873E+02  0.51100000000E-03 0. -1.
        -11    1    3    3    0    0 -0.85326943022E+01  0.20237315341E+01  0.14737880181E+01  0.88923794768E+01  0.51100000000E-03 0.  1.
        -12    1    3    3    0    0  0.29961864508E+01 -0.12692240465E+01 -0.50098993821E+01  0.59738726758E+01  0.00000000000E+00 0.  1.
</event>
<event>
 7    1  0.9406864E-013  0.5052886E+02  0.7816164E-02  0.1300439E+00
        -11   -1    0    0    0    0  0.00000000000E+00  0.00000000000E+00  0.45593999997E+02  0.45594000000E+02  0.51100000000E-03 0. -1.
         11   -1    0    0    0    0 -0.00000000000E+00 -0.00000000000E+00 -0.45593999997E+02  0.45594000000E+02  0.51100000000E-03 0.  1.
    9900012    2    1    2    0    0  0.18880722401E+02  0.32083061954E+02  0.16351182009E+02  0.50528859628E+02  0.29999999324E+02 0.  0.
        -12    1    1    2    0    0 -0.18880722401E+02 -0.32083061954E+02 -0.16351182009E+02  0.40659140372E+02  0.00000000000E+00 0.  1.
         11    1    3    3    0    0  0.17238965249E+02  0.12465149037E+02  0.18779462616E+02  0.28376576252E+02  0.51100000000E-03 0. -1.
        -11    1    3    3    0    0  0.41702746856E+01  0.17185589804E+02  0.33305197122E+00  0.17687470473E+02  0.51100000000E-03 0.  1.
         12    1    3    3    0    0 -0.25285175333E+01  0.24323231126E+01 -0.27613325790E+01  0.44648129022E+01  0.00000000000E+00 0. -1.
</event>
<event>
 7    1  0.9406864E-013  0.5052887E+02  0.7816164E-02  0.1300439E+00
        -11   -1    0    0    0    0  0.00000000000E+00  0.00000000000E+00  0.45593999997E+02  0.45594000000E+02  0.51100000000E-03 0.  1.
         11   -1    0    0    0    0 -0.00000000000E+00 -0.00000000000E+00 -0.45593999997E+02  0.45594000000E+02  0.51100000000E-03 0. -1.
    9900012    2    1    2    0    0  0.39305309910E+01 -0.14812019595E+02 -0.37660587500E+02  0.50528870039E+02  0.30000030969E+02 0.  0.
        -12    1    1    2    0    0 -0.39305309910E+01  0.14812019595E+02  0.37660587500E+02  0.40659129961E+02  0.00000000000E+00 0.  1.
         11    1    3    3    0    0  0.34855014558E+01 -0.20749820958E+01 -0.22302934877E+01  0.46290906665E+01  0.51100000000E-03 0. -1.
        -11    1    3    3    0    0 -0.80268910644E+01  0.40471830598E+01 -0.18632484149E+02  0.20687680796E+02  0.51100000000E-03 0.  1.
        -12    1    3    3    0    0  0.84719205996E+01 -0.16784220559E+02 -0.16797809864E+02  0.25212098576E+02  0.00000000000E+00 0.  1.
</event>
<event>
 7    1  0.9406864E-013  0.5052886E+02  0.7816164E-02  0.1300439E+00
        -11   -1    0    0    0    0  0.00000000000E+00  0.00000000000E+00  0.45593999997E+02  0.45594000000E+02  0.51100000000E-03 0. -1.
         11   -1    0    0    0    0 -0.00000000000E+00 -0.00000000000E+00 -0.45593999997E+02  0.45594000000E+02  0.51100000000E-03 0.  1.
    9900012    2    1    2    0    0  0.77962739418E+01  0.39728580636E+02  0.37448051669E+01  0.50528861145E+02  0.30000003936E+02 0.  0.
        -12    1    1    2    0    0 -0.77962739418E+01 -0.39728580636E+02 -0.37448051669E+01  0.40659138855E+02  0.00000000000E+00 0.  1.
         11    1    3    3    0    0 -0.28978139112E+01  0.11050494081E+02  0.79482323460E+00  0.11451746117E+02  0.51100000000E-03 0. -1.
        -11    1    3    3    0    0  0.15292824868E+02  0.15055044748E+02  0.92633436905E+01  0.23373797325E+02  0.51100000000E-03 0.  1.
        -12    1    3    3    0    0 -0.45987370145E+01  0.13623041806E+02 -0.63133617582E+01  0.15703317703E+02  0.00000000000E+00 0.  1.
</event>
<event>
 7    1  0.9406864E-013  0.5052885E+02  0.7816164E-02  0.1300439E+00
        -11   -1    0    0    0    0  0.00000000000E+00  0.00000000000E+00  0.45593999997E+02  0.45594000000E+02  0.51100000000E-03 0. -1.
         11   -1    0    0    0    0 -0.00000000000E+00 -0.00000000000E+00 -0.45593999997E+02  0.45594000000E+02  0.51100000000E-03 0.  1.
    9900012    2    1    2    0    0 -0.35986372951E+02 -0.14363600663E+02  0.12322125827E+02  0.50528845470E+02  0.29999956291E+02 0.  0.
        -12    1    1    2    0    0  0.35986372951E+02  0.14363600663E+02 -0.12322125827E+02  0.40659154530E+02  0.00000000000E+00 0.  1.
         11    1    3    3    0    0 -0.93175659141E+01  0.83266654878E+01  0.26286020741E+01  0.12769492622E+02  0.51100000000E-03 0.  1.
        -11    1    3    3    0    0 -0.15168463936E+02 -0.76662235872E+01  0.12534055446E+01  0.17041839923E+02  0.51100000000E-03 0. -1.
        -12    1    3    3    0    0 -0.11500343102E+02 -0.15024042563E+02  0.84401182080E+01  0.20717512924E+02  0.00000000000E+00 0.  1.
</event>
<event>
 7    1  0.9406864E-013  0.5052873E+02  0.7816164E-02  0.1300439E+00
        -11   -1    0    0    0    0  0.00000000000E+00  0.00000000000E+00  0.45593999997E+02  0.45594000000E+02  0.51100000000E-03 0.  1.
         11   -1    0    0    0    0 -0.00000000000E+00 -0.00000000000E+00 -0.45593999997E+02  0.45594000000E+02  0.51100000000E-03 0. -1.
    9900012    2    1    2    0    0 -0.16628773219E+02 -0.16572945012E+02 -0.33196351693E+02  0.50528728353E+02  0.29999600299E+02 0.  0.
        -12    1    1    2    0    0  0.16628773219E+02  0.16572945012E+02  0.33196351693E+02  0.40659271647E+02  0.00000000000E+00 0.  1.
         11    1    3    3    0    0 -0.92169411931E+01  0.19244799749E+01 -0.18441177265E+02  0.20705860217E+02  0.51100000000E-03 0. -1.
        -11    1    3    3    0    0  0.38657008467E+01 -0.40221787797E+01  0.96327158834E+00  0.56612240360E+01  0.51100000000E-03 0.  1.
        -12    1    3    3    0    0 -0.11277532873E+02 -0.14475246207E+02 -0.15718446016E+02  0.24161644100E+02  0.00000000000E+00 0.  1.
</event>
<event>
 7    1  0.9406864E-013  0.5052887E+02  0.7816164E-02  0.1300439E+00
        -11   -1    0    0    0    0  0.00000000000E+00  0.00000000000E+00  0.45593999997E+02  0.45594000000E+02  0.51100000000E-03 0.  1.
         11   -1    0    0    0    0 -0.00000000000E+00 -0.00000000000E+00 -0.45593999997E+02  0.45594000000E+02  0.51100000000E-03 0. -1.
    9900012    2    1    2    0    0  0.12311734172E+02 -0.35566760890E+02 -0.15381526343E+02  0.50528872720E+02  0.30000039119E+02 0.  0.
        -12    1    1    2    0    0 -0.12311734172E+02  0.35566760890E+02  0.15381526343E+02  0.40659127280E+02  0.00000000000E+00 0.  1.
         11    1    3    3    0    0  0.40085458739E+00 -0.28491544068E+02 -0.15439283636E+02  0.32408336077E+02  0.51100000000E-03 0. -1.
        -11    1    3    3    0    0  0.44495268646E+00 -0.34302365544E+01  0.41589647733E+01  0.54093894257E+01  0.51100000000E-03 0.  1.
         12    1    3    3    0    0  0.11465926898E+02 -0.36449802674E+01 -0.41012074800E+01  0.12711147217E+02  0.00000000000E+00 0. -1.
</event>
<event>
 7    1  0.9406864E-013  0.5052882E+02  0.7816164E-02  0.1300439E+00
        -11   -1    0    0    0    0  0.00000000000E+00  0.00000000000E+00  0.45593999997E+02  0.45594000000E+02  0.51100000000E-03 0. -1.
         11   -1    0    0    0    0 -0.00000000000E+00 -0.00000000000E+00 -0.45593999997E+02  0.45594000000E+02  0.51100000000E-03 0.  1.
    9900012    2    1    2    0    0 -0.38980362822E+02  0.10164170366E+02 -0.55126979490E+01  0.50528820426E+02  0.29999880165E+02 0.  0.
        -12    1    1    2    0    0  0.38980362822E+02 -0.10164170366E+02  0.55126979490E+01  0.40659179574E+02  0.00000000000E+00 0.  1.
         11    1    3    3    0    0 -0.41172337770E+02  0.47385831637E+01  0.34679787501E+00  0.41445576808E+02  0.51100000000E-03 0. -1.
        -11    1    3    3    0    0  0.28803701479E+01  0.52984840350E+01 -0.44023546865E+01  0.74666721038E+01  0.51100000000E-03 0.  1.
         12    1    3    3    0    0 -0.68839519989E+00  0.12710316682E+00 -0.14571411374E+01  0.16165715143E+01  0.00000000000E+00 0. -1.
</event>
<event>
 7    1  0.9406864E-013  0.5052887E+02  0.7816164E-02  0.1300439E+00
        -11   -1    0    0    0    0  0.00000000000E+00  0.00000000000E+00  0.45593999997E+02  0.45594000000E+02  0.51100000000E-03 0.  1.
         11   -1    0    0    0    0 -0.00000000000E+00 -0.00000000000E+00 -0.45593999997E+02  0.45594000000E+02  0.51100000000E-03 0. -1.
    9900012    2    1    2    0    0  0.14864486139E+02 -0.12073691996E+02 -0.35866949421E+02  0.50528867602E+02  0.30000023562E+02 0.  0.
        -12    1    1    2    0    0 -0.14864486139E+02  0.12073691996E+02  0.35866949421E+02  0.40659132398E+02  0.00000000000E+00 0.  1.
         11    1    3    3    0    0 -0.67152317101E+01 -0.29262358375E+00 -0.29068402351E+01  0.73232291986E+01  0.51100000000E-03 0.  1.
        -11    1    3    3    0    0  0.76411247947E+01 -0.11243843815E+02 -0.19877374408E+02  0.24081545330E+02  0.51100000000E-03 0. -1.
         12    1    3    3    0    0  0.13938593054E+02 -0.53722459728E+00 -0.13082734779E+02  0.19124093073E+02  0.00000000000E+00 0. -1.
</event>
<event>
 7    1  0.9406864E-013  0.5052885E+02  0.7816164E-02  0.1300439E+00
        -11   -1    0    0    0    0  0.00000000000E+00  0.00000000000E+00  0.45593999997E+02  0.45594000000E+02  0.51100000000E-03 0.  1.
         11   -1    0    0    0    0 -0.00000000000E+00 -0.00000000000E+00 -0.45593999997E+02  0.45594000000E+02  0.51100000000E-03 0. -1.
    9900012    2    1    2    0    0  0.19714359406E+02  0.21262768541E+02 -0.28502718995E+02  0.50528852408E+02  0.29999977380E+02 0.  0.
        -12    1    1    2    0    0 -0.19714359406E+02 -0.21262768541E+02  0.28502718995E+02  0.40659147592E+02  0.00000000000E+00 0.  1.
         11    1    3    3    0    0  0.13197206903E+02 -0.17211568364E+01 -0.17005597830E+02  0.21594420778E+02  0.51100000000E-03 0.  1.
        -11    1    3    3    0    0 -0.62564725724E+00  0.37351791406E+01  0.20791806255E+01  0.43204154936E+01  0.51100000000E-03 0. -1.
         12    1    3    3    0    0  0.71427997601E+01  0.19248746236E+02 -0.13576301790E+02  0.24614016137E+02  0.00000000000E+00 0. -1.
</event>
<event>
 7    1  0.9406864E-013  0.5052885E+02  0.7816164E-02  0.1300439E+00
        -11   -1    0    0    0    0  0.00000000000E+00  0.00000000000E+00  0.45593999997E+02  0.45594000000E+02  0.51100000000E-03 0. -1.
         11   -1    0    0    0    0 -0.00000000000E+00 -0.00000000000E+00 -0.45593999997E+02  0.45594000000E+02  0.51100000000E-03 0.  1.
    9900012    2    1    2    0    0 -0.27796031296E+02  0.53510972222E+01  0.29187543518E+02  0.50528852273E+02  0.29999976969E+02 0.  0.
        -12    1    1    2    0    0  0.27796031296E+02 -0.53510972222E+01 -0.29187543518E+02  0.40659147727E+02  0.00000000000E+00 0.  1.
         11    1    3    3    0    0 -0.22720291904E+02  0.33695937269E+01  0.43409280326E+01  0.23375403367E+02  0.51100000000E-03 0. -1.
        -11    1    3    3    0    0 -0.43679206699E+01  0.55553662192E+01  0.18918219391E+02  0.20195045185E+02  0.51100000000E-03 0.  1.
        -12    1    3    3    0    0 -0.70781872176E+00 -0.35738627240E+01  0.59283960935E+01  0.69584037217E+01  0.00000000000E+00 0.  1.
</event>
<event>
 7    1  0.9406864E-013  0.5052886E+02  0.7816164E-02  0.1300439E+00
        -11   -1    0    0    0    0  0.00000000000E+00  0.00000000000E+00  0.45593999997E+02  0.45594000000E+02  0.51100000000E-03 0.  1.
         11   -1    0    0    0    0 -0.00000000000E+00 -0.00000000000E+00 -0.45593999997E+02  0.45594000000E+02  0.51100000000E-03 0. -1.
    9900012    2    1    2    0    0 -0.17753065912E+02 -0.79929086307E+01 -0.35694649639E+02  0.50528856496E+02  0.29999989805E+02 0.  0.
        -12    1    1    2    0    0  0.17753065912E+02  0.79929086307E+01  0.35694649639E+02  0.40659143504E+02  0.00000000000E+00 0.  1.
         11    1    3    3    0    0  0.17664650691E+01  0.32967192697E+01 -0.23779270189E+02  0.24071610826E+02  0.51100000000E-03 0. -1.
        -11    1    3    3    0    0 -0.12817491425E+02 -0.82451215486E+01 -0.42327748116E+01  0.15817284807E+02  0.51100000000E-03 0.  1.
         12    1    3    3    0    0 -0.67020395561E+01 -0.30445063518E+01 -0.76826046382E+01  0.10639960863E+02  0.00000000000E+00 0. -1.
</event>
<event>
 7    1  0.9406864E-013  0.5052887E+02  0.7816164E-02  0.1300439E+00
        -11   -1    0    0    0    0  0.00000000000E+00  0.00000000000E+00  0.45593999997E+02  0.45594000000E+02  0.51100000000E-03 0.  1.
         11   -1    0    0    0    0 -0.00000000000E+00 -0.00000000000E+00 -0.45593999997E+02  0.45594000000E+02  0.51100000000E-03 0. -1.
    9900012    2    1    2    0    0 -0.31087654818E+02 -0.99904970665E+01 -0.24226280246E+02  0.50528868575E+02  0.30000026519E+02 0.  0.
        -12    1    1    2    0    0  0.31087654818E+02  0.99904970665E+01  0.24226280246E+02  0.40659131425E+02  0.00000000000E+00 0.  1.
         11    1    3    3    0    0 -0.13602020875E+02  0.41171690632E+01 -0.26614690451E+01  0.14458543175E+02  0.51100000000E-03 0. -1.
        -11    1    3    3    0    0 -0.13720179874E+02 -0.13760261173E+02 -0.24509300181E+02  0.31277690436E+02  0.51100000000E-03 0.  1.
        -12    1    3    3    0    0 -0.37654540683E+01 -0.34740495659E+00  0.29444889809E+01  0.47926349645E+01  0.00000000000E+00 0.  1.
</event>
<event>
 7    1  0.9406864E-013  0.5052888E+02  0.7816164E-02  0.1300439E+00
        -11   -1    0    0    0    0  0.00000000000E+00  0.00000000000E+00  0.45593999997E+02  0.45594000000E+02  0.51100000000E-03 0.  1.
         11   -1    0    0    0    0 -0.00000000000E+00 -0.00000000000E+00 -0.45593999997E+02  0.45594000000E+02  0.51100000000E-03 0. -1.
    9900012    2    1    2    0    0 -0.15285079090E+02 -0.37527518800E+02 -0.33490432701E+01  0.50528875552E+02  0.30000047727E+02 0.  0.
        -12    1    1    2    0    0  0.15285079090E+02  0.37527518800E+02  0.33490432701E+01  0.40659124448E+02  0.00000000000E+00 0.  1.
         11    1    3    3    0    0 -0.16273895512E+02 -0.34391535541E+02 -0.83389525744E+01  0.38950680640E+02  0.51100000000E-03 0. -1.
        -11    1    3    3    0    0  0.17436148919E+01 -0.63488323173E+01  0.50173145275E+01  0.82777599635E+01  0.51100000000E-03 0.  1.
         12    1    3    3    0    0 -0.75479847038E+00  0.32128490586E+01 -0.27405223184E-01  0.33004349487E+01  0.00000000000E+00 0. -1.
</event>
<event>
 7    1  0.9406864E-013  0.5052886E+02  0.7816164E-02  0.1300439E+00
        -11   -1    0    0    0    0  0.00000000000E+00  0.00000000000E+00  0.45593999997E+02  0.45594000000E+02  0.51100000000E-03 0.  1.
         11   -1    0    0    0    0 -0.00000000000E+00 -0.00000000000E+00 -0.45593999997E+02  0.45594000000E+02  0.51100000000E-03 0. -1.
    9900012    2    1    2    0    0 -0.20433664891E+02 -0.22625649597E+02 -0.26901873730E+02  0.50528862149E+02  0.30000006989E+02 0.  0.
        -12    1    1    2    0    0  0.20433664891E+02  0.22625649597E+02  0.26901873730E+02  0.40659137851E+02  0.00000000000E+00 0.  1.
         11    1    3    3    0    0  0.32046158550E+01 -0.56977686092E-01 -0.71507868240E+01  0.78362338976E+01  0.51100000000E-03 0. -1.
        -11    1    3    3    0    0 -0.24628382581E+02 -0.21779283128E+02 -0.22382264465E+02  0.39772605710E+02  0.51100000000E-03 0.  1.
        -12    1    3    3    0    0  0.99010183492E+00 -0.78938878270E+00  0.26311775589E+01  0.29200225411E+01  0.00000000000E+00 0.  1.
</event>
<event>
 7    1  0.9406864E-013  0.5052885E+02  0.7816164E-02  0.1300439E+00
        -11   -1    0    0    0    0  0.00000000000E+00  0.00000000000E+00  0.45593999997E+02  0.45594000000E+02  0.51100000000E-03 0.  1.
         11   -1    0    0    0    0 -0.00000000000E+00 -0.00000000000E+00 -0.45593999997E+02  0.45594000000E+02  0.51100000000E-03 0. -1.
    9900012    2    1    2    0    0 -0.15382004254E+02 -0.40801133666E+01 -0.37415408011E+02  0.50528854208E+02  0.29999982850E+02 0.  0.
        -12    1    1    2    0    0  0.15382004254E+02  0.40801133666E+01  0.37415408011E+02  0.40659145792E+02  0.00000000000E+00 0.  1.
         11    1    3    3    0    0 -0.50888238819E+01  0.86864194858E+01 -0.42866752567E+01  0.10941919256E+02  0.51100000000E-03 0. -1.
        -11    1    3    3    0    0  0.27126726881E+01 -0.42374067002E+01 -0.35154567447E+01  0.61378045783E+01  0.51100000000E-03 0.  1.
         12    1    3    3    0    0 -0.13005853060E+02 -0.85291261521E+01 -0.29613276009E+02  0.33449130374E+02  0.00000000000E+00 0. -1.
</event>
<event>
 7    1  0.9406864E-013  0.5052886E+02  0.7816164E-02  0.1300439E+00
        -11   -1    0    0    0    0  0.00000000000E+00  0.00000000000E+00  0.45593999997E+02  0.45594000000E+02  0.51100000000E-03 0.  1.
         11   -1    0    0    0    0 -0.00000000000E+00 -0.00000000000E+00 -0.45593999997E+02  0.45594000000E+02  0.51100000000E-03 0. -1.
    9900012    2    1    2    0    0  0.37183930487E+02  0.80060816098E+01  0.14367459629E+02  0.50528856804E+02  0.29999990742E+02 0.  0.
        -12    1    1    2    0    0 -0.37183930487E+02 -0.80060816098E+01 -0.14367459629E+02  0.40659143196E+02  0.00000000000E+00 0.  1.
         11    1    3    3    0    0  0.58138184234E+00 -0.38944109662E+01 -0.76499311055E+00  0.40111913867E+01  0.51100000000E-03 0. -1.
        -11    1    3    3    0    0  0.39101822118E+02  0.12239845479E+02  0.12420127113E+02  0.42813851357E+02  0.51100000000E-03 0.  1.
        -12    1    3    3    0    0 -0.24992734731E+01 -0.33935290288E+00  0.27123256269E+01  0.37038140602E+01  0.00000000000E+00 0.  1.
</event>
<event>
 7    1  0.9770119E-013  0.5052886E+02  0.7816164E-02  0.1300439E+00
        -11   -1    0    0    0    0  0.00000000000E+00  0.00000000000E+00  0.45593999997E+02  0.45594000000E+02  0.51100000000E-03 0.  1.
         11   -1    0    0    0    0 -0.00000000000E+00 -0.00000000000E+00 -0.45593999997E+02  0.45594000000E+02  0.51100000000E-03 0. -1.
    9900012    2    1    2    0    0  0.24744054934E+02  0.29595111821E+02 -0.12846287390E+02  0.50528855912E+02  0.29999988029E+02 0.  0.
        -12    1    1    2    0    0 -0.24744054934E+02 -0.29595111821E+02  0.12846287390E+02  0.40659144088E+02  0.00000000000E+00 0.  1.
         11    1    3    3    0    0  0.12656929202E+02  0.22256121320E+02 -0.48168455007E+01  0.26052539106E+02  0.51100000000E-03 0.  1.
        -11    1    3    3    0    0 -0.30199230122E+01 -0.30464371916E+01 -0.36395160624E+01  0.56255481503E+01  0.51100000000E-03 0. -1.
         12    1    3    3    0    0  0.15107048745E+02  0.10385427692E+02 -0.43899258269E+01  0.18850768655E+02  0.00000000000E+00 0. -1.
</event>
<event>
 7    1  0.9406864E-013  0.5052885E+02  0.7816164E-02  0.1300439E+00
        -11   -1    0    0    0    0  0.00000000000E+00  0.00000000000E+00  0.45593999997E+02  0.45594000000E+02  0.51100000000E-03 0.  1.
         11   -1    0    0    0    0 -0.00000000000E+00 -0.00000000000E+00 -0.45593999997E+02  0.45594000000E+02  0.51100000000E-03 0. -1.
    9900012    2    1    2    0    0 -0.12933250659E+02 -0.34698557785E+02 -0.16790098946E+02  0.50528852104E+02  0.29999976456E+02 0.  0.
        -12    1    1    2    0    0  0.12933250659E+02  0.34698557785E+02  0.16790098946E+02  0.40659147896E+02  0.00000000000E+00 0.  1.
         11    1    3    3    0    0 -0.65593835420E+01 -0.25063810298E+02 -0.22056932934E+02  0.34025408004E+02  0.51100000000E-03 0. -1.
        -11    1    3    3    0    0 -0.60783339397E+01 -0.14658080803E+01  0.54978034624E+01  0.83258981487E+01  0.51100000000E-03 0.  1.
         12    1    3    3    0    0 -0.29553317691E+00 -0.81689394071E+01 -0.23096947488E+00  0.81775459518E+01  0.00000000000E+00 0. -1.
</event>
<event>
 7    1  0.9406864E-013  0.5052887E+02  0.7816164E-02  0.1300439E+00
        -11   -1    0    0    0    0  0.00000000000E+00  0.00000000000E+00  0.45593999997E+02  0.45594000000E+02  0.51100000000E-03 0. -1.
         11   -1    0    0    0    0 -0.00000000000E+00 -0.00000000000E+00 -0.45593999997E+02  0.45594000000E+02  0.51100000000E-03 0.  1.
    9900012    2    1    2    0    0 -0.23235151203E+02  0.33355745046E+02  0.82890449985E+00  0.50528867425E+02  0.30000023026E+02 0.  0.
        -12    1    1    2    0    0  0.23235151203E+02 -0.33355745046E+02 -0.82890449985E+00  0.40659132575E+02  0.00000000000E+00 0.  1.
         11    1    3    3    0    0 -0.21321437312E+02  0.33525576728E+02  0.97458131341E+01  0.40909031496E+02  0.51100000000E-03 0. -1.
        -11    1    3    3    0    0 -0.22648127648E+01  0.92134790837E+00 -0.56020675150E+01  0.61123988361E+01  0.51100000000E-03 0.  1.
         12    1    3    3    0    0  0.35109887383E+00 -0.10911795902E+01 -0.33148411193E+01  0.35074370933E+01  0.00000000000E+00 0. -1.
</event>
<event>
 7    1  0.9406864E-013  0.5052886E+02  0.7816164E-02  0.1300439E+00
        -11   -1    0    0    0    0  0.00000000000E+00  0.00000000000E+00  0.45593999997E+02  0.45594000000E+02  0.51100000000E-03 0.  1.
         11   -1    0    0    0    0 -0.00000000000E+00 -0.00000000000E+00 -0.45593999997E+02  0.45594000000E+02  0.51100000000E-03 0. -1.
    9900012    2    1    2    0    0  0.35136394405E+02 -0.20375862405E+02  0.18503972159E+01  0.50528856497E+02  0.29999989807E+02 0.  0.
        -12    1    1    2    0    0 -0.35136394405E+02  0.20375862405E+02 -0.18503972159E+01  0.40659143503E+02  0.00000000000E+00 0.  1.
         11    1    3    3    0    0  0.15794339671E+02 -0.11875916698E+02  0.12072173443E+02  0.23156768664E+02  0.51100000000E-03 0. -1.
        -11    1    3    3    0    0 -0.27748538325E+00 -0.48082987975E+01 -0.45319435178E+01  0.66132630202E+01  0.51100000000E-03 0.  1.
         12    1    3    3    0    0  0.19619540118E+02 -0.36916469103E+01 -0.56898327092E+01  0.20758824812E+02  0.00000000000E+00 0. -1.
</event>
<event>
 7    1  0.9406864E-013  0.5052887E+02  0.7816164E-02  0.1300439E+00
        -11   -1    0    0    0    0  0.00000000000E+00  0.00000000000E+00  0.45593999997E+02  0.45594000000E+02  0.51100000000E-03 0. -1.
         11   -1    0    0    0    0 -0.00000000000E+00 -0.00000000000E+00 -0.45593999997E+02  0.45594000000E+02  0.51100000000E-03 0.  1.
    9900012    2    1    2    0    0  0.38619856901E+02 -0.59874626289E+01 -0.11217042385E+02  0.50528867009E+02  0.30000021759E+02 0.  0.
        -12    1    1    2    0    0 -0.38619856901E+02  0.59874626289E+01  0.11217042385E+02  0.40659132991E+02  0.00000000000E+00 0.  1.
         11    1    3    3    0    0  0.74697398142E+01 -0.23962536382E+01  0.46184913466E+01  0.91032690266E+01  0.51100000000E-03 0. -1.
        -11    1    3    3    0    0  0.16351067658E+02 -0.94681648058E+01 -0.17058057199E+02  0.25455468451E+02  0.51100000000E-03 0.  1.
        -12    1    3    3    0    0  0.14799049428E+02  0.58769558151E+01  0.12225234681E+01  0.15970129532E+02  0.00000000000E+00 0.  1.
</event>
<event>
 7    1  0.9406864E-013  0.5052886E+02  0.7816164E-02  0.1300439E+00
        -11   -1    0    0    0    0  0.00000000000E+00  0.00000000000E+00  0.45593999997E+02  0.45594000000E+02  0.51100000000E-03 0.  1.
         11   -1    0    0    0    0 -0.00000000000E+00 -0.00000000000E+00 -0.45593999997E+02  0.45594000000E+02  0.51100000000E-03 0. -1.
    9900012    2    1    2    0    0 -0.11252104218E+02  0.12413993619E+02 -0.37046567865E+02  0.50528864772E+02  0.30000014961E+02 0.  0.
        -12    1    1    2    0    0  0.11252104218E+02 -0.12413993619E+02  0.37046567865E+02  0.40659135228E+02  0.00000000000E+00 0.  1.
         11    1    3    3    0    0  0.14404940291E+01  0.38141457214E+01 -0.76670950871E+01  0.86837248901E+01  0.51100000000E-03 0. -1.
        -11    1    3    3    0    0 -0.10997544264E+02 -0.31910156912E+01 -0.15272929007E+01  0.11552540190E+02  0.51100000000E-03 0.  1.
        -12    1    3    3    0    0 -0.16950539834E+01  0.11790863588E+02 -0.27852179877E+02  0.30292599692E+02  0.00000000000E+00 0.  1.
</event>
<event>
 7    1  0.9406864E-013  0.5052887E+02  0.7816164E-02  0.1300439E+00
        -11   -1    0    0    0    0  0.00000000000E+00  0.00000000000E+00  0.45593999997E+02  0.45594000000E+02  0.51100000000E-03 0.  1.
         11   -1    0    0    0    0 -0.00000000000E+00 -0.00000000000E+00 -0.45593999997E+02  0.45594000000E+02  0.51100000000E-03 0. -1.
    9900012    2    1    2    0    0  0.24913451769E+02  0.24407704166E+02 -0.20898540684E+02  0.50528866900E+02  0.30000021430E+02 0.  0.
        -12    1    1    2    0    0 -0.24913451769E+02 -0.24407704166E+02  0.20898540684E+02  0.40659133100E+02  0.00000000000E+00 0.  1.
         11    1    3    3    0    0  0.61482275798E+01  0.54106045355E+01 -0.12021253124E+02  0.14545991570E+02  0.51100000000E-03 0. -1.
        -11    1    3    3    0    0  0.14993620235E+02  0.20150101674E+02  0.12165744353E+01  0.25145880356E+02  0.51100000000E-03 0.  1.
        -12    1    3    3    0    0  0.37716039536E+01 -0.11530020435E+01 -0.10093861996E+02  0.10836994975E+02  0.00000000000E+00 0.  1.
</event>
<event>
 7    1  0.9406864E-013  0.5052887E+02  0.7816164E-02  0.1300439E+00
        -11   -1    0    0    0    0  0.00000000000E+00  0.00000000000E+00  0.45593999997E+02  0.45594000000E+02  0.51100000000E-03 0.  1.
         11   -1    0    0    0    0 -0.00000000000E+00 -0.00000000000E+00 -0.45593999997E+02  0.45594000000E+02  0.51100000000E-03 0. -1.
    9900012    2    1    2    0    0 -0.14836988152E+02 -0.37832531355E+02  0.13147277588E+01  0.50528866276E+02  0.30000019531E+02 0.  0.
        -12    1    1    2    0    0  0.14836988152E+02  0.37832531355E+02 -0.13147277588E+01  0.40659133724E+02  0.00000000000E+00 0.  1.
         11    1    3    3    0    0  0.70683444358E+01 -0.79889045456E+01  0.49444275996E+01  0.11757187310E+02  0.51100000000E-03 0. -1.
        -11    1    3    3    0    0 -0.20500642092E+02 -0.25035590993E+02 -0.64912021275E+01  0.33002921808E+02  0.51100000000E-03 0.  1.
        -12    1    3    3    0    0 -0.14046904956E+01 -0.48080358168E+01  0.28615022867E+01  0.57687571573E+01  0.00000000000E+00 0.  1.
</event>
<event>
 7    1  0.9406864E-013  0.5052887E+02  0.7816164E-02  0.1300439E+00
        -11   -1    0    0    0    0  0.00000000000E+00  0.00000000000E+00  0.45593999997E+02  0.45594000000E+02  0.51100000000E-03 0. -1.
         11   -1    0    0    0    0 -0.00000000000E+00 -0.00000000000E+00 -0.45593999997E+02  0.45594000000E+02  0.51100000000E-03 0.  1.
    9900012    2    1    2    0    0 -0.80329880728E+00 -0.20009234784E+02  0.35385735409E+02  0.50528867741E+02  0.30000023986E+02 0.  0.
        -12    1    1    2    0    0  0.80329880728E+00  0.20009234784E+02 -0.35385735409E+02  0.40659132259E+02  0.00000000000E+00 0.  1.
         11    1    3    3    0    0  0.14351794546E+01 -0.16261511231E+01 -0.41140807923E+01  0.46507815009E+01  0.51100000000E-03 0. -1.
        -11    1    3    3    0    0  0.11220611327E+01  0.88878932962E+00  0.12249891281E+02  0.12333239814E+02  0.51100000000E-03 0.  1.
         12    1    3    3    0    0 -0.33605393945E+01 -0.19271872991E+02  0.27249924920E+02  0.33544846426E+02  0.00000000000E+00 0. -1.
</event>
<event>
 7    1  0.9406864E-013  0.5052886E+02  0.7816164E-02  0.1300439E+00
        -11   -1    0    0    0    0  0.00000000000E+00  0.00000000000E+00  0.45593999997E+02  0.45594000000E+02  0.51100000000E-03 0.  1.
         11   -1    0    0    0    0 -0.00000000000E+00 -0.00000000000E+00 -0.45593999997E+02  0.45594000000E+02  0.51100000000E-03 0. -1.
    9900012    2    1    2    0    0  0.24001170229E+02  0.10808993177E+02 -0.30988311546E+02  0.50528856399E+02  0.29999989511E+02 0.  0.
        -12    1    1    2    0    0 -0.24001170229E+02 -0.10808993177E+02  0.30988311546E+02  0.40659143601E+02  0.00000000000E+00 0.  1.
         11    1    3    3    0    0  0.23910120914E+02  0.16052828766E+02 -0.32132591695E+02  0.43149630854E+02  0.51100000000E-03 0. -1.
        -11    1    3    3    0    0 -0.24718114997E+01 -0.27880365625E+01  0.35391874845E+00  0.37427608401E+01  0.51100000000E-03 0.  1.
         12    1    3    3    0    0  0.25628608143E+01 -0.24557990261E+01  0.79036140007E+00  0.36364647053E+01  0.00000000000E+00 0. -1.
</event>
<event>
 7    1  0.9406864E-013  0.5052886E+02  0.7816164E-02  0.1300439E+00
        -11   -1    0    0    0    0  0.00000000000E+00  0.00000000000E+00  0.45593999997E+02  0.45594000000E+02  0.51100000000E-03 0.  1.
         11   -1    0    0    0    0 -0.00000000000E+00 -0.00000000000E+00 -0.45593999997E+02  0.45594000000E+02  0.51100000000E-03 0. -1.
    9900012    2    1    2    0    0 -0.24137481560E+01 -0.40586021091E+02  0.33797521097E+00  0.50528861847E+02  0.30000006069E+02 0.  0.
        -12    1    1    2    0    0  0.24137481560E+01  0.40586021091E+02 -0.33797521097E+00  0.40659138153E+02  0.00000000000E+00 0.  1.
         11    1    3    3    0    0 -0.69106714937E+01 -0.26842842336E+02 -0.10725732706E+02  0.29720984296E+02  0.51100000000E-03 0. -1.
        -11    1    3    3    0    0  0.45819779843E+01 -0.90823563288E+01  0.12322822834E+02  0.15979226564E+02  0.51100000000E-03 0.  1.
        -12    1    3    3    0    0 -0.85054646584E-01 -0.46608224254E+01 -0.12591149165E+01  0.48286509863E+01  0.00000000000E+00 0.  1.
</event>
<event>
 7    1  0.9406864E-013  0.5052886E+02  0.7816164E-02  0.1300439E+00
        -11   -1    0    0    0    0  0.00000000000E+00  0.00000000000E+00  0.45593999997E+02  0.45594000000E+02  0.51100000000E-03 0. -1.
         11   -1    0    0    0    0 -0.00000000000E+00 -0.00000000000E+00 -0.45593999997E+02  0.45594000000E+02  0.51100000000E-03 0.  1.
    9900012    2    1    2    0    0  0.40054300718E+02  0.41822195801E+01  0.55971011831E+01  0.50528861934E+02  0.30000006333E+02 0.  0.
        -12    1    1    2    0    0 -0.40054300718E+02 -0.41822195801E+01 -0.55971011831E+01  0.40659138066E+02  0.00000000000E+00 0.  1.
         11    1    3    3    0    0  0.29885649122E+02 -0.81759112885E+01  0.11071734541E+02  0.32902596476E+02  0.51100000000E-03 0. -1.
        -11    1    3    3    0    0  0.85440336747E+01  0.79686196037E+01 -0.55736871869E+01  0.12944705440E+02  0.51100000000E-03 0.  1.
         12    1    3    3    0    0  0.16246179219E+01  0.43895112649E+01  0.99053829397E-01  0.46815600175E+01  0.00000000000E+00 0. -1.
</event>
<event>
 7    1  0.9406864E-013  0.5052887E+02  0.7816164E-02  0.1300439E+00
        -11   -1    0    0    0    0  0.00000000000E+00  0.00000000000E+00  0.45593999997E+02  0.45594000000E+02  0.51100000000E-03 0. -1.
         11   -1    0    0    0    0 -0.00000000000E+00 -0.00000000000E+00 -0.45593999997E+02  0.45594000000E+02  0.51100000000E-03 0.  1.
    9900012    2    1    2    0    0  0.16675290265E+02 -0.90007222948E+01  0.35973417272E+02  0.50528867478E+02  0.30000023186E+02 0.  0.
        -12    1    1    2    0    0 -0.16675290265E+02  0.90007222948E+01 -0.35973417272E+02  0.40659132522E+02  0.00000000000E+00 0.  1.
         11    1    3    3    0    0  0.11463835524E+02 -0.18743340437E+02  0.17465870531E+02  0.28067578616E+02  0.51100000000E-03 0. -1.
        -11    1    3    3    0    0 -0.12377749155E+01  0.34091795461E+00  0.13676304126E+01  0.18758264845E+01  0.51100000000E-03 0.  1.
         12    1    3    3    0    0  0.64492296565E+01  0.94017001879E+01  0.17139916328E+02  0.20585462378E+02  0.00000000000E+00 0. -1.
</event>
<event>
 7    1  0.9406864E-013  0.5052886E+02  0.7816164E-02  0.1300439E+00
        -11   -1    0    0    0    0  0.00000000000E+00  0.00000000000E+00  0.45593999997E+02  0.45594000000E+02  0.51100000000E-03 0.  1.
         11   -1    0    0    0    0 -0.00000000000E+00 -0.00000000000E+00 -0.45593999997E+02  0.45594000000E+02  0.51100000000E-03 0. -1.
    9900012    2    1    2    0    0 -0.27738087821E+02 -0.20960230753E+01 -0.29654186363E+02  0.50528860836E+02  0.30000002996E+02 0.  0.
        -12    1    1    2    0    0  0.27738087821E+02  0.20960230753E+01  0.29654186363E+02  0.40659139164E+02  0.00000000000E+00 0.  1.
         11    1    3    3    0    0 -0.51317591899E+00 -0.58050141346E+01 -0.15139544972E+02  0.16222433875E+02  0.51100000000E-03 0. -1.
        -11    1    3    3    0    0 -0.21275516844E+02  0.66175707655E+01 -0.16109641079E+02  0.27494733964E+02  0.51100000000E-03 0.  1.
         12    1    3    3    0    0 -0.59493950585E+01 -0.29085797063E+01  0.15949996871E+01  0.68116929960E+01  0.00000000000E+00 0. -1.
</event>
<event>
 7    1  0.9406864E-013  0.5052886E+02  0.7816164E-02  0.1300439E+00
        -11   -1    0    0    0    0  0.00000000000E+00  0.00000000000E+00  0.45593999997E+02  0.45594000000E+02  0.51100000000E-03 0. -1.
         11   -1    0    0    0    0 -0.00000000000E+00 -0.00000000000E+00 -0.45593999997E+02  0.45594000000E+02  0.51100000000E-03 0.  1.
    9900012    2    1    2    0    0  0.75978928055E+01 -0.39191221694E+02 -0.77126940066E+01  0.50528862259E+02  0.30000007324E+02 0.  0.
        -12    1    1    2    0    0 -0.75978928055E+01  0.39191221694E+02  0.77126940066E+01  0.40659137741E+02  0.00000000000E+00 0.  1.
         11    1    3    3    0    0  0.25808388626E+01 -0.29339292379E+02  0.58643918615E+01  0.30030749220E+02  0.51100000000E-03 0. -1.
        -11    1    3    3    0    0  0.51640407301E+01  0.32926591189E+00 -0.45322090429E+01  0.68787100370E+01  0.51100000000E-03 0.  1.
         12    1    3    3    0    0 -0.14698678721E+00 -0.10181195227E+02 -0.90448768252E+01  0.13619403003E+02  0.00000000000E+00 0. -1.
</event>
<event>
 7    1  0.9406864E-013  0.5052879E+02  0.7816164E-02  0.1300439E+00
        -11   -1    0    0    0    0  0.00000000000E+00  0.00000000000E+00  0.45593999997E+02  0.45594000000E+02  0.51100000000E-03 0.  1.
         11   -1    0    0    0    0 -0.00000000000E+00 -0.00000000000E+00 -0.45593999997E+02  0.45594000000E+02  0.51100000000E-03 0. -1.
    9900012    2    1    2    0    0 -0.20784240763E+02  0.31119423320E+02 -0.15898694069E+02  0.50528786470E+02  0.29999776952E+02 0.  0.
        -12    1    1    2    0    0  0.20784240763E+02 -0.31119423320E+02  0.15898694069E+02  0.40659213530E+02  0.00000000000E+00 0.  1.
         11    1    3    3    0    0 -0.10110752153E+02  0.27641226299E+02 -0.57491862730E+01  0.29988628569E+02  0.51100000000E-03 0. -1.
        -11    1    3    3    0    0 -0.49465712200E+01 -0.22513312796E+01 -0.11124174308E+02  0.12380804241E+02  0.51100000000E-03 0.  1.
        -12    1    3    3    0    0 -0.57269173896E+01  0.57295283007E+01  0.97466651201E+00  0.81593536599E+01  0.00000000000E+00 0.  1.
</event>
<event>
 7    1  0.9406864E-013  0.5052886E+02  0.7816164E-02  0.1300439E+00
        -11   -1    0    0    0    0  0.00000000000E+00  0.00000000000E+00  0.45593999997E+02  0.45594000000E+02  0.51100000000E-03 0. -1.
         11   -1    0    0    0    0 -0.00000000000E+00 -0.00000000000E+00 -0.45593999997E+02  0.45594000000E+02  0.51100000000E-03 0.  1.
    9900012    2    1    2    0    0  0.39821000782E+00 -0.31772680790E+02 -0.25367372188E+02  0.50528863419E+02  0.30000010849E+02 0.  0.
        -12    1    1    2    0    0 -0.39821000782E+00  0.31772680790E+02  0.25367372188E+02  0.40659136581E+02  0.00000000000E+00 0.  1.
         11    1    3    3    0    0 -0.64591936133E+01 -0.21444455979E+02 -0.50150931515E+01  0.22950752361E+02  0.51100000000E-03 0. -1.
        -11    1    3    3    0    0  0.78190218923E+01 -0.12891834915E+02 -0.13651888063E+02  0.20339876076E+02  0.51100000000E-03 0.  1.
         12    1    3    3    0    0 -0.96161827122E+00  0.25636101038E+01 -0.67003909735E+01  0.72382349825E+01  0.00000000000E+00 0. -1.
</event>
<event>
 7    1  0.9406864E-013  0.5052886E+02  0.7816164E-02  0.1300439E+00
        -11   -1    0    0    0    0  0.00000000000E+00  0.00000000000E+00  0.45593999997E+02  0.45594000000E+02  0.51100000000E-03 0.  1.
         11   -1    0    0    0    0 -0.00000000000E+00 -0.00000000000E+00 -0.45593999997E+02  0.45594000000E+02  0.51100000000E-03 0. -1.
    9900012    2    1    2    0    0  0.81638646548E+01  0.15528316209E+02 -0.36679536977E+02  0.50528859290E+02  0.29999998299E+02 0.  0.
        -12    1    1    2    0    0 -0.81638646548E+01 -0.15528316209E+02  0.36679536977E+02  0.40659140710E+02  0.00000000000E+00 0.  1.
         11    1    3    3    0    0  0.86155970848E+01  0.17929406757E+01 -0.22051368613E+02  0.23742493705E+02  0.51100000000E-03 0. -1.
        -11    1    3    3    0    0  0.15752049983E+01  0.17807635646E+02 -0.12028100778E+02  0.21546887633E+02  0.51100000000E-03 0.  1.
         12    1    3    3    0    0 -0.20269374283E+01 -0.40722601120E+01 -0.26000675866E+01  0.52394779523E+01  0.00000000000E+00 0. -1.
</event>
<event>
 7    1  0.9406864E-013  0.5052887E+02  0.7816164E-02  0.1300439E+00
        -11   -1    0    0    0    0  0.00000000000E+00  0.00000000000E+00  0.45593999997E+02  0.45594000000E+02  0.51100000000E-03 0.  1.
         11   -1    0    0    0    0 -0.00000000000E+00 -0.00000000000E+00 -0.45593999997E+02  0.45594000000E+02  0.51100000000E-03 0. -1.
    9900012    2    1    2    0    0 -0.34395590979E+02  0.18879059381E+02 -0.10662513155E+02  0.50528871275E+02  0.30000034728E+02 0.  0.
        -12    1    1    2    0    0  0.34395590979E+02 -0.18879059381E+02  0.10662513155E+02  0.40659128725E+02  0.00000000000E+00 0.  1.
         11    1    3    3    0    0 -0.69403484450E+01  0.65477597194E+01 -0.17644925197E+01  0.97033513795E+01  0.51100000000E-03 0. -1.
        -11    1    3    3    0    0 -0.66205110096E+01 -0.64613896168E+01 -0.87991171192E+01  0.12767348360E+02  0.51100000000E-03 0.  1.
        -12    1    3    3    0    0 -0.20834731524E+02  0.18792689279E+02 -0.98903516006E-01  0.28058171535E+02  0.00000000000E+00 0.  1.
</event>
<event>
 7    1  0.9406864E-013  0.5052885E+02  0.7816164E-02  0.1300439E+00
        -11   -1    0    0    0    0  0.00000000000E+00  0.00000000000E+00  0.45593999997E+02  0.45594000000E+02  0.51100000000E-03 0.  1.
         11   -1    0    0    0    0 -0.00000000000E+00 -0.00000000000E+00 -0.45593999997E+02  0.45594000000E+02  0.51100000000E-03 0. -1.
    9900012    2    1    2    0    0  0.20131317887E+00  0.13155161471E+02 -0.38471652484E+02  0.50528845493E+02  0.29999956362E+02 0.  0.
        -12    1    1    2    0    0 -0.20131317887E+00 -0.13155161471E+02  0.38471652484E+02  0.40659154507E+02  0.00000000000E+00 0.  1.
         11    1    3    3    0    0  0.88828628080E+00  0.59924976508E+01 -0.26369898417E+02  0.27056803644E+02  0.51100000000E-03 0. -1.
        -11    1    3    3    0    0 -0.44729438936E+00 -0.19825647073E+01  0.42636061161E+01  0.47232374981E+01  0.51100000000E-03 0.  1.
        -12    1    3    3    0    0 -0.23967871258E+00  0.91452285272E+01 -0.16365360183E+02  0.18748804352E+02  0.00000000000E+00 0.  1.
</event>
<event>
 7    1  0.9406864E-013  0.5052886E+02  0.7816164E-02  0.1300439E+00
        -11   -1    0    0    0    0  0.00000000000E+00  0.00000000000E+00  0.45593999997E+02  0.45594000000E+02  0.51100000000E-03 0.  1.
         11   -1    0    0    0    0 -0.00000000000E+00 -0.00000000000E+00 -0.45593999997E+02  0.45594000000E+02  0.51100000000E-03 0. -1.
    9900012    2    1    2    0    0 -0.13099132298E+02 -0.10154401664E+02 -0.37127706990E+02  0.50528858759E+02  0.29999996684E+02 0.  0.
        -12    1    1    2    0    0  0.13099132298E+02  0.10154401664E+02  0.37127706990E+02  0.40659141241E+02  0.00000000000E+00 0.  1.
         11    1    3    3    0    0 -0.27339028508E+01 -0.59025641757E+01 -0.29062522080E+02  0.29781616454E+02  0.51100000000E-03 0. -1.
        -11    1    3    3    0    0 -0.13248050192E+02 -0.43444056361E+01 -0.20709374574E+01  0.14095157908E+02  0.51100000000E-03 0.  1.
         12    1    3    3    0    0  0.28828207455E+01  0.92568147988E-01 -0.59942474524E+01  0.66520843976E+01  0.00000000000E+00 0. -1.
</event>
<event>
 7    1  0.9406864E-013  0.5052893E+02  0.7816164E-02  0.1300439E+00
        -11   -1    0    0    0    0  0.00000000000E+00  0.00000000000E+00  0.45593999997E+02  0.45594000000E+02  0.51100000000E-03 0.  1.
         11   -1    0    0    0    0 -0.00000000000E+00 -0.00000000000E+00 -0.45593999997E+02  0.45594000000E+02  0.51100000000E-03 0. -1.
    9900012    2    1    2    0    0  0.15480852251E+02  0.14660591806E+02 -0.34620374444E+02  0.50528928870E+02  0.30000209792E+02 0.  0.
        -12    1    1    2    0    0 -0.15480852251E+02 -0.14660591806E+02  0.34620374444E+02  0.40659071130E+02  0.00000000000E+00 0.  1.
         11    1    3    3    0    0  0.38321661620E+01  0.13853700052E+02 -0.15162901887E+02  0.20893159085E+02  0.51100000000E-03 0. -1.
        -11    1    3    3    0    0  0.70878814637E+01 -0.18330852005E+01 -0.22423683653E+02  0.23588553449E+02  0.51100000000E-03 0.  1.
        -12    1    3    3    0    0  0.45608046255E+01  0.26399769537E+01  0.29662110960E+01  0.60472163360E+01  0.00000000000E+00 0.  1.
</event>
<event>
 7    1  0.9406864E-013  0.5052888E+02  0.7816164E-02  0.1300439E+00
        -11   -1    0    0    0    0  0.00000000000E+00  0.00000000000E+00  0.45593999997E+02  0.45594000000E+02  0.51100000000E-03 0.  1.
         11   -1    0    0    0    0 -0.00000000000E+00 -0.00000000000E+00 -0.45593999997E+02  0.45594000000E+02  0.51100000000E-03 0. -1.
    9900012    2    1    2    0    0 -0.98275824059E+01 -0.12468445281E+02 -0.37431542161E+02  0.50528882299E+02  0.30000068236E+02 0.  0.
        -12    1    1    2    0    0  0.98275824059E+01  0.12468445281E+02  0.37431542161E+02  0.40659117701E+02  0.00000000000E+00 0.  1.
         11    1    3    3    0    0 -0.78464387379E+01 -0.10081306595E+02 -0.13905149893E+02  0.18882598798E+02  0.51100000000E-03 0. -1.
        -11    1    3    3    0    0  0.50128633260E+01 -0.12050575672E+01  0.17101082418E+01  0.54318903639E+01  0.51100000000E-03 0.  1.
        -12    1    3    3    0    0 -0.69940069941E+01 -0.11820811188E+01 -0.25236500510E+02  0.26214393138E+02  0.00000000000E+00 0.  1.
</event>
<event>
 7    1  0.9406864E-013  0.5052882E+02  0.7816164E-02  0.1300439E+00
        -11   -1    0    0    0    0  0.00000000000E+00  0.00000000000E+00  0.45593999997E+02  0.45594000000E+02  0.51100000000E-03 0.  1.
         11   -1    0    0    0    0 -0.00000000000E+00 -0.00000000000E+00 -0.45593999997E+02  0.45594000000E+02  0.51100000000E-03 0. -1.
    9900012    2    1    2    0    0  0.15917141946E+02 -0.35005499381E+02 -0.13207139752E+02  0.50528819793E+02  0.29999878244E+02 0.  0.
        -12    1    1    2    0    0 -0.15917141946E+02  0.35005499381E+02  0.13207139752E+02  0.40659180207E+02  0.00000000000E+00 0.  1.
         11    1    3    3    0    0 -0.26125873189E+01 -0.15394624869E+02  0.57293572331E+00  0.15625246973E+02  0.51100000000E-03 0. -1.
        -11    1    3    3    0    0  0.20313333800E+02 -0.20661237204E+02 -0.14866587024E+02  0.32565835823E+02  0.51100000000E-03 0.  1.
        -12    1    3    3    0    0 -0.17836045349E+01  0.10503626919E+01  0.10865115489E+01  0.23377369971E+01  0.00000000000E+00 0.  1.
</event>
<event>
 7    1  0.9406864E-013  0.5052886E+02  0.7816164E-02  0.1300439E+00
        -11   -1    0    0    0    0  0.00000000000E+00  0.00000000000E+00  0.45593999997E+02  0.45594000000E+02  0.51100000000E-03 0. -1.
         11   -1    0    0    0    0 -0.00000000000E+00 -0.00000000000E+00 -0.45593999997E+02  0.45594000000E+02  0.51100000000E-03 0.  1.
    9900012    2    1    2    0    0 -0.34248970764E+02 -0.15276774314E+02  0.15709683873E+02  0.50528855897E+02  0.29999987985E+02 0.  0.
        -12    1    1    2    0    0  0.34248970764E+02  0.15276774314E+02 -0.15709683873E+02  0.40659144103E+02  0.00000000000E+00 0.  1.
         11    1    3    3    0    0 -0.24925537809E+02 -0.22134403964E+01  0.13266888017E+02  0.28322995452E+02  0.51100000000E-03 0. -1.
        -11    1    3    3    0    0  0.22533321703E+01 -0.81060560603E+01  0.43456122905E+01  0.94694243311E+01  0.51100000000E-03 0.  1.
        -12    1    3    3    0    0 -0.11576765125E+02 -0.49572778570E+01 -0.19028164348E+01  0.12736436115E+02  0.00000000000E+00 0.  1.
</event>
<event>
 7    1  0.9406864E-013  0.5052886E+02  0.7816164E-02  0.1300439E+00
        -11   -1    0    0    0    0  0.00000000000E+00  0.00000000000E+00  0.45593999997E+02  0.45594000000E+02  0.51100000000E-03 0.  1.
         11   -1    0    0    0    0 -0.00000000000E+00 -0.00000000000E+00 -0.45593999997E+02  0.45594000000E+02  0.51100000000E-03 0. -1.
    9900012    2    1    2    0    0 -0.20629504169E+02 -0.23723387821E+02 -0.25783524153E+02  0.50528859703E+02  0.29999999553E+02 0.  0.
        -12    1    1    2    0    0  0.20629504169E+02  0.23723387821E+02  0.25783524153E+02  0.40659140297E+02  0.00000000000E+00 0.  1.
         11    1    3    3    0    0 -0.84612438578E+01 -0.87518823832E+00  0.13086286990E+01  0.86064575411E+01  0.51100000000E-03 0. -1.
        -11    1    3    3    0    0 -0.99286898498E+00 -0.83055876977E+01 -0.20986740510E+02  0.22592296327E+02  0.51100000000E-03 0.  1.
        -12    1    3    3    0    0 -0.11175391326E+02 -0.14542611885E+02 -0.61054123412E+01  0.19330105835E+02  0.00000000000E+00 0.  1.
</event>
<event>
 7    1  0.9406864E-013  0.5052886E+02  0.7816164E-02  0.1300439E+00
        -11   -1    0    0    0    0  0.00000000000E+00  0.00000000000E+00  0.45593999997E+02  0.45594000000E+02  0.51100000000E-03 0.  1.
         11   -1    0    0    0    0 -0.00000000000E+00 -0.00000000000E+00 -0.45593999997E+02  0.45594000000E+02  0.51100000000E-03 0. -1.
    9900012    2    1    2    0    0 -0.19317179730E+02 -0.14191825462E+02 -0.32842112677E+02  0.50528859480E+02  0.29999998877E+02 0.  0.
        -12    1    1    2    0    0  0.19317179730E+02  0.14191825462E+02  0.32842112677E+02  0.40659140520E+02  0.00000000000E+00 0.  1.
         11    1    3    3    0    0  0.42465750170E+01  0.56575524870E+01 -0.42038702607E+01  0.82288410452E+01  0.51100000000E-03 0. -1.
        -11    1    3    3    0    0 -0.76975624312E+01 -0.45892584451E+01 -0.10262223193E+02  0.13624499461E+02  0.51100000000E-03 0.  1.
         12    1    3    3    0    0 -0.15866192316E+02 -0.15260119504E+02 -0.18376019224E+02  0.28675518974E+02  0.00000000000E+00 0. -1.
</event>
<event>
 7    1  0.9406864E-013  0.5052886E+02  0.7816164E-02  0.1300439E+00
        -11   -1    0    0    0    0  0.00000000000E+00  0.00000000000E+00  0.45593999997E+02  0.45594000000E+02  0.51100000000E-03 0.  1.
         11   -1    0    0    0    0 -0.00000000000E+00 -0.00000000000E+00 -0.45593999997E+02  0.45594000000E+02  0.51100000000E-03 0. -1.
    9900012    2    1    2    0    0  0.36228044168E+02  0.26836114164E+01 -0.18261772918E+02  0.50528864439E+02  0.30000013949E+02 0.  0.
        -12    1    1    2    0    0 -0.36228044168E+02 -0.26836114164E+01  0.18261772918E+02  0.40659135561E+02  0.00000000000E+00 0.  1.
         11    1    3    3    0    0  0.34975765272E+02  0.67537367125E+01 -0.18663177218E+02  0.40214814435E+02  0.51100000000E-03 0. -1.
        -11    1    3    3    0    0  0.13628513775E+01 -0.20364648798E+01 -0.44346533128E+01  0.50666264269E+01  0.51100000000E-03 0.  1.
         12    1    3    3    0    0 -0.11057248140E+00 -0.20336604163E+01  0.48360576130E+01  0.52474235772E+01  0.00000000000E+00 0. -1.
</event>
<event>
 7    1  0.9406864E-013  0.5052886E+02  0.7816164E-02  0.1300439E+00
        -11   -1    0    0    0    0  0.00000000000E+00  0.00000000000E+00  0.45593999997E+02  0.45594000000E+02  0.51100000000E-03 0.  1.
         11   -1    0    0    0    0 -0.00000000000E+00 -0.00000000000E+00 -0.45593999997E+02  0.45594000000E+02  0.51100000000E-03 0. -1.
    9900012    2    1    2    0    0  0.11539649500E+00 -0.12098865071E+02 -0.38817134120E+02  0.50528858917E+02  0.29999997163E+02 0.  0.
        -12    1    1    2    0    0 -0.11539649500E+00  0.12098865071E+02  0.38817134120E+02  0.40659141083E+02  0.00000000000E+00 0.  1.
         11    1    3    3    0    0  0.76992097287E+01  0.18185232629E+01 -0.27008243481E+02  0.28143028861E+02  0.51100000000E-03 0. -1.
        -11    1    3    3    0    0 -0.81184057767E+01 -0.65730384181E+01 -0.29264276133E+01  0.10847918014E+02  0.51100000000E-03 0.  1.
         12    1    3    3    0    0  0.53459254295E+00 -0.73443499155E+01 -0.88824630261E+01  0.11537912042E+02  0.00000000000E+00 0. -1.
</event>
<event>
 7    1  0.9406864E-013  0.5052886E+02  0.7816164E-02  0.1300439E+00
        -11   -1    0    0    0    0  0.00000000000E+00  0.00000000000E+00  0.45593999997E+02  0.45594000000E+02  0.51100000000E-03 0.  1.
         11   -1    0    0    0    0 -0.00000000000E+00 -0.00000000000E+00 -0.45593999997E+02  0.45594000000E+02  0.51100000000E-03 0. -1.
    9900012    2    1    2    0    0 -0.19800958782E+01 -0.25288902385E+02 -0.31776029379E+02  0.50528863184E+02  0.30000010134E+02 0.  0.
        -12    1    1    2    0    0  0.19800958782E+01  0.25288902385E+02  0.31776029379E+02  0.40659136816E+02  0.00000000000E+00 0.  1.
         11    1    3    3    0    0 -0.59375936197E+01 -0.73463643681E+01 -0.47206242194E+01  0.10559752871E+02  0.51100000000E-03 0. -1.
        -11    1    3    3    0    0  0.11842377869E+02 -0.69945384316E+01 -0.21179066001E+02  0.25253085325E+02  0.51100000000E-03 0.  1.
        -12    1    3    3    0    0 -0.78848801277E+01 -0.10947999585E+02 -0.58763391582E+01  0.14716024988E+02  0.00000000000E+00 0.  1.
</event>
<event>
 7    1  0.9406864E-013  0.5052886E+02  0.7816164E-02  0.1300439E+00
        -11   -1    0    0    0    0  0.00000000000E+00  0.00000000000E+00  0.45593999997E+02  0.45594000000E+02  0.51100000000E-03 0. -1.
         11   -1    0    0    0    0 -0.00000000000E+00 -0.00000000000E+00 -0.45593999997E+02  0.45594000000E+02  0.51100000000E-03 0.  1.
    9900012    2    1    2    0    0  0.16019243370E+01 -0.18715598038E+02  0.36060029797E+02  0.50528861784E+02  0.30000005878E+02 0.  0.
        -12    1    1    2    0    0 -0.16019243370E+01  0.18715598038E+02 -0.36060029797E+02  0.40659138216E+02  0.00000000000E+00 0.  1.
         11    1    3    3    0    0  0.68410020427E+01 -0.16491677302E+02  0.25873335847E+02  0.31435715950E+02  0.51100000000E-03 0. -1.
        -11    1    3    3    0    0 -0.26235408268E+01  0.63984570812E+01  0.28744523722E+01  0.74890384023E+01  0.51100000000E-03 0.  1.
        -12    1    3    3    0    0 -0.26155368790E+01 -0.86223778170E+01  0.73122415779E+01  0.11604107431E+02  0.00000000000E+00 0.  1.
</event>
<event>
 7    1  0.9406864E-013  0.5052880E+02  0.7816164E-02  0.1300439E+00
        -11   -1    0    0    0    0  0.00000000000E+00  0.00000000000E+00  0.45593999997E+02  0.45594000000E+02  0.51100000000E-03 0. -1.
         11   -1    0    0    0    0 -0.00000000000E+00 -0.00000000000E+00 -0.45593999997E+02  0.45594000000E+02  0.51100000000E-03 0.  1.
    9900012    2    1    2    0    0 -0.94255878329E+01 -0.68799862651E+01  0.38948620415E+02  0.50528795024E+02  0.29999802956E+02 0.  0.
        -12    1    1    2    0    0  0.94255878329E+01  0.68799862651E+01 -0.38948620415E+02  0.40659204976E+02  0.00000000000E+00 0.  1.
         11    1    3    3    0    0 -0.85449501078E+01 -0.70121277898E+01  0.17126778457E+02  0.20384127380E+02  0.51100000000E-03 0. -1.
        -11    1    3    3    0    0  0.86606436070E+01  0.50679532335E+01  0.98796432338E+01  0.14081841085E+02  0.51100000000E-03 0.  1.
        -12    1    3    3    0    0 -0.95412813321E+01 -0.49358117088E+01  0.11942198725E+02  0.16062826559E+02  0.00000000000E+00 0.  1.
</event>
<event>
 7    1  0.9406864E-013  0.5052885E+02  0.7816164E-02  0.1300439E+00
        -11   -1    0    0    0    0  0.00000000000E+00  0.00000000000E+00  0.45593999997E+02  0.45594000000E+02  0.51100000000E-03 0.  1.
         11   -1    0    0    0    0 -0.00000000000E+00 -0.00000000000E+00 -0.45593999997E+02  0.45594000000E+02  0.51100000000E-03 0. -1.
    9900012    2    1    2    0    0  0.32008230145E+02 -0.15486636963E+01 -0.25024820207E+02  0.50528846262E+02  0.29999958698E+02 0.  0.
        -12    1    1    2    0    0 -0.32008230145E+02  0.15486636963E+01  0.25024820207E+02  0.40659153738E+02  0.00000000000E+00 0.  1.
         11    1    3    3    0    0  0.32966000750E+02  0.56605494435E+01 -0.25051746927E+02  0.41789819930E+02  0.51100000000E-03 0. -1.
        -11    1    3    3    0    0  0.47326670019E+00 -0.71369945717E+01 -0.59425542328E+00  0.71773123560E+01  0.51100000000E-03 0.  1.
        -12    1    3    3    0    0 -0.14310373045E+01 -0.72218568049E-01  0.62118214271E+00  0.15617139760E+01  0.00000000000E+00 0.  1.
</event>
<event>
 7    1  0.9406864E-013  0.5052886E+02  0.7816164E-02  0.1300439E+00
        -11   -1    0    0    0    0  0.00000000000E+00  0.00000000000E+00  0.45593999997E+02  0.45594000000E+02  0.51100000000E-03 0. -1.
         11   -1    0    0    0    0 -0.00000000000E+00 -0.00000000000E+00 -0.45593999997E+02  0.45594000000E+02  0.51100000000E-03 0.  1.
    9900012    2    1    2    0    0 -0.25131432939E+02 -0.15759860252E+02  0.27806542401E+02  0.50528856907E+02  0.29999991055E+02 0.  0.
        -12    1    1    2    0    0  0.25131432939E+02  0.15759860252E+02 -0.27806542401E+02  0.40659143093E+02  0.00000000000E+00 0.  1.
         11    1    3    3    0    0 -0.14155082559E+02 -0.12908096663E+01  0.16106104036E+02  0.21481134498E+02  0.51100000000E-03 0. -1.
        -11    1    3    3    0    0  0.46048468040E+01 -0.27008445096E+01 -0.14187209796E+01  0.55237618190E+01  0.51100000000E-03 0.  1.
        -12    1    3    3    0    0 -0.15581197184E+02 -0.11768206076E+02  0.13119159345E+02  0.23523960591E+02  0.00000000000E+00 0.  1.
</event>
<event>
 7    1  0.9406864E-013  0.5052883E+02  0.7816164E-02  0.1300439E+00
        -11   -1    0    0    0    0  0.00000000000E+00  0.00000000000E+00  0.45593999997E+02  0.45594000000E+02  0.51100000000E-03 0. -1.
         11   -1    0    0    0    0 -0.00000000000E+00 -0.00000000000E+00 -0.45593999997E+02  0.45594000000E+02  0.51100000000E-03 0.  1.
    9900012    2    1    2    0    0 -0.35040414462E+02  0.12603034694E+02  0.16324867613E+02  0.50528825983E+02  0.29999897058E+02 0.  0.
        -12    1    1    2    0    0  0.35040414462E+02 -0.12603034694E+02 -0.16324867613E+02  0.40659174017E+02  0.00000000000E+00 0.  1.
         11    1    3    3    0    0 -0.95726144055E+00  0.11396694149E+01  0.80873095137E+01  0.82231241796E+01  0.51100000000E-03 0. -1.
        -11    1    3    3    0    0 -0.29782434276E+02  0.17144075392E+02  0.65400265385E+01  0.34981204380E+02  0.51100000000E-03 0.  1.
        -12    1    3    3    0    0 -0.43007187448E+01 -0.56807101131E+01  0.16975315611E+01  0.73244974238E+01  0.00000000000E+00 0.  1.
</event>
<event>
 7    1  0.9406864E-013  0.5052893E+02  0.7816164E-02  0.1300439E+00
        -11   -1    0    0    0    0  0.00000000000E+00  0.00000000000E+00  0.45593999997E+02  0.45594000000E+02  0.51100000000E-03 0.  1.
         11   -1    0    0    0    0 -0.00000000000E+00 -0.00000000000E+00 -0.45593999997E+02  0.45594000000E+02  0.51100000000E-03 0. -1.
    9900012    2    1    2    0    0 -0.12059036978E+02  0.17448654541E+02 -0.34688387688E+02  0.50528927722E+02  0.30000206303E+02 0.  0.
        -12    1    1    2    0    0  0.12059036978E+02 -0.17448654541E+02  0.34688387688E+02  0.40659072278E+02  0.00000000000E+00 0.  1.
         11    1    3    3    0    0  0.81659152396E+01 -0.11841128786E+01 -0.50534017373E+01  0.96758030359E+01  0.51100000000E-03 0. -1.
        -11    1    3    3    0    0 -0.54795994244E+01  0.59013707444E+01 -0.12711470751E+02  0.15047713296E+02  0.51100000000E-03 0.  1.
         12    1    3    3    0    0 -0.14745352794E+02  0.12731396675E+02 -0.16923515200E+02  0.25805411390E+02  0.00000000000E+00 0. -1.
</event>
<event>
 7    1  0.9406864E-013  0.5052884E+02  0.7816164E-02  0.1300439E+00
        -11   -1    0    0    0    0  0.00000000000E+00  0.00000000000E+00  0.45593999997E+02  0.45594000000E+02  0.51100000000E-03 0.  1.
         11   -1    0    0    0    0 -0.00000000000E+00 -0.00000000000E+00 -0.45593999997E+02  0.45594000000E+02  0.51100000000E-03 0. -1.
    9900012    2    1    2    0    0 -0.29485122089E+01 -0.34565005860E+02  0.21206921860E+02  0.50528844953E+02  0.29999954720E+02 0.  0.
        -12    1    1    2    0    0  0.29485122089E+01  0.34565005860E+02 -0.21206921860E+02  0.40659155047E+02  0.00000000000E+00 0.  1.
         11    1    3    3    0    0  0.88734782003E+01 -0.36482982718E+01  0.49151130487E+00  0.96067829826E+01  0.51100000000E-03 0. -1.
        -11    1    3    3    0    0 -0.98273171517E+01 -0.10241190726E+02  0.57175024963E+01  0.15301894815E+02  0.51100000000E-03 0.  1.
         12    1    3    3    0    0 -0.19946732575E+01 -0.20675516862E+02  0.14997908059E+02  0.25620167155E+02  0.00000000000E+00 0. -1.
</event>
<event>
 7    1  0.9406864E-013  0.5052886E+02  0.7816164E-02  0.1300439E+00
        -11   -1    0    0    0    0  0.00000000000E+00  0.00000000000E+00  0.45593999997E+02  0.45594000000E+02  0.51100000000E-03 0.  1.
         11   -1    0    0    0    0 -0.00000000000E+00 -0.00000000000E+00 -0.45593999997E+02  0.45594000000E+02  0.51100000000E-03 0. -1.
    9900012    2    1    2    0    0 -0.73327299649E+01  0.35115746985E+02 -0.19138470319E+02  0.50528860053E+02  0.30000000618E+02 0.  0.
        -12    1    1    2    0    0  0.73327299649E+01 -0.35115746985E+02  0.19138470319E+02  0.40659139947E+02  0.00000000000E+00 0.  1.
         11    1    3    3    0    0  0.52564572572E+01  0.79053519090E+01  0.16460794823E+01  0.96350666643E+01  0.51100000000E-03 0.  1.
        -11    1    3    3    0    0 -0.52044161705E+01  0.27196797894E+02 -0.14856392963E+02  0.31423942711E+02  0.51100000000E-03 0. -1.
        -12    1    3    3    0    0 -0.73847710517E+01  0.13597181829E-01 -0.59281568378E+01  0.94698506779E+01  0.00000000000E+00 0.  1.
</event>
<event>
 7    1  0.9406864E-013  0.5052886E+02  0.7816164E-02  0.1300439E+00
        -11   -1    0    0    0    0  0.00000000000E+00  0.00000000000E+00  0.45593999997E+02  0.45594000000E+02  0.51100000000E-03 0.  1.
         11   -1    0    0    0    0 -0.00000000000E+00 -0.00000000000E+00 -0.45593999997E+02  0.45594000000E+02  0.51100000000E-03 0. -1.
    9900012    2    1    2    0    0  0.81910476175E+00 -0.40082759568E+02 -0.67725028747E+01  0.50528863974E+02  0.30000012534E+02 0.  0.
        -12    1    1    2    0    0 -0.81910476175E+00  0.40082759568E+02  0.67725028747E+01  0.40659136026E+02  0.00000000000E+00 0.  1.
         11    1    3    3    0    0  0.40069358501E+01 -0.14606919896E+02 -0.76072942788E+01  0.16949589088E+02  0.51100000000E-03 0. -1.
        -11    1    3    3    0    0 -0.10631951459E+02 -0.16554900652E+02 -0.53874374443E+01  0.20399206110E+02  0.51100000000E-03 0.  1.
        -12    1    3    3    0    0  0.74441203704E+01 -0.89209390207E+01  0.62222288484E+01  0.13180068776E+02  0.00000000000E+00 0.  1.
</event>
<event>
 7    1  0.9406864E-013  0.5052886E+02  0.7816164E-02  0.1300439E+00
        -11   -1    0    0    0    0  0.00000000000E+00  0.00000000000E+00  0.45593999997E+02  0.45594000000E+02  0.51100000000E-03 0.  1.
         11   -1    0    0    0    0 -0.00000000000E+00 -0.00000000000E+00 -0.45593999997E+02  0.45594000000E+02  0.51100000000E-03 0. -1.
    9900012    2    1    2    0    0 -0.20940408731E+01 -0.24173587693E+02 -0.32625427693E+02  0.50528857347E+02  0.29999992392E+02 0.  0.
        -12    1    1    2    0    0  0.20940408731E+01  0.24173587693E+02  0.32625427693E+02  0.40659142653E+02  0.00000000000E+00 0.  1.
         11    1    3    3    0    0 -0.36102156603E+01  0.22973188812E+01 -0.28426013727E+01  0.51372866361E+01  0.51100000000E-03 0. -1.
        -11    1    3    3    0    0 -0.89292247731E+00 -0.28732536585E+02 -0.30603059592E+02  0.41986941134E+02  0.51100000000E-03 0.  1.
        -12    1    3    3    0    0  0.24090972645E+01  0.22616300105E+01  0.82023327197E+00  0.34046295767E+01  0.00000000000E+00 0.  1.
</event>
<event>
 7    1  0.9406864E-013  0.5052886E+02  0.7816164E-02  0.1300439E+00
        -11   -1    0    0    0    0  0.00000000000E+00  0.00000000000E+00  0.45593999997E+02  0.45594000000E+02  0.51100000000E-03 0.  1.
         11   -1    0    0    0    0 -0.00000000000E+00 -0.00000000000E+00 -0.45593999997E+02  0.45594000000E+02  0.51100000000E-03 0. -1.
    9900012    2    1    2    0    0  0.30008481311E+02  0.62483533144E+01 -0.26713571717E+02  0.50528858548E+02  0.29999996042E+02 0.  0.
        -12    1    1    2    0    0 -0.30008481311E+02 -0.62483533144E+01  0.26713571717E+02  0.40659141452E+02  0.00000000000E+00 0.  1.
         11    1    3    3    0    0  0.86106897730E+01 -0.63485606932E+00 -0.12135195421E+02  0.14893286701E+02  0.51100000000E-03 0.  1.
        -11    1    3    3    0    0  0.70400105134E+01  0.13826056290E+02 -0.26967281718E+01  0.15747822822E+02  0.51100000000E-03 0. -1.
        -12    1    3    3    0    0  0.14357781025E+02 -0.69428469058E+01 -0.11881648124E+02  0.19887749024E+02  0.00000000000E+00 0.  1.
</event>
<event>
 7    1  0.9406864E-013  0.5052884E+02  0.7816164E-02  0.1300439E+00
        -11   -1    0    0    0    0  0.00000000000E+00  0.00000000000E+00  0.45593999997E+02  0.45594000000E+02  0.51100000000E-03 0.  1.
         11   -1    0    0    0    0 -0.00000000000E+00 -0.00000000000E+00 -0.45593999997E+02  0.45594000000E+02  0.51100000000E-03 0. -1.
    9900012    2    1    2    0    0 -0.28172610757E+01  0.35377071845E+02 -0.19841694077E+02  0.50528843637E+02  0.29999950719E+02 0.  0.
        -12    1    1    2    0    0  0.28172610757E+01 -0.35377071845E+02  0.19841694077E+02  0.40659156363E+02  0.00000000000E+00 0.  1.
         11    1    3    3    0    0  0.51072560957E+01 -0.10843026822E+00 -0.94648759707E+01  0.10755449751E+02  0.51100000000E-03 0.  1.
        -11    1    3    3    0    0 -0.10552518398E+02  0.31477872993E+02 -0.10922112718E+02  0.34950031176E+02  0.51100000000E-03 0. -1.
        -12    1    3    3    0    0  0.26280012266E+01  0.40076291202E+01  0.54529461189E+00  0.48233627093E+01  0.00000000000E+00 0.  1.
</event>
<event>
 7    1  0.9406864E-013  0.5052886E+02  0.7816164E-02  0.1300439E+00
        -11   -1    0    0    0    0  0.00000000000E+00  0.00000000000E+00  0.45593999997E+02  0.45594000000E+02  0.51100000000E-03 0. -1.
         11   -1    0    0    0    0 -0.00000000000E+00 -0.00000000000E+00 -0.45593999997E+02  0.45594000000E+02  0.51100000000E-03 0.  1.
    9900012    2    1    2    0    0 -0.28778272999E+02 -0.28155137596E+02  0.56801855532E+01  0.50528864768E+02  0.30000014950E+02 0.  0.
        -12    1    1    2    0    0  0.28778272999E+02  0.28155137596E+02 -0.56801855532E+01  0.40659135232E+02  0.00000000000E+00 0.  1.
         11    1    3    3    0    0  0.81721460957E+00 -0.53228845745E+01  0.64679586897E+01  0.84163786621E+01  0.51100000000E-03 0. -1.
        -11    1    3    3    0    0 -0.20145521280E+02 -0.24660456165E+02 -0.36977432363E+01  0.32057034037E+02  0.51100000000E-03 0.  1.
        -12    1    3    3    0    0 -0.94499663282E+01  0.18282031437E+01  0.29099700997E+01  0.10055452069E+02  0.00000000000E+00 0.  1.
</event>
<event>
 7    1  0.9406864E-013  0.5052886E+02  0.7816164E-02  0.1300439E+00
        -11   -1    0    0    0    0  0.00000000000E+00  0.00000000000E+00  0.45593999997E+02  0.45594000000E+02  0.51100000000E-03 0. -1.
         11   -1    0    0    0    0 -0.00000000000E+00 -0.00000000000E+00 -0.45593999997E+02  0.45594000000E+02  0.51100000000E-03 0.  1.
    9900012    2    1    2    0    0  0.21680782953E+02  0.27756941624E+02  0.20314075554E+02  0.50528858059E+02  0.29999994556E+02 0.  0.
        -12    1    1    2    0    0 -0.21680782953E+02 -0.27756941624E+02 -0.20314075554E+02  0.40659141941E+02  0.00000000000E+00 0.  1.
         11    1    3    3    0    0 -0.16454261079E+01  0.11386160903E+01  0.62850374412E+01  0.65958751941E+01  0.51100000000E-03 0. -1.
        -11    1    3    3    0    0  0.93612884596E+01  0.25941842801E+02  0.80783005845E+01  0.28737986536E+02  0.51100000000E-03 0.  1.
        -12    1    3    3    0    0  0.13964920602E+02  0.67648273186E+00  0.59507375282E+01  0.15194996329E+02  0.00000000000E+00 0.  1.
</event>
<event>
 7    1  0.9406864E-013  0.5052886E+02  0.7816164E-02  0.1300439E+00
        -11   -1    0    0    0    0  0.00000000000E+00  0.00000000000E+00  0.45593999997E+02  0.45594000000E+02  0.51100000000E-03 0.  1.
         11   -1    0    0    0    0 -0.00000000000E+00 -0.00000000000E+00 -0.45593999997E+02  0.45594000000E+02  0.51100000000E-03 0. -1.
    9900012    2    1    2    0    0 -0.31221740544E+02  0.23852149416E+02 -0.10461522796E+02  0.50528861131E+02  0.30000003895E+02 0.  0.
        -12    1    1    2    0    0  0.31221740544E+02 -0.23852149416E+02  0.10461522796E+02  0.40659138869E+02  0.00000000000E+00 0.  1.
         11    1    3    3    0    0 -0.18906292239E+02  0.41652416744E+01 -0.98836800999E+01  0.21736702993E+02  0.51100000000E-03 0. -1.
        -11    1    3    3    0    0 -0.36313150087E+01  0.14014963151E+02 -0.75167904542E+01  0.16312810298E+02  0.51100000000E-03 0.  1.
         12    1    3    3    0    0 -0.86841332964E+01  0.56719445903E+01  0.69389477583E+01  0.12479347841E+02  0.00000000000E+00 0. -1.
</event>
<event>
 7    1  0.9406864E-013  0.5052887E+02  0.7816164E-02  0.1300439E+00
        -11   -1    0    0    0    0  0.00000000000E+00  0.00000000000E+00  0.45593999997E+02  0.45594000000E+02  0.51100000000E-03 0. -1.
         11   -1    0    0    0    0 -0.00000000000E+00 -0.00000000000E+00 -0.45593999997E+02  0.45594000000E+02  0.51100000000E-03 0.  1.
    9900012    2    1    2    0    0  0.37024331702E+02 -0.32081750423E+00  0.16800622890E+02  0.50528868291E+02  0.30000025658E+02 0.  0.
        -12    1    1    2    0    0 -0.37024331702E+02  0.32081750423E+00 -0.16800622890E+02  0.40659131709E+02  0.00000000000E+00 0.  1.
         11    1    3    3    0    0  0.79843168101E+01 -0.15400164045E+01  0.10433119155E+02  0.13227658183E+02  0.51100000000E-03 0. -1.
        -11    1    3    3    0    0  0.60891360011E+00  0.52945060219E+01 -0.41078916814E+01  0.67288441887E+01  0.51100000000E-03 0.  1.
        -12    1    3    3    0    0  0.28431101291E+02 -0.40753071216E+01  0.10475395417E+02  0.30572365920E+02  0.00000000000E+00 0.  1.
</event>
<event>
 7    1  0.9406864E-013  0.5052886E+02  0.7816164E-02  0.1300439E+00
        -11   -1    0    0    0    0  0.00000000000E+00  0.00000000000E+00  0.45593999997E+02  0.45594000000E+02  0.51100000000E-03 0.  1.
         11   -1    0    0    0    0 -0.00000000000E+00 -0.00000000000E+00 -0.45593999997E+02  0.45594000000E+02  0.51100000000E-03 0. -1.
    9900012    2    1    2    0    0 -0.28021662030E+02 -0.51755672935E+01 -0.29002856214E+02  0.50528859474E+02  0.29999998857E+02 0.  0.
        -12    1    1    2    0    0  0.28021662030E+02  0.51755672935E+01  0.29002856214E+02  0.40659140526E+02  0.00000000000E+00 0.  1.
         11    1    3    3    0    0 -0.25999183283E+02 -0.11925095138E+02 -0.23604819779E+02  0.37085751206E+02  0.51100000000E-03 0. -1.
        -11    1    3    3    0    0 -0.40507253945E+01  0.63745872686E+01  0.11841620925E+00  0.75536588304E+01  0.51100000000E-03 0.  1.
         12    1    3    3    0    0  0.20282466476E+01  0.37494057573E+00 -0.55164526448E+01  0.58894494378E+01  0.00000000000E+00 0. -1.
</event>
<event>
 7    1  0.9406864E-013  0.5052887E+02  0.7816164E-02  0.1300439E+00
        -11   -1    0    0    0    0  0.00000000000E+00  0.00000000000E+00  0.45593999997E+02  0.45594000000E+02  0.51100000000E-03 0.  1.
         11   -1    0    0    0    0 -0.00000000000E+00 -0.00000000000E+00 -0.45593999997E+02  0.45594000000E+02  0.51100000000E-03 0. -1.
    9900012    2    1    2    0    0 -0.29700499529E+02 -0.15168860413E+02 -0.23258351927E+02  0.50528869010E+02  0.30000027843E+02 0.  0.
        -12    1    1    2    0    0  0.29700499529E+02  0.15168860413E+02  0.23258351927E+02  0.40659130990E+02  0.00000000000E+00 0.  1.
         11    1    3    3    0    0 -0.26974684179E+02 -0.15339862399E+02 -0.20042557452E+02  0.36941156918E+02  0.51100000000E-03 0. -1.
        -11    1    3    3    0    0  0.39794244193E+01  0.29221286418E+01  0.12262587762E+01  0.50870782730E+01  0.51100000000E-03 0.  1.
        -12    1    3    3    0    0 -0.67052397688E+01 -0.27511266556E+01 -0.44420532519E+01  0.85006338190E+01  0.00000000000E+00 0.  1.
</event>
<event>
 7    1  0.9406864E-013  0.5052886E+02  0.7816164E-02  0.1300439E+00
        -11   -1    0    0    0    0  0.00000000000E+00  0.00000000000E+00  0.45593999997E+02  0.45594000000E+02  0.51100000000E-03 0. -1.
         11   -1    0    0    0    0 -0.00000000000E+00 -0.00000000000E+00 -0.45593999997E+02  0.45594000000E+02  0.51100000000E-03 0.  1.
    9900012    2    1    2    0    0 -0.17116925278E+02  0.19179603391E+02  0.31501099673E+02  0.50528860833E+02  0.30000002989E+02 0.  0.
        -12    1    1    2    0    0  0.17116925278E+02 -0.19179603391E+02 -0.31501099673E+02  0.40659139167E+02  0.00000000000E+00 0.  1.
         11    1    3    3    0    0 -0.48632217481E+01  0.11598362253E+02  0.10131625051E+02  0.16150008024E+02  0.51100000000E-03 0. -1.
        -11    1    3    3    0    0  0.58580174305E+01  0.21065664386E+01  0.55539072434E+00  0.62499959595E+01  0.51100000000E-03 0.  1.
        -12    1    3    3    0    0 -0.18111720960E+02  0.54746746987E+01  0.20814083898E+02  0.28128856850E+02  0.00000000000E+00 0.  1.
</event>
<event>
 7    1  0.9406864E-013  0.5052886E+02  0.7816164E-02  0.1300439E+00
        -11   -1    0    0    0    0  0.00000000000E+00  0.00000000000E+00  0.45593999997E+02  0.45594000000E+02  0.51100000000E-03 0. -1.
         11   -1    0    0    0    0 -0.00000000000E+00 -0.00000000000E+00 -0.45593999997E+02  0.45594000000E+02  0.51100000000E-03 0.  1.
    9900012    2    1    2    0    0  0.33026415661E+02  0.23689680793E+02 -0.11047981797E+01  0.50528859742E+02  0.29999999672E+02 0.  0.
        -12    1    1    2    0    0 -0.33026415661E+02 -0.23689680793E+02  0.11047981797E+01  0.40659140258E+02  0.00000000000E+00 0.  1.
         11    1    3    3    0    0 -0.18168260493E+01  0.13060242278E+02 -0.20163662139E+01  0.13339284772E+02  0.51100000000E-03 0. -1.
        -11    1    3    3    0    0  0.21035386761E+02  0.52467454067E+01 -0.29375220485E+01  0.21877953962E+02  0.51100000000E-03 0.  1.
         12    1    3    3    0    0  0.13807854950E+02  0.53826931077E+01  0.38490900827E+01  0.15311621007E+02  0.00000000000E+00 0. -1.
</event>
<event>
 7    1  0.9406864E-013  0.5052888E+02  0.7816164E-02  0.1300439E+00
        -11   -1    0    0    0    0  0.00000000000E+00  0.00000000000E+00  0.45593999997E+02  0.45594000000E+02  0.51100000000E-03 0. -1.
         11   -1    0    0    0    0 -0.00000000000E+00 -0.00000000000E+00 -0.45593999997E+02  0.45594000000E+02  0.51100000000E-03 0.  1.
    9900012    2    1    2    0    0 -0.31883419371E+02 -0.24644135357E+02  0.54109188627E+01  0.50528881943E+02  0.30000067153E+02 0.  0.
        -12    1    1    2    0    0  0.31883419371E+02  0.24644135357E+02 -0.54109188627E+01  0.40659118057E+02  0.00000000000E+00 0.  1.
         11    1    3    3    0    0 -0.16187419904E+02 -0.27138100721E+02 -0.16774610757E+01  0.31643687361E+02  0.51100000000E-03 0. -1.
        -11    1    3    3    0    0 -0.73794885829E+01 -0.12110609675E+01  0.62429271878E+01  0.97415430269E+01  0.51100000000E-03 0.  1.
         12    1    3    3    0    0 -0.83165108841E+01  0.37050263316E+01  0.84545275070E+00  0.91436515549E+01  0.00000000000E+00 0. -1.
</event>
<event>
 7    1  0.9406864E-013  0.5052887E+02  0.7816164E-02  0.1300439E+00
        -11   -1    0    0    0    0  0.00000000000E+00  0.00000000000E+00  0.45593999997E+02  0.45594000000E+02  0.51100000000E-03 0.  1.
         11   -1    0    0    0    0 -0.00000000000E+00 -0.00000000000E+00 -0.45593999997E+02  0.45594000000E+02  0.51100000000E-03 0. -1.
    9900012    2    1    2    0    0 -0.26456662584E+02 -0.14634187691E+02 -0.27185487308E+02  0.50528866160E+02  0.30000019179E+02 0.  0.
        -12    1    1    2    0    0  0.26456662584E+02  0.14634187691E+02  0.27185487308E+02  0.40659133840E+02  0.00000000000E+00 0.  1.
         11    1    3    3    0    0 -0.76525809572E+01 -0.11551088169E+02 -0.14432231097E+02  0.20006971983E+02  0.51100000000E-03 0. -1.
        -11    1    3    3    0    0 -0.46607171311E+01 -0.81079105957E+00  0.55415535801E+01  0.72861843691E+01  0.51100000000E-03 0.  1.
         12    1    3    3    0    0 -0.14143364496E+02 -0.22723084620E+01 -0.18294809791E+02  0.23235709808E+02  0.00000000000E+00 0. -1.
</event>
<event>
 7    1  0.9406864E-013  0.5052884E+02  0.7816164E-02  0.1300439E+00
        -11   -1    0    0    0    0  0.00000000000E+00  0.00000000000E+00  0.45593999997E+02  0.45594000000E+02  0.51100000000E-03 0.  1.
         11   -1    0    0    0    0 -0.00000000000E+00 -0.00000000000E+00 -0.45593999997E+02  0.45594000000E+02  0.51100000000E-03 0. -1.
    9900012    2    1    2    0    0  0.22016817681E+02  0.30565312208E+02  0.15303220726E+02  0.50528841920E+02  0.29999945499E+02 0.  0.
        -12    1    1    2    0    0 -0.22016817681E+02 -0.30565312208E+02 -0.15303220726E+02  0.40659158080E+02  0.00000000000E+00 0.  1.
         11    1    3    3    0    0  0.32209279844E+01  0.24993526947E+02  0.16800742332E+02  0.30287220234E+02  0.51100000000E-03 0. -1.
        -11    1    3    3    0    0  0.38703591366E+01 -0.59006284564E+00  0.59186330958E+00  0.39595651840E+01  0.51100000000E-03 0.  1.
         12    1    3    3    0    0  0.14925530560E+02  0.61618481066E+01 -0.20893849154E+01  0.16282056502E+02  0.00000000000E+00 0. -1.
</event>
<event>
 7    1  0.9406864E-013  0.5052886E+02  0.7816164E-02  0.1300439E+00
        -11   -1    0    0    0    0  0.00000000000E+00  0.00000000000E+00  0.45593999997E+02  0.45594000000E+02  0.51100000000E-03 0. -1.
         11   -1    0    0    0    0 -0.00000000000E+00 -0.00000000000E+00 -0.45593999997E+02  0.45594000000E+02  0.51100000000E-03 0.  1.
    9900012    2    1    2    0    0 -0.29398541812E+02  0.21354704488E+02  0.18244678967E+02  0.50528856194E+02  0.29999988888E+02 0.  0.
        -12    1    1    2    0    0  0.29398541812E+02 -0.21354704488E+02 -0.18244678967E+02  0.40659143806E+02  0.00000000000E+00 0.  1.
         11    1    3    3    0    0 -0.17739171905E+01  0.41823558819E+01  0.81718588895E+01  0.93497679593E+01  0.51100000000E-03 0. -1.
        -11    1    3    3    0    0 -0.91171879988E+01  0.18211826309E+01 -0.70432697247E+01  0.11663938951E+02  0.51100000000E-03 0.  1.
        -12    1    3    3    0    0 -0.18507436622E+02  0.15351165975E+02  0.17116089802E+02  0.29515149284E+02  0.00000000000E+00 0.  1.
</event>
<event>
 7    1  0.9406864E-013  0.5052887E+02  0.7816164E-02  0.1300439E+00
        -11   -1    0    0    0    0  0.00000000000E+00  0.00000000000E+00  0.45593999997E+02  0.45594000000E+02  0.51100000000E-03 0.  1.
         11   -1    0    0    0    0 -0.00000000000E+00 -0.00000000000E+00 -0.45593999997E+02  0.45594000000E+02  0.51100000000E-03 0. -1.
    9900012    2    1    2    0    0  0.41390606844E+01  0.43790215915E+01 -0.40210159315E+02  0.50528873526E+02  0.30000041570E+02 0.  0.
        -12    1    1    2    0    0 -0.41390606844E+01 -0.43790215915E+01  0.40210159315E+02  0.40659126474E+02  0.00000000000E+00 0.  1.
         11    1    3    3    0    0 -0.50566023903E+01 -0.10555804194E+01 -0.15805439343E+02  0.16628150554E+02  0.51100000000E-03 0. -1.
        -11    1    3    3    0    0  0.14667725446E+02  0.47934318322E+01 -0.97716818877E+01  0.18264854932E+02  0.51100000000E-03 0.  1.
        -12    1    3    3    0    0 -0.54720623715E+01  0.64117017867E+00 -0.14633038085E+02  0.15635868041E+02  0.00000000000E+00 0.  1.
</event>
<event>
 7    1  0.9406864E-013  0.5052886E+02  0.7816164E-02  0.1300439E+00
        -11   -1    0    0    0    0  0.00000000000E+00  0.00000000000E+00  0.45593999997E+02  0.45594000000E+02  0.51100000000E-03 0.  1.
         11   -1    0    0    0    0 -0.00000000000E+00 -0.00000000000E+00 -0.45593999997E+02  0.45594000000E+02  0.51100000000E-03 0. -1.
    9900012    2    1    2    0    0  0.18299190687E+02  0.35103238834E+02 -0.92772748338E+01  0.50528860993E+02  0.30000003476E+02 0.  0.
        -12    1    1    2    0    0 -0.18299190687E+02 -0.35103238834E+02  0.92772748338E+01  0.40659139007E+02  0.00000000000E+00 0.  1.
         11    1    3    3    0    0  0.16410873999E+02  0.19429823377E+02  0.51032506876E+01  0.25939891860E+02  0.51100000000E-03 0. -1.
        -11    1    3    3    0    0  0.30129249129E+01  0.13671694081E+01  0.10938271092E+01  0.34847276403E+01  0.51100000000E-03 0.  1.
         12    1    3    3    0    0 -0.11246082253E+01  0.14306246049E+02 -0.15474352630E+02  0.21104241493E+02  0.00000000000E+00 0. -1.
</event>
<event>
 7    1  0.9406864E-013  0.5052885E+02  0.7816164E-02  0.1300439E+00
        -11   -1    0    0    0    0  0.00000000000E+00  0.00000000000E+00  0.45593999997E+02  0.45594000000E+02  0.51100000000E-03 0. -1.
         11   -1    0    0    0    0 -0.00000000000E+00 -0.00000000000E+00 -0.45593999997E+02  0.45594000000E+02  0.51100000000E-03 0.  1.
    9900012    2    1    2    0    0 -0.14826628143E+02 -0.34384862825E+02  0.15843562592E+02  0.50528853807E+02  0.29999981631E+02 0.  0.
        -12    1    1    2    0    0  0.14826628143E+02  0.34384862825E+02 -0.15843562592E+02  0.40659146193E+02  0.00000000000E+00 0.  1.
         11    1    3    3    0    0 -0.77481205093E+01 -0.18873212353E+02 -0.38449650548E+01  0.20760907314E+02  0.51100000000E-03 0. -1.
        -11    1    3    3    0    0 -0.17530844723E+01 -0.28779523195E+01  0.14852204673E+02  0.15229704483E+02  0.51100000000E-03 0.  1.
        -12    1    3    3    0    0 -0.53254231615E+01 -0.12633698152E+02  0.48363229735E+01  0.14538242010E+02  0.00000000000E+00 0.  1.
</event>
<event>
 7    1  0.9406864E-013  0.5052886E+02  0.7816164E-02  0.1300439E+00
        -11   -1    0    0    0    0  0.00000000000E+00  0.00000000000E+00  0.45593999997E+02  0.45594000000E+02  0.51100000000E-03 0.  1.
         11   -1    0    0    0    0 -0.00000000000E+00 -0.00000000000E+00 -0.45593999997E+02  0.45594000000E+02  0.51100000000E-03 0. -1.
    9900012    2    1    2    0    0 -0.38280324365E+02 -0.57378305375E+01 -0.12444274923E+02  0.50528856980E+02  0.29999991277E+02 0.  0.
        -12    1    1    2    0    0  0.38280324365E+02  0.57378305375E+01  0.12444274923E+02  0.40659143020E+02  0.00000000000E+00 0.  1.
         11    1    3    3    0    0 -0.27414271617E+02 -0.54509434226E+01 -0.76932768162E+01  0.28990370486E+02  0.51100000000E-03 0. -1.
        -11    1    3    3    0    0  0.34239677672E+01  0.34879890658E+01 -0.46670722094E+01  0.67580460388E+01  0.51100000000E-03 0.  1.
        -12    1    3    3    0    0 -0.14290020515E+02 -0.37748761807E+01 -0.83925897141E-01  0.14780440455E+02  0.00000000000E+00 0.  1.
</event>
<event>
 7    1  0.9406864E-013  0.5052886E+02  0.7816164E-02  0.1300439E+00
        -11   -1    0    0    0    0  0.00000000000E+00  0.00000000000E+00  0.45593999997E+02  0.45594000000E+02  0.51100000000E-03 0. -1.
         11   -1    0    0    0    0 -0.00000000000E+00 -0.00000000000E+00 -0.45593999997E+02  0.45594000000E+02  0.51100000000E-03 0.  1.
    9900012    2    1    2    0    0  0.38290426167E+02 -0.22310559134E+01  0.13491899283E+02  0.50528859665E+02  0.29999999438E+02 0.  0.
        -12    1    1    2    0    0 -0.38290426167E+02  0.22310559134E+01 -0.13491899283E+02  0.40659140335E+02  0.00000000000E+00 0.  1.
         11    1    3    3    0    0  0.33414960955E+02 -0.73172201231E+01  0.17885908077E+02  0.38600609243E+02  0.51100000000E-03 0. -1.
        -11    1    3    3    0    0 -0.11668207433E+01  0.14951320698E+01 -0.45162832886E+01  0.48983370195E+01  0.51100000000E-03 0.  1.
         12    1    3    3    0    0  0.60422859548E+01  0.35910321400E+01  0.12227449474E+00  0.70299134022E+01  0.00000000000E+00 0. -1.
</event>
<event>
 7    1  0.9406864E-013  0.5052886E+02  0.7816164E-02  0.1300439E+00
        -11   -1    0    0    0    0  0.00000000000E+00  0.00000000000E+00  0.45593999997E+02  0.45594000000E+02  0.51100000000E-03 0.  1.
         11   -1    0    0    0    0 -0.00000000000E+00 -0.00000000000E+00 -0.45593999997E+02  0.45594000000E+02  0.51100000000E-03 0. -1.
    9900012    2    1    2    0    0 -0.93951689086E+00  0.34680576270E+02 -0.21202378738E+02  0.50528856790E+02  0.29999990700E+02 0.  0.
        -12    1    1    2    0    0  0.93951689086E+00 -0.34680576270E+02  0.21202378738E+02  0.40659143210E+02  0.00000000000E+00 0.  1.
         11    1    3    3    0    0  0.11296032341E+02  0.12437830053E+02 -0.15062724281E+02  0.22565141836E+02  0.51100000000E-03 0. -1.
        -11    1    3    3    0    0 -0.82241758739E+01  0.98697048245E+01  0.14102692467E+01  0.12924279544E+02  0.51100000000E-03 0.  1.
         12    1    3    3    0    0 -0.40113733580E+01  0.12373041393E+02 -0.75499237033E+01  0.15039435410E+02  0.00000000000E+00 0. -1.
</event>
<event>
 7    1  0.9406864E-013  0.5052886E+02  0.7816164E-02  0.1300439E+00
        -11   -1    0    0    0    0  0.00000000000E+00  0.00000000000E+00  0.45593999997E+02  0.45594000000E+02  0.51100000000E-03 0.  1.
         11   -1    0    0    0    0 -0.00000000000E+00 -0.00000000000E+00 -0.45593999997E+02  0.45594000000E+02  0.51100000000E-03 0. -1.
    9900012    2    1    2    0    0  0.27828968486E+02 -0.75324532973E+01 -0.28670126459E+02  0.50528862148E+02  0.30000006985E+02 0.  0.
        -12    1    1    2    0    0 -0.27828968486E+02  0.75324532973E+01  0.28670126459E+02  0.40659137852E+02  0.00000000000E+00 0.  1.
         11    1    3    3    0    0  0.23681552121E+02  0.24510487337E+01 -0.22704292356E+02  0.32898456535E+02  0.51100000000E-03 0. -1.
        -11    1    3    3    0    0  0.41133673550E+01 -0.12959747934E+02 -0.51974341848E+01  0.14556379353E+02  0.51100000000E-03 0.  1.
         12    1    3    3    0    0  0.34049009694E-01  0.29762459029E+01 -0.76839991875E+00  0.30740262596E+01  0.00000000000E+00 0. -1.
</event>
<event>
 7    1  0.9406864E-013  0.5052886E+02  0.7816164E-02  0.1300439E+00
        -11   -1    0    0    0    0  0.00000000000E+00  0.00000000000E+00  0.45593999997E+02  0.45594000000E+02  0.51100000000E-03 0.  1.
         11   -1    0    0    0    0 -0.00000000000E+00 -0.00000000000E+00 -0.45593999997E+02  0.45594000000E+02  0.51100000000E-03 0. -1.
    9900012    2    1    2    0    0  0.83510565541E+01 -0.27484806710E+02 -0.28775172220E+02  0.50528864720E+02  0.30000014802E+02 0.  0.
        -12    1    1    2    0    0 -0.83510565541E+01  0.27484806710E+02  0.28775172220E+02  0.40659135280E+02  0.00000000000E+00 0.  1.
         11    1    3    3    0    0  0.54801497839E+01 -0.17050609906E+02 -0.30176103598E+02  0.35090633629E+02  0.51100000000E-03 0. -1.
        -11    1    3    3    0    0 -0.19701806794E+01 -0.36194177074E+01  0.48771174326E+01  0.63849879532E+01  0.51100000000E-03 0.  1.
         12    1    3    3    0    0  0.48410874497E+01 -0.68147790966E+01 -0.34761860542E+01  0.90532431379E+01  0.00000000000E+00 0. -1.
</event>
<event>
 7    1  0.9406864E-013  0.5052885E+02  0.7816164E-02  0.1300439E+00
        -11   -1    0    0    0    0  0.00000000000E+00  0.00000000000E+00  0.45593999997E+02  0.45594000000E+02  0.51100000000E-03 0.  1.
         11   -1    0    0    0    0 -0.00000000000E+00 -0.00000000000E+00 -0.45593999997E+02  0.45594000000E+02  0.51100000000E-03 0. -1.
    9900012    2    1    2    0    0 -0.53012260925E+01 -0.40133172144E+02  0.37936513616E+01  0.50528852258E+02  0.29999976924E+02 0.  0.
        -12    1    1    2    0    0  0.53012260925E+01  0.40133172144E+02 -0.37936513616E+01  0.40659147742E+02  0.00000000000E+00 0.  1.
         11    1    3    3    0    0  0.25476940795E+01 -0.21766226890E+02  0.11661061116E+01  0.21945823791E+02  0.51100000000E-03 0. -1.
        -11    1    3    3    0    0 -0.84796464061E+01 -0.28626833904E+01  0.81578340526E+01  0.12109897442E+02  0.51100000000E-03 0.  1.
         12    1    3    3    0    0  0.63072623408E+00 -0.15504261864E+02 -0.55302888026E+01  0.16473131025E+02  0.00000000000E+00 0. -1.
</event>
<event>
 7    1  0.9406864E-013  0.5052882E+02  0.7816164E-02  0.1300439E+00
        -11   -1    0    0    0    0  0.00000000000E+00  0.00000000000E+00  0.45593999997E+02  0.45594000000E+02  0.51100000000E-03 0.  1.
         11   -1    0    0    0    0 -0.00000000000E+00 -0.00000000000E+00 -0.45593999997E+02  0.45594000000E+02  0.51100000000E-03 0. -1.
    9900012    2    1    2    0    0  0.29661182692E+02  0.15521727178E+02 -0.23075068008E+02  0.50528824690E+02  0.29999893129E+02 0.  0.
        -12    1    1    2    0    0 -0.29661182692E+02 -0.15521727178E+02  0.23075068008E+02  0.40659175310E+02  0.00000000000E+00 0.  1.
         11    1    3    3    0    0  0.26001712077E+01  0.67737993220E+01 -0.11520617209E+02  0.13615060363E+02  0.51100000000E-03 0. -1.
        -11    1    3    3    0    0  0.27247345968E+02  0.70517011570E+01 -0.15843303608E+02  0.32297904282E+02  0.51100000000E-03 0.  1.
        -12    1    3    3    0    0 -0.18633448380E+00  0.16962266985E+01  0.42888528080E+01  0.46158600457E+01  0.00000000000E+00 0.  1.
</event>
<event>
 7    1  0.9406864E-013  0.5052888E+02  0.7816164E-02  0.1300439E+00
        -11   -1    0    0    0    0  0.00000000000E+00  0.00000000000E+00  0.45593999997E+02  0.45594000000E+02  0.51100000000E-03 0.  1.
         11   -1    0    0    0    0 -0.00000000000E+00 -0.00000000000E+00 -0.45593999997E+02  0.45594000000E+02  0.51100000000E-03 0. -1.
    9900012    2    1    2    0    0 -0.65140840055E+01  0.89667341225E+01 -0.39119417076E+02  0.50528875519E+02  0.30000047626E+02 0.  0.
        -12    1    1    2    0    0  0.65140840055E+01 -0.89667341225E+01  0.39119417076E+02  0.40659124481E+02  0.00000000000E+00 0.  1.
         11    1    3    3    0    0  0.89164881665E+00  0.17626647984E+01 -0.27293827005E+01  0.33692068785E+01  0.51100000000E-03 0. -1.
        -11    1    3    3    0    0  0.10792216235E+02  0.40181819752E+01 -0.13517436751E+02  0.17757781793E+02  0.51100000000E-03 0.  1.
        -12    1    3    3    0    0 -0.18197949057E+02  0.31858873489E+01 -0.22872597624E+02  0.29401886847E+02  0.00000000000E+00 0.  1.
</event>
<event>
 7    1  0.9406864E-013  0.5052886E+02  0.7816164E-02  0.1300439E+00
        -11   -1    0    0    0    0  0.00000000000E+00  0.00000000000E+00  0.45593999997E+02  0.45594000000E+02  0.51100000000E-03 0.  1.
         11   -1    0    0    0    0 -0.00000000000E+00 -0.00000000000E+00 -0.45593999997E+02  0.45594000000E+02  0.51100000000E-03 0. -1.
    9900012    2    1    2    0    0  0.25802535566E+02 -0.30215545542E+02  0.86264446709E+01  0.50528861031E+02  0.30000003589E+02 0.  0.
        -12    1    1    2    0    0 -0.25802535566E+02  0.30215545542E+02 -0.86264446709E+01  0.40659138969E+02  0.00000000000E+00 0.  1.
         11    1    3    3    0    0  0.16608646412E+02 -0.30297168188E+02  0.31140779656E+01  0.34690964496E+02  0.51100000000E-03 0. -1.
        -11    1    3    3    0    0  0.55182410073E+01  0.20042733310E+01  0.87767564244E+01  0.10559334685E+02  0.51100000000E-03 0.  1.
         12    1    3    3    0    0  0.36756481472E+01 -0.19226506858E+01 -0.32643897190E+01  0.52785618495E+01  0.00000000000E+00 0. -1.
</event>
<event>
 7    1  0.9406864E-013  0.5052885E+02  0.7816164E-02  0.1300439E+00
        -11   -1    0    0    0    0  0.00000000000E+00  0.00000000000E+00  0.45593999997E+02  0.45594000000E+02  0.51100000000E-03 0.  1.
         11   -1    0    0    0    0 -0.00000000000E+00 -0.00000000000E+00 -0.45593999997E+02  0.45594000000E+02  0.51100000000E-03 0. -1.
    9900012    2    1    2    0    0 -0.17880753416E+01 -0.16937937177E+02 -0.36919852698E+02  0.50528850323E+02  0.29999971042E+02 0.  0.
        -12    1    1    2    0    0  0.17880753416E+01  0.16937937177E+02  0.36919852698E+02  0.40659149677E+02  0.00000000000E+00 0.  1.
         11    1    3    3    0    0 -0.31023293726E+01  0.77893391503E+00 -0.28451586364E+01  0.42809010158E+01  0.51100000000E-03 0. -1.
        -11    1    3    3    0    0  0.12009833179E+02 -0.65837064433E+01 -0.77675574815E+01  0.15745355919E+02  0.51100000000E-03 0.  1.
        -12    1    3    3    0    0 -0.10695579148E+02 -0.11133164649E+02 -0.26307136580E+02  0.30502593389E+02  0.00000000000E+00 0.  1.
</event>
<event>
 7    1  0.9406864E-013  0.5052886E+02  0.7816164E-02  0.1300439E+00
        -11   -1    0    0    0    0  0.00000000000E+00  0.00000000000E+00  0.45593999997E+02  0.45594000000E+02  0.51100000000E-03 0.  1.
         11   -1    0    0    0    0 -0.00000000000E+00 -0.00000000000E+00 -0.45593999997E+02  0.45594000000E+02  0.51100000000E-03 0. -1.
    9900012    2    1    2    0    0  0.30725372219E+02  0.41192818237E+01  0.26308718605E+02  0.50528860125E+02  0.30000000835E+02 0.  0.
        -12    1    1    2    0    0 -0.30725372219E+02 -0.41192818237E+01 -0.26308718605E+02  0.40659139875E+02  0.00000000000E+00 0.  1.
         11    1    3    3    0    0  0.15837075235E+02  0.10826883109E+02  0.98128891424E+01  0.21548251517E+02  0.51100000000E-03 0. -1.
        -11    1    3    3    0    0  0.13640834202E+02 -0.10088865005E+02  0.61858586377E+01  0.18058859381E+02  0.51100000000E-03 0.  1.
        -12    1    3    3    0    0  0.12474627822E+01  0.33812637197E+01  0.10309970825E+02  0.10921749226E+02  0.00000000000E+00 0.  1.
</event>
<event>
 7    1  0.9406864E-013  0.5052885E+02  0.7816164E-02  0.1300439E+00
        -11   -1    0    0    0    0  0.00000000000E+00  0.00000000000E+00  0.45593999997E+02  0.45594000000E+02  0.51100000000E-03 0.  1.
         11   -1    0    0    0    0 -0.00000000000E+00 -0.00000000000E+00 -0.45593999997E+02  0.45594000000E+02  0.51100000000E-03 0. -1.
    9900012    2    1    2    0    0  0.17919127337E+02 -0.36912088093E+01 -0.36310410753E+02  0.50528854952E+02  0.29999985111E+02 0.  0.
        -12    1    1    2    0    0 -0.17919127337E+02  0.36912088093E+01  0.36310410753E+02  0.40659145048E+02  0.00000000000E+00 0.  1.
         11    1    3    3    0    0  0.12611849551E+02 -0.11873725030E+01 -0.11567569739E+02  0.17154511724E+02  0.51100000000E-03 0. -1.
        -11    1    3    3    0    0  0.13931965990E+00  0.27677497393E+01 -0.25772129732E+02  0.25920696745E+02  0.51100000000E-03 0.  1.
        -12    1    3    3    0    0  0.51679581256E+01 -0.52715860456E+01  0.10292887173E+01  0.74536464826E+01  0.00000000000E+00 0.  1.
</event>
<event>
 7    1  0.9406864E-013  0.5052887E+02  0.7816164E-02  0.1300439E+00
        -11   -1    0    0    0    0  0.00000000000E+00  0.00000000000E+00  0.45593999997E+02  0.45594000000E+02  0.51100000000E-03 0.  1.
         11   -1    0    0    0    0 -0.00000000000E+00 -0.00000000000E+00 -0.45593999997E+02  0.45594000000E+02  0.51100000000E-03 0. -1.
    9900012    2    1    2    0    0 -0.26173716208E+02 -0.22503323060E+02 -0.21487257272E+02  0.50528865799E+02  0.30000018084E+02 0.  0.
        -12    1    1    2    0    0  0.26173716208E+02  0.22503323060E+02  0.21487257272E+02  0.40659134201E+02  0.00000000000E+00 0.  1.
         11    1    3    3    0    0 -0.49652442309E+01 -0.12826344880E+02 -0.11294221793E+02  0.17796859819E+02  0.51100000000E-03 0. -1.
        -11    1    3    3    0    0  0.38230387753E+00 -0.31069478712E+01  0.47328964709E+01  0.56744683094E+01  0.51100000000E-03 0.  1.
        -12    1    3    3    0    0 -0.21590775854E+02 -0.65700303094E+01 -0.14925931950E+02  0.27057537671E+02  0.00000000000E+00 0.  1.
</event>
<event>
 7    1  0.9406864E-013  0.5052887E+02  0.7816164E-02  0.1300439E+00
        -11   -1    0    0    0    0  0.00000000000E+00  0.00000000000E+00  0.45593999997E+02  0.45594000000E+02  0.51100000000E-03 0. -1.
         11   -1    0    0    0    0 -0.00000000000E+00 -0.00000000000E+00 -0.45593999997E+02  0.45594000000E+02  0.51100000000E-03 0.  1.
    9900012    2    1    2    0    0  0.66949685928E+01 -0.22484349024E+02  0.33208380803E+02  0.50528866819E+02  0.30000021183E+02 0.  0.
        -12    1    1    2    0    0 -0.66949685928E+01  0.22484349024E+02 -0.33208380803E+02  0.40659133181E+02  0.00000000000E+00 0.  1.
         11    1    3    3    0    0  0.58044042917E+01  0.50232558108E+00 -0.35264133188E+01  0.68102152188E+01  0.51100000000E-03 0.  1.
        -11    1    3    3    0    0  0.30977471079E+01 -0.15768072418E+02  0.23210785780E+02  0.28230634454E+02  0.51100000000E-03 0. -1.
        -12    1    3    3    0    0 -0.22071828067E+01 -0.72186021867E+01  0.13524008342E+02  0.15488017146E+02  0.00000000000E+00 0.  1.
</event>
<event>
 7    1  0.9406864E-013  0.5052886E+02  0.7816164E-02  0.1300439E+00
        -11   -1    0    0    0    0  0.00000000000E+00  0.00000000000E+00  0.45593999997E+02  0.45594000000E+02  0.51100000000E-03 0.  1.
         11   -1    0    0    0    0 -0.00000000000E+00 -0.00000000000E+00 -0.45593999997E+02  0.45594000000E+02  0.51100000000E-03 0. -1.
    9900012    2    1    2    0    0 -0.20933671513E+02  0.54005882573E+01 -0.34435161903E+02  0.50528864104E+02  0.30000012930E+02 0.  0.
        -12    1    1    2    0    0  0.20933671513E+02 -0.54005882573E+01  0.34435161903E+02  0.40659135896E+02  0.00000000000E+00 0.  1.
         11    1    3    3    0    0 -0.61931780795E+01  0.19880227977E+01 -0.78697229616E+01  0.10209810435E+02  0.51100000000E-03 0. -1.
        -11    1    3    3    0    0  0.76648911949E+01  0.20064136705E+00 -0.59814403516E+01  0.97246307348E+01  0.51100000000E-03 0.  1.
        -12    1    3    3    0    0 -0.22405384628E+02  0.32119240926E+01 -0.20583998590E+02  0.30594422934E+02  0.00000000000E+00 0.  1.
</event>
<event>
 7    1  0.9406864E-013  0.5052886E+02  0.7816164E-02  0.1300439E+00
        -11   -1    0    0    0    0  0.00000000000E+00  0.00000000000E+00  0.45593999997E+02  0.45594000000E+02  0.51100000000E-03 0.  1.
         11   -1    0    0    0    0 -0.00000000000E+00 -0.00000000000E+00 -0.45593999997E+02  0.45594000000E+02  0.51100000000E-03 0. -1.
    9900012    2    1    2    0    0 -0.66046452032E+01 -0.20078078052E+02 -0.34733488579E+02  0.50528858527E+02  0.29999995977E+02 0.  0.
        -12    1    1    2    0    0  0.66046452032E+01  0.20078078052E+02  0.34733488579E+02  0.40659141473E+02  0.00000000000E+00 0.  1.
         11    1    3    3    0    0 -0.21545757787E+01  0.52011744209E+01 -0.10184864964E+01  0.57211648419E+01  0.51100000000E-03 0.  1.
        -11    1    3    3    0    0 -0.91160162396E+01 -0.12676853165E+02 -0.22012470810E+02  0.26988020114E+02  0.51100000000E-03 0. -1.
        -12    1    3    3    0    0  0.46659468150E+01 -0.12602399307E+02 -0.11702531272E+02  0.17819673571E+02  0.00000000000E+00 0.  1.
</event>
<event>
 7    1  0.9406864E-013  0.5052886E+02  0.7816164E-02  0.1300439E+00
        -11   -1    0    0    0    0  0.00000000000E+00  0.00000000000E+00  0.45593999997E+02  0.45594000000E+02  0.51100000000E-03 0. -1.
         11   -1    0    0    0    0 -0.00000000000E+00 -0.00000000000E+00 -0.45593999997E+02  0.45594000000E+02  0.51100000000E-03 0.  1.
    9900012    2    1    2    0    0 -0.27923641201E+02 -0.26693968938E+02  0.12683374583E+02  0.50528859498E+02  0.29999998929E+02 0.  0.
        -12    1    1    2    0    0  0.27923641201E+02  0.26693968938E+02 -0.12683374583E+02  0.40659140502E+02  0.00000000000E+00 0.  1.
         11    1    3    3    0    0 -0.39970371990E+01 -0.13259635539E+02  0.22017106148E+01  0.14022901657E+02  0.51100000000E-03 0. -1.
        -11    1    3    3    0    0 -0.18104496874E+02  0.63240428662E+00  0.11141832077E+02  0.21267655360E+02  0.51100000000E-03 0.  1.
         12    1    3    3    0    0 -0.58221071277E+01 -0.14066737686E+02 -0.66016810916E+00  0.15238302480E+02  0.00000000000E+00 0. -1.
</event>
<event>
 7    1  0.9406864E-013  0.5052886E+02  0.7816164E-02  0.1300439E+00
        -11   -1    0    0    0    0  0.00000000000E+00  0.00000000000E+00  0.45593999997E+02  0.45594000000E+02  0.51100000000E-03 0.  1.
         11   -1    0    0    0    0 -0.00000000000E+00 -0.00000000000E+00 -0.45593999997E+02  0.45594000000E+02  0.51100000000E-03 0. -1.
    9900012    2    1    2    0    0 -0.35968459312E+02  0.79058851717E+01 -0.17231732396E+02  0.50528859736E+02  0.29999999655E+02 0.  0.
        -12    1    1    2    0    0  0.35968459312E+02 -0.79058851717E+01  0.17231732396E+02  0.40659140264E+02  0.00000000000E+00 0.  1.
         11    1    3    3    0    0 -0.28420821665E+02 -0.54221029089E+01 -0.16568713253E+02  0.33341634080E+02  0.51100000000E-03 0. -1.
        -11    1    3    3    0    0 -0.35193522186E+01  0.49752281112E+01 -0.40471929561E+01  0.73156343459E+01  0.51100000000E-03 0.  1.
         12    1    3    3    0    0 -0.40282854284E+01  0.83527599694E+01  0.33841738125E+01  0.98715913100E+01  0.00000000000E+00 0. -1.
</event>
<event>
 7    1  0.9406864E-013  0.5052891E+02  0.7816164E-02  0.1300439E+00
        -11   -1    0    0    0    0  0.00000000000E+00  0.00000000000E+00  0.45593999997E+02  0.45594000000E+02  0.51100000000E-03 0. -1.
         11   -1    0    0    0    0 -0.00000000000E+00 -0.00000000000E+00 -0.45593999997E+02  0.45594000000E+02  0.51100000000E-03 0.  1.
    9900012    2    1    2    0    0 -0.15027914150E+02 -0.37312923956E+02  0.59219499252E+01  0.50528905215E+02  0.30000137890E+02 0.  0.
        -12    1    1    2    0    0  0.15027914150E+02  0.37312923956E+02 -0.59219499252E+01  0.40659094785E+02  0.00000000000E+00 0.  1.
         11    1    3    3    0    0 -0.12586159308E+02 -0.50999155321E+01  0.52045477623E+01  0.14543309879E+02  0.51100000000E-03 0. -1.
        -11    1    3    3    0    0  0.62676235913E+01 -0.82119889786E+01 -0.10982444044E+01  0.10388744366E+02  0.51100000000E-03 0.  1.
         12    1    3    3    0    0 -0.87093784334E+01 -0.24001019445E+02  0.18156465673E+01  0.25596850970E+02  0.00000000000E+00 0. -1.
</event>
<event>
 7    1  0.9406864E-013  0.5052885E+02  0.7816164E-02  0.1300439E+00
        -11   -1    0    0    0    0  0.00000000000E+00  0.00000000000E+00  0.45593999997E+02  0.45594000000E+02  0.51100000000E-03 0. -1.
         11   -1    0    0    0    0 -0.00000000000E+00 -0.00000000000E+00 -0.45593999997E+02  0.45594000000E+02  0.51100000000E-03 0.  1.
    9900012    2    1    2    0    0 -0.34629269918E+02  0.14905054490E+02  0.15225624021E+02  0.50528848370E+02  0.29999965106E+02 0.  0.
        -12    1    1    2    0    0  0.34629269918E+02 -0.14905054490E+02 -0.15225624021E+02  0.40659151630E+02  0.00000000000E+00 0.  1.
         11    1    3    3    0    0 -0.35234034778E+02  0.13067658453E+02  0.15596124978E+02  0.40687098923E+02  0.51100000000E-03 0. -1.
        -11    1    3    3    0    0  0.10673594143E+01  0.40594372615E+00  0.45527565860E+01  0.46937873003E+01  0.51100000000E-03 0.  1.
         12    1    3    3    0    0 -0.46259455479E+00  0.14314523109E+01 -0.49232575425E+01  0.51479621473E+01  0.00000000000E+00 0. -1.
</event>
<event>
 7    1  0.9406864E-013  0.5052887E+02  0.7816164E-02  0.1300439E+00
        -11   -1    0    0    0    0  0.00000000000E+00  0.00000000000E+00  0.45593999997E+02  0.45594000000E+02  0.51100000000E-03 0.  1.
         11   -1    0    0    0    0 -0.00000000000E+00 -0.00000000000E+00 -0.45593999997E+02  0.45594000000E+02  0.51100000000E-03 0. -1.
    9900012    2    1    2    0    0  0.24849228853E+02 -0.37819979319E+01 -0.31958985726E+02  0.50528874929E+02  0.30000045835E+02 0.  0.
        -12    1    1    2    0    0 -0.24849228853E+02  0.37819979319E+01  0.31958985726E+02  0.40659125071E+02  0.00000000000E+00 0.  1.
         11    1    3    3    0    0  0.33989236151E+01  0.20034155680E+01 -0.15223245674E+01  0.42289275271E+01  0.51100000000E-03 0. -1.
        -11    1    3    3    0    0  0.25140700384E+02 -0.77071780892E+01 -0.32376123074E+02  0.41709336550E+02  0.51100000000E-03 0.  1.
        -12    1    3    3    0    0 -0.36903951465E+01  0.19217645894E+01  0.19394619156E+01  0.45906108522E+01  0.00000000000E+00 0.  1.
</event>
<event>
 7    1  0.9406864E-013  0.5052885E+02  0.7816164E-02  0.1300439E+00
        -11   -1    0    0    0    0  0.00000000000E+00  0.00000000000E+00  0.45593999997E+02  0.45594000000E+02  0.51100000000E-03 0.  1.
         11   -1    0    0    0    0 -0.00000000000E+00 -0.00000000000E+00 -0.45593999997E+02  0.45594000000E+02  0.51100000000E-03 0. -1.
    9900012    2    1    2    0    0 -0.39425235466E+02 -0.32097315409E+01 -0.94082238722E+01  0.50528852879E+02  0.29999978812E+02 0.  0.
        -12    1    1    2    0    0  0.39425235466E+02  0.32097315409E+01  0.94082238722E+01  0.40659147121E+02  0.00000000000E+00 0.  1.
         11    1    3    3    0    0 -0.93024727472E+01 -0.23740274529E+01 -0.29344440244E+01  0.10039072046E+02  0.51100000000E-03 0. -1.
        -11    1    3    3    0    0 -0.10443085366E+02  0.10932260009E+02 -0.87152160385E+01  0.17450711496E+02  0.51100000000E-03 0.  1.
        -12    1    3    3    0    0 -0.19679677354E+02 -0.11767964097E+02  0.22414361906E+01  0.23039069337E+02  0.00000000000E+00 0.  1.
</event>
<event>
 7    1  0.9406864E-013  0.5052884E+02  0.7816164E-02  0.1300439E+00
        -11   -1    0    0    0    0  0.00000000000E+00  0.00000000000E+00  0.45593999997E+02  0.45594000000E+02  0.51100000000E-03 0.  1.
         11   -1    0    0    0    0 -0.00000000000E+00 -0.00000000000E+00 -0.45593999997E+02  0.45594000000E+02  0.51100000000E-03 0. -1.
    9900012    2    1    2    0    0 -0.24252211239E+02  0.10457509744E+02 -0.30913393688E+02  0.50528841507E+02  0.29999944245E+02 0.  0.
        -12    1    1    2    0    0  0.24252211239E+02 -0.10457509744E+02  0.30913393688E+02  0.40659158493E+02  0.00000000000E+00 0.  1.
         11    1    3    3    0    0 -0.11019608683E+02  0.10820690993E+02 -0.30643772626E+02  0.34315593105E+02  0.51100000000E-03 0. -1.
        -11    1    3    3    0    0 -0.84363067579E+01  0.40605961872E+01  0.14284435000E+01  0.94710170628E+01  0.51100000000E-03 0.  1.
        -12    1    3    3    0    0 -0.47962957976E+01 -0.44237774361E+01 -0.16980645623E+01  0.67422313398E+01  0.00000000000E+00 0.  1.
</event>
<event>
 7    1  0.9406864E-013  0.5052885E+02  0.7816164E-02  0.1300439E+00
        -11   -1    0    0    0    0  0.00000000000E+00  0.00000000000E+00  0.45593999997E+02  0.45594000000E+02  0.51100000000E-03 0.  1.
         11   -1    0    0    0    0 -0.00000000000E+00 -0.00000000000E+00 -0.45593999997E+02  0.45594000000E+02  0.51100000000E-03 0. -1.
    9900012    2    1    2    0    0 -0.16389801472E+02 -0.20900117202E+02 -0.30785157456E+02  0.50528850834E+02  0.29999972594E+02 0.  0.
        -12    1    1    2    0    0  0.16389801472E+02  0.20900117202E+02  0.30785157456E+02  0.40659149166E+02  0.00000000000E+00 0.  1.
         11    1    3    3    0    0  0.33012842590E+01  0.13841779385E+01 -0.13923955397E+02  0.14376750693E+02  0.51100000000E-03 0. -1.
        -11    1    3    3    0    0 -0.77219339005E+01 -0.42516831810E+01 -0.16403807088E+00  0.88165742659E+01  0.51100000000E-03 0.  1.
         12    1    3    3    0    0 -0.11969151830E+02 -0.18032611959E+02 -0.16697163988E+02  0.27335525875E+02  0.00000000000E+00 0. -1.
</event>
<event>
 7    1  0.9406864E-013  0.5052887E+02  0.7816164E-02  0.1300439E+00
        -11   -1    0    0    0    0  0.00000000000E+00  0.00000000000E+00  0.45593999997E+02  0.45594000000E+02  0.51100000000E-03 0.  1.
         11   -1    0    0    0    0 -0.00000000000E+00 -0.00000000000E+00 -0.45593999997E+02  0.45594000000E+02  0.51100000000E-03 0. -1.
    9900012    2    1    2    0    0  0.11549735261E+02  0.10056221717E+02 -0.37664848843E+02  0.50528870420E+02  0.30000032129E+02 0.  0.
        -12    1    1    2    0    0 -0.11549735261E+02 -0.10056221717E+02  0.37664848843E+02  0.40659129580E+02  0.00000000000E+00 0.  1.
         11    1    3    3    0    0 -0.29220490242E+01  0.87804232446E+01 -0.42706320392E+01  0.10191785964E+02  0.51100000000E-03 0. -1.
        -11    1    3    3    0    0  0.87609583677E+01 -0.70188277763E+01 -0.10697739758E+02  0.15506771781E+02  0.51100000000E-03 0.  1.
         12    1    3    3    0    0  0.57108259172E+01  0.82946262490E+01 -0.22696477046E+02  0.24830312675E+02  0.00000000000E+00 0. -1.
</event>
<event>
 7    1  0.9406864E-013  0.5052886E+02  0.7816164E-02  0.1300439E+00
        -11   -1    0    0    0    0  0.00000000000E+00  0.00000000000E+00  0.45593999997E+02  0.45594000000E+02  0.51100000000E-03 0. -1.
         11   -1    0    0    0    0 -0.00000000000E+00 -0.00000000000E+00 -0.45593999997E+02  0.45594000000E+02  0.51100000000E-03 0.  1.
    9900012    2    1    2    0    0  0.12254268925E+02 -0.38627365528E+02  0.33053414653E+01  0.50528858879E+02  0.29999997047E+02 0.  0.
        -12    1    1    2    0    0 -0.12254268925E+02  0.38627365528E+02 -0.33053414653E+01  0.40659141121E+02  0.00000000000E+00 0.  1.
         11    1    3    3    0    0  0.15651354739E+02 -0.25437015349E+02  0.10967354092E+02  0.31816497467E+02  0.51100000000E-03 0. -1.
        -11    1    3    3    0    0 -0.59055416930E+01 -0.77349078783E+01 -0.10615443941E+01  0.97893360007E+01  0.51100000000E-03 0.  1.
         12    1    3    3    0    0  0.25084558794E+01 -0.54554423008E+01 -0.66004682326E+01  0.89230254110E+01  0.00000000000E+00 0. -1.
</event>
<event>
 7    1  0.9406864E-013  0.5052886E+02  0.7816164E-02  0.1300439E+00
        -11   -1    0    0    0    0  0.00000000000E+00  0.00000000000E+00  0.45593999997E+02  0.45594000000E+02  0.51100000000E-03 0.  1.
         11   -1    0    0    0    0 -0.00000000000E+00 -0.00000000000E+00 -0.45593999997E+02  0.45594000000E+02  0.51100000000E-03 0. -1.
    9900012    2    1    2    0    0  0.74311742277E+01 -0.70025857142E+01 -0.39356155997E+02  0.50528861151E+02  0.30000003954E+02 0.  0.
        -12    1    1    2    0    0 -0.74311742277E+01  0.70025857142E+01  0.39356155997E+02  0.40659138849E+02  0.00000000000E+00 0.  1.
         11    1    3    3    0    0  0.99872402430E+01  0.62192817379E+01 -0.15723684788E+02  0.19638194840E+02  0.51100000000E-03 0. -1.
        -11    1    3    3    0    0 -0.52537565052E+00 -0.15326325443E+02 -0.13792650091E+02  0.20625456793E+02  0.51100000000E-03 0.  1.
         12    1    3    3    0    0 -0.20306903648E+01  0.21044579906E+01 -0.98398211182E+01  0.10265209517E+02  0.00000000000E+00 0. -1.
</event>
<event>
 7    1  0.9406864E-013  0.5052887E+02  0.7816164E-02  0.1300439E+00
        -11   -1    0    0    0    0  0.00000000000E+00  0.00000000000E+00  0.45593999997E+02  0.45594000000E+02  0.51100000000E-03 0. -1.
         11   -1    0    0    0    0 -0.00000000000E+00 -0.00000000000E+00 -0.45593999997E+02  0.45594000000E+02  0.51100000000E-03 0.  1.
    9900012    2    1    2    0    0 -0.51176102166E+01 -0.39724645879E+02  0.69948396998E+01  0.50528865639E+02  0.30000017597E+02 0.  0.
        -12    1    1    2    0    0  0.51176102166E+01  0.39724645879E+02 -0.69948396998E+01  0.40659134361E+02  0.00000000000E+00 0.  1.
         11    1    3    3    0    0 -0.12923557846E+02 -0.23729628708E+02  0.13542002278E+01  0.27054527985E+02  0.51100000000E-03 0.  1.
        -11    1    3    3    0    0  0.88416894789E+01 -0.17219786401E+02  0.77272779027E+01  0.20842440850E+02  0.51100000000E-03 0. -1.
        -12    1    3    3    0    0 -0.10357418500E+01  0.12247692297E+01 -0.20866384307E+01  0.26318968039E+01  0.00000000000E+00 0.  1.
</event>
<event>
 7    1  0.9406864E-013  0.5052887E+02  0.7816164E-02  0.1300439E+00
        -11   -1    0    0    0    0  0.00000000000E+00  0.00000000000E+00  0.45593999997E+02  0.45594000000E+02  0.51100000000E-03 0.  1.
         11   -1    0    0    0    0 -0.00000000000E+00 -0.00000000000E+00 -0.45593999997E+02  0.45594000000E+02  0.51100000000E-03 0. -1.
    9900012    2    1    2    0    0 -0.24726390052E+02  0.23136525945E+02 -0.22504931318E+02  0.50528866568E+02  0.30000020421E+02 0.  0.
        -12    1    1    2    0    0  0.24726390052E+02 -0.23136525945E+02  0.22504931318E+02  0.40659133432E+02  0.00000000000E+00 0.  1.
         11    1    3    3    0    0 -0.76185947617E+01  0.34742152090E+01 -0.21293052960E+02  0.22880281075E+02  0.51100000000E-03 0. -1.
        -11    1    3    3    0    0 -0.15132355777E+02  0.20235259981E+02 -0.12617999545E-01  0.25267649224E+02  0.51100000000E-03 0.  1.
        -12    1    3    3    0    0 -0.19754395133E+01 -0.57294924543E+00 -0.11992603590E+01  0.23809362690E+01  0.00000000000E+00 0.  1.
</event>
<event>
 7    1  0.9406864E-013  0.5052886E+02  0.7816164E-02  0.1300439E+00
        -11   -1    0    0    0    0  0.00000000000E+00  0.00000000000E+00  0.45593999997E+02  0.45594000000E+02  0.51100000000E-03 0. -1.
         11   -1    0    0    0    0 -0.00000000000E+00 -0.00000000000E+00 -0.45593999997E+02  0.45594000000E+02  0.51100000000E-03 0.  1.
    9900012    2    1    2    0    0 -0.28473811354E+02 -0.27165899287E+01 -0.28896844599E+02  0.50528862999E+02  0.30000009571E+02 0.  0.
        -12    1    1    2    0    0  0.28473811354E+02  0.27165899287E+01  0.28896844599E+02  0.40659137001E+02  0.00000000000E+00 0.  1.
         11    1    3    3    0    0 -0.92035764145E+01 -0.14271270515E+02 -0.14910471335E+02  0.22598609174E+02  0.51100000000E-03 0. -1.
        -11    1    3    3    0    0 -0.96358920558E+01  0.55926908695E+01 -0.12093636492E+02  0.16443377109E+02  0.51100000000E-03 0.  1.
         12    1    3    3    0    0 -0.96343428841E+01  0.59619897167E+01 -0.18927367720E+01  0.11486876716E+02  0.00000000000E+00 0. -1.
</event>
<event>
 7    1  0.9406864E-013  0.5052886E+02  0.7816164E-02  0.1300439E+00
        -11   -1    0    0    0    0  0.00000000000E+00  0.00000000000E+00  0.45593999997E+02  0.45594000000E+02  0.51100000000E-03 0.  1.
         11   -1    0    0    0    0 -0.00000000000E+00 -0.00000000000E+00 -0.45593999997E+02  0.45594000000E+02  0.51100000000E-03 0. -1.
    9900012    2    1    2    0    0  0.26874401640E+02 -0.24263992950E+02 -0.18498398601E+02  0.50528861197E+02  0.30000004094E+02 0.  0.
        -12    1    1    2    0    0 -0.26874401640E+02  0.24263992950E+02  0.18498398601E+02  0.40659138803E+02  0.00000000000E+00 0.  1.
         11    1    3    3    0    0  0.28972963517E+02 -0.26235348168E+02 -0.21046127722E+02  0.44392179500E+02  0.51100000000E-03 0. -1.
        -11    1    3    3    0    0 -0.55009243500E+00  0.30692417591E+01  0.20979798622E+00  0.31251979328E+01  0.51100000000E-03 0.  1.
         12    1    3    3    0    0 -0.15484694420E+01 -0.10978865416E+01  0.23379311343E+01  0.30114837638E+01  0.00000000000E+00 0. -1.
</event>
<event>
 7    1  0.9406864E-013  0.5052885E+02  0.7816164E-02  0.1300439E+00
        -11   -1    0    0    0    0  0.00000000000E+00  0.00000000000E+00  0.45593999997E+02  0.45594000000E+02  0.51100000000E-03 0.  1.
         11   -1    0    0    0    0 -0.00000000000E+00 -0.00000000000E+00 -0.45593999997E+02  0.45594000000E+02  0.51100000000E-03 0. -1.
    9900012    2    1    2    0    0 -0.35770542032E+01  0.12215540859E+02 -0.38615431336E+02  0.50528852290E+02  0.29999977020E+02 0.  0.
        -12    1    1    2    0    0  0.35770542032E+01 -0.12215540859E+02  0.38615431336E+02  0.40659147710E+02  0.00000000000E+00 0.  1.
         11    1    3    3    0    0 -0.88096531130E+01  0.81989530596E+01 -0.21330999551E+01  0.12222231176E+02  0.51100000000E-03 0. -1.
        -11    1    3    3    0    0  0.67672613968E+00  0.15275312079E+01 -0.23237056234E+00  0.16868035448E+01  0.51100000000E-03 0.  1.
         12    1    3    3    0    0  0.45558727701E+01  0.24890565918E+01 -0.36249960819E+02  0.36619817569E+02  0.00000000000E+00 0. -1.
</event>
<event>
 7    1  0.9406864E-013  0.5052885E+02  0.7816164E-02  0.1300439E+00
        -11   -1    0    0    0    0  0.00000000000E+00  0.00000000000E+00  0.45593999997E+02  0.45594000000E+02  0.51100000000E-03 0.  1.
         11   -1    0    0    0    0 -0.00000000000E+00 -0.00000000000E+00 -0.45593999997E+02  0.45594000000E+02  0.51100000000E-03 0. -1.
    9900012    2    1    2    0    0  0.11330847506E+02  0.80344463096E+01 -0.38212901013E+02  0.50528852978E+02  0.29999979113E+02 0.  0.
        -12    1    1    2    0    0 -0.11330847506E+02 -0.80344463096E+01  0.38212901013E+02  0.40659147022E+02  0.00000000000E+00 0.  1.
         11    1    3    3    0    0 -0.38819707078E+01  0.13988409898E+02 -0.25523748563E+02  0.29363362359E+02  0.51100000000E-03 0. -1.
        -11    1    3    3    0    0  0.11291716649E+02 -0.57423131771E+01 -0.77309131023E+01  0.14840621387E+02  0.51100000000E-03 0.  1.
         12    1    3    3    0    0  0.39211015647E+01 -0.21165041118E+00 -0.49582393472E+01  0.63248692320E+01  0.00000000000E+00 0. -1.
</event>
<event>
 7    1  0.9406864E-013  0.5052886E+02  0.7816164E-02  0.1300439E+00
        -11   -1    0    0    0    0  0.00000000000E+00  0.00000000000E+00  0.45593999997E+02  0.45594000000E+02  0.51100000000E-03 0.  1.
         11   -1    0    0    0    0 -0.00000000000E+00 -0.00000000000E+00 -0.45593999997E+02  0.45594000000E+02  0.51100000000E-03 0. -1.
    9900012    2    1    2    0    0 -0.10918590411E+02  0.29534132795E+02 -0.25723234191E+02  0.50528863342E+02  0.30000010615E+02 0.  0.
        -12    1    1    2    0    0  0.10918590411E+02 -0.29534132795E+02  0.25723234191E+02  0.40659136658E+02  0.00000000000E+00 0.  1.
         11    1    3    3    0    0 -0.37537104974E+01  0.28277147376E+02 -0.25555902453E+02  0.38298714818E+02  0.51100000000E-03 0.  1.
        -11    1    3    3    0    0 -0.90511348103E+01  0.26845425022E+01  0.11694384122E+01  0.95130119448E+01  0.51100000000E-03 0. -1.
         12    1    3    3    0    0  0.18862548963E+01 -0.14275570835E+01 -0.13367701494E+01  0.27171365797E+01  0.00000000000E+00 0. -1.
</event>
<event>
 7    1  0.9406864E-013  0.5052887E+02  0.7816164E-02  0.1300439E+00
        -11   -1    0    0    0    0  0.00000000000E+00  0.00000000000E+00  0.45593999997E+02  0.45594000000E+02  0.51100000000E-03 0. -1.
         11   -1    0    0    0    0 -0.00000000000E+00 -0.00000000000E+00 -0.45593999997E+02  0.45594000000E+02  0.51100000000E-03 0.  1.
    9900012    2    1    2    0    0 -0.15177063088E+02  0.55669039858E+01  0.37307254700E+02  0.50528869202E+02  0.30000028428E+02 0.  0.
        -12    1    1    2    0    0  0.15177063088E+02 -0.55669039858E+01 -0.37307254700E+02  0.40659130798E+02  0.00000000000E+00 0.  1.
         11    1    3    3    0    0  0.20018515886E+01  0.24114066054E+01  0.59782365228E+01  0.67499336133E+01  0.51100000000E-03 0. -1.
        -11    1    3    3    0    0 -0.17145086780E+02  0.11050652760E+02  0.14011528641E+02  0.24746592942E+02  0.51100000000E-03 0.  1.
        -12    1    3    3    0    0 -0.33827896185E-01 -0.78951553796E+01  0.17317489536E+02  0.19032342647E+02  0.00000000000E+00 0.  1.
</event>
<event>
 7    1  0.9406864E-013  0.5052886E+02  0.7816164E-02  0.1300439E+00
        -11   -1    0    0    0    0  0.00000000000E+00  0.00000000000E+00  0.45593999997E+02  0.45594000000E+02  0.51100000000E-03 0.  1.
         11   -1    0    0    0    0 -0.00000000000E+00 -0.00000000000E+00 -0.45593999997E+02  0.45594000000E+02  0.51100000000E-03 0. -1.
    9900012    2    1    2    0    0  0.38710183038E+02 -0.46049446292E+01 -0.11553443123E+02  0.50528857930E+02  0.29999994165E+02 0.  0.
        -12    1    1    2    0    0 -0.38710183038E+02  0.46049446292E+01  0.11553443123E+02  0.40659142070E+02  0.00000000000E+00 0.  1.
         11    1    3    3    0    0  0.28205175092E+02  0.84572189423E+01 -0.13870861217E+02  0.32549304837E+02  0.51100000000E-03 0. -1.
        -11    1    3    3    0    0  0.54763006000E+01 -0.52966189592E+01 -0.18385734099E+01  0.78373715687E+01  0.51100000000E-03 0.  1.
         12    1    3    3    0    0  0.50287073453E+01 -0.77655446123E+01  0.41559915042E+01  0.10142181524E+02  0.00000000000E+00 0. -1.
</event>
<event>
 7    1  0.9406864E-013  0.5052888E+02  0.7816164E-02  0.1300439E+00
        -11   -1    0    0    0    0  0.00000000000E+00  0.00000000000E+00  0.45593999997E+02  0.45594000000E+02  0.51100000000E-03 0.  1.
         11   -1    0    0    0    0 -0.00000000000E+00 -0.00000000000E+00 -0.45593999997E+02  0.45594000000E+02  0.51100000000E-03 0. -1.
    9900012    2    1    2    0    0  0.26951218118E+02 -0.15411656960E+02 -0.26254087195E+02  0.50528875283E+02  0.30000046909E+02 0.  0.
        -12    1    1    2    0    0 -0.26951218118E+02  0.15411656960E+02  0.26254087195E+02  0.40659124717E+02  0.00000000000E+00 0.  1.
         11    1    3    3    0    0  0.23831009476E+02 -0.22771927448E+02 -0.16792454084E+02  0.36992758842E+02  0.51100000000E-03 0. -1.
        -11    1    3    3    0    0  0.44398805555E+01  0.49975856323E+01 -0.81133217818E+01  0.10512582561E+02  0.51100000000E-03 0.  1.
         12    1    3    3    0    0 -0.13196719129E+01  0.23626848551E+01 -0.13483113296E+01  0.30235338800E+01  0.00000000000E+00 0. -1.
</event>
<event>
 7    1  0.9406864E-013  0.5052887E+02  0.7816164E-02  0.1300439E+00
        -11   -1    0    0    0    0  0.00000000000E+00  0.00000000000E+00  0.45593999997E+02  0.45594000000E+02  0.51100000000E-03 0.  1.
         11   -1    0    0    0    0 -0.00000000000E+00 -0.00000000000E+00 -0.45593999997E+02  0.45594000000E+02  0.51100000000E-03 0. -1.
    9900012    2    1    2    0    0  0.18939072269E+01 -0.24107027634E+02 -0.32686838515E+02  0.50528867225E+02  0.30000022416E+02 0.  0.
        -12    1    1    2    0    0 -0.18939072269E+01  0.24107027634E+02  0.32686838515E+02  0.40659132775E+02  0.00000000000E+00 0.  1.
         11    1    3    3    0    0 -0.26490830879E+01  0.85144866665E+00 -0.95818134454E+01  0.99776628126E+01  0.51100000000E-03 0. -1.
        -11    1    3    3    0    0  0.71283718732E+01 -0.24351847089E+02 -0.10152847260E+02  0.27329589275E+02  0.51100000000E-03 0.  1.
        -12    1    3    3    0    0 -0.25853815583E+01 -0.60662921191E+00 -0.12952177810E+02  0.13221615137E+02  0.00000000000E+00 0.  1.
</event>
<event>
 7    1  0.9406864E-013  0.5052886E+02  0.7816164E-02  0.1300439E+00
        -11   -1    0    0    0    0  0.00000000000E+00  0.00000000000E+00  0.45593999997E+02  0.45594000000E+02  0.51100000000E-03 0. -1.
         11   -1    0    0    0    0 -0.00000000000E+00 -0.00000000000E+00 -0.45593999997E+02  0.45594000000E+02  0.51100000000E-03 0.  1.
    9900012    2    1    2    0    0  0.15558064185E+02 -0.36425470256E+02 -0.91813567848E+01  0.50528861335E+02  0.30000004515E+02 0.  0.
        -12    1    1    2    0    0 -0.15558064185E+02  0.36425470256E+02  0.91813567848E+01  0.40659138665E+02  0.00000000000E+00 0.  1.
         11    1    3    3    0    0  0.11473255893E+02 -0.49833298896E+01 -0.30986385564E+01  0.12886843630E+02  0.51100000000E-03 0.  1.
        -11    1    3    3    0    0  0.61650817564E+01 -0.32763281906E+02 -0.26870887615E+01  0.33446394732E+02  0.51100000000E-03 0. -1.
         12    1    3    3    0    0 -0.20802734651E+01  0.13211415397E+01 -0.33956294668E+01  0.41956229732E+01  0.00000000000E+00 0. -1.
</event>
<event>
 7    1  0.9406864E-013  0.5052887E+02  0.7816164E-02  0.1300439E+00
        -11   -1    0    0    0    0  0.00000000000E+00  0.00000000000E+00  0.45593999997E+02  0.45594000000E+02  0.51100000000E-03 0.  1.
         11   -1    0    0    0    0 -0.00000000000E+00 -0.00000000000E+00 -0.45593999997E+02  0.45594000000E+02  0.51100000000E-03 0. -1.
    9900012    2    1    2    0    0 -0.10321169281E+02  0.35021602260E+02 -0.17892060585E+02  0.50528868281E+02  0.30000025626E+02 0.  0.
        -12    1    1    2    0    0  0.10321169281E+02 -0.35021602260E+02  0.17892060585E+02  0.40659131719E+02  0.00000000000E+00 0.  1.
         11    1    3    3    0    0 -0.62250791758E+01  0.91965494445E+01 -0.17703561503E+02  0.20898426318E+02  0.51100000000E-03 0. -1.
        -11    1    3    3    0    0 -0.81857189294E+01  0.86781709422E+01 -0.10915622357E+01  0.11979488873E+02  0.51100000000E-03 0.  1.
         12    1    3    3    0    0  0.40896288238E+01  0.17146881873E+02  0.90306315366E+00  0.17650953089E+02  0.00000000000E+00 0. -1.
</event>
<event>
 7    1  0.9406864E-013  0.5052886E+02  0.7816164E-02  0.1300439E+00
        -11   -1    0    0    0    0  0.00000000000E+00  0.00000000000E+00  0.45593999997E+02  0.45594000000E+02  0.51100000000E-03 0.  1.
         11   -1    0    0    0    0 -0.00000000000E+00 -0.00000000000E+00 -0.45593999997E+02  0.45594000000E+02  0.51100000000E-03 0. -1.
    9900012    2    1    2    0    0 -0.31547941279E+02 -0.24852378686E+02 -0.63444799941E+01  0.50528858940E+02  0.29999997235E+02 0.  0.
        -12    1    1    2    0    0  0.31547941279E+02  0.24852378686E+02  0.63444799941E+01  0.40659141060E+02  0.00000000000E+00 0.  1.
         11    1    3    3    0    0 -0.23132573846E+02 -0.64066359115E+01 -0.12944761794E+02  0.27271373537E+02  0.51100000000E-03 0. -1.
        -11    1    3    3    0    0 -0.42759929314E+01 -0.16324524392E+02  0.25047715095E+01  0.17060131675E+02  0.51100000000E-03 0.  1.
        -12    1    3    3    0    0 -0.41393745021E+01 -0.21212183823E+01  0.40955102905E+01  0.61973537282E+01  0.00000000000E+00 0.  1.
</event>
<event>
 7    1  0.9406864E-013  0.5052886E+02  0.7816164E-02  0.1300439E+00
        -11   -1    0    0    0    0  0.00000000000E+00  0.00000000000E+00  0.45593999997E+02  0.45594000000E+02  0.51100000000E-03 0. -1.
         11   -1    0    0    0    0 -0.00000000000E+00 -0.00000000000E+00 -0.45593999997E+02  0.45594000000E+02  0.51100000000E-03 0.  1.
    9900012    2    1    2    0    0  0.74196221710E+01  0.38428987556E+02  0.11014880809E+02  0.50528862319E+02  0.30000007505E+02 0.  0.
        -12    1    1    2    0    0 -0.74196221710E+01 -0.38428987556E+02 -0.11014880809E+02  0.40659137681E+02  0.00000000000E+00 0.  1.
         11    1    3    3    0    0  0.12730391454E+02  0.22891459673E+02  0.15053967797E+02  0.30210987062E+02  0.51100000000E-03 0. -1.
        -11    1    3    3    0    0 -0.10619220091E+01  0.12784949476E+02 -0.68333454396E+01  0.14535378276E+02  0.51100000000E-03 0.  1.
        -12    1    3    3    0    0 -0.42488472743E+01  0.27525784061E+01  0.27942584518E+01  0.57824969812E+01  0.00000000000E+00 0.  1.
</event>
<event>
 7    1  0.9406864E-013  0.5052887E+02  0.7816164E-02  0.1300439E+00
        -11   -1    0    0    0    0  0.00000000000E+00  0.00000000000E+00  0.45593999997E+02  0.45594000000E+02  0.51100000000E-03 0.  1.
         11   -1    0    0    0    0 -0.00000000000E+00 -0.00000000000E+00 -0.45593999997E+02  0.45594000000E+02  0.51100000000E-03 0. -1.
    9900012    2    1    2    0    0  0.12427716738E+01 -0.76418618328E+01 -0.39915184106E+02  0.50528874875E+02  0.30000045671E+02 0.  0.
        -12    1    1    2    0    0 -0.12427716738E+01  0.76418618328E+01  0.39915184106E+02  0.40659125125E+02  0.00000000000E+00 0.  1.
         11    1    3    3    0    0  0.13923818890E+01 -0.36242715280E+01  0.26127585200E+01  0.46798054210E+01  0.51100000000E-03 0.  1.
        -11    1    3    3    0    0 -0.27898873443E+01 -0.83887974144E+01 -0.38029661223E+02  0.39043700215E+02  0.51100000000E-03 0. -1.
         12    1    3    3    0    0  0.26402771291E+01  0.43712071096E+01 -0.44982814028E+01  0.68053692399E+01  0.00000000000E+00 0. -1.
</event>
<event>
 7    1  0.9406864E-013  0.5052885E+02  0.7816164E-02  0.1300439E+00
        -11   -1    0    0    0    0  0.00000000000E+00  0.00000000000E+00  0.45593999997E+02  0.45594000000E+02  0.51100000000E-03 0. -1.
         11   -1    0    0    0    0 -0.00000000000E+00 -0.00000000000E+00 -0.45593999997E+02  0.45594000000E+02  0.51100000000E-03 0.  1.
    9900012    2    1    2    0    0  0.17248830863E+02 -0.35834567673E+02  0.84574239534E+01  0.50528850644E+02  0.29999972017E+02 0.  0.
        -12    1    1    2    0    0 -0.17248830863E+02  0.35834567673E+02 -0.84574239534E+01  0.40659149356E+02  0.00000000000E+00 0.  1.
         11    1    3    3    0    0  0.87926926639E+00 -0.90338522252E-01  0.26399444898E+01  0.27839868286E+01  0.51100000000E-03 0. -1.
        -11    1    3    3    0    0  0.14176771951E+02 -0.32451278613E+02 -0.54256087318E+01  0.35826018156E+02  0.51100000000E-03 0.  1.
        -12    1    3    3    0    0  0.21927896455E+01 -0.32929505376E+01  0.11243088195E+02  0.11918845659E+02  0.00000000000E+00 0.  1.
</event>
<event>
 7    1  0.9406864E-013  0.5052886E+02  0.7816164E-02  0.1300439E+00
        -11   -1    0    0    0    0  0.00000000000E+00  0.00000000000E+00  0.45593999997E+02  0.45594000000E+02  0.51100000000E-03 0.  1.
         11   -1    0    0    0    0 -0.00000000000E+00 -0.00000000000E+00 -0.45593999997E+02  0.45594000000E+02  0.51100000000E-03 0. -1.
    9900012    2    1    2    0    0  0.30157129148E+02 -0.25649688588E+01 -0.27150212210E+02  0.50528861707E+02  0.30000005644E+02 0.  0.
        -12    1    1    2    0    0 -0.30157129148E+02  0.25649688588E+01  0.27150212210E+02  0.40659138293E+02  0.00000000000E+00 0.  1.
         11    1    3    3    0    0 -0.18763653594E+00 -0.42903379547E+01 -0.77419516630E+01  0.88532492932E+01  0.51100000000E-03 0. -1.
        -11    1    3    3    0    0  0.28195548609E+02  0.87479017002E+01 -0.16013270848E+02  0.33584811880E+02  0.51100000000E-03 0.  1.
        -12    1    3    3    0    0  0.21492170753E+01 -0.70225326043E+01 -0.33949896990E+01  0.80908005334E+01  0.00000000000E+00 0.  1.
</event>
<event>
 7    1  0.9406864E-013  0.5052886E+02  0.7816164E-02  0.1300439E+00
        -11   -1    0    0    0    0  0.00000000000E+00  0.00000000000E+00  0.45593999997E+02  0.45594000000E+02  0.51100000000E-03 0.  1.
         11   -1    0    0    0    0 -0.00000000000E+00 -0.00000000000E+00 -0.45593999997E+02  0.45594000000E+02  0.51100000000E-03 0. -1.
    9900012    2    1    2    0    0 -0.20334168499E+02 -0.11514258093E+02 -0.33273250181E+02  0.50528859262E+02  0.29999998213E+02 0.  0.
        -12    1    1    2    0    0  0.20334168499E+02  0.11514258093E+02  0.33273250181E+02  0.40659140738E+02  0.00000000000E+00 0.  1.
         11    1    3    3    0    0  0.38896282184E+01 -0.12442823246E+02 -0.12195101464E+02  0.17851430139E+02  0.51100000000E-03 0. -1.
        -11    1    3    3    0    0 -0.10723613169E+02 -0.21580113979E+01 -0.73569338113E+01  0.13182464411E+02  0.51100000000E-03 0.  1.
         12    1    3    3    0    0 -0.13500183549E+02  0.30865765509E+01 -0.13721214905E+02  0.19494964712E+02  0.00000000000E+00 0. -1.
</event>
<event>
 7    1  0.9406864E-013  0.5052886E+02  0.7816164E-02  0.1300439E+00
        -11   -1    0    0    0    0  0.00000000000E+00  0.00000000000E+00  0.45593999997E+02  0.45594000000E+02  0.51100000000E-03 0. -1.
         11   -1    0    0    0    0 -0.00000000000E+00 -0.00000000000E+00 -0.45593999997E+02  0.45594000000E+02  0.51100000000E-03 0.  1.
    9900012    2    1    2    0    0 -0.27209896178E+02  0.27910622128E+02  0.11566528677E+02  0.50528857569E+02  0.29999993067E+02 0.  0.
        -12    1    1    2    0    0  0.27209896178E+02 -0.27910622128E+02 -0.11566528677E+02  0.40659142431E+02  0.00000000000E+00 0.  1.
         11    1    3    3    0    0 -0.11004101245E+02  0.21487633620E+02 -0.16185125209E+01  0.24195624105E+02  0.51100000000E-03 0. -1.
        -11    1    3    3    0    0 -0.77450018474E+01  0.37602580410E+00  0.13892121883E+02  0.15909666863E+02  0.51100000000E-03 0.  1.
         12    1    3    3    0    0 -0.84607930857E+01  0.60469627038E+01 -0.70708068561E+00  0.10423566601E+02  0.00000000000E+00 0. -1.
</event>
<event>
 7    1  0.9406864E-013  0.5052886E+02  0.7816164E-02  0.1300439E+00
        -11   -1    0    0    0    0  0.00000000000E+00  0.00000000000E+00  0.45593999997E+02  0.45594000000E+02  0.51100000000E-03 0.  1.
         11   -1    0    0    0    0 -0.00000000000E+00 -0.00000000000E+00 -0.45593999997E+02  0.45594000000E+02  0.51100000000E-03 0. -1.
    9900012    2    1    2    0    0  0.39042395975E+02 -0.10913191025E+02 -0.31239504933E+01  0.50528862177E+02  0.30000007074E+02 0.  0.
        -12    1    1    2    0    0 -0.39042395975E+02  0.10913191025E+02  0.31239504933E+01  0.40659137823E+02  0.00000000000E+00 0.  1.
         11    1    3    3    0    0  0.32450314568E+02 -0.43519897466E+01 -0.80116877660E+01  0.33706822328E+02  0.51100000000E-03 0. -1.
        -11    1    3    3    0    0 -0.27028566294E+01 -0.62255465204E+01  0.17948663540E+01  0.70202855303E+01  0.51100000000E-03 0.  1.
        -12    1    3    3    0    0  0.92949380363E+01 -0.33565475755E+00  0.30928709188E+01  0.98017543193E+01  0.00000000000E+00 0.  1.
</event>
<event>
 7    1  0.9406864E-013  0.5052886E+02  0.7816164E-02  0.1300439E+00
        -11   -1    0    0    0    0  0.00000000000E+00  0.00000000000E+00  0.45593999997E+02  0.45594000000E+02  0.51100000000E-03 0. -1.
         11   -1    0    0    0    0 -0.00000000000E+00 -0.00000000000E+00 -0.45593999997E+02  0.45594000000E+02  0.51100000000E-03 0.  1.
    9900012    2    1    2    0    0  0.78764939486E+01  0.26180369548E+02  0.30095091906E+02  0.50528862485E+02  0.30000008010E+02 0.  0.
        -12    1    1    2    0    0 -0.78764939486E+01 -0.26180369548E+02 -0.30095091906E+02  0.40659137515E+02  0.00000000000E+00 0.  1.
         11    1    3    3    0    0  0.95331302912E+01  0.72313875897E+01  0.22181166416E+02  0.25202731666E+02  0.51100000000E-03 0. -1.
        -11    1    3    3    0    0 -0.17132012093E+01  0.21290419991E+02  0.57081144853E+01  0.22108813017E+02  0.51100000000E-03 0.  1.
        -12    1    3    3    0    0  0.56564866669E-01 -0.23414380328E+01  0.22058110051E+01  0.32173178015E+01  0.00000000000E+00 0.  1.
</event>
<event>
 7    1  0.9406864E-013  0.5052885E+02  0.7816164E-02  0.1300439E+00
        -11   -1    0    0    0    0  0.00000000000E+00  0.00000000000E+00  0.45593999997E+02  0.45594000000E+02  0.51100000000E-03 0.  1.
         11   -1    0    0    0    0 -0.00000000000E+00 -0.00000000000E+00 -0.45593999997E+02  0.45594000000E+02  0.51100000000E-03 0. -1.
    9900012    2    1    2    0    0  0.26339077987E+02 -0.10246072618E+02 -0.29230764785E+02  0.50528847977E+02  0.29999963911E+02 0.  0.
        -12    1    1    2    0    0 -0.26339077987E+02  0.10246072618E+02  0.29230764785E+02  0.40659152023E+02  0.00000000000E+00 0.  1.
         11    1    3    3    0    0  0.10362173839E+02 -0.36015842266E+01 -0.10316983082E+02  0.15059422160E+02  0.51100000000E-03 0. -1.
        -11    1    3    3    0    0 -0.20830926287E+00 -0.11295454133E+02 -0.17646912578E+01  0.11434369782E+02  0.51100000000E-03 0.  1.
        -12    1    3    3    0    0  0.16185213411E+02  0.46509657423E+01 -0.17149090446E+02  0.24035056035E+02  0.00000000000E+00 0.  1.
</event>
<event>
 7    1  0.9406864E-013  0.5052886E+02  0.7816164E-02  0.1300439E+00
        -11   -1    0    0    0    0  0.00000000000E+00  0.00000000000E+00  0.45593999997E+02  0.45594000000E+02  0.51100000000E-03 0.  1.
         11   -1    0    0    0    0 -0.00000000000E+00 -0.00000000000E+00 -0.45593999997E+02  0.45594000000E+02  0.51100000000E-03 0. -1.
    9900012    2    1    2    0    0 -0.37338315640E+02 -0.57694285495E+01  0.15024293425E+02  0.50528861870E+02  0.30000006139E+02 0.  0.
        -12    1    1    2    0    0  0.37338315640E+02  0.57694285495E+01 -0.15024293425E+02  0.40659138130E+02  0.00000000000E+00 0.  1.
         11    1    3    3    0    0 -0.32932447067E+02 -0.13342921163E+02  0.67666798215E+01  0.36171363965E+02  0.51100000000E-03 0. -1.
        -11    1    3    3    0    0 -0.39832628779E+01  0.37104784419E+01  0.24146396108E+00  0.54490676751E+01  0.51100000000E-03 0.  1.
         12    1    3    3    0    0 -0.42260569437E+00  0.38630141718E+01  0.80161496426E+01  0.89084302297E+01  0.00000000000E+00 0. -1.
</event>
<event>
 7    1  0.9406864E-013  0.5052886E+02  0.7816164E-02  0.1300439E+00
        -11   -1    0    0    0    0  0.00000000000E+00  0.00000000000E+00  0.45593999997E+02  0.45594000000E+02  0.51100000000E-03 0.  1.
         11   -1    0    0    0    0 -0.00000000000E+00 -0.00000000000E+00 -0.45593999997E+02  0.45594000000E+02  0.51100000000E-03 0. -1.
    9900012    2    1    2    0    0  0.18704226585E+02  0.10128784302E+02 -0.34651479138E+02  0.50528863634E+02  0.30000011502E+02 0.  0.
        -12    1    1    2    0    0 -0.18704226585E+02 -0.10128784302E+02  0.34651479138E+02  0.40659136366E+02  0.00000000000E+00 0.  1.
         11    1    3    3    0    0  0.11008452057E+02 -0.57431642450E+01 -0.12831416274E+02  0.17855396834E+02  0.51100000000E-03 0. -1.
        -11    1    3    3    0    0 -0.17947239765E+00  0.15246915509E+02 -0.92722826941E+01  0.17845892230E+02  0.51100000000E-03 0.  1.
        -12    1    3    3    0    0  0.78752469250E+01  0.62503303767E+00 -0.12547780170E+02  0.14827574570E+02  0.00000000000E+00 0.  1.
</event>
<event>
 7    1  0.9406864E-013  0.5052885E+02  0.7816164E-02  0.1300439E+00
        -11   -1    0    0    0    0  0.00000000000E+00  0.00000000000E+00  0.45593999997E+02  0.45594000000E+02  0.51100000000E-03 0.  1.
         11   -1    0    0    0    0 -0.00000000000E+00 -0.00000000000E+00 -0.45593999997E+02  0.45594000000E+02  0.51100000000E-03 0. -1.
    9900012    2    1    2    0    0  0.42448176512E+01 -0.22756403527E+02 -0.33425945689E+02  0.50528853137E+02  0.29999979596E+02 0.  0.
        -12    1    1    2    0    0 -0.42448176512E+01  0.22756403527E+02  0.33425945689E+02  0.40659146863E+02  0.00000000000E+00 0.  1.
         11    1    3    3    0    0 -0.86359214748E-01 -0.28605948731E+01 -0.91899342760E+01  0.96252456176E+01  0.51100000000E-03 0. -1.
        -11    1    3    3    0    0  0.89440605654E+01 -0.81727841862E+01  0.15404898644E+01  0.12213260418E+02  0.51100000000E-03 0.  1.
        -12    1    3    3    0    0 -0.46128836995E+01 -0.11723024468E+02 -0.25776501278E+02  0.28690347102E+02  0.00000000000E+00 0.  1.
</event>
<event>
 7    1  0.9406864E-013  0.5052886E+02  0.7816164E-02  0.1300439E+00
        -11   -1    0    0    0    0  0.00000000000E+00  0.00000000000E+00  0.45593999997E+02  0.45594000000E+02  0.51100000000E-03 0.  1.
         11   -1    0    0    0    0 -0.00000000000E+00 -0.00000000000E+00 -0.45593999997E+02  0.45594000000E+02  0.51100000000E-03 0. -1.
    9900012    2    1    2    0    0  0.42734350429E+01  0.19913452259E+02 -0.35190310401E+02  0.50528858665E+02  0.29999996398E+02 0.  0.
        -12    1    1    2    0    0 -0.42734350429E+01 -0.19913452259E+02  0.35190310401E+02  0.40659141335E+02  0.00000000000E+00 0.  1.
         11    1    3    3    0    0  0.32471397111E+01  0.23575992616E+02 -0.33483786505E+02  0.41079621506E+02  0.51100000000E-03 0. -1.
        -11    1    3    3    0    0  0.30539158533E+01  0.13408774849E+01  0.89953335878E+00  0.34544920022E+01  0.51100000000E-03 0.  1.
         12    1    3    3    0    0 -0.20276205215E+01 -0.50034178412E+01 -0.26060572551E+01  0.59947451564E+01  0.00000000000E+00 0. -1.
</event>
<event>
 7    1  0.9406864E-013  0.5052886E+02  0.7816164E-02  0.1300439E+00
        -11   -1    0    0    0    0  0.00000000000E+00  0.00000000000E+00  0.45593999997E+02  0.45594000000E+02  0.51100000000E-03 0. -1.
         11   -1    0    0    0    0 -0.00000000000E+00 -0.00000000000E+00 -0.45593999997E+02  0.45594000000E+02  0.51100000000E-03 0.  1.
    9900012    2    1    2    0    0 -0.28581535707E+02 -0.26285911337E+02  0.12054558777E+02  0.50528859509E+02  0.29999998963E+02 0.  0.
        -12    1    1    2    0    0  0.28581535707E+02  0.26285911337E+02 -0.12054558777E+02  0.40659140491E+02  0.00000000000E+00 0.  1.
         11    1    3    3    0    0 -0.91927592903E+01 -0.11740910589E+02  0.29399100047E+01  0.15198647174E+02  0.51100000000E-03 0. -1.
        -11    1    3    3    0    0 -0.16401904282E+02 -0.67142906336E+00 -0.29801860416E+01  0.16683968058E+02  0.51100000000E-03 0.  1.
        -12    1    3    3    0    0 -0.29868721344E+01 -0.13873571684E+02  0.12094834814E+02  0.18646244276E+02  0.00000000000E+00 0.  1.
</event>
<event>
 7    1  0.1051919E-012  0.5052887E+02  0.7816164E-02  0.1300439E+00
        -11   -1    0    0    0    0  0.00000000000E+00  0.00000000000E+00  0.45593999997E+02  0.45594000000E+02  0.51100000000E-03 0. -1.
         11   -1    0    0    0    0 -0.00000000000E+00 -0.00000000000E+00 -0.45593999997E+02  0.45594000000E+02  0.51100000000E-03 0.  1.
    9900012    2    1    2    0    0  0.28603797495E+02 -0.25503041747E+02  0.13586105729E+02  0.50528872631E+02  0.30000038850E+02 0.  0.
        -12    1    1    2    0    0 -0.28603797495E+02  0.25503041747E+02 -0.13586105729E+02  0.40659127369E+02  0.00000000000E+00 0.  1.
         11    1    3    3    0    0  0.11059513501E+02 -0.19083181737E+02  0.12293362019E+02  0.25250889372E+02  0.51100000000E-03 0. -1.
        -11    1    3    3    0    0  0.14447915071E+02 -0.67816660981E+01 -0.62313164256E+01  0.17133667139E+02  0.51100000000E-03 0.  1.
         12    1    3    3    0    0  0.30963689236E+01  0.36180608782E+00  0.75240601356E+01  0.81443161211E+01  0.00000000000E+00 0. -1.
</event>
<event>
 7    1  0.9406864E-013  0.5052886E+02  0.7816164E-02  0.1300439E+00
        -11   -1    0    0    0    0  0.00000000000E+00  0.00000000000E+00  0.45593999997E+02  0.45594000000E+02  0.51100000000E-03 0.  1.
         11   -1    0    0    0    0 -0.00000000000E+00 -0.00000000000E+00 -0.45593999997E+02  0.45594000000E+02  0.51100000000E-03 0. -1.
    9900012    2    1    2    0    0 -0.15766106648E+02  0.29365992534E+02 -0.23285924910E+02  0.50528856683E+02  0.29999990373E+02 0.  0.
        -12    1    1    2    0    0  0.15766106648E+02 -0.29365992534E+02  0.23285924910E+02  0.40659143317E+02  0.00000000000E+00 0.  1.
         11    1    3    3    0    0 -0.24182319551E+01  0.23660674177E+02 -0.15628730421E+02  0.28459314172E+02  0.51100000000E-03 0. -1.
        -11    1    3    3    0    0 -0.11626662351E+02  0.37134984388E+01  0.17235811803E+01  0.12326397707E+02  0.51100000000E-03 0.  1.
        -12    1    3    3    0    0 -0.17212123422E+01  0.19918199184E+01 -0.93807756691E+01  0.97431448038E+01  0.00000000000E+00 0.  1.
</event>
<event>
 7    1  0.9406864E-013  0.5052889E+02  0.7816164E-02  0.1300439E+00
        -11   -1    0    0    0    0  0.00000000000E+00  0.00000000000E+00  0.45593999997E+02  0.45594000000E+02  0.51100000000E-03 0.  1.
         11   -1    0    0    0    0 -0.00000000000E+00 -0.00000000000E+00 -0.45593999997E+02  0.45594000000E+02  0.51100000000E-03 0. -1.
    9900012    2    1    2    0    0 -0.93540804459E+01 -0.30276279440E+02 -0.25475694550E+02  0.50528893634E+02  0.30000102689E+02 0.  0.
        -12    1    1    2    0    0  0.93540804459E+01  0.30276279440E+02  0.25475694550E+02  0.40659106366E+02  0.00000000000E+00 0.  1.
         11    1    3    3    0    0 -0.66870358142E+01 -0.22112813454E+02 -0.23254159228E+02  0.32778787172E+02  0.51100000000E-03 0. -1.
        -11    1    3    3    0    0  0.11305012595E+01 -0.25382632366E+00  0.57681668857E+01  0.58833842627E+01  0.51100000000E-03 0.  1.
        -12    1    3    3    0    0 -0.37975458912E+01 -0.79096396624E+01 -0.79897022071E+01  0.11866722199E+02  0.00000000000E+00 0.  1.
</event>
<event>
 7    1  0.9406864E-013  0.5052887E+02  0.7816164E-02  0.1300439E+00
        -11   -1    0    0    0    0  0.00000000000E+00  0.00000000000E+00  0.45593999997E+02  0.45594000000E+02  0.51100000000E-03 0.  1.
         11   -1    0    0    0    0 -0.00000000000E+00 -0.00000000000E+00 -0.45593999997E+02  0.45594000000E+02  0.51100000000E-03 0. -1.
    9900012    2    1    2    0    0 -0.21421806726E+02  0.30349061047E+02 -0.16528936535E+02  0.50528867535E+02  0.30000023359E+02 0.  0.
        -12    1    1    2    0    0  0.21421806726E+02 -0.30349061047E+02  0.16528936535E+02  0.40659132465E+02  0.00000000000E+00 0.  1.
         11    1    3    3    0    0 -0.98846316109E+01  0.15062719984E+02  0.29920370924E+01  0.18263180490E+02  0.51100000000E-03 0.  1.
        -11    1    3    3    0    0 -0.13751918691E+02  0.62957211671E+01 -0.16820889156E+02  0.22620647315E+02  0.51100000000E-03 0. -1.
         12    1    3    3    0    0  0.22147435763E+01  0.89906198963E+01 -0.27000844716E+01  0.96450397295E+01  0.00000000000E+00 0. -1.
</event>
<event>
 7    1  0.9406864E-013  0.5052893E+02  0.7816164E-02  0.1300439E+00
        -11   -1    0    0    0    0  0.00000000000E+00  0.00000000000E+00  0.45593999997E+02  0.45594000000E+02  0.51100000000E-03 0.  1.
         11   -1    0    0    0    0 -0.00000000000E+00 -0.00000000000E+00 -0.45593999997E+02  0.45594000000E+02  0.51100000000E-03 0. -1.
    9900012    2    1    2    0    0 -0.55637899401E+01 -0.66683214413E+01 -0.39720744128E+02  0.50528932334E+02  0.30000220322E+02 0.  0.
        -12    1    1    2    0    0  0.55637899401E+01  0.66683214413E+01  0.39720744128E+02  0.40659067666E+02  0.00000000000E+00 0.  1.
         11    1    3    3    0    0  0.50068446040E+01 -0.10342545764E+02 -0.35728149169E+02  0.37530486129E+02  0.51100000000E-03 0. -1.
        -11    1    3    3    0    0 -0.23243921593E+01  0.12324314644E+01  0.12642415828E+01  0.29189027503E+01  0.51100000000E-03 0.  1.
         12    1    3    3    0    0 -0.82462423848E+01  0.24417928582E+01 -0.52568365420E+01  0.10079543455E+02  0.00000000000E+00 0. -1.
</event>
<event>
 7    1  0.9406864E-013  0.5052886E+02  0.7816164E-02  0.1300439E+00
        -11   -1    0    0    0    0  0.00000000000E+00  0.00000000000E+00  0.45593999997E+02  0.45594000000E+02  0.51100000000E-03 0.  1.
         11   -1    0    0    0    0 -0.00000000000E+00 -0.00000000000E+00 -0.45593999997E+02  0.45594000000E+02  0.51100000000E-03 0. -1.
    9900012    2    1    2    0    0 -0.23670212254E+02 -0.18743256155E+02 -0.27231917202E+02  0.50528856945E+02  0.29999991170E+02 0.  0.
        -12    1    1    2    0    0  0.23670212254E+02  0.18743256155E+02  0.27231917202E+02  0.40659143055E+02  0.00000000000E+00 0.  1.
         11    1    3    3    0    0 -0.85647719446E+01 -0.20023966701E+01 -0.92564794270E+01  0.12768998494E+02  0.51100000000E-03 0. -1.
        -11    1    3    3    0    0 -0.12685769078E+02 -0.22900480427E+02 -0.16605651105E+02  0.31001748173E+02  0.51100000000E-03 0.  1.
        -12    1    3    3    0    0 -0.24196712317E+01  0.61596209418E+01 -0.13697866705E+01  0.67581102787E+01  0.00000000000E+00 0.  1.
</event>
<event>
 7    1  0.9406864E-013  0.5052885E+02  0.7816164E-02  0.1300439E+00
        -11   -1    0    0    0    0  0.00000000000E+00  0.00000000000E+00  0.45593999997E+02  0.45594000000E+02  0.51100000000E-03 0.  1.
         11   -1    0    0    0    0 -0.00000000000E+00 -0.00000000000E+00 -0.45593999997E+02  0.45594000000E+02  0.51100000000E-03 0. -1.
    9900012    2    1    2    0    0  0.26022869669E+02 -0.59512890278E+01 -0.30668538788E+02  0.50528845333E+02  0.29999955873E+02 0.  0.
        -12    1    1    2    0    0 -0.26022869669E+02  0.59512890278E+01  0.30668538788E+02  0.40659154667E+02  0.00000000000E+00 0.  1.
         11    1    3    3    0    0  0.27144406371E+01 -0.41311471577E+01 -0.15659537523E+02  0.16421196074E+02  0.51100000000E-03 0. -1.
        -11    1    3    3    0    0  0.19278320094E+02 -0.52069259064E+01 -0.19941103449E+01  0.20068437393E+02  0.51100000000E-03 0.  1.
        -12    1    3    3    0    0  0.40301089370E+01  0.33867840363E+01 -0.13014890920E+02  0.14039211866E+02  0.00000000000E+00 0.  1.
</event>
<event>
 7    1  0.9406864E-013  0.5052884E+02  0.7816164E-02  0.1300439E+00
        -11   -1    0    0    0    0  0.00000000000E+00  0.00000000000E+00  0.45593999997E+02  0.45594000000E+02  0.51100000000E-03 0.  1.
         11   -1    0    0    0    0 -0.00000000000E+00 -0.00000000000E+00 -0.45593999997E+02  0.45594000000E+02  0.51100000000E-03 0. -1.
    9900012    2    1    2    0    0  0.17328004681E+02 -0.17399637763E+02  0.32406169861E+02  0.50528843767E+02  0.29999951115E+02 0.  0.
        -12    1    1    2    0    0 -0.17328004681E+02  0.17399637763E+02 -0.32406169861E+02  0.40659156233E+02  0.00000000000E+00 0.  1.
         11    1    3    3    0    0  0.59094691374E+01 -0.83277716477E+01  0.34863181617E+01  0.10790181680E+02  0.51100000000E-03 0. -1.
        -11    1    3    3    0    0  0.14673625263E+01 -0.36309107969E+01  0.28095617763E+02  0.28367241737E+02  0.51100000000E-03 0.  1.
        -12    1    3    3    0    0  0.99511730178E+01 -0.54409553183E+01  0.82423393579E+00  0.11371420350E+02  0.00000000000E+00 0.  1.
</event>
<event>
 7    1  0.9406864E-013  0.5052886E+02  0.7816164E-02  0.1300439E+00
        -11   -1    0    0    0    0  0.00000000000E+00  0.00000000000E+00  0.45593999997E+02  0.45594000000E+02  0.51100000000E-03 0. -1.
         11   -1    0    0    0    0 -0.00000000000E+00 -0.00000000000E+00 -0.45593999997E+02  0.45594000000E+02  0.51100000000E-03 0.  1.
    9900012    2    1    2    0    0  0.10633269013E+01  0.30906126340E+02  0.26397840911E+02  0.50528864320E+02  0.30000013589E+02 0.  0.
        -12    1    1    2    0    0 -0.10633269013E+01 -0.30906126340E+02 -0.26397840911E+02  0.40659135680E+02  0.00000000000E+00 0.  1.
         11    1    3    3    0    0 -0.21001428399E+01  0.17535632056E+02  0.24927683872E+02  0.30549933143E+02  0.51100000000E-03 0. -1.
        -11    1    3    3    0    0  0.89076864575E+01  0.69331209191E+01  0.11359598346E+01  0.11344842384E+02  0.51100000000E-03 0.  1.
        -12    1    3    3    0    0 -0.57442167164E+01  0.64373733647E+01  0.33419720382E+00  0.86340887934E+01  0.00000000000E+00 0.  1.
</event>
<event>
 7    1  0.9406864E-013  0.5052885E+02  0.7816164E-02  0.1300439E+00
        -11   -1    0    0    0    0  0.00000000000E+00  0.00000000000E+00  0.45593999997E+02  0.45594000000E+02  0.51100000000E-03 0.  1.
         11   -1    0    0    0    0 -0.00000000000E+00 -0.00000000000E+00 -0.45593999997E+02  0.45594000000E+02  0.51100000000E-03 0. -1.
    9900012    2    1    2    0    0  0.39399842986E+02  0.90509602261E+01 -0.43473112138E+01  0.50528848224E+02  0.29999964662E+02 0.  0.
        -12    1    1    2    0    0 -0.39399842986E+02 -0.90509602261E+01  0.43473112138E+01  0.40659151776E+02  0.00000000000E+00 0.  1.
         11    1    3    3    0    0 -0.29913692128E+01  0.10325392603E+01  0.40382864328E+01  0.51305150488E+01  0.51100000000E-03 0. -1.
        -11    1    3    3    0    0  0.23047886342E+02  0.63935179138E+01  0.78180621410E+00  0.23931012461E+02  0.51100000000E-03 0.  1.
         12    1    3    3    0    0  0.19343325857E+02  0.16249030521E+01 -0.91674038608E+01  0.21467320715E+02  0.00000000000E+00 0. -1.
</event>
<event>
 7    1  0.9406864E-013  0.5052885E+02  0.7816164E-02  0.1300439E+00
        -11   -1    0    0    0    0  0.00000000000E+00  0.00000000000E+00  0.45593999997E+02  0.45594000000E+02  0.51100000000E-03 0.  1.
         11   -1    0    0    0    0 -0.00000000000E+00 -0.00000000000E+00 -0.45593999997E+02  0.45594000000E+02  0.51100000000E-03 0. -1.
    9900012    2    1    2    0    0  0.31017494071E+02  0.26159449068E+02 -0.26009758834E+01  0.50528846178E+02  0.29999958444E+02 0.  0.
        -12    1    1    2    0    0 -0.31017494071E+02 -0.26159449068E+02  0.26009758834E+01  0.40659153822E+02  0.00000000000E+00 0.  1.
         11    1    3    3    0    0  0.16432395242E+02 -0.98590173118E-01 -0.80599398398E+01  0.18302894959E+02  0.51100000000E-03 0. -1.
        -11    1    3    3    0    0 -0.11647939992E+01  0.30580847850E+01  0.23166940658E+01  0.40094512428E+01  0.51100000000E-03 0.  1.
         12    1    3    3    0    0  0.15749892828E+02  0.23199954456E+02  0.31422698906E+01  0.28216499976E+02  0.00000000000E+00 0. -1.
</event>
<event>
 7    1  0.9406864E-013  0.5052885E+02  0.7816164E-02  0.1300439E+00
        -11   -1    0    0    0    0  0.00000000000E+00  0.00000000000E+00  0.45593999997E+02  0.45594000000E+02  0.51100000000E-03 0. -1.
         11   -1    0    0    0    0 -0.00000000000E+00 -0.00000000000E+00 -0.45593999997E+02  0.45594000000E+02  0.51100000000E-03 0.  1.
    9900012    2    1    2    0    0  0.26137255785E+01 -0.31073496275E+02  0.26091623194E+02  0.50528849332E+02  0.29999968029E+02 0.  0.
        -12    1    1    2    0    0 -0.26137255785E+01  0.31073496275E+02 -0.26091623194E+02  0.40659150668E+02  0.00000000000E+00 0.  1.
         11    1    3    3    0    0  0.78862895148E+01 -0.24241190530E+02  0.89139176539E+01  0.27005310753E+02  0.51100000000E-03 0. -1.
        -11    1    3    3    0    0  0.20058181024E+01  0.27324668727E+01  0.69864628665E+01  0.77653296849E+01  0.51100000000E-03 0.  1.
        -12    1    3    3    0    0 -0.72783820387E+01 -0.95647726173E+01  0.10191242674E+02  0.15758208894E+02  0.00000000000E+00 0.  1.
</event>
<event>
 7    1  0.9406864E-013  0.5052885E+02  0.7816164E-02  0.1300439E+00
        -11   -1    0    0    0    0  0.00000000000E+00  0.00000000000E+00  0.45593999997E+02  0.45594000000E+02  0.51100000000E-03 0.  1.
         11   -1    0    0    0    0 -0.00000000000E+00 -0.00000000000E+00 -0.45593999997E+02  0.45594000000E+02  0.51100000000E-03 0. -1.
    9900012    2    1    2    0    0 -0.24481168049E+02 -0.30956751900E+02 -0.97733594874E+01  0.50528848103E+02  0.29999964295E+02 0.  0.
        -12    1    1    2    0    0  0.24481168049E+02  0.30956751900E+02  0.97733594874E+01  0.40659151897E+02  0.00000000000E+00 0.  1.
         11    1    3    3    0    0 -0.82197444275E+01 -0.12250484945E+02 -0.15996746629E+02  0.21760847475E+02  0.51100000000E-03 0. -1.
        -11    1    3    3    0    0 -0.29144954171E+01 -0.13414759770E+02  0.28945346733E+01  0.14029554321E+02  0.51100000000E-03 0.  1.
         12    1    3    3    0    0 -0.13346928205E+02 -0.52915071855E+01  0.33288524683E+01  0.14738446307E+02  0.00000000000E+00 0. -1.
</event>
<event>
 7    1  0.9406864E-013  0.5052886E+02  0.7816164E-02  0.1300439E+00
        -11   -1    0    0    0    0  0.00000000000E+00  0.00000000000E+00  0.45593999997E+02  0.45594000000E+02  0.51100000000E-03 0. -1.
         11   -1    0    0    0    0 -0.00000000000E+00 -0.00000000000E+00 -0.45593999997E+02  0.45594000000E+02  0.51100000000E-03 0.  1.
    9900012    2    1    2    0    0  0.37995596426E+02 -0.11909525663E+02  0.82257995813E+01  0.50528856772E+02  0.29999990645E+02 0.  0.
        -12    1    1    2    0    0 -0.37995596426E+02  0.11909525663E+02 -0.82257995813E+01  0.40659143228E+02  0.00000000000E+00 0.  1.
         11    1    3    3    0    0  0.26952401213E+02 -0.23121375611E+00 -0.46497726245E+01  0.27351522383E+02  0.51100000000E-03 0. -1.
        -11    1    3    3    0    0  0.96941744630E+00 -0.56054376194E+01  0.92667166309E+01  0.10873487870E+02  0.51100000000E-03 0.  1.
         12    1    3    3    0    0  0.10073777766E+02 -0.60728742875E+01  0.36088555749E+01  0.12303846518E+02  0.00000000000E+00 0. -1.
</event>
<event>
 7    1  0.9406864E-013  0.5052886E+02  0.7816164E-02  0.1300439E+00
        -11   -1    0    0    0    0  0.00000000000E+00  0.00000000000E+00  0.45593999997E+02  0.45594000000E+02  0.51100000000E-03 0.  1.
         11   -1    0    0    0    0 -0.00000000000E+00 -0.00000000000E+00 -0.45593999997E+02  0.45594000000E+02  0.51100000000E-03 0. -1.
    9900012    2    1    2    0    0 -0.90015404682E+01 -0.23673750149E+02 -0.31807100351E+02  0.50528858228E+02  0.29999995068E+02 0.  0.
        -12    1    1    2    0    0  0.90015404682E+01  0.23673750149E+02  0.31807100351E+02  0.40659141772E+02  0.00000000000E+00 0.  1.
         11    1    3    3    0    0 -0.69299944686E+01 -0.26486967628E+02 -0.29462344167E+02  0.40219572368E+02  0.51100000000E-03 0. -1.
        -11    1    3    3    0    0  0.12671283904E+01 -0.28221442649E+01  0.56023868497E+00  0.31438798092E+01  0.51100000000E-03 0.  1.
         12    1    3    3    0    0 -0.33386743899E+01  0.56353617438E+01 -0.29049948698E+01  0.71654060498E+01  0.00000000000E+00 0. -1.
</event>
<event>
 7    1  0.9406864E-013  0.5052888E+02  0.7816164E-02  0.1300439E+00
        -11   -1    0    0    0    0  0.00000000000E+00  0.00000000000E+00  0.45593999997E+02  0.45594000000E+02  0.51100000000E-03 0.  1.
         11   -1    0    0    0    0 -0.00000000000E+00 -0.00000000000E+00 -0.45593999997E+02  0.45594000000E+02  0.51100000000E-03 0. -1.
    9900012    2    1    2    0    0  0.23003616615E+02 -0.26783869712E+02 -0.20164878729E+02  0.50528875707E+02  0.30000048198E+02 0.  0.
        -12    1    1    2    0    0 -0.23003616615E+02  0.26783869712E+02  0.20164878729E+02  0.40659124293E+02  0.00000000000E+00 0.  1.
         11    1    3    3    0    0  0.11416080092E+02 -0.14990483398E+02  0.17030355273E+01  0.18919350080E+02  0.51100000000E-03 0. -1.
        -11    1    3    3    0    0  0.99070625410E+01  0.78505915020E+00 -0.11679389928E+02  0.15335395509E+02  0.51100000000E-03 0.  1.
         12    1    3    3    0    0  0.16804739820E+01 -0.12578445464E+02 -0.10188524328E+02  0.16274130118E+02  0.00000000000E+00 0. -1.
</event>
<event>
 7    1  0.9406864E-013  0.5052886E+02  0.7816164E-02  0.1300439E+00
        -11   -1    0    0    0    0  0.00000000000E+00  0.00000000000E+00  0.45593999997E+02  0.45594000000E+02  0.51100000000E-03 0.  1.
         11   -1    0    0    0    0 -0.00000000000E+00 -0.00000000000E+00 -0.45593999997E+02  0.45594000000E+02  0.51100000000E-03 0. -1.
    9900012    2    1    2    0    0  0.14259366243E+02  0.50083704943E+01 -0.37745887674E+02  0.50528864041E+02  0.30000012740E+02 0.  0.
        -12    1    1    2    0    0 -0.14259366243E+02 -0.50083704943E+01  0.37745887674E+02  0.40659135959E+02  0.00000000000E+00 0.  1.
         11    1    3    3    0    0 -0.42515582469E+01  0.84462900580E+01 -0.43830865379E+01  0.10422428274E+02  0.51100000000E-03 0.  1.
        -11    1    3    3    0    0  0.53774688861E+01 -0.26557146734E+01 -0.21736735653E+02  0.22548961598E+02  0.51100000000E-03 0. -1.
        -12    1    3    3    0    0  0.13133455604E+02 -0.78220489034E+00 -0.11626065483E+02  0.17557474169E+02  0.00000000000E+00 0.  1.
</event>
<event>
 7    1  0.9406864E-013  0.5052886E+02  0.7816164E-02  0.1300439E+00
        -11   -1    0    0    0    0  0.00000000000E+00  0.00000000000E+00  0.45593999997E+02  0.45594000000E+02  0.51100000000E-03 0. -1.
         11   -1    0    0    0    0 -0.00000000000E+00 -0.00000000000E+00 -0.45593999997E+02  0.45594000000E+02  0.51100000000E-03 0.  1.
    9900012    2    1    2    0    0 -0.23700458989E+02  0.30176285368E+02  0.13447875352E+02  0.50528864417E+02  0.30000013881E+02 0.  0.
        -12    1    1    2    0    0  0.23700458989E+02 -0.30176285368E+02 -0.13447875352E+02  0.40659135583E+02  0.00000000000E+00 0.  1.
         11    1    3    3    0    0  0.50862230237E+00 -0.19391582382E+01  0.67784168458E+01  0.70686608715E+01  0.51100000000E-03 0. -1.
        -11    1    3    3    0    0 -0.21408947740E+02  0.25505171194E+02 -0.51541303384E+00  0.33303490084E+02  0.51100000000E-03 0.  1.
        -12    1    3    3    0    0 -0.28001335518E+01  0.66102724121E+01  0.71848715403E+01  0.10156713461E+02  0.00000000000E+00 0.  1.
</event>
<event>
 7    1  0.9406864E-013  0.5052886E+02  0.7816164E-02  0.1300439E+00
        -11   -1    0    0    0    0  0.00000000000E+00  0.00000000000E+00  0.45593999997E+02  0.45594000000E+02  0.51100000000E-03 0. -1.
         11   -1    0    0    0    0 -0.00000000000E+00 -0.00000000000E+00 -0.45593999997E+02  0.45594000000E+02  0.51100000000E-03 0.  1.
    9900012    2    1    2    0    0 -0.21658317911E+02 -0.18172425271E+02  0.29220646081E+02  0.50528856718E+02  0.29999990481E+02 0.  0.
        -12    1    1    2    0    0  0.21658317911E+02  0.18172425271E+02 -0.29220646081E+02  0.40659143282E+02  0.00000000000E+00 0.  1.
         11    1    3    3    0    0  0.14888762166E+01 -0.12343916627E+02 -0.35303227367E+00  0.12438394677E+02  0.51100000000E-03 0. -1.
        -11    1    3    3    0    0 -0.15946580216E+02 -0.28022486056E+01  0.19613144711E+02  0.25432684945E+02  0.51100000000E-03 0.  1.
         12    1    3    3    0    0 -0.72006139123E+01 -0.30262600380E+01  0.99605336446E+01  0.12657777096E+02  0.00000000000E+00 0. -1.
</event>
<event>
 7    1  0.9406864E-013  0.5052883E+02  0.7816164E-02  0.1300439E+00
        -11   -1    0    0    0    0  0.00000000000E+00  0.00000000000E+00  0.45593999997E+02  0.45594000000E+02  0.51100000000E-03 0.  1.
         11   -1    0    0    0    0 -0.00000000000E+00 -0.00000000000E+00 -0.45593999997E+02  0.45594000000E+02  0.51100000000E-03 0. -1.
    9900012    2    1    2    0    0  0.15967037671E+02  0.59451765630E+00 -0.37388077494E+02  0.50528830284E+02  0.29999910132E+02 0.  0.
        -12    1    1    2    0    0 -0.15967037671E+02 -0.59451765630E+00  0.37388077494E+02  0.40659169716E+02  0.00000000000E+00 0.  1.
         11    1    3    3    0    0  0.16790400745E+02  0.59392962516E+01 -0.15517887790E+02  0.23621973644E+02  0.51100000000E-03 0. -1.
        -11    1    3    3    0    0 -0.24590381994E+01 -0.56534639114E+01 -0.13396845739E+01  0.63089839184E+01  0.51100000000E-03 0.  1.
        -12    1    3    3    0    0  0.16356751262E+01  0.30868531611E+00 -0.20530505130E+02  0.20597872721E+02  0.00000000000E+00 0.  1.
</event>
<event>
 7    1  0.9406864E-013  0.5052886E+02  0.7816164E-02  0.1300439E+00
        -11   -1    0    0    0    0  0.00000000000E+00  0.00000000000E+00  0.45593999997E+02  0.45594000000E+02  0.51100000000E-03 0. -1.
         11   -1    0    0    0    0 -0.00000000000E+00 -0.00000000000E+00 -0.45593999997E+02  0.45594000000E+02  0.51100000000E-03 0.  1.
    9900012    2    1    2    0    0  0.20225129535E+02 -0.34043013111E+02  0.92294568961E+01  0.50528862270E+02  0.30000007355E+02 0.  0.
        -12    1    1    2    0    0 -0.20225129535E+02  0.34043013111E+02 -0.92294568961E+01  0.40659137730E+02  0.00000000000E+00 0.  1.
         11    1    3    3    0    0  0.25960760387E+01 -0.21285442733E+02  0.61599459149E+01  0.22310414991E+02  0.51100000000E-03 0.  1.
        -11    1    3    3    0    0  0.18083823228E+02 -0.32161036379E+01  0.72120594639E+00  0.18381733417E+02  0.51100000000E-03 0. -1.
         12    1    3    3    0    0 -0.45476973119E+00 -0.95414667402E+01  0.23483050348E+01  0.98367138618E+01  0.00000000000E+00 0. -1.
</event>
<event>
 7    1  0.9406864E-013  0.5052886E+02  0.7816164E-02  0.1300439E+00
        -11   -1    0    0    0    0  0.00000000000E+00  0.00000000000E+00  0.45593999997E+02  0.45594000000E+02  0.51100000000E-03 0.  1.
         11   -1    0    0    0    0 -0.00000000000E+00 -0.00000000000E+00 -0.45593999997E+02  0.45594000000E+02  0.51100000000E-03 0. -1.
    9900012    2    1    2    0    0 -0.27754299497E+02  0.26384040313E+02 -0.13665545138E+02  0.50528857760E+02  0.29999993647E+02 0.  0.
        -12    1    1    2    0    0  0.27754299497E+02 -0.26384040313E+02  0.13665545138E+02  0.40659142240E+02  0.00000000000E+00 0.  1.
         11    1    3    3    0    0 -0.19936973082E+00  0.58567579263E+01 -0.38904179063E+00  0.58730499293E+01  0.51100000000E-03 0.  1.
        -11    1    3    3    0    0 -0.76022984902E+01  0.59097962280E+01 -0.17103053637E+02  0.19627406292E+02  0.51100000000E-03 0. -1.
        -12    1    3    3    0    0 -0.19952631276E+02  0.14617486159E+02  0.38265502901E+01  0.25028401538E+02  0.00000000000E+00 0.  1.
</event>
<event>
 7    1  0.9406864E-013  0.5052887E+02  0.7816164E-02  0.1300439E+00
        -11   -1    0    0    0    0  0.00000000000E+00  0.00000000000E+00  0.45593999997E+02  0.45594000000E+02  0.51100000000E-03 0.  1.
         11   -1    0    0    0    0 -0.00000000000E+00 -0.00000000000E+00 -0.45593999997E+02  0.45594000000E+02  0.51100000000E-03 0. -1.
    9900012    2    1    2    0    0  0.12552659855E+02  0.22157290655E+02 -0.31696217588E+02  0.50528868086E+02  0.30000025035E+02 0.  0.
        -12    1    1    2    0    0 -0.12552659855E+02 -0.22157290655E+02  0.31696217588E+02  0.40659131914E+02  0.00000000000E+00 0.  1.
         11    1    3    3    0    0 -0.65126839875E+00  0.10328536351E+02 -0.62199359587E+01  0.12074370264E+02  0.51100000000E-03 0. -1.
        -11    1    3    3    0    0  0.90056667706E+01  0.40105434883E+01 -0.27618730326E+02  0.29325428524E+02  0.51100000000E-03 0.  1.
        -12    1    3    3    0    0  0.41982614831E+01  0.78182108151E+01  0.21424486963E+01  0.91290692979E+01  0.00000000000E+00 0.  1.
</event>
<event>
 7    1  0.9406864E-013  0.5052886E+02  0.7816164E-02  0.1300439E+00
        -11   -1    0    0    0    0  0.00000000000E+00  0.00000000000E+00  0.45593999997E+02  0.45594000000E+02  0.51100000000E-03 0. -1.
         11   -1    0    0    0    0 -0.00000000000E+00 -0.00000000000E+00 -0.45593999997E+02  0.45594000000E+02  0.51100000000E-03 0.  1.
    9900012    2    1    2    0    0  0.37199023779E+02  0.40993257418E+01 -0.15893190978E+02  0.50528863744E+02  0.30000011835E+02 0.  0.
        -12    1    1    2    0    0 -0.37199023779E+02 -0.40993257418E+01  0.15893190978E+02  0.40659136256E+02  0.00000000000E+00 0.  1.
         11    1    3    3    0    0  0.97411454944E+00 -0.23470960658E+01  0.40568476782E+01  0.47870421393E+01  0.51100000000E-03 0. -1.
        -11    1    3    3    0    0  0.33134229164E+02  0.35177938878E+01 -0.23014453332E+02  0.40495889650E+02  0.51100000000E-03 0.  1.
        -12    1    3    3    0    0  0.30906800660E+01  0.29286279198E+01  0.30644146761E+01  0.52459319544E+01  0.00000000000E+00 0.  1.
</event>
<event>
 7    1  0.9406864E-013  0.5052887E+02  0.7816164E-02  0.1300439E+00
        -11   -1    0    0    0    0  0.00000000000E+00  0.00000000000E+00  0.45593999997E+02  0.45594000000E+02  0.51100000000E-03 0.  1.
         11   -1    0    0    0    0 -0.00000000000E+00 -0.00000000000E+00 -0.45593999997E+02  0.45594000000E+02  0.51100000000E-03 0. -1.
    9900012    2    1    2    0    0 -0.69895072784E+01 -0.36248442273E+02 -0.17040021246E+02  0.50528866914E+02  0.30000021472E+02 0.  0.
        -12    1    1    2    0    0  0.69895072784E+01  0.36248442273E+02  0.17040021246E+02  0.40659133086E+02  0.00000000000E+00 0.  1.
         11    1    3    3    0    0 -0.88942998123E+01 -0.30425830109E+02 -0.17475238256E+02  0.36197011746E+02  0.51100000000E-03 0. -1.
        -11    1    3    3    0    0 -0.24627760591E+01 -0.19867754370E+01  0.56804494169E+01  0.65023110041E+01  0.51100000000E-03 0.  1.
        -12    1    3    3    0    0  0.43675685931E+01 -0.38358367272E+01 -0.52452324072E+01  0.78295441641E+01  0.00000000000E+00 0.  1.
</event>
